Title t= 325.00000 step= 162500
44389
    1GLY      N    1   5.989   4.108   1.100
    1GLY    HT1    2   6.048   4.100   1.185
    1GLY    HT2    3   6.041   4.138   1.015
    1GLY    HT3    4   5.948   4.015   1.077
    1GLY     CA    5   5.866   4.201   1.130
    1GLY    HA1    6   5.799   4.191   1.046
    1GLY    HA2    7   5.912   4.297   1.150
    1GLY      C    8   5.790   4.150   1.254
    1GLY      O    9   5.834   4.045   1.299
    2PRO      N   10   5.686   4.212   1.305
    2PRO     CD   11   5.667   4.354   1.284
    2PRO    HD1   12   5.638   4.376   1.180
    2PRO    HD2   13   5.760   4.406   1.317
    2PRO     CA   14   5.607   4.157   1.415
    2PRO     HA   15   5.681   4.164   1.493
    2PRO     CB   16   5.493   4.252   1.419
    2PRO    HB1   17   5.443   4.254   1.518
    2PRO    HB2   18   5.417   4.222   1.345
    2PRO     CG   19   5.556   4.383   1.382
    2PRO    HG1   20   5.479   4.457   1.352
    2PRO    HG2   21   5.610   4.424   1.470
    2PRO      C   22   5.550   4.017   1.419
    2PRO      O   23   5.484   3.976   1.325
    3GLY      N   24   5.568   3.939   1.527
    3GLY     HN   25   5.639   3.968   1.592
    3GLY     CA   26   5.530   3.803   1.533
    3GLY    HA1   27   5.425   3.805   1.507
    3GLY    HA2   28   5.550   3.773   1.635
    3GLY      C   29   5.600   3.707   1.442
    3GLY      O   30   5.684   3.743   1.354
    4ASP      N   31   5.567   3.575   1.461
    4ASP     HN   32   5.503   3.553   1.534
    4ASP     CA   33   5.627   3.470   1.381
    4ASP     HA   34   5.734   3.479   1.393
    4ASP     CB   35   5.578   3.330   1.427
    4ASP    HB1   36   5.589   3.256   1.346
    4ASP    HB2   37   5.468   3.324   1.440
    4ASP     CG   38   5.643   3.278   1.554
    4ASP    OD1   39   5.743   3.336   1.602
    4ASP    OD2   40   5.587   3.179   1.604
    4ASP      C   41   5.593   3.482   1.230
    4ASP      O   42   5.480   3.532   1.189
    5PRO      N   43   5.686   3.445   1.140
    5PRO     CD   44   5.829   3.433   1.179
    5PRO    HD1   45   5.842   3.339   1.237
    5PRO    HD2   46   5.856   3.523   1.239
    5PRO     CA   47   5.667   3.419   0.999
    5PRO     HA   48   5.657   3.515   0.950
    5PRO     CB   49   5.796   3.359   0.960
    5PRO    HB1   50   5.815   3.360   0.850
    5PRO    HB2   51   5.796   3.250   0.979
    5PRO     CG   52   5.901   3.423   1.046
    5PRO    HG1   53   5.997   3.369   1.060
    5PRO    HG2   54   5.923   3.528   1.017
    5PRO      C   55   5.541   3.342   0.962
    5PRO      O   56   5.509   3.234   1.009
    6GLY      N   57   5.469   3.392   0.865
    6GLY     HN   58   5.495   3.486   0.840
    6GLY     CA   59   5.354   3.327   0.802
    6GLY    HA1   60   5.364   3.221   0.780
    6GLY    HA2   61   5.339   3.383   0.711
    6GLY      C   62   5.226   3.351   0.885
    6GLY      O   63   5.236   3.404   0.997
    7SER      N   64   5.105   3.314   0.833
    7SER     HN   65   5.098   3.270   0.744
    7SER     CA   66   4.974   3.317   0.899
    7SER     HA   67   4.967   3.411   0.950
    7SER     CB   68   4.854   3.330   0.805
    7SER    HB1   69   4.759   3.337   0.861
    7SER    HB2   70   4.841   3.244   0.735
    7SER     OG   71   4.854   3.453   0.731
    7SER    HG1   72   4.812   3.521   0.784
    7SER      C   73   4.956   3.204   1.003
    7SER      O   74   4.997   3.094   0.983
    8GLY      N   75   4.900   3.237   1.124
    8GLY     HN   76   4.899   3.329   1.162
    8GLY     CA   77   4.849   3.142   1.221
    8GLY    HA1   78   4.853   3.184   1.320
    8GLY    HA2   79   4.917   3.058   1.215
    8GLY      C   80   4.713   3.075   1.196
    8GLY      O   81   4.656   3.095   1.085
    9ASN      N   82   4.651   3.000   1.285
    9ASN     HN   83   4.698   2.968   1.367
    9ASN     CA   84   4.511   2.972   1.267
    9ASN     HA   85   4.494   2.943   1.165
    9ASN     CB   86   4.479   2.833   1.334
    9ASN    HB1   87   4.493   2.838   1.444
    9ASN    HB2   88   4.548   2.758   1.290
    9ASN     CG   89   4.339   2.782   1.293
    9ASN    OD1   90   4.286   2.801   1.184
    9ASN    ND2   91   4.267   2.716   1.392
    9ASN   HD21   92   4.178   2.682   1.360
    9ASN   HD22   93   4.312   2.670   1.468
    9ASN      C   94   4.415   3.071   1.321
    9ASN      O   95   4.426   3.112   1.439
   10PRO      N   96   4.319   3.127   1.245
   10PRO     CD   97   4.317   3.121   1.097
   10PRO    HD1   98   4.264   3.034   1.054
   10PRO    HD2   99   4.421   3.122   1.061
   10PRO     CA  100   4.211   3.210   1.300
   10PRO     HA  101   4.262   3.292   1.348
   10PRO     CB  102   4.124   3.252   1.169
   10PRO    HB1  103   4.094   3.354   1.204
   10PRO    HB2  104   4.035   3.191   1.143
   10PRO     CG  105   4.230   3.243   1.057
   10PRO    HG1  106   4.181   3.244   0.957
   10PRO    HG2  107   4.300   3.329   1.061
   10PRO      C  108   4.129   3.143   1.413
   10PRO      O  109   4.086   3.026   1.406
   11GLY      N  110   4.097   3.229   1.512
   11GLY     HN  111   4.139   3.318   1.498
   11GLY     CA  112   4.014   3.202   1.621
   11GLY    HA1  113   4.043   3.267   1.702
   11GLY    HA2  114   4.021   3.097   1.648
   11GLY      C  115   3.869   3.225   1.593
   11GLY      O  116   3.837   3.255   1.479
   12SER      N  117   3.782   3.223   1.691
   12SER     HN  118   3.802   3.214   1.788
   12SER     CA  119   3.637   3.229   1.670
   12SER     HA  120   3.622   3.309   1.599
   12SER     CB  121   3.582   3.105   1.613
   12SER    HB1  122   3.617   3.104   1.508
   12SER    HB2  123   3.471   3.100   1.621
   12SER     OG  124   3.637   2.987   1.666
   12SER    HG1  125   3.726   2.982   1.629
   12SER      C  126   3.557   3.263   1.798
   12SER      O  127   3.434   3.260   1.803
   13GLY      N  128   3.629   3.297   1.899
   13GLY     HN  129   3.727   3.313   1.891
   13GLY     CA  130   3.569   3.317   2.033
   13GLY    HA1  131   3.465   3.344   2.032
   13GLY    HA2  132   3.633   3.387   2.084
   13GLY      C  133   3.569   3.198   2.130
   13GLY      O  134   3.576   3.087   2.080
   14ASP      N  135   3.548   3.228   2.258
   14ASP     HN  136   3.571   3.320   2.287
   14ASP     CA  137   3.508   3.133   2.366
   14ASP     HA  138   3.574   3.047   2.365
   14ASP     CB  139   3.507   3.195   2.504
   14ASP    HB1  140   3.471   3.124   2.581
   14ASP    HB2  141   3.433   3.278   2.499
   14ASP     CG  142   3.643   3.231   2.553
   14ASP    OD1  143   3.746   3.185   2.496
   14ASP    OD2  144   3.646   3.310   2.648
   14ASP      C  145   3.368   3.089   2.330
   14ASP      O  146   3.284   3.169   2.280
   15PRO      N  147   3.327   2.958   2.348
   15PRO     CD  148   3.421   2.844   2.348
   15PRO    HD1  149   3.471   2.834   2.447
   15PRO    HD2  150   3.504   2.858   2.275
   15PRO     CA  151   3.188   2.911   2.323
   15PRO     HA  152   3.162   2.945   2.223
   15PRO     CB  153   3.197   2.756   2.330
   15PRO    HB1  154   3.133   2.721   2.246
   15PRO    HB2  155   3.162   2.717   2.428
   15PRO     CG  156   3.342   2.721   2.310
   15PRO    HG1  157   3.367   2.625   2.360
   15PRO    HG2  158   3.366   2.694   2.204
   15PRO      C  159   3.088   2.973   2.421
   15PRO    OT1  160   3.126   3.053   2.515
   15PRO    OT2  161   2.966   2.957   2.392
   16SOD    SOD  162   4.508   4.947   0.723
   17SOD    SOD  163   0.770   2.399   2.365
   18SOD    SOD  164   3.160   7.001   3.607
   19SOD    SOD  165   7.653   4.715   5.199
   20SOD    SOD  166   2.821   2.214   3.313
   21SOD    SOD  167   6.261   1.278   5.722
   22SOD    SOD  168   4.320   5.185   4.190
   23SOD    SOD  169   5.344   0.356   4.238
   24SOD    SOD  170   6.638   3.336   6.572
   25SOD    SOD  171   4.421   6.467   5.193
   26SOD    SOD  172   2.330   3.515   4.038
   27SOD    SOD  173   0.738   4.431   2.950
   28SOD    SOD  174   7.311   1.556   4.051
   29SOD    SOD  175   3.061   0.038   0.015
   30SOD    SOD  176   2.587   1.408   5.633
   31SOD    SOD  177   2.649   2.129   2.554
   32SOD    SOD  178   6.022   2.145   3.851
   33SOD    SOD  179   6.854   4.273   2.216
   34SOD    SOD  180   0.081   5.875   6.301
   35SOD    SOD  181   7.034   4.589   0.205
   36SOD    SOD  182   0.470   5.700   0.180
   37SOD    SOD  183   1.052   4.310   4.961
   38SOD    SOD  184   5.839   3.122   5.420
   39SOD    SOD  185   4.180   3.534   4.293
   40SOD    SOD  186   6.345   6.980   0.644
   41SOD    SOD  187   4.791   7.731   1.880
   42SOD    SOD  188   7.361   5.592   4.333
   43SOD    SOD  189   6.452   2.816   4.042
   44SOD    SOD  190   7.434   1.930   5.053
   45SOD    SOD  191   2.698   2.706   1.536
   46SOD    SOD  192   1.531   3.856   6.067
   47SOD    SOD  193   4.615   4.513   2.889
   48SOD    SOD  194   2.820   0.311   3.836
   49SOD    SOD  195   8.230   1.598   2.195
   50SOD    SOD  196   5.049   3.973   3.738
   51SOD    SOD  197   5.251   3.742   0.602
   52SOD    SOD  198   3.600   4.891   6.523
   53SOD    SOD  199   6.272   0.921   1.243
   54SOD    SOD  200   1.317   5.375   2.097
   55SOD    SOD  201   1.434   7.318   1.607
   56SOD    SOD  202   2.600   3.304   5.869
   57SOD    SOD  203   6.684   0.373   6.300
   58SOD    SOD  204   4.552   2.883   6.681
   59SOD    SOD  205   2.496   4.319   2.513
   60CLA    CLA  206   8.236   7.776   3.079
   61CLA    CLA  207   3.881   0.300   3.613
   62CLA    CLA  208   1.594   2.311   5.197
   63CLA    CLA  209   2.859   1.772   1.588
   64CLA    CLA  210   0.526   7.167   0.397
   65CLA    CLA  211   0.067   4.284   5.700
   66CLA    CLA  212   0.134   5.709   0.411
   67CLA    CLA  213   5.126   6.931   4.301
   68CLA    CLA  214   4.822   4.193   4.727
   69CLA    CLA  215   2.413   4.577   2.046
   70CLA    CLA  216   0.151   2.685   4.167
   71CLA    CLA  217   3.244   7.103   4.705
   72CLA    CLA  218   6.804   0.882   6.124
   73CLA    CLA  219   7.368   4.538   2.279
   74CLA    CLA  220   7.471   5.078   5.376
   75CLA    CLA  221   7.726   3.641   1.815
   76CLA    CLA  222   3.637   0.287   6.030
   77CLA    CLA  223   6.723   7.234   2.356
   78CLA    CLA  224   2.244   1.316   6.190
   79CLA    CLA  225   3.928   4.232   1.585
   80CLA    CLA  226   8.075   0.505   0.503
   81CLA    CLA  227   5.182   1.002   3.508
   82CLA    CLA  228   0.590   3.119   3.899
   83CLA    CLA  229   7.288   5.430   5.872
   84CLA    CLA  230   6.122   5.087   4.743
   85CLA    CLA  231   5.314   3.798   1.844
   86CLA    CLA  232   7.310   6.781   3.418
   87CLA    CLA  233   0.866   6.801   1.534
   88CLA    CLA  234   7.659   4.915   4.293
   89CLA    CLA  235   3.704   0.138   4.399
   90CLA    CLA  236   5.877   5.597   3.350
   91CLA    CLA  237   5.892   5.539   1.639
   92CLA    CLA  238   1.017   1.762   3.339
   93CLA    CLA  239   6.987   4.542   3.005
   94CLA    CLA  240   1.854   3.447   3.235
   95CLA    CLA  241   3.862   4.072   3.779
   96CLA    CLA  242   2.976   7.429   3.473
   97CLA    CLA  243   8.003   2.213   2.072
   98CLA    CLA  244   6.252   4.072   3.327
   99CLA    CLA  245   3.255   5.758   4.927
  100CLA    CLA  246   3.553   5.774   5.851
  101CLA    CLA  247   5.539   2.627   4.175
  102TIP3   OH2  248   2.002   1.683   4.343
  102TIP3    H1  249   1.974   1.696   4.252
  102TIP3    H2  250   2.097   1.690   4.341
  103TIP3   OH2  251   1.288   4.204   5.847
  103TIP3    H1  252   1.220   4.137   5.851
  103TIP3    H2  253   1.260   4.261   5.776
  104TIP3   OH2  254   5.435   1.307   6.653
  104TIP3    H1  255   5.389   1.281   6.733
  104TIP3    H2  256   5.446   1.401   6.662
  105TIP3   OH2  257   2.310   4.777   4.146
  105TIP3    H1  258   2.404   4.775   4.164
  105TIP3    H2  259   2.270   4.768   4.233
  106TIP3   OH2  260   5.191   3.632   1.153
  106TIP3    H1  261   5.229   3.689   1.087
  106TIP3    H2  262   5.202   3.543   1.118
  107TIP3   OH2  263   6.756   0.707   2.159
  107TIP3    H1  264   6.717   0.791   2.134
  107TIP3    H2  265   6.740   0.650   2.084
  108TIP3   OH2  266   6.978   1.957   5.068
  108TIP3    H1  267   6.933   1.878   5.096
  108TIP3    H2  268   6.925   2.029   5.103
  109TIP3   OH2  269   1.188   2.314   1.311
  109TIP3    H1  270   1.193   2.381   1.243
  109TIP3    H2  271   1.249   2.246   1.282
  110TIP3   OH2  272   7.852   6.915   3.602
  110TIP3    H1  273   7.800   6.926   3.522
  110TIP3    H2  274   7.871   6.822   3.606
  111TIP3   OH2  275   1.654   4.463   1.381
  111TIP3    H1  276   1.669   4.436   1.471
  111TIP3    H2  277   1.562   4.443   1.365
  112TIP3   OH2  278   3.909   0.642   3.259
  112TIP3    H1  279   3.930   0.577   3.326
  112TIP3    H2  280   3.929   0.598   3.176
  113TIP3   OH2  281   5.962   7.053   3.831
  113TIP3    H1  282   6.004   7.070   3.747
  113TIP3    H2  283   5.946   6.958   3.831
  114TIP3   OH2  284   6.654   3.150   6.259
  114TIP3    H1  285   6.576   3.172   6.208
  114TIP3    H2  286   6.697   3.080   6.210
  115TIP3   OH2  287   8.251   2.251   6.111
  115TIP3    H1  288   8.285   2.337   6.135
  115TIP3    H2  289   8.156   2.263   6.105
  116TIP3   OH2  290   6.782   4.912   4.131
  116TIP3    H1  291   6.825   4.989   4.095
  116TIP3    H2  292   6.831   4.838   4.096
  117TIP3   OH2  293   4.092   0.083   2.787
  117TIP3    H1  294   4.090   0.032   2.868
  117TIP3    H2  295   4.038   0.033   2.726
  118TIP3   OH2  296   1.589   7.748   4.222
  118TIP3    H1  297   1.498   7.740   4.249
  118TIP3    H2  298   1.587   7.807   4.147
  119TIP3   OH2  299   1.131   7.175   5.195
  119TIP3    H1  300   1.095   7.200   5.111
  119TIP3    H2  301   1.094   7.088   5.213
  120TIP3   OH2  302   2.768   4.448   3.430
  120TIP3    H1  303   2.675   4.436   3.446
  120TIP3    H2  304   2.812   4.399   3.500
  121TIP3   OH2  305   1.535   6.576   0.345
  121TIP3    H1  306   1.626   6.561   0.373
  121TIP3    H2  307   1.539   6.575   0.250
  122TIP3   OH2  308   5.804   3.196   6.538
  122TIP3    H1  309   5.780   3.109   6.570
  122TIP3    H2  310   5.770   3.199   6.449
  123TIP3   OH2  311   3.501   1.032   0.053
  123TIP3    H1  312   3.578   1.003   0.102
  123TIP3    H2  313   3.457   0.951   0.029
  124TIP3   OH2  314   5.836   0.227   6.447
  124TIP3    H1  315   5.832   0.280   6.367
  124TIP3    H2  316   5.897   0.275   6.504
  125TIP3   OH2  317   2.199   3.911   2.401
  125TIP3    H1  318   2.152   3.828   2.392
  125TIP3    H2  319   2.133   3.972   2.436
  126TIP3   OH2  320   5.782   7.753   4.842
  126TIP3    H1  321   5.697   7.713   4.864
  126TIP3    H2  322   5.809   7.797   4.923
  127TIP3   OH2  323   7.303   4.696   0.799
  127TIP3    H1  324   7.216   4.724   0.770
  127TIP3    H2  325   7.316   4.610   0.758
  128TIP3   OH2  326   2.501   7.423   2.965
  128TIP3    H1  327   2.506   7.435   2.870
  128TIP3    H2  328   2.560   7.349   2.982
  129TIP3   OH2  329   6.494   1.882   0.110
  129TIP3    H1  330   6.577   1.842   0.138
  129TIP3    H2  331   6.508   1.976   0.123
  130TIP3   OH2  332   3.213   0.554   0.178
  130TIP3    H1  333   3.145   0.525   0.117
  130TIP3    H2  334   3.259   0.473   0.202
  131TIP3   OH2  335   6.904   0.302   6.229
  131TIP3    H1  336   6.990   0.301   6.271
  131TIP3    H2  337   6.924   0.291   6.136
  132TIP3   OH2  338   6.047   1.844   6.709
  132TIP3    H1  339   6.102   1.920   6.689
  132TIP3    H2  340   6.097   1.769   6.678
  133TIP3   OH2  341   0.857   5.323   0.384
  133TIP3    H1  342   0.883   5.362   0.468
  133TIP3    H2  343   0.869   5.393   0.320
  134TIP3   OH2  344   3.154   1.226   3.941
  134TIP3    H1  345   3.186   1.258   3.856
  134TIP3    H2  346   3.233   1.193   3.985
  135TIP3   OH2  347   0.586   2.765   5.817
  135TIP3    H1  348   0.676   2.757   5.847
  135TIP3    H2  349   0.592   2.817   5.737
  136TIP3   OH2  350   7.792   5.994   0.792
  136TIP3    H1  351   7.826   6.080   0.766
  136TIP3    H2  352   7.820   5.984   0.883
  137TIP3   OH2  353   4.964   4.828   5.539
  137TIP3    H1  354   4.934   4.891   5.474
  137TIP3    H2  355   4.986   4.750   5.489
  138TIP3   OH2  356   3.058   0.924   5.376
  138TIP3    H1  357   3.053   0.829   5.385
  138TIP3    H2  358   3.025   0.942   5.288
  139TIP3   OH2  359   6.155   3.486   2.250
  139TIP3    H1  360   6.195   3.538   2.181
  139TIP3    H2  361   6.072   3.457   2.213
  140TIP3   OH2  362   8.102   4.615   1.226
  140TIP3    H1  363   8.008   4.628   1.220
  140TIP3    H2  364   8.113   4.520   1.231
  141TIP3   OH2  365   6.139   0.498   0.554
  141TIP3    H1  366   6.212   0.466   0.607
  141TIP3    H2  367   6.067   0.438   0.574
  142TIP3   OH2  368   2.440   2.961   2.314
  142TIP3    H1  369   2.480   2.911   2.386
  142TIP3    H2  370   2.473   2.919   2.235
  143TIP3   OH2  371   7.482   1.458   4.863
  143TIP3    H1  372   7.419   1.422   4.801
  143TIP3    H2  373   7.460   1.416   4.947
  144TIP3   OH2  374   3.631   1.229   4.492
  144TIP3    H1  375   3.621   1.140   4.459
  144TIP3    H2  376   3.678   1.218   4.575
  145TIP3   OH2  377   4.038   1.229   6.578
  145TIP3    H1  378   4.010   1.200   6.491
  145TIP3    H2  379   3.957   1.249   6.624
  146TIP3   OH2  380   6.471   7.284   3.555
  146TIP3    H1  381   6.553   7.240   3.534
  146TIP3    H2  382   6.405   7.240   3.502
  147TIP3   OH2  383   7.627   1.133   5.031
  147TIP3    H1  384   7.556   1.072   5.053
  147TIP3    H2  385   7.588   1.220   5.037
  148TIP3   OH2  386   0.375   1.503   3.142
  148TIP3    H1  387   0.414   1.517   3.228
  148TIP3    H2  388   0.422   1.427   3.107
  149TIP3   OH2  389   3.888   0.762   0.545
  149TIP3    H1  390   3.816   0.798   0.596
  149TIP3    H2  391   3.965   0.810   0.575
  150TIP3   OH2  392   2.878   2.225   5.096
  150TIP3    H1  393   2.961   2.202   5.136
  150TIP3    H2  394   2.859   2.153   5.036
  151TIP3   OH2  395   6.761   1.254   2.193
  151TIP3    H1  396   6.791   1.316   2.260
  151TIP3    H2  397   6.666   1.250   2.207
  152TIP3   OH2  398   5.776   1.780   3.880
  152TIP3    H1  399   5.811   1.782   3.791
  152TIP3    H2  400   5.785   1.870   3.912
  153TIP3   OH2  401   1.940   4.963   4.512
  153TIP3    H1  402   1.969   4.882   4.555
  153TIP3    H2  403   1.980   4.960   4.425
  154TIP3   OH2  404   3.042   5.027   6.003
  154TIP3    H1  405   3.003   5.036   6.090
  154TIP3    H2  406   3.047   5.117   5.970
  155TIP3   OH2  407   2.786   5.948   4.776
  155TIP3    H1  408   2.862   5.960   4.833
  155TIP3    H2  409   2.804   5.867   4.728
  156TIP3   OH2  410   7.147   2.138   0.569
  156TIP3    H1  411   7.072   2.100   0.617
  156TIP3    H2  412   7.130   2.117   0.478
  157TIP3   OH2  413   3.487   0.236   1.642
  157TIP3    H1  414   3.391   0.231   1.646
  157TIP3    H2  415   3.516   0.200   1.726
  158TIP3   OH2  416   0.727   4.782   6.293
  158TIP3    H1  417   0.741   4.794   6.199
  158TIP3    H2  418   0.805   4.734   6.322
  159TIP3   OH2  419   7.448   0.604   2.360
  159TIP3    H1  420   7.383   0.640   2.300
  159TIP3    H2  421   7.532   0.618   2.317
  160TIP3   OH2  422   3.706   5.538   0.788
  160TIP3    H1  423   3.730   5.459   0.836
  160TIP3    H2  424   3.693   5.509   0.698
  161TIP3   OH2  425   5.812   5.561   6.531
  161TIP3    H1  426   5.743   5.496   6.543
  161TIP3    H2  427   5.775   5.641   6.568
  162TIP3   OH2  428   4.502   5.221   6.693
  162TIP3    H1  429   4.552   5.228   6.612
  162TIP3    H2  430   4.474   5.311   6.712
  163TIP3   OH2  431   6.634   5.761   2.865
  163TIP3    H1  432   6.602   5.811   2.790
  163TIP3    H2  433   6.689   5.824   2.913
  164TIP3   OH2  434   2.237   5.053   4.840
  164TIP3    H1  435   2.205   5.111   4.771
  164TIP3    H2  436   2.303   5.104   4.887
  165TIP3   OH2  437   6.170   3.128   1.893
  165TIP3    H1  438   6.082   3.145   1.861
  165TIP3    H2  439   6.226   3.133   1.816
  166TIP3   OH2  440   7.803   5.900   4.330
  166TIP3    H1  441   7.799   5.968   4.397
  166TIP3    H2  442   7.739   5.926   4.264
  167TIP3   OH2  443   2.865   2.891   3.943
  167TIP3    H1  444   2.945   2.923   3.983
  167TIP3    H2  445   2.878   2.796   3.935
  168TIP3   OH2  446   2.052   1.272   2.749
  168TIP3    H1  447   2.007   1.188   2.739
  168TIP3    H2  448   2.103   1.281   2.668
  169TIP3   OH2  449   4.968   7.384   0.708
  169TIP3    H1  450   4.962   7.291   0.729
  169TIP3    H2  451   4.923   7.428   0.780
  170TIP3   OH2  452   3.897   2.526   3.135
  170TIP3    H1  453   3.806   2.551   3.149
  170TIP3    H2  454   3.911   2.540   3.041
  171TIP3   OH2  455   5.670   0.606   6.655
  171TIP3    H1  456   5.670   0.569   6.566
  171TIP3    H2  457   5.673   0.701   6.641
  172TIP3   OH2  458   4.523   3.013   3.758
  172TIP3    H1  459   4.608   2.976   3.783
  172TIP3    H2  460   4.484   2.946   3.701
  173TIP3   OH2  461   7.032   5.099   1.481
  173TIP3    H1  462   7.053   5.015   1.521
  173TIP3    H2  463   7.060   5.164   1.545
  174TIP3   OH2  464   5.821   6.145   0.412
  174TIP3    H1  465   5.911   6.130   0.441
  174TIP3    H2  466   5.828   6.220   0.352
  175TIP3   OH2  467   7.267   7.724   4.914
  175TIP3    H1  468   7.334   7.793   4.918
  175TIP3    H2  469   7.317   7.643   4.909
  176TIP3   OH2  470   8.229   0.754   0.695
  176TIP3    H1  471   8.187   0.682   0.648
  176TIP3    H2  472   8.315   0.720   0.719
  177TIP3   OH2  473   3.064   3.456   5.168
  177TIP3    H1  474   3.104   3.398   5.232
  177TIP3    H2  475   3.126   3.528   5.158
  178TIP3   OH2  476   6.821   3.411   2.878
  178TIP3    H1  477   6.827   3.388   2.785
  178TIP3    H2  478   6.802   3.505   2.878
  179TIP3   OH2  479   5.357   7.530   1.468
  179TIP3    H1  480   5.378   7.623   1.475
  179TIP3    H2  481   5.307   7.524   1.387
  180TIP3   OH2  482   6.346   6.742   4.643
  180TIP3    H1  483   6.259   6.756   4.682
  180TIP3    H2  484   6.403   6.804   4.689
  181TIP3   OH2  485   4.585   4.257   1.422
  181TIP3    H1  486   4.545   4.170   1.420
  181TIP3    H2  487   4.522   4.311   1.469
  182TIP3   OH2  488   6.955   4.575   6.707
  182TIP3    H1  489   6.910   4.502   6.664
  182TIP3    H2  490   6.953   4.554   6.800
  183TIP3   OH2  491   0.807   1.696   2.182
  183TIP3    H1  492   0.835   1.727   2.096
  183TIP3    H2  493   0.722   1.654   2.166
  184TIP3   OH2  494   2.409   4.607   1.634
  184TIP3    H1  495   2.386   4.530   1.583
  184TIP3    H2  496   2.503   4.620   1.617
  185TIP3   OH2  497   4.684   2.150   0.412
  185TIP3    H1  498   4.704   2.113   0.498
  185TIP3    H2  499   4.601   2.196   0.424
  186TIP3   OH2  500   4.734   6.252   2.352
  186TIP3    H1  501   4.651   6.232   2.396
  186TIP3    H2  502   4.789   6.176   2.370
  187TIP3   OH2  503   3.341   0.197   2.288
  187TIP3    H1  504   3.405   0.142   2.243
  187TIP3    H2  505   3.256   0.167   2.255
  188TIP3   OH2  506   3.808   4.206   4.500
  188TIP3    H1  507   3.779   4.268   4.432
  188TIP3    H2  508   3.902   4.200   4.488
  189TIP3   OH2  509   3.296   5.673   3.878
  189TIP3    H1  510   3.230   5.738   3.900
  189TIP3    H2  511   3.361   5.679   3.949
  190TIP3   OH2  512   5.764   7.084   5.975
  190TIP3    H1  513   5.849   7.125   5.988
  190TIP3    H2  514   5.784   7.000   5.933
  191TIP3   OH2  515   4.060   0.039   0.606
  191TIP3    H1  516   4.072   0.124   0.648
  191TIP3    H2  517   4.118   0.042   0.530
  192TIP3   OH2  518   2.841   2.567   1.932
  192TIP3    H1  519   2.792   2.519   1.999
  192TIP3    H2  520   2.830   2.515   1.852
  193TIP3   OH2  521   4.616   5.018   3.373
  193TIP3    H1  522   4.650   4.931   3.393
  193TIP3    H2  523   4.571   5.008   3.290
  194TIP3   OH2  524   6.001   5.248   2.872
  194TIP3    H1  525   5.959   5.163   2.885
  194TIP3    H2  526   6.071   5.231   2.809
  195TIP3   OH2  527   2.725   3.249   0.079
  195TIP3    H1  528   2.770   3.201   0.148
  195TIP3    H2  529   2.722   3.188   0.005
  196TIP3   OH2  530   6.566   5.229   1.797
  196TIP3    H1  531   6.489   5.284   1.806
  196TIP3    H2  532   6.544   5.149   1.845
  197TIP3   OH2  533   5.518   0.178   4.208
  197TIP3    H1  534   5.470   0.100   4.180
  197TIP3    H2  535   5.549   0.157   4.296
  198TIP3   OH2  536   4.135   7.779   1.758
  198TIP3    H1  537   4.213   7.742   1.797
  198TIP3    H2  538   4.104   7.843   1.821
  199TIP3   OH2  539   6.886   5.848   0.230
  199TIP3    H1  540   6.941   5.926   0.237
  199TIP3    H2  541   6.803   5.881   0.195
  200TIP3   OH2  542   6.931   1.370   0.988
  200TIP3    H1  543   6.861   1.317   1.026
  200TIP3    H2  544   7.011   1.337   1.028
  201TIP3   OH2  545   4.351   5.324   1.819
  201TIP3    H1  546   4.385   5.247   1.865
  201TIP3    H2  547   4.393   5.398   1.862
  202TIP3   OH2  548   6.046   3.326   6.534
  202TIP3    H1  549   5.957   3.289   6.530
  202TIP3    H2  550   6.099   3.257   6.573
  203TIP3   OH2  551   5.531   4.548   2.089
  203TIP3    H1  552   5.561   4.593   2.009
  203TIP3    H2  553   5.530   4.617   2.155
  204TIP3   OH2  554   0.644   5.687   5.499
  204TIP3    H1  555   0.592   5.631   5.442
  204TIP3    H2  556   0.580   5.733   5.554
  205TIP3   OH2  557   3.455   6.810   3.828
  205TIP3    H1  558   3.504   6.787   3.749
  205TIP3    H2  559   3.398   6.882   3.801
  206TIP3   OH2  560   7.495   6.265   4.903
  206TIP3    H1  561   7.462   6.183   4.867
  206TIP3    H2  562   7.487   6.253   4.998
  207TIP3   OH2  563   6.293   1.613   5.292
  207TIP3    H1  564   6.248   1.530   5.275
  207TIP3    H2  565   6.383   1.588   5.313
  208TIP3   OH2  566   7.042   6.730   2.290
  208TIP3    H1  567   7.060   6.729   2.383
  208TIP3    H2  568   7.072   6.645   2.258
  209TIP3   OH2  569   2.056   4.170   3.956
  209TIP3    H1  570   2.043   4.086   3.912
  209TIP3    H2  571   2.109   4.221   3.894
  210TIP3   OH2  572   2.687   6.650   0.404
  210TIP3    H1  573   2.709   6.584   0.470
  210TIP3    H2  574   2.617   6.611   0.352
  211TIP3   OH2  575   3.298   6.805   1.531
  211TIP3    H1  576   3.322   6.883   1.580
  211TIP3    H2  577   3.202   6.810   1.523
  212TIP3   OH2  578   5.310   4.473   3.539
  212TIP3    H1  579   5.281   4.403   3.597
  212TIP3    H2  580   5.377   4.519   3.589
  213TIP3   OH2  581   5.623   1.366   1.739
  213TIP3    H1  582   5.647   1.425   1.811
  213TIP3    H2  583   5.533   1.388   1.718
  214TIP3   OH2  584   3.886   6.771   0.312
  214TIP3    H1  585   3.976   6.803   0.300
  214TIP3    H2  586   3.891   6.678   0.293
  215TIP3   OH2  587   7.365   2.514   1.365
  215TIP3    H1  588   7.314   2.487   1.289
  215TIP3    H2  589   7.328   2.464   1.438
  216TIP3   OH2  590   6.363   3.167   3.738
  216TIP3    H1  591   6.359   3.256   3.704
  216TIP3    H2  592   6.449   3.135   3.712
  217TIP3   OH2  593   1.928   6.882   2.342
  217TIP3    H1  594   2.013   6.915   2.316
  217TIP3    H2  595   1.945   6.831   2.421
  218TIP3   OH2  596   7.648   1.209   0.578
  218TIP3    H1  597   7.596   1.289   0.571
  218TIP3    H2  598   7.591   1.140   0.544
  219TIP3   OH2  599   7.168   6.078   2.267
  219TIP3    H1  600   7.229   6.037   2.206
  219TIP3    H2  601   7.215   6.156   2.297
  220TIP3   OH2  602   6.841   2.995   4.529
  220TIP3    H1  603   6.842   2.900   4.514
  220TIP3    H2  604   6.933   3.020   4.532
  221TIP3   OH2  605   3.208   3.026   2.959
  221TIP3    H1  606   3.222   2.933   2.978
  221TIP3    H2  607   3.253   3.072   3.030
  222TIP3   OH2  608   2.501   3.079   0.946
  222TIP3    H1  609   2.429   3.120   0.898
  222TIP3    H2  610   2.501   2.989   0.916
  223TIP3   OH2  611   4.744   4.272   3.531
  223TIP3    H1  612   4.823   4.301   3.485
  223TIP3    H2  613   4.675   4.332   3.500
  224TIP3   OH2  614   2.800   7.249   2.693
  224TIP3    H1  615   2.856   7.259   2.771
  224TIP3    H2  616   2.771   7.158   2.697
  225TIP3   OH2  617   2.770   5.243   5.410
  225TIP3    H1  618   2.738   5.331   5.432
  225TIP3    H2  619   2.834   5.258   5.340
  226TIP3   OH2  620   1.710   6.529   5.885
  226TIP3    H1  621   1.744   6.495   5.968
  226TIP3    H2  622   1.664   6.609   5.910
  227TIP3   OH2  623   7.528   1.921   1.354
  227TIP3    H1  624   7.606   1.907   1.301
  227TIP3    H2  625   7.545   1.873   1.435
  228TIP3   OH2  626   7.675   5.139   0.904
  228TIP3    H1  627   7.756   5.168   0.863
  228TIP3    H2  628   7.700   5.067   0.961
  229TIP3   OH2  629   6.205   7.103   1.406
  229TIP3    H1  630   6.218   7.014   1.439
  229TIP3    H2  631   6.128   7.135   1.453
  230TIP3   OH2  632   1.798   5.070   3.606
  230TIP3    H1  633   1.798   5.131   3.532
  230TIP3    H2  634   1.706   5.046   3.616
  231TIP3   OH2  635   2.381   5.265   3.972
  231TIP3    H1  636   2.431   5.287   3.894
  231TIP3    H2  637   2.418   5.181   4.001
  232TIP3   OH2  638   5.669   1.430   4.754
  232TIP3    H1  639   5.618   1.426   4.835
  232TIP3    H2  640   5.759   1.415   4.782
  233TIP3   OH2  641   1.587   5.045   2.328
  233TIP3    H1  642   1.587   5.088   2.413
  233TIP3    H2  643   1.529   5.099   2.274
  234TIP3   OH2  644   0.106   2.880   0.064
  234TIP3    H1  645   0.180   2.820   0.066
  234TIP3    H2  646   0.144   2.965   0.043
  235TIP3   OH2  647   0.530   4.782   4.160
  235TIP3    H1  648   0.557   4.707   4.106
  235TIP3    H2  649   0.570   4.858   4.118
  236TIP3   OH2  650   7.083   1.133   4.296
  236TIP3    H1  651   6.999   1.168   4.326
  236TIP3    H2  652   7.065   1.099   4.208
  237TIP3   OH2  653   3.565   7.217   3.068
  237TIP3    H1  654   3.660   7.213   3.063
  237TIP3    H2  655   3.537   7.231   2.978
  238TIP3   OH2  656   7.627   5.306   4.037
  238TIP3    H1  657   7.679   5.249   4.093
  238TIP3    H2  658   7.662   5.291   3.949
  239TIP3   OH2  659   1.355   5.273   1.136
  239TIP3    H1  660   1.288   5.306   1.076
  239TIP3    H2  661   1.360   5.339   1.205
  240TIP3   OH2  662   5.006   4.792   6.070
  240TIP3    H1  663   5.007   4.763   5.979
  240TIP3    H2  664   5.098   4.792   6.097
  241TIP3   OH2  665   6.619   6.860   6.522
  241TIP3    H1  666   6.693   6.919   6.534
  241TIP3    H2  667   6.602   6.862   6.428
  242TIP3   OH2  668   3.998   6.051   2.029
  242TIP3    H1  669   3.906   6.027   2.021
  242TIP3    H2  670   4.010   6.071   2.121
  243TIP3   OH2  671   0.526   2.338   2.958
  243TIP3    H1  672   0.566   2.413   3.002
  243TIP3    H2  673   0.586   2.265   2.974
  244TIP3   OH2  674   0.085   1.462   4.186
  244TIP3    H1  675   0.041   1.471   4.102
  244TIP3    H2  676   0.058   1.376   4.218
  245TIP3   OH2  677   6.190   3.742   0.858
  245TIP3    H1  678   6.203   3.648   0.873
  245TIP3    H2  679   6.175   3.777   0.946
  246TIP3   OH2  680   6.617   7.194   0.366
  246TIP3    H1  681   6.652   7.196   0.455
  246TIP3    H2  682   6.677   7.250   0.315
  247TIP3   OH2  683   6.921   2.388   3.783
  247TIP3    H1  684   6.924   2.358   3.692
  247TIP3    H2  685   7.003   2.436   3.794
  248TIP3   OH2  686   5.116   6.186   1.268
  248TIP3    H1  687   5.070   6.269   1.282
  248TIP3    H2  688   5.205   6.202   1.298
  249TIP3   OH2  689   4.059   2.262   1.750
  249TIP3    H1  690   4.117   2.265   1.673
  249TIP3    H2  691   4.115   2.290   1.823
  250TIP3   OH2  692   6.756   0.375   4.940
  250TIP3    H1  693   6.821   0.352   5.007
  250TIP3    H2  694   6.688   0.308   4.949
  251TIP3   OH2  695   4.199   6.040   5.578
  251TIP3    H1  696   4.224   6.070   5.666
  251TIP3    H2  697   4.229   5.949   5.574
  252TIP3   OH2  698   0.480   0.891   1.827
  252TIP3    H1  699   0.572   0.918   1.833
  252TIP3    H2  700   0.474   0.814   1.884
  253TIP3   OH2  701   0.360   0.354   3.838
  253TIP3    H1  702   0.267   0.346   3.857
  253TIP3    H2  703   0.366   0.341   3.743
  254TIP3   OH2  704   4.603   4.466   2.652
  254TIP3    H1  705   4.513   4.465   2.622
  254TIP3    H2  706   4.655   4.479   2.573
  255TIP3   OH2  707   7.519   1.284   4.281
  255TIP3    H1  708   7.598   1.233   4.263
  255TIP3    H2  709   7.548   1.375   4.281
  256TIP3   OH2  710   5.660   5.068   6.582
  256TIP3    H1  711   5.627   5.051   6.494
  256TIP3    H2  712   5.718   5.144   6.571
  257TIP3   OH2  713   5.830   2.722   4.966
  257TIP3    H1  714   5.772   2.676   5.027
  257TIP3    H2  715   5.779   2.799   4.938
  258TIP3   OH2  716   5.024   5.875   1.801
  258TIP3    H1  717   5.041   5.809   1.869
  258TIP3    H2  718   5.095   5.938   1.810
  259TIP3   OH2  719   5.024   1.090   2.420
  259TIP3    H1  720   5.074   1.015   2.451
  259TIP3    H2  721   4.960   1.053   2.359
  260TIP3   OH2  722   3.661   4.106   2.963
  260TIP3    H1  723   3.707   4.099   2.880
  260TIP3    H2  724   3.573   4.136   2.939
  261TIP3   OH2  725   3.807   2.162   4.401
  261TIP3    H1  726   3.795   2.230   4.335
  261TIP3    H2  727   3.842   2.087   4.353
  262TIP3   OH2  728   5.589   5.844   2.684
  262TIP3    H1  729   5.617   5.764   2.729
  262TIP3    H2  730   5.623   5.834   2.594
  263TIP3   OH2  731   7.469   3.133   4.006
  263TIP3    H1  732   7.527   3.121   4.082
  263TIP3    H2  733   7.528   3.134   3.931
  264TIP3   OH2  734   7.498   0.956   2.976
  264TIP3    H1  735   7.446   0.962   2.895
  264TIP3    H2  736   7.468   1.030   3.029
  265TIP3   OH2  737   3.251   5.960   5.387
  265TIP3    H1  738   3.299   5.971   5.304
  265TIP3    H2  739   3.169   6.007   5.373
  266TIP3   OH2  740   4.990   2.205   5.861
  266TIP3    H1  741   4.932   2.192   5.787
  266TIP3    H2  742   5.027   2.292   5.848
  267TIP3   OH2  743   0.197   0.554   1.905
  267TIP3    H1  744   0.187   0.478   1.847
  267TIP3    H2  745   0.176   0.521   1.992
  268TIP3   OH2  746   7.544   4.511   4.962
  268TIP3    H1  747   7.592   4.582   4.919
  268TIP3    H2  748   7.458   4.549   4.982
  269TIP3   OH2  749   0.432   3.353   5.993
  269TIP3    H1  750   0.403   3.374   6.082
  269TIP3    H2  751   0.359   3.305   5.954
  270TIP3   OH2  752   1.440   6.705   4.370
  270TIP3    H1  753   1.408   6.794   4.384
  270TIP3    H2  754   1.361   6.650   4.377
  271TIP3   OH2  755   3.115   2.519   3.777
  271TIP3    H1  756   3.202   2.558   3.783
  271TIP3    H2  757   3.066   2.577   3.720
  272TIP3   OH2  758   5.426   7.697   5.449
  272TIP3    H1  759   5.361   7.753   5.493
  272TIP3    H2  760   5.499   7.755   5.432
  273TIP3   OH2  761   6.285   7.511   3.128
  273TIP3    H1  762   6.267   7.558   3.046
  273TIP3    H2  763   6.198   7.501   3.168
  274TIP3   OH2  764   1.843   7.325   5.655
  274TIP3    H1  765   1.838   7.276   5.573
  274TIP3    H2  766   1.925   7.296   5.696
  275TIP3   OH2  767   2.146   3.075   5.842
  275TIP3    H1  768   2.161   2.995   5.791
  275TIP3    H2  769   2.178   3.054   5.930
  276TIP3   OH2  770   1.234   6.437   3.629
  276TIP3    H1  771   1.207   6.494   3.701
  276TIP3    H2  772   1.165   6.371   3.624
  277TIP3   OH2  773   8.217   7.491   0.659
  277TIP3    H1  774   8.142   7.498   0.719
  277TIP3    H2  775   8.265   7.414   0.690
  278TIP3   OH2  776   6.977   5.904   0.913
  278TIP3    H1  777   6.980   5.829   0.972
  278TIP3    H2  778   6.888   5.939   0.923
  279TIP3   OH2  779   7.047   1.033   0.465
  279TIP3    H1  780   7.016   1.058   0.553
  279TIP3    H2  781   7.051   0.937   0.468
  280TIP3   OH2  782   3.553   0.287   6.492
  280TIP3    H1  783   3.536   0.223   6.422
  280TIP3    H2  784   3.478   0.277   6.551
  281TIP3   OH2  785   2.266   3.607   3.337
  281TIP3    H1  786   2.237   3.690   3.375
  281TIP3    H2  787   2.361   3.609   3.344
  282TIP3   OH2  788   6.524   7.357   5.813
  282TIP3    H1  789   6.516   7.406   5.895
  282TIP3    H2  790   6.435   7.325   5.796
  283TIP3   OH2  791   5.764   5.464   4.517
  283TIP3    H1  792   5.824   5.494   4.450
  283TIP3    H2  793   5.801   5.381   4.547
  284TIP3   OH2  794   8.031   4.980   2.847
  284TIP3    H1  795   7.991   4.918   2.909
  284TIP3    H2  796   8.115   4.940   2.824
  285TIP3   OH2  797   4.282   0.178   2.588
  285TIP3    H1  798   4.277   0.135   2.503
  285TIP3    H2  799   4.216   0.132   2.641
  286TIP3   OH2  800   2.719   5.670   4.093
  286TIP3    H1  801   2.761   5.676   4.178
  286TIP3    H2  802   2.717   5.760   4.061
  287TIP3   OH2  803   7.300   1.020   6.455
  287TIP3    H1  804   7.329   0.977   6.374
  287TIP3    H2  805   7.331   1.110   6.447
  288TIP3   OH2  806   7.260   7.247   6.724
  288TIP3    H1  807   7.349   7.272   6.745
  288TIP3    H2  808   7.266   7.207   6.637
  289TIP3   OH2  809   1.600   0.681   3.227
  289TIP3    H1  810   1.595   0.643   3.139
  289TIP3    H2  811   1.633   0.610   3.282
  290TIP3   OH2  812   1.072   3.339   3.128
  290TIP3    H1  813   1.139   3.406   3.141
  290TIP3    H2  814   1.031   3.328   3.214
  291TIP3   OH2  815   3.066   5.409   1.552
  291TIP3    H1  816   3.006   5.362   1.610
  291TIP3    H2  817   3.153   5.381   1.581
  292TIP3   OH2  818   0.417   6.920   4.338
  292TIP3    H1  819   0.405   6.981   4.265
  292TIP3    H2  820   0.446   6.839   4.298
  293TIP3   OH2  821   1.284   6.579   0.828
  293TIP3    H1  822   1.355   6.559   0.767
  293TIP3    H2  823   1.315   6.546   0.913
  294TIP3   OH2  824   7.125   6.339   4.797
  294TIP3    H1  825   7.116   6.246   4.818
  294TIP3    H2  826   7.150   6.340   4.704
  295TIP3   OH2  827   3.282   6.544   3.461
  295TIP3    H1  828   3.288   6.450   3.444
  295TIP3    H2  829   3.258   6.582   3.377
  296TIP3   OH2  830   8.213   4.164   6.276
  296TIP3    H1  831   8.131   4.198   6.239
  296TIP3    H2  832   8.219   4.205   6.363
  297TIP3   OH2  833   1.300   0.143   2.100
  297TIP3    H1  834   1.273   0.063   2.144
  297TIP3    H2  835   1.347   0.193   2.167
  298TIP3   OH2  836   3.738   2.624   3.374
  298TIP3    H1  837   3.721   2.623   3.468
  298TIP3    H2  838   3.656   2.593   3.335
  299TIP3   OH2  839   2.865   3.957   3.155
  299TIP3    H1  840   2.880   4.051   3.166
  299TIP3    H2  841   2.809   3.933   3.229
  300TIP3   OH2  842   6.579   1.529   1.160
  300TIP3    H1  843   6.527   1.500   1.084
  300TIP3    H2  844   6.609   1.447   1.200
  301TIP3   OH2  845   1.729   2.491   5.412
  301TIP3    H1  846   1.816   2.460   5.436
  301TIP3    H2  847   1.703   2.434   5.338
  302TIP3   OH2  848   0.225   4.530   3.066
  302TIP3    H1  849   0.189   4.485   2.990
  302TIP3    H2  850   0.192   4.620   3.059
  303TIP3   OH2  851   0.048   4.920   6.239
  303TIP3    H1  852  -0.046   4.933   6.224
  303TIP3    H2  853   0.091   4.979   6.176
  304TIP3   OH2  854   2.820   2.941   6.226
  304TIP3    H1  855   2.809   3.034   6.210
  304TIP3    H2  856   2.822   2.933   6.322
  305TIP3   OH2  857   5.696   4.191   5.293
  305TIP3    H1  858   5.639   4.262   5.264
  305TIP3    H2  859   5.727   4.219   5.379
  306TIP3   OH2  860   3.634   3.204   0.299
  306TIP3    H1  861   3.554   3.164   0.264
  306TIP3    H2  862   3.699   3.193   0.231
  307TIP3   OH2  863   3.821   2.075   2.766
  307TIP3    H1  864   3.839   2.149   2.824
  307TIP3    H2  865   3.777   2.114   2.691
  308TIP3   OH2  866   4.896   6.612   1.913
  308TIP3    H1  867   4.842   6.641   1.987
  308TIP3    H2  868   4.892   6.516   1.916
  309TIP3   OH2  869   4.961   7.805   5.983
  309TIP3    H1  870   5.008   7.742   6.038
  309TIP3    H2  871   4.884   7.829   6.035
  310TIP3   OH2  872   7.422   6.629   6.646
  310TIP3    H1  873   7.420   6.697   6.579
  310TIP3    H2  874   7.439   6.677   6.728
  311TIP3   OH2  875   5.751   6.349   1.007
  311TIP3    H1  876   5.810   6.416   1.040
  311TIP3    H2  877   5.664   6.379   1.032
  312TIP3   OH2  878   4.806   0.282   2.813
  312TIP3    H1  879   4.769   0.361   2.853
  312TIP3    H2  880   4.732   0.243   2.766
  313TIP3   OH2  881   1.967   0.086   3.570
  313TIP3    H1  882   1.951   0.034   3.491
  313TIP3    H2  883   1.889   0.073   3.623
  314TIP3   OH2  884   1.595   7.682   3.846
  314TIP3    H1  885   1.581   7.751   3.910
  314TIP3    H2  886   1.592   7.726   3.761
  315TIP3   OH2  887   2.785   3.004   4.640
  315TIP3    H1  888   2.815   2.939   4.576
  315TIP3    H2  889   2.714   2.960   4.686
  316TIP3   OH2  890   2.424   0.965   2.978
  316TIP3    H1  891   2.367   1.042   2.974
  316TIP3    H2  892   2.507   0.999   3.011
  317TIP3   OH2  893   2.656   7.275   4.251
  317TIP3    H1  894   2.601   7.340   4.294
  317TIP3    H2  895   2.612   7.192   4.266
  318TIP3   OH2  896   0.485   5.036   4.852
  318TIP3    H1  897   0.560   5.009   4.798
  318TIP3    H2  898   0.414   5.050   4.789
  319TIP3   OH2  899   1.318   0.005   3.580
  319TIP3    H1  900   1.377   0.058   3.526
  319TIP3    H2  901   1.231   0.031   3.551
  320TIP3   OH2  902   6.012   7.587   3.651
  320TIP3    H1  903   6.050   7.637   3.723
  320TIP3    H2  904   6.061   7.504   3.652
  321TIP3   OH2  905   5.676   3.908   0.618
  321TIP3    H1  906   5.726   3.988   0.633
  321TIP3    H2  907   5.713   3.871   0.538
  322TIP3   OH2  908   2.332   1.875   5.434
  322TIP3    H1  909   2.312   1.926   5.513
  322TIP3    H2  910   2.414   1.913   5.402
  323TIP3   OH2  911   7.722   6.395   3.423
  323TIP3    H1  912   7.745   6.303   3.433
  323TIP3    H2  913   7.626   6.395   3.414
  324TIP3   OH2  914   6.814   2.454   4.032
  324TIP3    H1  915   6.874   2.528   4.041
  324TIP3    H2  916   6.846   2.406   3.956
  325TIP3   OH2  917   3.967   5.754   2.312
  325TIP3    H1  918   3.900   5.806   2.269
  325TIP3    H2  919   3.938   5.748   2.403
  326TIP3   OH2  920   7.665   3.036   3.087
  326TIP3    H1  921   7.712   2.977   3.146
  326TIP3    H2  922   7.587   3.062   3.136
  327TIP3   OH2  923   4.333   3.116   4.735
  327TIP3    H1  924   4.330   3.021   4.723
  327TIP3    H2  925   4.340   3.128   4.829
  328TIP3   OH2  926   3.315   1.040   5.429
  328TIP3    H1  927   3.232   0.994   5.432
  328TIP3    H2  928   3.293   1.127   5.396
  329TIP3   OH2  929   1.753   4.005   1.254
  329TIP3    H1  930   1.789   3.966   1.174
  329TIP3    H2  931   1.750   4.099   1.235
  330TIP3   OH2  932   2.442   1.460   4.661
  330TIP3    H1  933   2.382   1.524   4.699
  330TIP3    H2  934   2.390   1.417   4.593
  331TIP3   OH2  935   3.902   1.975   1.967
  331TIP3    H1  936   3.830   2.012   1.916
  331TIP3    H2  937   3.975   1.971   1.904
  332TIP3   OH2  938   2.619   5.515   0.684
  332TIP3    H1  939   2.629   5.507   0.589
  332TIP3    H2  940   2.624   5.609   0.701
  333TIP3   OH2  941   6.216   5.843   1.330
  333TIP3    H1  942   6.232   5.773   1.394
  333TIP3    H2  943   6.158   5.904   1.376
  334TIP3   OH2  944   4.092   0.877   5.180
  334TIP3    H1  945   4.144   0.874   5.100
  334TIP3    H2  946   4.004   0.849   5.153
  335TIP3   OH2  947   1.000   6.532   6.748
  335TIP3    H1  948   0.953   6.597   6.696
  335TIP3    H2  949   1.087   6.571   6.763
  336TIP3   OH2  950   7.162   5.731   2.312
  336TIP3    H1  951   7.250   5.700   2.293
  336TIP3    H2  952   7.172   5.788   2.388
  337TIP3   OH2  953   1.514   3.815   2.954
  337TIP3    H1  954   1.543   3.854   2.872
  337TIP3    H2  955   1.587   3.832   3.015
  338TIP3   OH2  956   5.351   2.110   3.292
  338TIP3    H1  957   5.410   2.061   3.349
  338TIP3    H2  958   5.316   2.180   3.347
  339TIP3   OH2  959   5.542   5.590   1.495
  339TIP3    H1  960   5.525   5.680   1.522
  339TIP3    H2  961   5.616   5.562   1.548
  340TIP3   OH2  962   6.263   7.497   1.052
  340TIP3    H1  963   6.288   7.561   1.118
  340TIP3    H2  964   6.167   7.498   1.053
  341TIP3   OH2  965   2.558   3.584   3.070
  341TIP3    H1  966   2.562   3.675   3.098
  341TIP3    H2  967   2.470   3.555   3.094
  342TIP3   OH2  968   6.647   6.797   4.132
  342TIP3    H1  969   6.661   6.770   4.041
  342TIP3    H2  970   6.560   6.837   4.132
  343TIP3   OH2  971   2.990   3.153   2.881
  343TIP3    H1  972   3.074   3.108   2.894
  343TIP3    H2  973   2.975   3.199   2.963
  344TIP3   OH2  974   6.275   6.171   0.248
  344TIP3    H1  975   6.345   6.207   0.194
  344TIP3    H2  976   6.290   6.076   0.246
  345TIP3   OH2  977   6.286   4.412   5.005
  345TIP3    H1  978   6.345   4.441   5.075
  345TIP3    H2  979   6.345   4.383   4.935
  346TIP3   OH2  980   5.199   0.432   6.301
  346TIP3    H1  981   5.213   0.398   6.390
  346TIP3    H2  982   5.214   0.357   6.244
  347TIP3   OH2  983   4.040   1.480   6.326
  347TIP3    H1  984   4.016   1.388   6.317
  347TIP3    H2  985   3.958   1.528   6.313
  348TIP3   OH2  986   7.424   1.100   0.503
  348TIP3    H1  987   7.412   1.064   0.415
  348TIP3    H2  988   7.380   1.185   0.501
  349TIP3   OH2  989   0.079   5.334   2.914
  349TIP3    H1  990   0.077   5.410   2.856
  349TIP3    H2  991   0.073   5.372   3.002
  350TIP3   OH2  992   7.977   5.250   2.586
  350TIP3    H1  993   7.885   5.235   2.565
  350TIP3    H2  994   8.013   5.162   2.601
  351TIP3   OH2  995   4.445   2.596   5.834
  351TIP3    H1  996   4.518   2.646   5.870
  351TIP3    H2  997   4.485   2.538   5.769
  352TIP3   OH2  998   5.165   4.382   6.363
  352TIP3    H1  999   5.247   4.332   6.364
  352TIP3    H2 1000   5.145   4.393   6.270
  353TIP3   OH2 1001   6.790   3.673   1.728
  353TIP3    H1 1002   6.733   3.601   1.702
  353TIP3    H2 1003   6.783   3.736   1.657
  354TIP3   OH2 1004   3.715   0.484   1.575
  354TIP3    H1 1005   3.668   0.567   1.573
  354TIP3    H2 1006   3.646   0.419   1.590
  355TIP3   OH2 1007   3.035   1.638   0.458
  355TIP3    H1 1008   3.015   1.707   0.521
  355TIP3    H2 1009   3.081   1.683   0.387
  356TIP3   OH2 1010   7.173   3.745   4.035
  356TIP3    H1 1011   7.263   3.744   4.067
  356TIP3    H2 1012   7.126   3.799   4.099
  357TIP3   OH2 1013   5.557   2.628   5.955
  357TIP3    H1 1014   5.553   2.682   6.034
  357TIP3    H2 1015   5.581   2.689   5.885
  358TIP3   OH2 1016   6.373   2.693   6.632
  358TIP3    H1 1017   6.467   2.714   6.634
  358TIP3    H2 1018   6.360   2.636   6.707
  359TIP3   OH2 1019   7.957   5.811   0.175
  359TIP3    H1 1020   7.928   5.824   0.084
  359TIP3    H2 1021   7.875   5.802   0.225
  360TIP3   OH2 1022   3.170   7.682   3.457
  360TIP3    H1 1023   3.112   7.606   3.459
  360TIP3    H2 1024   3.139   7.738   3.528
  361TIP3   OH2 1025   3.260   7.158   1.363
  361TIP3    H1 1026   3.240   7.066   1.347
  361TIP3    H2 1027   3.234   7.202   1.282
  362TIP3   OH2 1028   0.834   1.858   2.453
  362TIP3    H1 1029   0.741   1.844   2.470
  362TIP3    H2 1030   0.843   1.844   2.359
  363TIP3   OH2 1031   0.112   5.187   3.448
  363TIP3    H1 1032   0.161   5.164   3.370
  363TIP3    H2 1033   0.116   5.108   3.503
  364TIP3   OH2 1034   6.548   4.536   4.046
  364TIP3    H1 1035   6.521   4.534   3.954
  364TIP3    H2 1036   6.554   4.629   4.067
  365TIP3   OH2 1037   3.601   0.099   6.291
  365TIP3    H1 1038   3.685   0.093   6.336
  365TIP3    H2 1039   3.611   0.171   6.229
  366TIP3   OH2 1040   1.463   4.360   4.218
  366TIP3    H1 1041   1.554   4.390   4.219
  366TIP3    H2 1042   1.448   4.323   4.304
  367TIP3   OH2 1043   0.002   7.502   1.275
  367TIP3    H1 1044   0.068   7.530   1.212
  367TIP3    H2 1045   0.034   7.534   1.359
  368TIP3   OH2 1046   3.452   2.614   4.258
  368TIP3    H1 1047   3.513   2.624   4.185
  368TIP3    H2 1048   3.385   2.681   4.243
  369TIP3   OH2 1049   8.093   3.544   3.134
  369TIP3    H1 1050   8.107   3.585   3.049
  369TIP3    H2 1051   8.016   3.590   3.170
  370TIP3   OH2 1052   7.396   6.700   3.102
  370TIP3    H1 1053   7.405   6.794   3.090
  370TIP3    H2 1054   7.367   6.690   3.193
  371TIP3   OH2 1055   3.000   4.805   0.187
  371TIP3    H1 1056   2.936   4.773   0.250
  371TIP3    H2 1057   2.983   4.899   0.181
  372TIP3   OH2 1058   2.225   0.670   3.414
  372TIP3    H1 1059   2.139   0.627   3.418
  372TIP3    H2 1060   2.280   0.610   3.364
  373TIP3   OH2 1061   6.329   1.584   2.075
  373TIP3    H1 1062   6.417   1.606   2.106
  373TIP3    H2 1063   6.326   1.489   2.076
  374TIP3   OH2 1064   3.556   5.367   5.444
  374TIP3    H1 1065   3.494   5.423   5.491
  374TIP3    H2 1066   3.541   5.280   5.481
  375TIP3   OH2 1067   7.821   4.378   5.202
  375TIP3    H1 1068   7.909   4.356   5.173
  375TIP3    H2 1069   7.822   4.364   5.296
  376TIP3   OH2 1070   6.793   2.474   2.113
  376TIP3    H1 1071   6.834   2.548   2.157
  376TIP3    H2 1072   6.866   2.416   2.090
  377TIP3   OH2 1073   7.770   1.452   3.260
  377TIP3    H1 1074   7.675   1.437   3.261
  377TIP3    H2 1075   7.794   1.440   3.168
  378TIP3   OH2 1076   3.096   6.718   0.365
  378TIP3    H1 1077   3.180   6.742   0.404
  378TIP3    H2 1078   3.062   6.800   0.329
  379TIP3   OH2 1079   1.445   2.118   0.120
  379TIP3    H1 1080   1.389   2.043   0.101
  379TIP3    H2 1081   1.397   2.193   0.086
  380TIP3   OH2 1082   1.654   7.005   1.663
  380TIP3    H1 1083   1.647   7.024   1.570
  380TIP3    H2 1084   1.678   6.912   1.667
  381TIP3   OH2 1085   7.114   0.830   1.464
  381TIP3    H1 1086   7.162   0.897   1.416
  381TIP3    H2 1087   7.164   0.749   1.451
  382TIP3   OH2 1088   3.594   7.453   0.033
  382TIP3    H1 1089   3.512   7.461   0.082
  382TIP3    H2 1090   3.662   7.478   0.095
  383TIP3   OH2 1091   0.302   1.316   2.142
  383TIP3    H1 1092   0.330   1.283   2.227
  383TIP3    H2 1093   0.380   1.313   2.087
  384TIP3   OH2 1094   1.988   3.245   1.858
  384TIP3    H1 1095   2.024   3.304   1.792
  384TIP3    H2 1096   1.979   3.161   1.813
  385TIP3   OH2 1097   1.800   6.655   0.160
  385TIP3    H1 1098   1.803   6.583   0.097
  385TIP3    H2 1099   1.878   6.643   0.215
  386TIP3   OH2 1100   6.426   7.268   3.833
  386TIP3    H1 1101   6.444   7.254   3.740
  386TIP3    H2 1102   6.500   7.228   3.878
  387TIP3   OH2 1103   7.967   7.532   6.673
  387TIP3    H1 1104   7.911   7.566   6.743
  387TIP3    H2 1105   8.054   7.566   6.694
  388TIP3   OH2 1106   1.041   7.500   3.155
  388TIP3    H1 1107   1.027   7.589   3.187
  388TIP3    H2 1108   1.134   7.496   3.134
  389TIP3   OH2 1109   1.859   2.815   5.988
  389TIP3    H1 1110   1.907   2.734   6.007
  389TIP3    H2 1111   1.770   2.786   5.970
  390TIP3   OH2 1112   0.357   2.062   3.957
  390TIP3    H1 1113   0.380   2.152   3.980
  390TIP3    H2 1114   0.352   2.016   4.040
  391TIP3   OH2 1115   0.986   2.221   6.272
  391TIP3    H1 1116   0.919   2.178   6.220
  391TIP3    H2 1117   1.014   2.295   6.219
  392TIP3   OH2 1118   6.354   2.257   6.047
  392TIP3    H1 1119   6.426   2.320   6.059
  392TIP3    H2 1120   6.311   2.253   6.132
  393TIP3   OH2 1121   6.042   6.414   3.613
  393TIP3    H1 1122   5.981   6.355   3.657
  393TIP3    H2 1123   6.082   6.360   3.545
  394TIP3   OH2 1124   5.973   4.828   0.955
  394TIP3    H1 1125   5.939   4.900   1.008
  394TIP3    H2 1126   5.895   4.781   0.925
  395TIP3   OH2 1127   3.250   4.938   5.330
  395TIP3    H1 1128   3.247   5.032   5.345
  395TIP3    H2 1129   3.218   4.900   5.412
  396TIP3   OH2 1130   2.367   0.442   1.435
  396TIP3    H1 1131   2.412   0.520   1.402
  396TIP3    H2 1132   2.403   0.430   1.523
  397TIP3   OH2 1133   1.486   0.262   0.496
  397TIP3    H1 1134   1.516   0.285   0.584
  397TIP3    H2 1135   1.502   0.341   0.443
  398TIP3   OH2 1136   5.369   5.902   5.588
  398TIP3    H1 1137   5.354   5.845   5.512
  398TIP3    H2 1138   5.365   5.991   5.554
  399TIP3   OH2 1139   1.593   2.156   2.737
  399TIP3    H1 1140   1.524   2.172   2.801
  399TIP3    H2 1141   1.551   2.172   2.652
  400TIP3   OH2 1142   6.753   5.191   2.024
  400TIP3    H1 1143   6.790   5.208   2.110
  400TIP3    H2 1144   6.684   5.127   2.040
  401TIP3   OH2 1145   7.734   7.228   4.503
  401TIP3    H1 1146   7.646   7.190   4.511
  401TIP3    H2 1147   7.789   7.174   4.560
  402TIP3   OH2 1148   5.558   5.789   3.730
  402TIP3    H1 1149   5.479   5.774   3.678
  402TIP3    H2 1150   5.618   5.833   3.670
  403TIP3   OH2 1151   0.240   4.540   1.839
  403TIP3    H1 1152   0.241   4.574   1.749
  403TIP3    H2 1153   0.330   4.511   1.854
  404TIP3   OH2 1154   2.993   7.632   2.658
  404TIP3    H1 1155   3.070   7.586   2.692
  404TIP3    H2 1156   2.929   7.627   2.729
  405TIP3   OH2 1157   4.314   3.214   5.435
  405TIP3    H1 1158   4.250   3.207   5.364
  405TIP3    H2 1159   4.399   3.211   5.391
  406TIP3   OH2 1160   6.041   0.748   0.568
  406TIP3    H1 1161   6.069   0.657   0.564
  406TIP3    H2 1162   6.087   0.791   0.496
  407TIP3   OH2 1163   1.009   6.348   1.116
  407TIP3    H1 1164   0.920   6.324   1.143
  407TIP3    H2 1165   1.017   6.441   1.141
  408TIP3   OH2 1166   1.047   6.798   2.706
  408TIP3    H1 1167   1.137   6.826   2.693
  408TIP3    H2 1168   1.015   6.777   2.618
  409TIP3   OH2 1169   4.287   4.418   0.078
  409TIP3    H1 1170   4.312   4.350   0.140
  409TIP3    H2 1171   4.197   4.442   0.103
  410TIP3   OH2 1172   6.154   5.847   4.912
  410TIP3    H1 1173   6.233   5.897   4.891
  410TIP3    H2 1174   6.184   5.779   4.972
  411TIP3   OH2 1175   2.284   7.020   3.768
  411TIP3    H1 1176   2.253   6.941   3.723
  411TIP3    H2 1177   2.222   7.088   3.742
  412TIP3   OH2 1178   3.962   5.061   0.301
  412TIP3    H1 1179   4.034   5.123   0.293
  412TIP3    H2 1180   4.003   4.975   0.292
  413TIP3   OH2 1181   6.897   7.549   1.540
  413TIP3    H1 1182   6.942   7.464   1.539
  413TIP3    H2 1183   6.930   7.595   1.463
  414TIP3   OH2 1184   8.216   3.738   5.220
  414TIP3    H1 1185   8.253   3.824   5.203
  414TIP3    H2 1186   8.223   3.692   5.136
  415TIP3   OH2 1187   3.879   6.108   3.414
  415TIP3    H1 1188   3.834   6.056   3.481
  415TIP3    H2 1189   3.888   6.049   3.339
  416TIP3   OH2 1190   2.022   1.683   3.655
  416TIP3    H1 1191   1.976   1.752   3.607
  416TIP3    H2 1192   1.980   1.602   3.626
  417TIP3   OH2 1193   1.539   6.499   0.082
  417TIP3    H1 1194   1.504   6.413   0.059
  417TIP3    H2 1195   1.625   6.501   0.040
  418TIP3   OH2 1196   0.059   0.768   1.975
  418TIP3    H1 1197   0.110   0.693   1.944
  418TIP3    H2 1198   0.123   0.824   2.018
  419TIP3   OH2 1199   0.630   6.607   4.845
  419TIP3    H1 1200   0.565   6.670   4.874
  419TIP3    H2 1201   0.612   6.596   4.751
  420TIP3   OH2 1202   1.834   7.547   3.032
  420TIP3    H1 1203   1.787   7.557   3.114
  420TIP3    H2 1204   1.770   7.569   2.965
  421TIP3   OH2 1205   3.474   1.501   0.417
  421TIP3    H1 1206   3.381   1.480   0.422
  421TIP3    H2 1207   3.477   1.588   0.376
  422TIP3   OH2 1208   1.049   1.386   3.705
  422TIP3    H1 1209   1.141   1.412   3.712
  422TIP3    H2 1210   1.032   1.339   3.786
  423TIP3   OH2 1211   5.212   0.202   6.461
  423TIP3    H1 1212   5.185   0.127   6.514
  423TIP3    H2 1213   5.151   0.201   6.387
  424TIP3   OH2 1214   5.101   0.003   0.329
  424TIP3    H1 1215   5.178   0.060   0.331
  424TIP3    H2 1216   5.128  -0.071   0.275
  425TIP3   OH2 1217   3.460   6.996   2.248
  425TIP3    H1 1218   3.407   6.974   2.171
  425TIP3    H2 1219   3.523   7.060   2.216
  426TIP3   OH2 1220   3.306   0.577   5.962
  426TIP3    H1 1221   3.223   0.619   5.983
  426TIP3    H2 1222   3.345   0.558   6.047
  427TIP3   OH2 1223   0.684   3.280   6.060
  427TIP3    H1 1224   0.706   3.195   6.020
  427TIP3    H2 1225   0.589   3.286   6.051
  428TIP3   OH2 1226   3.001   3.486   3.904
  428TIP3    H1 1227   3.083   3.449   3.938
  428TIP3    H2 1228   3.014   3.581   3.907
  429TIP3   OH2 1229   7.698   0.189   3.822
  429TIP3    H1 1230   7.730   0.279   3.822
  429TIP3    H2 1231   7.689   0.167   3.915
  430TIP3   OH2 1232   1.922   3.675   4.160
  430TIP3    H1 1233   1.877   3.759   4.170
  430TIP3    H2 1234   1.878   3.617   4.222
  431TIP3   OH2 1235   2.485   6.256   0.218
  431TIP3    H1 1236   2.483   6.171   0.263
  431TIP3    H2 1237   2.525   6.238   0.133
  432TIP3   OH2 1238   1.095   4.503   3.246
  432TIP3    H1 1239   1.121   4.418   3.281
  432TIP3    H2 1240   1.170   4.560   3.263
  433TIP3   OH2 1241   2.534   3.739   4.684
  433TIP3    H1 1242   2.555   3.648   4.703
  433TIP3    H2 1243   2.578   3.757   4.601
  434TIP3   OH2 1244   5.503   4.089   3.890
  434TIP3    H1 1245   5.449   4.148   3.838
  434TIP3    H2 1246   5.441   4.035   3.939
  435TIP3   OH2 1247   5.608   5.065   3.522
  435TIP3    H1 1248   5.690   5.041   3.566
  435TIP3    H2 1249   5.554   5.104   3.591
  436TIP3   OH2 1250   8.179   5.808   4.793
  436TIP3    H1 1251   8.147   5.788   4.881
  436TIP3    H2 1252   8.272   5.829   4.805
  437TIP3   OH2 1253   2.945   5.344   3.581
  437TIP3    H1 1254   2.877   5.279   3.599
  437TIP3    H2 1255   2.997   5.347   3.662
  438TIP3   OH2 1256   7.935   3.089   6.192
  438TIP3    H1 1257   7.925   3.076   6.286
  438TIP3    H2 1258   7.917   3.182   6.179
  439TIP3   OH2 1259   3.075   0.361   6.638
  439TIP3    H1 1260   3.000   0.302   6.629
  439TIP3    H2 1261   3.068   0.396   6.726
  440TIP3   OH2 1262   5.310   2.458   0.502
  440TIP3    H1 1263   5.333   2.516   0.429
  440TIP3    H2 1264   5.394   2.433   0.541
  441TIP3   OH2 1265   6.665   7.124   1.381
  441TIP3    H1 1266   6.679   7.065   1.307
  441TIP3    H2 1267   6.574   7.111   1.406
  442TIP3   OH2 1268   2.714   5.415   1.244
  442TIP3    H1 1269   2.718   5.501   1.201
  442TIP3    H2 1270   2.680   5.356   1.177
  443TIP3   OH2 1271   7.371   0.910   2.745
  443TIP3    H1 1272   7.307   0.861   2.796
  443TIP3    H2 1273   7.359   0.878   2.655
  444TIP3   OH2 1274   3.495   5.304   1.225
  444TIP3    H1 1275   3.586   5.334   1.227
  444TIP3    H2 1276   3.443   5.384   1.227
  445TIP3   OH2 1277   7.785   5.005   3.565
  445TIP3    H1 1278   7.833   4.955   3.631
  445TIP3    H2 1279   7.700   5.022   3.604
  446TIP3   OH2 1280   2.386   2.335   4.553
  446TIP3    H1 1281   2.447   2.276   4.509
  446TIP3    H2 1282   2.329   2.277   4.604
  447TIP3   OH2 1283   8.301   6.391   5.292
  447TIP3    H1 1284   8.225   6.402   5.350
  447TIP3    H2 1285   8.339   6.478   5.285
  448TIP3   OH2 1286   0.792   2.671   5.083
  448TIP3    H1 1287   0.875   2.627   5.098
  448TIP3    H2 1288   0.814   2.751   5.035
  449TIP3   OH2 1289   7.159   4.899   3.285
  449TIP3    H1 1290   7.146   4.806   3.265
  449TIP3    H2 1291   7.091   4.943   3.233
  450TIP3   OH2 1292   8.005   3.655   3.559
  450TIP3    H1 1293   8.004   3.694   3.471
  450TIP3    H2 1294   7.944   3.709   3.609
  451TIP3   OH2 1295   7.751   3.260   2.893
  451TIP3    H1 1296   7.701   3.195   2.943
  451TIP3    H2 1297   7.767   3.217   2.808
  452TIP3   OH2 1298   3.213   5.227   0.303
  452TIP3    H1 1299   3.172   5.179   0.231
  452TIP3    H2 1300   3.178   5.187   0.382
  453TIP3   OH2 1301   1.010   0.181   6.615
  453TIP3    H1 1302   0.924   0.149   6.590
  453TIP3    H2 1303   1.069   0.107   6.601
  454TIP3   OH2 1304   0.562   6.156   4.933
  454TIP3    H1 1305   0.632   6.220   4.920
  454TIP3    H2 1306   0.558   6.144   5.028
  455TIP3   OH2 1307   1.771   3.493   3.536
  455TIP3    H1 1308   1.774   3.482   3.441
  455TIP3    H2 1309   1.852   3.452   3.567
  456TIP3   OH2 1310   5.401   2.669   3.802
  456TIP3    H1 1311   5.471   2.680   3.738
  456TIP3    H2 1312   5.421   2.733   3.870
  457TIP3   OH2 1313   3.400   3.553   0.050
  457TIP3    H1 1314   3.371   3.543   0.140
  457TIP3    H2 1315   3.349   3.628   0.017
  458TIP3   OH2 1316   8.152   4.362   0.926
  458TIP3    H1 1317   8.205   4.302   0.978
  458TIP3    H2 1318   8.215   4.422   0.886
  459TIP3   OH2 1319   1.830   1.795   1.840
  459TIP3    H1 1320   1.840   1.776   1.933
  459TIP3    H2 1321   1.738   1.780   1.821
  460TIP3   OH2 1322   0.012   5.496   5.492
  460TIP3    H1 1323  -0.045   5.469   5.563
  460TIP3    H2 1324   0.087   5.538   5.535
  461TIP3   OH2 1325   1.737   0.158   6.115
  461TIP3    H1 1326   1.648   0.142   6.085
  461TIP3    H2 1327   1.783   0.075   6.101
  462TIP3   OH2 1328   1.766   1.053   5.717
  462TIP3    H1 1329   1.830   1.066   5.787
  462TIP3    H2 1330   1.806   0.988   5.659
  463TIP3   OH2 1331   4.593   1.895   4.702
  463TIP3    H1 1332   4.648   1.963   4.665
  463TIP3    H2 1333   4.630   1.813   4.668
  464TIP3   OH2 1334   3.577   3.765   1.403
  464TIP3    H1 1335   3.528   3.753   1.485
  464TIP3    H2 1336   3.609   3.855   1.408
  465TIP3   OH2 1337   1.770   1.832   1.008
  465TIP3    H1 1338   1.740   1.741   1.011
  465TIP3    H2 1339   1.822   1.837   0.928
  466TIP3   OH2 1340   7.324   3.859   5.879
  466TIP3    H1 1341   7.318   3.800   5.804
  466TIP3    H2 1342   7.404   3.910   5.863
  467TIP3   OH2 1343   1.858   5.880   4.773
  467TIP3    H1 1344   1.898   5.919   4.695
  467TIP3    H2 1345   1.854   5.787   4.753
  468TIP3   OH2 1346   5.522   6.057   4.083
  468TIP3    H1 1347   5.599   6.045   4.139
  468TIP3    H2 1348   5.543   6.132   4.028
  469TIP3   OH2 1349   3.482   5.975   6.451
  469TIP3    H1 1350   3.500   6.035   6.379
  469TIP3    H2 1351   3.419   6.022   6.506
  470TIP3   OH2 1352   2.741   1.865   3.981
  470TIP3    H1 1353   2.751   1.913   4.063
  470TIP3    H2 1354   2.765   1.775   4.004
  471TIP3   OH2 1355   1.653   6.877   0.159
  471TIP3    H1 1356   1.692   6.790   0.170
  471TIP3    H2 1357   1.728   6.937   0.168
  472TIP3   OH2 1358   3.204   6.259   0.744
  472TIP3    H1 1359   3.220   6.353   0.757
  472TIP3    H2 1360   3.109   6.250   0.756
  473TIP3   OH2 1361   5.716   2.978   4.974
  473TIP3    H1 1362   5.681   2.983   5.063
  473TIP3    H2 1363   5.652   2.925   4.927
  474TIP3   OH2 1364  -0.001   4.117   0.303
  474TIP3    H1 1365   0.094   4.125   0.296
  474TIP3    H2 1366  -0.015   4.053   0.372
  475TIP3   OH2 1367   5.481   7.654   3.725
  475TIP3    H1 1368   5.512   7.708   3.798
  475TIP3    H2 1369   5.450   7.574   3.767
  476TIP3   OH2 1370   2.858   1.877   2.995
  476TIP3    H1 1371   2.814   1.834   3.069
  476TIP3    H2 1372   2.863   1.809   2.928
  477TIP3   OH2 1373   4.596   4.948   5.754
  477TIP3    H1 1374   4.512   4.951   5.708
  477TIP3    H2 1375   4.631   4.862   5.733
  478TIP3   OH2 1376   7.486   6.855   3.670
  478TIP3    H1 1377   7.542   6.778   3.683
  478TIP3    H2 1378   7.426   6.829   3.599
  479TIP3   OH2 1379   6.738   2.545   5.279
  479TIP3    H1 1380   6.828   2.518   5.262
  479TIP3    H2 1381   6.711   2.587   5.197
  480TIP3   OH2 1382   7.112   1.040   1.864
  480TIP3    H1 1383   7.066   1.099   1.922
  480TIP3    H2 1384   7.087   1.068   1.776
  481TIP3   OH2 1385   4.105   4.142   6.038
  481TIP3    H1 1386   4.096   4.186   5.953
  481TIP3    H2 1387   4.091   4.211   6.102
  482TIP3   OH2 1388   3.561   4.504  -0.014
  482TIP3    H1 1389   3.562   4.563   0.062
  482TIP3    H2 1390   3.608   4.426   0.016
  483TIP3   OH2 1391   2.206   4.509   6.578
  483TIP3    H1 1392   2.286   4.494   6.528
  483TIP3    H2 1393   2.208   4.444   6.647
  484TIP3   OH2 1394   4.927   0.482   6.237
  484TIP3    H1 1395   5.022   0.487   6.239
  484TIP3    H2 1396   4.904   0.428   6.312
  485TIP3   OH2 1397   2.135   7.685   1.019
  485TIP3    H1 1398   2.041   7.696   1.006
  485TIP3    H2 1399   2.172   7.770   0.996
  486TIP3   OH2 1400   3.901   6.567   4.406
  486TIP3    H1 1401   3.891   6.475   4.382
  486TIP3    H2 1402   3.898   6.614   4.322
  487TIP3   OH2 1403   3.178   3.283   2.659
  487TIP3    H1 1404   3.260   3.283   2.709
  487TIP3    H2 1405   3.193   3.218   2.589
  488TIP3   OH2 1406   1.040   5.321   2.567
  488TIP3    H1 1407   1.024   5.410   2.535
  488TIP3    H2 1408   0.994   5.265   2.504
  489TIP3   OH2 1409   1.389   6.483   3.408
  489TIP3    H1 1410   1.319   6.469   3.472
  489TIP3    H2 1411   1.464   6.510   3.461
  490TIP3   OH2 1412   4.620   4.860   4.438
  490TIP3    H1 1413   4.575   4.831   4.518
  490TIP3    H2 1414   4.687   4.794   4.422
  491TIP3   OH2 1415   8.234   4.508   1.794
  491TIP3    H1 1416   8.328   4.526   1.794
  491TIP3    H2 1417   8.199   4.564   1.863
  492TIP3   OH2 1418   8.131   6.416   3.051
  492TIP3    H1 1419   8.064   6.414   3.119
  492TIP3    H2 1420   8.117   6.499   3.005
  493TIP3   OH2 1421   1.796   7.565   0.165
  493TIP3    H1 1422   1.733   7.616   0.114
  493TIP3    H2 1423   1.757   7.478   0.171
  494TIP3   OH2 1424   6.706   4.666   5.959
  494TIP3    H1 1425   6.635   4.646   5.897
  494TIP3    H2 1426   6.740   4.580   5.984
  495TIP3   OH2 1427   6.839   2.257   5.400
  495TIP3    H1 1428   6.747   2.279   5.384
  495TIP3    H2 1429   6.837   2.201   5.478
  496TIP3   OH2 1430   1.236   3.172   4.211
  496TIP3    H1 1431   1.145   3.162   4.240
  496TIP3    H2 1432   1.266   3.083   4.197
  497TIP3   OH2 1433   5.016   0.143   6.296
  497TIP3    H1 1434   4.981   0.055   6.312
  497TIP3    H2 1435   4.939   0.199   6.289
  498TIP3   OH2 1436   5.275   2.851   2.054
  498TIP3    H1 1437   5.331   2.776   2.077
  498TIP3    H2 1438   5.309   2.881   1.969
  499TIP3   OH2 1439   1.287   1.787   1.825
  499TIP3    H1 1440   1.242   1.756   1.904
  499TIP3    H2 1441   1.259   1.878   1.816
  500TIP3   OH2 1442   3.306   6.575   1.849
  500TIP3    H1 1443   3.328   6.484   1.864
  500TIP3    H2 1444   3.211   6.579   1.857
  501TIP3   OH2 1445   6.711   0.182   3.572
  501TIP3    H1 1446   6.783   0.242   3.550
  501TIP3    H2 1447   6.681   0.148   3.488
  502TIP3   OH2 1448   0.645   0.447   0.589
  502TIP3    H1 1449   0.739   0.434   0.600
  502TIP3    H2 1450   0.637   0.490   0.504
  503TIP3   OH2 1451   4.023   5.402   1.260
  503TIP3    H1 1452   4.040   5.318   1.303
  503TIP3    H2 1453   4.093   5.459   1.290
  504TIP3   OH2 1454   5.455   2.281   5.092
  504TIP3    H1 1455   5.455   2.326   5.008
  504TIP3    H2 1456   5.520   2.212   5.083
  505TIP3   OH2 1457   4.461   6.701   4.784
  505TIP3    H1 1458   4.497   6.614   4.767
  505TIP3    H2 1459   4.408   6.720   4.706
  506TIP3   OH2 1460   0.133   2.511   4.455
  506TIP3    H1 1461   0.224   2.487   4.440
  506TIP3    H2 1462   0.112   2.571   4.384
  507TIP3   OH2 1463   3.702   0.072   2.552
  507TIP3    H1 1464   3.618   0.114   2.571
  507TIP3    H2 1465   3.715   0.011   2.625
  508TIP3   OH2 1466   0.716   2.371   6.088
  508TIP3    H1 1467   0.718   2.364   6.184
  508TIP3    H2 1468   0.738   2.283   6.057
  509TIP3   OH2 1469   1.536   2.125   4.486
  509TIP3    H1 1470   1.602   2.166   4.542
  509TIP3    H2 1471   1.543   2.031   4.505
  510TIP3   OH2 1472   7.592   1.482   4.543
  510TIP3    H1 1473   7.642   1.530   4.610
  510TIP3    H2 1474   7.646   1.488   4.464
  511TIP3   OH2 1475   6.381   6.172   2.909
  511TIP3    H1 1476   6.474   6.160   2.893
  511TIP3    H2 1477   6.371   6.165   3.004
  512TIP3   OH2 1478   0.182   0.364   6.432
  512TIP3    H1 1479   0.221   0.292   6.382
  512TIP3    H2 1480   0.105   0.390   6.381
  513TIP3   OH2 1481   0.414   6.328   6.042
  513TIP3    H1 1482   0.417   6.234   6.057
  513TIP3    H2 1483   0.505   6.353   6.025
  514TIP3   OH2 1484   3.320   4.004   4.772
  514TIP3    H1 1485   3.344   3.914   4.748
  514TIP3    H2 1486   3.355   4.058   4.702
  515TIP3   OH2 1487   0.313   0.276   3.579
  515TIP3    H1 1488   0.249   0.206   3.565
  515TIP3    H2 1489   0.364   0.278   3.498
  516TIP3   OH2 1490   3.418   6.412   4.704
  516TIP3    H1 1491   3.506   6.429   4.670
  516TIP3    H2 1492   3.360   6.426   4.629
  517TIP3   OH2 1493   3.591   5.396   3.413
  517TIP3    H1 1494   3.511   5.382   3.362
  517TIP3    H2 1495   3.561   5.439   3.493
  518TIP3   OH2 1496   2.595   7.564   5.832
  518TIP3    H1 1497   2.571   7.529   5.746
  518TIP3    H2 1498   2.682   7.601   5.819
  519TIP3   OH2 1499   6.609   3.805   2.199
  519TIP3    H1 1500   6.536   3.865   2.180
  519TIP3    H2 1501   6.594   3.730   2.142
  520TIP3   OH2 1502   1.640   4.102   1.482
  520TIP3    H1 1503   1.555   4.100   1.437
  520TIP3    H2 1504   1.697   4.048   1.427
  521TIP3   OH2 1505   4.032   5.606   6.117
  521TIP3    H1 1506   4.026   5.694   6.155
  521TIP3    H2 1507   4.047   5.548   6.191
  522TIP3   OH2 1508   3.993   6.636   3.948
  522TIP3    H1 1509   4.075   6.642   3.898
  522TIP3    H2 1510   3.924   6.645   3.883
  523TIP3   OH2 1511   0.880   7.453   2.139
  523TIP3    H1 1512   0.925   7.398   2.202
  523TIP3    H2 1513   0.836   7.391   2.080
  524TIP3   OH2 1514   4.015   5.468   0.265
  524TIP3    H1 1515   4.069   5.541   0.234
  524TIP3    H2 1516   3.927   5.487   0.230
  525TIP3   OH2 1517   2.886   0.534   5.800
  525TIP3    H1 1518   2.910   0.478   5.727
  525TIP3    H2 1519   2.921   0.620   5.777
  526TIP3   OH2 1520   7.966   0.328   6.396
  526TIP3    H1 1521   7.886   0.346   6.445
  526TIP3    H2 1522   7.943   0.347   6.305
  527TIP3   OH2 1523   0.921   3.659   1.943
  527TIP3    H1 1524   0.893   3.570   1.962
  527TIP3    H2 1525   0.931   3.700   2.029
  528TIP3   OH2 1526   4.229   3.611   4.855
  528TIP3    H1 1527   4.277   3.692   4.870
  528TIP3    H2 1528   4.137   3.640   4.846
  529TIP3   OH2 1529   2.197   4.551   4.542
  529TIP3    H1 1530   2.217   4.495   4.467
  529TIP3    H2 1531   2.242   4.509   4.616
  530TIP3   OH2 1532   3.653   0.945   4.491
  530TIP3    H1 1533   3.698   0.884   4.550
  530TIP3    H2 1534   3.583   0.892   4.452
  531TIP3   OH2 1535   6.983   2.794   2.439
  531TIP3    H1 1536   6.969   2.889   2.435
  531TIP3    H2 1537   6.992   2.768   2.347
  532TIP3   OH2 1538   6.221   5.195   1.136
  532TIP3    H1 1539   6.280   5.166   1.066
  532TIP3    H2 1540   6.225   5.125   1.200
  533TIP3   OH2 1541   7.980   6.264   5.241
  533TIP3    H1 1542   7.994   6.347   5.285
  533TIP3    H2 1543   8.039   6.203   5.286
  534TIP3   OH2 1544   6.429   2.144   5.106
  534TIP3    H1 1545   6.523   2.142   5.125
  534TIP3    H2 1546   6.404   2.236   5.117
  535TIP3   OH2 1547   7.978   1.878   2.828
  535TIP3    H1 1548   7.893   1.913   2.801
  535TIP3    H2 1549   7.958   1.822   2.903
  536TIP3   OH2 1550   0.455   5.319   5.580
  536TIP3    H1 1551   0.467   5.346   5.671
  536TIP3    H2 1552   0.544   5.299   5.550
  537TIP3   OH2 1553   3.475   5.859   2.365
  537TIP3    H1 1554   3.534   5.846   2.439
  537TIP3    H2 1555   3.520   5.821   2.290
  538TIP3   OH2 1556   1.073   6.538   5.198
  538TIP3    H1 1557   0.989   6.541   5.153
  538TIP3    H2 1558   1.134   6.502   5.133
  539TIP3   OH2 1559   3.479   6.854   1.286
  539TIP3    H1 1560   3.480   6.781   1.348
  539TIP3    H2 1561   3.386   6.879   1.280
  540TIP3   OH2 1562   5.450   6.183   0.473
  540TIP3    H1 1563   5.389   6.241   0.427
  540TIP3    H2 1564   5.520   6.168   0.409
  541TIP3   OH2 1565   7.576   0.028   0.465
  541TIP3    H1 1566   7.523   0.024   0.385
  541TIP3    H2 1567   7.583  -0.063   0.493
  542TIP3   OH2 1568   7.032   5.243   5.213
  542TIP3    H1 1569   6.961   5.209   5.268
  542TIP3    H2 1570   7.096   5.277   5.275
  543TIP3   OH2 1571   4.800   2.479   2.798
  543TIP3    H1 1572   4.793   2.523   2.882
  543TIP3    H2 1573   4.797   2.385   2.820
  544TIP3   OH2 1574   6.614   4.505   6.604
  544TIP3    H1 1575   6.660   4.536   6.526
  544TIP3    H2 1576   6.556   4.577   6.628
  545TIP3   OH2 1577   8.080   1.092   6.686
  545TIP3    H1 1578   8.052   1.003   6.669
  545TIP3    H2 1579   8.071   1.137   6.602
  546TIP3   OH2 1580   0.307   2.085   2.866
  546TIP3    H1 1581   0.342   2.022   2.802
  546TIP3    H2 1582   0.314   2.170   2.823
  547TIP3   OH2 1583   8.270   6.098   2.447
  547TIP3    H1 1584   8.302   6.159   2.380
  547TIP3    H2 1585   8.180   6.128   2.465
  548TIP3   OH2 1586   0.650   0.198   1.365
  548TIP3    H1 1587   0.586   0.269   1.359
  548TIP3    H2 1588   0.633   0.158   1.451
  549TIP3   OH2 1589   1.853   5.333   2.630
  549TIP3    H1 1590   1.940   5.356   2.599
  549TIP3    H2 1591   1.862   5.245   2.666
  550TIP3   OH2 1592   5.090   6.936   5.040
  550TIP3    H1 1593   5.178   6.901   5.031
  550TIP3    H2 1594   5.087   7.010   4.980
  551TIP3   OH2 1595   1.726   2.631   1.741
  551TIP3    H1 1596   1.698   2.708   1.791
  551TIP3    H2 1597   1.679   2.638   1.658
  552TIP3   OH2 1598   1.872   6.902   5.421
  552TIP3    H1 1599   1.850   6.822   5.468
  552TIP3    H2 1600   1.948   6.878   5.368
  553TIP3   OH2 1601   4.254   5.804   2.255
  553TIP3    H1 1602   4.161   5.784   2.268
  553TIP3    H2 1603   4.259   5.899   2.262
  554TIP3   OH2 1604   4.556   5.891   0.907
  554TIP3    H1 1605   4.639   5.856   0.876
  554TIP3    H2 1606   4.491   5.855   0.846
  555TIP3   OH2 1607   7.350   1.322   4.073
  555TIP3    H1 1608   7.391   1.286   3.995
  555TIP3    H2 1609   7.400   1.285   4.146
  556TIP3   OH2 1610   6.430   5.412   6.700
  556TIP3    H1 1611   6.410   5.503   6.720
  556TIP3    H2 1612   6.416   5.404   6.605
  557TIP3   OH2 1613   4.123   5.147   6.737
  557TIP3    H1 1614   4.029   5.135   6.752
  557TIP3    H2 1615   4.129   5.231   6.691
  558TIP3   OH2 1616   5.164   3.084   2.163
  558TIP3    H1 1617   5.210   3.002   2.147
  558TIP3    H2 1618   5.222   3.152   2.129
  559TIP3   OH2 1619   2.780   6.974   4.035
  559TIP3    H1 1620   2.837   6.987   4.110
  559TIP3    H2 1621   2.727   7.054   4.030
  560TIP3   OH2 1622   1.785   7.271   3.647
  560TIP3    H1 1623   1.839   7.350   3.635
  560TIP3    H2 1624   1.700   7.295   3.612
  561TIP3   OH2 1625   0.030   0.571   0.947
  561TIP3    H1 1626   0.120   0.594   0.926
  561TIP3    H2 1627   0.000   0.518   0.873
  562TIP3   OH2 1628   6.688   7.499   1.015
  562TIP3    H1 1629   6.762   7.518   0.958
  562TIP3    H2 1630   6.685   7.572   1.076
  563TIP3   OH2 1631   1.591   6.003   0.543
  563TIP3    H1 1632   1.555   6.073   0.488
  563TIP3    H2 1633   1.514   5.959   0.580
  564TIP3   OH2 1634   7.499   4.737   4.085
  564TIP3    H1 1635   7.545   4.760   4.004
  564TIP3    H2 1636   7.524   4.806   4.146
  565TIP3   OH2 1637   6.070   4.942   2.431
  565TIP3    H1 1638   6.130   4.918   2.502
  565TIP3    H2 1639   6.065   5.037   2.435
  566TIP3   OH2 1640   4.152   0.242   6.362
  566TIP3    H1 1641   4.105   0.179   6.307
  566TIP3    H2 1642   4.238   0.203   6.375
  567TIP3   OH2 1643   0.117   1.151   5.721
  567TIP3    H1 1644   0.043   1.172   5.778
  567TIP3    H2 1645   0.187   1.210   5.749
  568TIP3   OH2 1646   2.420   5.641   1.832
  568TIP3    H1 1647   2.336   5.599   1.853
  568TIP3    H2 1648   2.470   5.639   1.913
  569TIP3   OH2 1649   2.744   7.744   0.287
  569TIP3    H1 1650   2.741   7.815   0.224
  569TIP3    H2 1651   2.809   7.771   0.352
  570TIP3   OH2 1652   3.459   6.522   5.465
  570TIP3    H1 1653   3.425   6.443   5.508
  570TIP3    H2 1654   3.537   6.492   5.418
  571TIP3   OH2 1655   0.851   5.956   1.187
  571TIP3    H1 1656   0.849   6.051   1.184
  571TIP3    H2 1657   0.765   5.931   1.223
  572TIP3   OH2 1658   7.270   2.532   3.540
  572TIP3    H1 1659   7.291   2.600   3.604
  572TIP3    H2 1660   7.226   2.578   3.468
  573TIP3   OH2 1661   3.954   0.193   6.167
  573TIP3    H1 1662   3.871   0.222   6.130
  573TIP3    H2 1663   4.021   0.233   6.112
  574TIP3   OH2 1664   1.358   4.593   2.819
  574TIP3    H1 1665   1.332   4.504   2.846
  574TIP3    H2 1666   1.363   4.588   2.724
  575TIP3   OH2 1667   5.916   0.781   6.112
  575TIP3    H1 1668   5.878   0.730   6.184
  575TIP3    H2 1669   5.995   0.733   6.088
  576TIP3   OH2 1670   7.176   1.095   2.596
  576TIP3    H1 1671   7.198   1.017   2.545
  576TIP3    H2 1672   7.163   1.062   2.685
  577TIP3   OH2 1673   7.948   7.542   0.269
  577TIP3    H1 1674   7.960   7.588   0.185
  577TIP3    H2 1675   7.911   7.458   0.244
  578TIP3   OH2 1676   7.424   5.738   3.675
  578TIP3    H1 1677   7.333   5.709   3.668
  578TIP3    H2 1678   7.423   5.804   3.744
  579TIP3   OH2 1679   2.903   2.060   1.817
  579TIP3    H1 1680   2.836   2.066   1.886
  579TIP3    H2 1681   2.858   2.016   1.744
  580TIP3   OH2 1682   2.743   6.972   0.806
  580TIP3    H1 1683   2.787   6.938   0.728
  580TIP3    H2 1684   2.708   6.894   0.850
  581TIP3   OH2 1685   2.740   1.063   5.185
  581TIP3    H1 1686   2.686   1.013   5.246
  581TIP3    H2 1687   2.815   1.006   5.167
  582TIP3   OH2 1688   2.216   2.783   2.253
  582TIP3    H1 1689   2.248   2.846   2.188
  582TIP3    H2 1690   2.225   2.829   2.337
  583TIP3   OH2 1691   5.743   4.065   3.297
  583TIP3    H1 1692   5.811   4.059   3.364
  583TIP3    H2 1693   5.781   4.020   3.221
  584TIP3   OH2 1694   0.776   3.314   3.518
  584TIP3    H1 1695   0.760   3.376   3.447
  584TIP3    H2 1696   0.707   3.333   3.582
  585TIP3   OH2 1697   1.162   4.924   3.701
  585TIP3    H1 1698   1.130   5.013   3.718
  585TIP3    H2 1699   1.200   4.897   3.784
  586TIP3   OH2 1700   2.441   4.868   6.208
  586TIP3    H1 1701   2.489   4.838   6.130
  586TIP3    H2 1702   2.436   4.963   6.198
  587TIP3   OH2 1703   2.260   3.430   6.309
  587TIP3    H1 1704   2.254   3.392   6.222
  587TIP3    H2 1705   2.346   3.404   6.341
  588TIP3   OH2 1706   8.116   4.747   5.914
  588TIP3    H1 1707   8.188   4.804   5.885
  588TIP3    H2 1708   8.147   4.658   5.895
  589TIP3   OH2 1709   3.325   0.027   2.823
  589TIP3    H1 1710   3.244  -0.014   2.853
  589TIP3    H2 1711   3.303   0.120   2.813
  590TIP3   OH2 1712   7.131   6.671  -0.013
  590TIP3    H1 1713   7.107   6.587  -0.052
  590TIP3    H2 1714   7.062   6.688   0.051
  591TIP3   OH2 1715   2.275   5.258   4.228
  591TIP3    H1 1716   2.226   5.176   4.234
  591TIP3    H2 1717   2.306   5.261   4.137
  592TIP3   OH2 1718   7.392   2.200   0.711
  592TIP3    H1 1719   7.309   2.182   0.666
  592TIP3    H2 1720   7.402   2.125   0.771
  593TIP3   OH2 1721   6.258   0.813   4.214
  593TIP3    H1 1722   6.233   0.818   4.121
  593TIP3    H2 1723   6.175   0.809   4.261
  594TIP3   OH2 1724   2.313   2.177   5.706
  594TIP3    H1 1725   2.239   2.122   5.730
  594TIP3    H2 1726   2.351   2.204   5.789
  595TIP3   OH2 1727   3.077   7.580   1.161
  595TIP3    H1 1728   3.110   7.493   1.185
  595TIP3    H2 1729   3.048   7.618   1.244
  596TIP3   OH2 1730   5.537   0.601   5.848
  596TIP3    H1 1731   5.524   0.577   5.757
  596TIP3    H2 1732   5.504   0.690   5.855
  597TIP3   OH2 1733   3.354   6.720   0.642
  597TIP3    H1 1734   3.351   6.633   0.601
  597TIP3    H2 1735   3.446   6.746   0.636
  598TIP3   OH2 1736   5.781   7.428   5.311
  598TIP3    H1 1737   5.756   7.431   5.404
  598TIP3    H2 1738   5.703   7.457   5.264
  599TIP3   OH2 1739   3.705   4.881   6.110
  599TIP3    H1 1740   3.686   4.943   6.040
  599TIP3    H2 1741   3.799   4.891   6.126
  600TIP3   OH2 1742   5.667   5.476   1.272
  600TIP3    H1 1743   5.628   5.525   1.344
  600TIP3    H2 1744   5.596   5.463   1.209
  601TIP3   OH2 1745   4.636   2.607   2.333
  601TIP3    H1 1746   4.675   2.539   2.387
  601TIP3    H2 1747   4.542   2.587   2.332
  602TIP3   OH2 1748   3.361   1.337   6.725
  602TIP3    H1 1749   3.268   1.316   6.740
  602TIP3    H2 1750   3.408   1.286   6.791
  603TIP3   OH2 1751   8.134   6.830   4.729
  603TIP3    H1 1752   8.082   6.881   4.667
  603TIP3    H2 1753   8.181   6.766   4.674
  604TIP3   OH2 1754   0.685   5.309   3.377
  604TIP3    H1 1755   0.678   5.216   3.396
  604TIP3    H2 1756   0.685   5.352   3.463
  605TIP3   OH2 1757   0.171   6.663   2.531
  605TIP3    H1 1758   0.188   6.756   2.547
  605TIP3    H2 1759   0.120   6.635   2.607
  606TIP3   OH2 1760   2.138   5.541   3.826
  606TIP3    H1 1761   2.226   5.579   3.820
  606TIP3    H2 1762   2.100   5.556   3.739
  607TIP3   OH2 1763   6.732   6.815   4.397
  607TIP3    H1 1764   6.722   6.801   4.303
  607TIP3    H2 1765   6.655   6.868   4.421
  608TIP3   OH2 1766   2.235   0.752   4.270
  608TIP3    H1 1767   2.228   0.813   4.197
  608TIP3    H2 1768   2.328   0.729   4.272
  609TIP3   OH2 1769   7.439   3.257   5.573
  609TIP3    H1 1770   7.495   3.190   5.536
  609TIP3    H2 1771   7.366   3.265   5.511
  610TIP3   OH2 1772   6.667   0.823   5.664
  610TIP3    H1 1773   6.681   0.757   5.596
  610TIP3    H2 1774   6.683   0.776   5.746
  611TIP3   OH2 1775   2.570   0.867   3.304
  611TIP3    H1 1776   2.518   0.801   3.258
  611TIP3    H2 1777   2.518   0.947   3.298
  612TIP3   OH2 1778   3.538   5.447   2.328
  612TIP3    H1 1779   3.476   5.474   2.260
  612TIP3    H2 1780   3.623   5.451   2.286
  613TIP3   OH2 1781   0.537   2.501   3.853
  613TIP3    H1 1782   0.611   2.561   3.865
  613TIP3    H2 1783   0.576   2.422   3.815
  614TIP3   OH2 1784   4.268   1.405   1.216
  614TIP3    H1 1785   4.193   1.385   1.161
  614TIP3    H2 1786   4.323   1.461   1.162
  615TIP3   OH2 1787   1.904   1.830   6.110
  615TIP3    H1 1788   1.911   1.821   6.015
  615TIP3    H2 1789   1.971   1.771   6.144
  616TIP3   OH2 1790   7.150   1.260   5.045
  616TIP3    H1 1791   7.138   1.355   5.041
  616TIP3    H2 1792   7.076   1.225   4.995
  617TIP3   OH2 1793   6.157   7.372   3.715
  617TIP3    H1 1794   6.184   7.363   3.806
  617TIP3    H2 1795   6.213   7.312   3.666
  618TIP3   OH2 1796   4.833   6.364   4.861
  618TIP3    H1 1797   4.818   6.459   4.860
  618TIP3    H2 1798   4.844   6.342   4.954
  619TIP3   OH2 1799   0.162   2.265   0.214
  619TIP3    H1 1800   0.148   2.321   0.291
  619TIP3    H2 1801   0.127   2.180   0.239
  620TIP3   OH2 1802   5.040   5.913   1.500
  620TIP3    H1 1803   4.947   5.922   1.478
  620TIP3    H2 1804   5.040   5.867   1.584
  621TIP3   OH2 1805   3.854   3.901   1.690
  621TIP3    H1 1806   3.881   3.987   1.722
  621TIP3    H2 1807   3.850   3.846   1.769
  622TIP3   OH2 1808   7.917   4.001   4.566
  622TIP3    H1 1809   7.842   4.058   4.584
  622TIP3    H2 1810   7.981   4.058   4.524
  623TIP3   OH2 1811   3.291   0.137   4.580
  623TIP3    H1 1812   3.385   0.144   4.561
  623TIP3    H2 1813   3.269   0.220   4.622
  624TIP3   OH2 1814   5.318   4.636   6.328
  624TIP3    H1 1815   5.268   4.559   6.353
  624TIP3    H2 1816   5.305   4.698   6.399
  625TIP3   OH2 1817   8.189   5.786   0.669
  625TIP3    H1 1818   8.276   5.819   0.646
  625TIP3    H2 1819   8.175   5.714   0.607
  626TIP3   OH2 1820   5.444   2.616   2.068
  626TIP3    H1 1821   5.415   2.530   2.099
  626TIP3    H2 1822   5.537   2.605   2.052
  627TIP3   OH2 1823   2.884   0.353   4.591
  627TIP3    H1 1824   2.808   0.352   4.649
  627TIP3    H2 1825   2.880   0.269   4.545
  628TIP3   OH2 1826   2.519   4.820   6.692
  628TIP3    H1 1827   2.526   4.740   6.744
  628TIP3    H2 1828   2.453   4.800   6.626
  629TIP3   OH2 1829   2.751   5.593   6.046
  629TIP3    H1 1830   2.735   5.522   6.108
  629TIP3    H2 1831   2.744   5.673   6.099
  630TIP3   OH2 1832   3.663   3.289   5.932
  630TIP3    H1 1833   3.570   3.293   5.955
  630TIP3    H2 1834   3.673   3.205   5.887
  631TIP3   OH2 1835   5.272   4.844   1.062
  631TIP3    H1 1836   5.278   4.813   1.152
  631TIP3    H2 1837   5.272   4.939   1.069
  632TIP3   OH2 1838   5.239   4.707   4.267
  632TIP3    H1 1839   5.314   4.744   4.220
  632TIP3    H2 1840   5.268   4.702   4.358
  633TIP3   OH2 1841   1.811   6.108   6.589
  633TIP3    H1 1842   1.747   6.040   6.612
  633TIP3    H2 1843   1.761   6.174   6.542
  634TIP3   OH2 1844   2.365   4.121   2.612
  634TIP3    H1 1845   2.272   4.136   2.598
  634TIP3    H2 1846   2.373   4.027   2.625
  635TIP3   OH2 1847   1.928   2.703   1.116
  635TIP3    H1 1848   2.005   2.705   1.058
  635TIP3    H2 1849   1.962   2.669   1.199
  636TIP3   OH2 1850   1.132   3.146   5.685
  636TIP3    H1 1851   1.191   3.109   5.620
  636TIP3    H2 1852   1.065   3.079   5.698
  637TIP3   OH2 1853   3.407   7.447   1.217
  637TIP3    H1 1854   3.352   7.442   1.296
  637TIP3    H2 1855   3.380   7.371   1.165
  638TIP3   OH2 1856   1.880   3.266   3.928
  638TIP3    H1 1857   1.865   3.240   4.018
  638TIP3    H2 1858   1.880   3.184   3.879
  639TIP3   OH2 1859   1.707   5.335   6.044
  639TIP3    H1 1860   1.775   5.402   6.044
  639TIP3    H2 1861   1.625   5.383   6.053
  640TIP3   OH2 1862   4.794   0.610   0.944
  640TIP3    H1 1863   4.792   0.521   0.979
  640TIP3    H2 1864   4.885   0.637   0.952
  641TIP3   OH2 1865   5.932   7.331   3.519
  641TIP3    H1 1866   5.995   7.317   3.589
  641TIP3    H2 1867   5.847   7.319   3.561
  642TIP3   OH2 1868   5.526   0.087   5.001
  642TIP3    H1 1869   5.472   0.107   4.924
  642TIP3    H2 1870   5.464   0.085   5.074
  643TIP3   OH2 1871   7.808   4.944   5.551
  643TIP3    H1 1872   7.740   4.989   5.602
  643TIP3    H2 1873   7.789   4.967   5.461
  644TIP3   OH2 1874   1.707   0.569   2.097
  644TIP3    H1 1875   1.767   0.595   2.166
  644TIP3    H2 1876   1.761   0.567   2.018
  645TIP3   OH2 1877   8.031   0.693   2.469
  645TIP3    H1 1878   7.952   0.651   2.502
  645TIP3    H2 1879   8.052   0.645   2.388
  646TIP3   OH2 1880   5.376   6.807   0.220
  646TIP3    H1 1881   5.305   6.778   0.163
  646TIP3    H2 1882   5.340   6.805   0.308
  647TIP3   OH2 1883   4.450   1.337   2.494
  647TIP3    H1 1884   4.523   1.276   2.499
  647TIP3    H2 1885   4.469   1.403   2.561
  648TIP3   OH2 1886   2.652   4.464   0.558
  648TIP3    H1 1887   2.673   4.556   0.575
  648TIP3    H2 1888   2.592   4.467   0.484
  649TIP3   OH2 1889   7.560   4.408   1.814
  649TIP3    H1 1890   7.490   4.355   1.776
  649TIP3    H2 1891   7.636   4.391   1.759
  650TIP3   OH2 1892   4.037   6.615   1.411
  650TIP3    H1 1893   3.954   6.651   1.381
  650TIP3    H2 1894   4.059   6.548   1.346
  651TIP3   OH2 1895   0.544   0.764   4.895
  651TIP3    H1 1896   0.556   0.693   4.832
  651TIP3    H2 1897   0.621   0.759   4.951
  652TIP3   OH2 1898   6.389   0.605   5.344
  652TIP3    H1 1899   6.319   0.547   5.375
  652TIP3    H2 1900   6.401   0.581   5.252
  653TIP3   OH2 1901   3.425   4.638   1.224
  653TIP3    H1 1902   3.359   4.705   1.207
  653TIP3    H2 1903   3.379   4.555   1.208
  654TIP3   OH2 1904   1.823   7.542   6.537
  654TIP3    H1 1905   1.759   7.596   6.582
  654TIP3    H2 1906   1.905   7.590   6.544
  655TIP3   OH2 1907   7.560   7.087   6.326
  655TIP3    H1 1908   7.637   7.129   6.365
  655TIP3    H2 1909   7.519   7.156   6.275
  656TIP3   OH2 1910   2.527   5.091   6.697
  656TIP3    H1 1911   2.561   5.002   6.687
  656TIP3    H2 1912   2.486   5.091   6.784
  657TIP3   OH2 1913   0.533   7.709   0.495
  657TIP3    H1 1914   0.509   7.650   0.566
  657TIP3    H2 1915   0.623   7.735   0.515
  658TIP3   OH2 1916   3.087   7.123   3.987
  658TIP3    H1 1917   3.056   7.046   4.036
  658TIP3    H2 1918   3.020   7.189   4.002
  659TIP3   OH2 1919   0.243   4.410   4.826
  659TIP3    H1 1920   0.258   4.408   4.920
  659TIP3    H2 1921   0.159   4.455   4.816
  660TIP3   OH2 1922   1.079   6.054   6.361
  660TIP3    H1 1923   1.134   5.986   6.402
  660TIP3    H2 1924   1.142   6.115   6.323
  661TIP3   OH2 1925   0.139   2.477   0.734
  661TIP3    H1 1926   0.217   2.456   0.786
  661TIP3    H2 1927   0.065   2.451   0.789
  662TIP3   OH2 1928   4.775   3.704   6.178
  662TIP3    H1 1929   4.715   3.760   6.228
  662TIP3    H2 1930   4.862   3.731   6.207
  663TIP3   OH2 1931   6.245   2.560   5.735
  663TIP3    H1 1932   6.155   2.591   5.735
  663TIP3    H2 1933   6.298   2.637   5.714
  664TIP3   OH2 1934   1.290   6.903   2.630
  664TIP3    H1 1935   1.329   6.989   2.622
  664TIP3    H2 1936   1.347   6.845   2.579
  665TIP3   OH2 1937   3.032   7.393   5.370
  665TIP3    H1 1938   2.970   7.321   5.373
  665TIP3    H2 1939   3.065   7.394   5.280
  666TIP3   OH2 1940   8.058   3.530   5.383
  666TIP3    H1 1941   8.001   3.493   5.316
  666TIP3    H2 1942   8.070   3.621   5.357
  667TIP3   OH2 1943   6.380   3.766   1.113
  667TIP3    H1 1944   6.379   3.672   1.130
  667TIP3    H2 1945   6.466   3.796   1.145
  668TIP3   OH2 1946   2.957   6.735   3.889
  668TIP3    H1 1947   3.035   6.680   3.887
  668TIP3    H2 1948   2.956   6.772   3.977
  669TIP3   OH2 1949   5.963   2.788   2.880
  669TIP3    H1 1950   6.021   2.730   2.830
  669TIP3    H2 1951   5.875   2.762   2.855
  670TIP3   OH2 1952   6.025   2.840   1.819
  670TIP3    H1 1953   6.058   2.929   1.823
  670TIP3    H2 1954   6.100   2.787   1.791
  671TIP3   OH2 1955   6.461   0.931   6.733
  671TIP3    H1 1956   6.468   0.836   6.748
  671TIP3    H2 1957   6.473   0.941   6.639
  672TIP3   OH2 1958   0.115   1.314   1.901
  672TIP3    H1 1959   0.136   1.305   1.994
  672TIP3    H2 1960   0.200   1.314   1.857
  673TIP3   OH2 1961   7.998   1.036   0.432
  673TIP3    H1 1962   8.014   0.948   0.400
  673TIP3    H2 1963   8.073   1.056   0.488
  674TIP3   OH2 1964   2.081   2.639   1.353
  674TIP3    H1 1965   2.160   2.690   1.370
  674TIP3    H2 1966   2.024   2.657   1.428
  675TIP3   OH2 1967   0.506   3.601   6.201
  675TIP3    H1 1968   0.426   3.581   6.250
  675TIP3    H2 1969   0.476   3.644   6.122
  676TIP3   OH2 1970   3.989   7.809   5.921
  676TIP3    H1 1971   4.055   7.742   5.940
  676TIP3    H2 1972   3.978   7.856   6.003
  677TIP3   OH2 1973   0.504   0.710   0.542
  677TIP3    H1 1974   0.465   0.624   0.528
  677TIP3    H2 1975   0.535   0.737   0.455
  678TIP3   OH2 1976   0.800   1.337   3.347
  678TIP3    H1 1977   0.846   1.389   3.281
  678TIP3    H2 1978   0.860   1.333   3.421
  679TIP3   OH2 1979   5.698   0.055   6.621
  679TIP3    H1 1980   5.670  -0.009   6.556
  679TIP3    H2 1981   5.762   0.110   6.575
  680TIP3   OH2 1982   4.831   0.932   0.727
  680TIP3    H1 1983   4.845   0.837   0.721
  680TIP3    H2 1984   4.860   0.955   0.815
  681TIP3   OH2 1985   6.281   0.007   2.229
  681TIP3    H1 1986   6.195   0.034   2.261
  681TIP3    H2 1987   6.307  -0.065   2.288
  682TIP3   OH2 1988   2.875   6.693   3.059
  682TIP3    H1 1989   2.884   6.651   3.145
  682TIP3    H2 1990   2.817   6.767   3.075
  683TIP3   OH2 1991   8.156   2.729   0.821
  683TIP3    H1 1992   8.175   2.822   0.837
  683TIP3    H2 1993   8.068   2.729   0.784
  684TIP3   OH2 1994   5.779   4.878   6.285
  684TIP3    H1 1995   5.754   4.832   6.205
  684TIP3    H2 1996   5.848   4.938   6.257
  685TIP3   OH2 1997   2.197   5.494   1.872
  685TIP3    H1 1998   2.244   5.412   1.885
  685TIP3    H2 1999   2.115   5.484   1.920
  686TIP3   OH2 2000   6.067   1.349   0.369
  686TIP3    H1 2001   6.072   1.349   0.464
  686TIP3    H2 2002   5.996   1.410   0.348
  687TIP3   OH2 2003   7.730   4.772   1.664
  687TIP3    H1 2004   7.724   4.832   1.738
  687TIP3    H2 2005   7.642   4.771   1.626
  688TIP3   OH2 2006   0.336   1.951   4.211
  688TIP3    H1 2007   0.302   1.895   4.281
  688TIP3    H2 2008   0.291   2.034   4.223
  689TIP3   OH2 2009   6.773   1.085   4.428
  689TIP3    H1 2010   6.819   1.066   4.510
  689TIP3    H2 2011   6.690   1.038   4.435
  690TIP3   OH2 2012   0.933   1.020   6.671
  690TIP3    H1 2013   0.859   0.996   6.615
  690TIP3    H2 2014   0.984   1.081   6.619
  691TIP3   OH2 2015   1.590   0.067   2.874
  691TIP3    H1 2016   1.517   0.007   2.890
  691TIP3    H2 2017   1.667   0.010   2.869
  692TIP3   OH2 2018   7.331   5.267   0.275
  692TIP3    H1 2019   7.255   5.299   0.323
  692TIP3    H2 2020   7.381   5.346   0.255
  693TIP3   OH2 2021   6.322   4.019   5.279
  693TIP3    H1 2022   6.304   3.966   5.201
  693TIP3    H2 2023   6.236   4.055   5.304
  694TIP3   OH2 2024   6.993   7.150   6.691
  694TIP3    H1 2025   7.004   7.085   6.760
  694TIP3    H2 2026   7.074   7.201   6.693
  695TIP3   OH2 2027   6.155   0.054   5.888
  695TIP3    H1 2028   6.091  -0.003   5.846
  695TIP3    H2 2029   6.240   0.022   5.857
  696TIP3   OH2 2030   4.151   2.396   5.786
  696TIP3    H1 2031   4.188   2.324   5.735
  696TIP3    H2 2032   4.186   2.475   5.745
  697TIP3   OH2 2033   6.571   5.837   3.289
  697TIP3    H1 2034   6.588   5.922   3.250
  697TIP3    H2 2035   6.477   5.822   3.276
  698TIP3   OH2 2036   2.490   4.422   3.435
  698TIP3    H1 2037   2.409   4.472   3.428
  698TIP3    H2 2038   2.493   4.367   3.357
  699TIP3   OH2 2039   6.358   4.196   1.551
  699TIP3    H1 2040   6.370   4.103   1.569
  699TIP3    H2 2041   6.417   4.241   1.611
  700TIP3   OH2 2042   4.087   0.364   2.837
  700TIP3    H1 2043   4.119   0.386   2.750
  700TIP3    H2 2044   4.080   0.268   2.837
  701TIP3   OH2 2045   0.105   3.934   5.446
  701TIP3    H1 2046   0.173   3.937   5.514
  701TIP3    H2 2047   0.088   3.841   5.433
  702TIP3   OH2 2048   7.890   5.208   6.419
  702TIP3    H1 2049   7.955   5.242   6.480
  702TIP3    H2 2050   7.856   5.286   6.374
  703TIP3   OH2 2051   1.241   1.776   0.318
  703TIP3    H1 2052   1.287   1.745   0.240
  703TIP3    H2 2053   1.154   1.799   0.288
  704TIP3   OH2 2054   4.874   2.150   5.589
  704TIP3    H1 2055   4.839   2.228   5.547
  704TIP3    H2 2056   4.956   2.133   5.544
  705TIP3   OH2 2057   3.024   6.870   4.675
  705TIP3    H1 2058   2.957   6.896   4.739
  705TIP3    H2 2059   3.089   6.939   4.679
  706TIP3   OH2 2060   3.679   4.525   1.208
  706TIP3    H1 2061   3.598   4.563   1.175
  706TIP3    H2 2062   3.652   4.470   1.282
  707TIP3   OH2 2063   4.038   0.424   6.798
  707TIP3    H1 2064   3.962   0.386   6.753
  707TIP3    H2 2065   4.113   0.396   6.746
  708TIP3   OH2 2066   1.975   5.019   5.178
  708TIP3    H1 2067   1.942   4.955   5.241
  708TIP3    H2 2068   1.953   4.983   5.092
  709TIP3   OH2 2069   0.661   5.563   5.232
  709TIP3    H1 2070   0.634   5.648   5.198
  709TIP3    H2 2071   0.579   5.523   5.263
  710TIP3   OH2 2072   6.619   3.509   0.236
  710TIP3    H1 2073   6.573   3.588   0.263
  710TIP3    H2 2074   6.552   3.456   0.194
  711TIP3   OH2 2075   6.093   3.821   5.977
  711TIP3    H1 2076   6.158   3.790   5.913
  711TIP3    H2 2077   6.044   3.742   6.001
  712TIP3   OH2 2078   6.593   3.093   4.574
  712TIP3    H1 2079   6.534   3.023   4.546
  712TIP3    H2 2080   6.680   3.057   4.560
  713TIP3   OH2 2081   5.122   7.678   2.167
  713TIP3    H1 2082   5.166   7.722   2.240
  713TIP3    H2 2083   5.113   7.588   2.196
  714TIP3   OH2 2084   6.591   1.012   2.594
  714TIP3    H1 2085   6.512   1.053   2.560
  714TIP3    H2 2086   6.644   1.084   2.628
  715TIP3   OH2 2087   4.488   4.509   0.892
  715TIP3    H1 2088   4.512   4.420   0.919
  715TIP3    H2 2089   4.499   4.509   0.797
  716TIP3   OH2 2090   3.922   1.827  -0.003
  716TIP3    H1 2091   3.920   1.901   0.059
  716TIP3    H2 2092   4.013   1.800  -0.005
  717TIP3   OH2 2093   4.225   4.337   6.620
  717TIP3    H1 2094   4.270   4.375   6.696
  717TIP3    H2 2095   4.284   4.354   6.547
  718TIP3   OH2 2096   8.162   7.559   5.986
  718TIP3    H1 2097   8.099   7.579   6.055
  718TIP3    H2 2098   8.175   7.643   5.941
  719TIP3   OH2 2099   4.455   7.540   5.547
  719TIP3    H1 2100   4.392   7.477   5.513
  719TIP3    H2 2101   4.465   7.516   5.640
  720TIP3   OH2 2102   3.913   2.983   2.773
  720TIP3    H1 2103   3.916   2.922   2.847
  720TIP3    H2 2104   3.863   2.937   2.706
  721TIP3   OH2 2105   0.366   7.652   2.402
  721TIP3    H1 2106   0.400   7.567   2.374
  721TIP3    H2 2107   0.272   7.639   2.411
  722TIP3   OH2 2108   5.074   3.310   4.627
  722TIP3    H1 2109   5.130   3.382   4.655
  722TIP3    H2 2110   5.132   3.234   4.623
  723TIP3   OH2 2111   1.912   0.731   2.903
  723TIP3    H1 2112   1.900   0.728   2.808
  723TIP3    H2 2113   1.887   0.643   2.933
  724TIP3   OH2 2114   5.956   7.724   0.967
  724TIP3    H1 2115   5.883   7.783   0.947
  724TIP3    H2 2116   5.997   7.763   1.044
  725TIP3   OH2 2117   6.159   5.232   5.384
  725TIP3    H1 2118   6.109   5.288   5.442
  725TIP3    H2 2119   6.107   5.152   5.376
  726TIP3   OH2 2120   3.879   3.105   5.134
  726TIP3    H1 2121   3.842   3.017   5.131
  726TIP3    H2 2122   3.954   3.101   5.075
  727TIP3   OH2 2123   3.972   2.669   0.830
  727TIP3    H1 2124   3.924   2.604   0.779
  727TIP3    H2 2125   3.960   2.641   0.921
  728TIP3   OH2 2126   4.945   5.496   3.059
  728TIP3    H1 2127   4.850   5.486   3.064
  728TIP3    H2 2128   4.959   5.590   3.053
  729TIP3   OH2 2129   3.066   4.931   1.002
  729TIP3    H1 2130   3.114   4.900   1.079
  729TIP3    H2 2131   2.974   4.920   1.025
  730TIP3   OH2 2132   1.418   4.233   3.469
  730TIP3    H1 2133   1.456   4.321   3.465
  730TIP3    H2 2134   1.485   4.180   3.510
  731TIP3   OH2 2135   8.225   1.999   5.991
  731TIP3    H1 2136   8.156   2.034   5.935
  731TIP3    H2 2137   8.255   2.074   6.042
  732TIP3   OH2 2138   6.805   7.460   4.617
  732TIP3    H1 2139   6.729   7.506   4.582
  732TIP3    H2 2140   6.880   7.505   4.579
  733TIP3   OH2 2141   0.042   7.518   4.166
  733TIP3    H1 2142   0.118   7.501   4.221
  733TIP3    H2 2143  -0.009   7.437   4.170
  734TIP3   OH2 2144   8.123   1.999   0.101
  734TIP3    H1 2145   8.074   2.064   0.151
  734TIP3    H2 2146   8.087   2.003   0.013
  735TIP3   OH2 2147   4.735   1.964   5.742
  735TIP3    H1 2148   4.766   1.883   5.701
  735TIP3    H2 2149   4.780   2.033   5.693
  736TIP3   OH2 2150   3.320   5.401   4.382
  736TIP3    H1 2151   3.257   5.335   4.411
  736TIP3    H2 2152   3.274   5.452   4.316
  737TIP3   OH2 2153   0.613   1.092   1.014
  737TIP3    H1 2154   0.556   1.159   0.976
  737TIP3    H2 2155   0.680   1.077   0.947
  738TIP3   OH2 2156   1.515   0.927   5.688
  738TIP3    H1 2157   1.505   0.848   5.741
  738TIP3    H2 2158   1.584   0.977   5.732
  739TIP3   OH2 2159   1.591   3.769   1.712
  739TIP3    H1 2160   1.613   3.851   1.758
  739TIP3    H2 2161   1.523   3.729   1.765
  740TIP3   OH2 2162   6.494   6.524   0.577
  740TIP3    H1 2163   6.441   6.575   0.516
  740TIP3    H2 2164   6.440   6.447   0.598
  741TIP3   OH2 2165   5.981   3.215   0.607
  741TIP3    H1 2166   5.903   3.194   0.555
  741TIP3    H2 2167   5.978   3.154   0.681
  742TIP3   OH2 2168   2.958   5.603   4.916
  742TIP3    H1 2169   3.048   5.633   4.917
  742TIP3    H2 2170   2.927   5.620   4.827
  743TIP3   OH2 2171   3.279   7.305   4.909
  743TIP3    H1 2172   3.344   7.242   4.939
  743TIP3    H2 2173   3.237   7.263   4.835
  744TIP3   OH2 2174   4.920   3.599   2.936
  744TIP3    H1 2175   4.972   3.650   2.873
  744TIP3    H2 2176   4.908   3.514   2.894
  745TIP3   OH2 2177   3.977   5.695   0.681
  745TIP3    H1 2178   4.017   5.672   0.597
  745TIP3    H2 2179   3.948   5.612   0.718
  746TIP3   OH2 2180   4.613   5.224   5.853
  746TIP3    H1 2181   4.529   5.211   5.897
  746TIP3    H2 2182   4.635   5.139   5.816
  747TIP3   OH2 2183   1.897   0.549   1.316
  747TIP3    H1 2184   1.966   0.579   1.375
  747TIP3    H2 2185   1.842   0.626   1.302
  748TIP3   OH2 2186   4.684   1.575   6.370
  748TIP3    H1 2187   4.767   1.528   6.384
  748TIP3    H2 2188   4.633   1.557   6.448
  749TIP3   OH2 2189   1.493   3.373   6.265
  749TIP3    H1 2190   1.575   3.346   6.307
  749TIP3    H2 2191   1.444   3.416   6.334
  750TIP3   OH2 2192   3.081   5.099   3.910
  750TIP3    H1 2193   3.037   5.041   3.849
  750TIP3    H2 2194   3.145   5.043   3.954
  751TIP3   OH2 2195   5.363   5.881   6.174
  751TIP3    H1 2196   5.283   5.926   6.146
  751TIP3    H2 2197   5.369   5.899   6.267
  752TIP3   OH2 2198   6.032   0.879   5.165
  752TIP3    H1 2199   6.122   0.899   5.189
  752TIP3    H2 2200   6.031   0.784   5.153
  753TIP3   OH2 2201   7.121   4.708   1.067
  753TIP3    H1 2202   7.113   4.622   1.027
  753TIP3    H2 2203   7.186   4.696   1.137
  754TIP3   OH2 2204   5.449   2.439   6.160
  754TIP3    H1 2205   5.378   2.489   6.201
  754TIP3    H2 2206   5.488   2.500   6.098
  755TIP3   OH2 2207   0.637   1.383   5.731
  755TIP3    H1 2208   0.570   1.449   5.714
  755TIP3    H2 2209   0.594   1.318   5.786
  756TIP3   OH2 2210   2.228   2.401   4.313
  756TIP3    H1 2211   2.282   2.370   4.387
  756TIP3    H2 2212   2.193   2.485   4.342
  757TIP3   OH2 2213   5.441   2.849   3.470
  757TIP3    H1 2214   5.432   2.913   3.399
  757TIP3    H2 2215   5.397   2.890   3.545
  758TIP3   OH2 2216   5.259   4.295   4.955
  758TIP3    H1 2217   5.169   4.265   4.967
  758TIP3    H2 2218   5.272   4.362   5.021
  759TIP3   OH2 2219   3.401   2.046   0.279
  759TIP3    H1 2220   3.450   1.970   0.250
  759TIP3    H2 2221   3.412   2.110   0.209
  760TIP3   OH2 2222   7.787   3.784   2.993
  760TIP3    H1 2223   7.724   3.712   2.995
  760TIP3    H2 2224   7.812   3.792   2.901
  761TIP3   OH2 2225   4.779   2.936   3.792
  761TIP3    H1 2226   4.810   2.865   3.735
  761TIP3    H2 2227   4.852   2.949   3.853
  762TIP3   OH2 2228   3.147   4.832   6.554
  762TIP3    H1 2229   3.196   4.753   6.532
  762TIP3    H2 2230   3.166   4.894   6.483
  763TIP3   OH2 2231   6.332   6.201   2.199
  763TIP3    H1 2232   6.408   6.248   2.236
  763TIP3    H2 2233   6.294   6.155   2.274
  764TIP3   OH2 2234   4.672   0.017   2.262
  764TIP3    H1 2235   4.665   0.085   2.329
  764TIP3    H2 2236   4.766   0.011   2.243
  765TIP3   OH2 2237   6.445   0.143   1.801
  765TIP3    H1 2238   6.370   0.165   1.746
  765TIP3    H2 2239   6.413   0.074   1.859
  766TIP3   OH2 2240   2.348   5.009   5.325
  766TIP3    H1 2241   2.279   5.065   5.290
  766TIP3    H2 2242   2.301   4.941   5.374
  767TIP3   OH2 2243   8.266   7.428   2.471
  767TIP3    H1 2244   8.186   7.437   2.419
  767TIP3    H2 2245   8.257   7.342   2.514
  768TIP3   OH2 2246   0.319   7.255   1.777
  768TIP3    H1 2247   0.388   7.225   1.718
  768TIP3    H2 2248   0.332   7.350   1.783
  769TIP3   OH2 2249   3.450   5.800   4.445
  769TIP3    H1 2250   3.363   5.822   4.480
  769TIP3    H2 2251   3.498   5.765   4.520
  770TIP3   OH2 2252   5.475   2.486   4.902
  770TIP3    H1 2253   5.500   2.552   4.837
  770TIP3    H2 2254   5.441   2.413   4.850
  771TIP3   OH2 2255   0.873   7.741   0.340
  771TIP3    H1 2256   0.893   7.823   0.385
  771TIP3    H2 2257   0.895   7.673   0.404
  772TIP3   OH2 2258   4.080   1.515   1.738
  772TIP3    H1 2259   4.100   1.601   1.775
  772TIP3    H2 2260   4.058   1.533   1.646
  773TIP3   OH2 2261   1.408   5.052   6.264
  773TIP3    H1 2262   1.389   5.079   6.174
  773TIP3    H2 2263   1.351   5.107   6.318
  774TIP3   OH2 2264   4.200   2.048   1.371
  774TIP3    H1 2265   4.220   2.047   1.277
  774TIP3    H2 2266   4.138   2.120   1.382
  775TIP3   OH2 2267   6.308   7.423   4.523
  775TIP3    H1 2268   6.366   7.403   4.597
  775TIP3    H2 2269   6.245   7.485   4.559
  776TIP3   OH2 2270   2.180   7.150   6.317
  776TIP3    H1 2271   2.215   7.196   6.394
  776TIP3    H2 2272   2.192   7.212   6.245
  777TIP3   OH2 2273   2.239   5.535   4.253
  777TIP3    H1 2274   2.319   5.559   4.205
  777TIP3    H2 2275   2.243   5.440   4.262
  778TIP3   OH2 2276   1.207   3.400   1.341
  778TIP3    H1 2277   1.162   3.444   1.413
  778TIP3    H2 2278   1.137   3.378   1.279
  779TIP3   OH2 2279   0.498   1.534   1.732
  779TIP3    H1 2280   0.459   1.447   1.743
  779TIP3    H2 2281   0.578   1.519   1.683
  780TIP3   OH2 2282   0.411   2.663   3.644
  780TIP3    H1 2283   0.439   2.611   3.719
  780TIP3    H2 2284   0.374   2.743   3.683
  781TIP3   OH2 2285   3.506   1.219   3.208
  781TIP3    H1 2286   3.566   1.226   3.133
  781TIP3    H2 2287   3.424   1.255   3.176
  782TIP3   OH2 2288   3.249   6.125   1.524
  782TIP3    H1 2289   3.262   6.171   1.441
  782TIP3    H2 2290   3.197   6.186   1.577
  783TIP3   OH2 2291   0.759   6.476   1.957
  783TIP3    H1 2292   0.679   6.528   1.967
  783TIP3    H2 2293   0.829   6.533   1.989
  784TIP3   OH2 2294   0.632   2.322   0.423
  784TIP3    H1 2295   0.682   2.386   0.372
  784TIP3    H2 2296   0.567   2.289   0.362
  785TIP3   OH2 2297   2.607   6.363   2.272
  785TIP3    H1 2298   2.542   6.433   2.264
  785TIP3    H2 2299   2.682   6.395   2.223
  786TIP3   OH2 2300   1.382   7.568   1.673
  786TIP3    H1 2301   1.433   7.616   1.608
  786TIP3    H2 2302   1.291   7.589   1.652
  787TIP3   OH2 2303   0.351   3.677   4.919
  787TIP3    H1 2304   0.347   3.772   4.907
  787TIP3    H2 2305   0.439   3.660   4.951
  788TIP3   OH2 2306   2.933   7.127   5.438
  788TIP3    H1 2307   3.009   7.072   5.455
  788TIP3    H2 2308   2.866   7.095   5.498
  789TIP3   OH2 2309   8.113   1.510   0.338
  789TIP3    H1 2310   8.017   1.516   0.339
  789TIP3    H2 2311   8.132   1.434   0.394
  790TIP3   OH2 2312   5.746   6.700   2.205
  790TIP3    H1 2313   5.741   6.792   2.231
  790TIP3    H2 2314   5.703   6.652   2.276
  791TIP3   OH2 2315   7.143   7.632   0.985
  791TIP3    H1 2316   7.149   7.540   0.960
  791TIP3    H2 2317   7.224   7.671   0.953
  792TIP3   OH2 2318   7.920   1.659   1.632
  792TIP3    H1 2319   7.990   1.723   1.628
  792TIP3    H2 2320   7.961   1.576   1.608
  793TIP3   OH2 2321   7.538   4.212   5.427
  793TIP3    H1 2322   7.629   4.239   5.441
  793TIP3    H2 2323   7.492   4.293   5.407
  794TIP3   OH2 2324   1.922   3.092   5.289
  794TIP3    H1 2325   1.864   3.032   5.336
  794TIP3    H2 2326   1.996   3.105   5.348
  795TIP3   OH2 2327   6.201   1.555   6.360
  795TIP3    H1 2328   6.138   1.627   6.366
  795TIP3    H2 2329   6.197   1.527   6.269
  796TIP3   OH2 2330   5.400   2.582   1.536
  796TIP3    H1 2331   5.347   2.569   1.614
  796TIP3    H2 2332   5.487   2.602   1.569
  797TIP3   OH2 2333   7.641   6.194   2.300
  797TIP3    H1 2334   7.581   6.231   2.235
  797TIP3    H2 2335   7.663   6.268   2.357
  798TIP3   OH2 2336   0.863   1.552   2.462
  798TIP3    H1 2337   0.955   1.580   2.458
  798TIP3    H2 2338   0.814   1.627   2.427
  799TIP3   OH2 2339   4.985   5.085   5.150
  799TIP3    H1 2340   5.025   5.158   5.197
  799TIP3    H2 2341   4.968   5.120   5.062
  800TIP3   OH2 2342   2.147   5.783   5.168
  800TIP3    H1 2343   2.161   5.757   5.077
  800TIP3    H2 2344   2.235   5.799   5.202
  801TIP3   OH2 2345   1.791   3.307   2.647
  801TIP3    H1 2346   1.695   3.312   2.643
  801TIP3    H2 2347   1.819   3.321   2.556
  802TIP3   OH2 2348   3.047   4.038   4.079
  802TIP3    H1 2349   2.956   4.019   4.057
  802TIP3    H2 2350   3.087   4.063   3.996
  803TIP3   OH2 2351   2.635   6.634   1.156
  803TIP3    H1 2352   2.625   6.711   1.212
  803TIP3    H2 2353   2.602   6.662   1.070
  804TIP3   OH2 2354   4.351   1.407   4.358
  804TIP3    H1 2355   4.259   1.429   4.354
  804TIP3    H2 2356   4.371   1.372   4.271
  805TIP3   OH2 2357   5.284   0.930   1.605
  805TIP3    H1 2358   5.326   0.908   1.522
  805TIP3    H2 2359   5.192   0.906   1.592
  806TIP3   OH2 2360   3.925   4.427   6.403
  806TIP3    H1 2361   3.913   4.422   6.498
  806TIP3    H2 2362   3.943   4.519   6.386
  807TIP3   OH2 2363   3.906   4.901   5.477
  807TIP3    H1 2364   3.835   4.925   5.418
  807TIP3    H2 2365   3.932   4.813   5.449
  808TIP3   OH2 2366   7.545   0.071   1.689
  808TIP3    H1 2367   7.568   0.017   1.613
  808TIP3    H2 2368   7.624   0.121   1.708
  809TIP3   OH2 2369   2.848   1.158   3.483
  809TIP3    H1 2370   2.850   1.148   3.578
  809TIP3    H2 2371   2.856   1.069   3.450
  810TIP3   OH2 2372   4.391   4.521   4.579
  810TIP3    H1 2373   4.360   4.454   4.519
  810TIP3    H2 2374   4.484   4.502   4.590
  811TIP3   OH2 2375   3.775   2.112   0.863
  811TIP3    H1 2376   3.716   2.044   0.829
  811TIP3    H2 2377   3.842   2.063   0.910
  812TIP3   OH2 2378   7.474   6.134   3.105
  812TIP3    H1 2379   7.479   6.109   3.198
  812TIP3    H2 2380   7.541   6.080   3.063
  813TIP3   OH2 2381   5.415   2.950   1.403
  813TIP3    H1 2382   5.394   2.988   1.488
  813TIP3    H2 2383   5.389   3.018   1.340
  814TIP3   OH2 2384   8.147   3.104   4.586
  814TIP3    H1 2385   8.176   3.019   4.552
  814TIP3    H2 2386   8.228   3.150   4.607
  815TIP3   OH2 2387   1.814   6.590   1.873
  815TIP3    H1 2388   1.808   6.497   1.893
  815TIP3    H2 2389   1.868   6.595   1.795
  816TIP3   OH2 2390   0.824   2.021   3.670
  816TIP3    H1 2391   0.729   2.013   3.675
  816TIP3    H2 2392   0.842   2.029   3.576
  817TIP3   OH2 2393   6.346   7.003   2.516
  817TIP3    H1 2394   6.273   7.063   2.534
  817TIP3    H2 2395   6.394   6.998   2.599
  818TIP3   OH2 2396   6.527   2.349   1.842
  818TIP3    H1 2397   6.556   2.259   1.832
  818TIP3    H2 2398   6.466   2.363   1.770
  819TIP3   OH2 2399   4.757   1.472   3.479
  819TIP3    H1 2400   4.811   1.547   3.507
  819TIP3    H2 2401   4.818   1.415   3.431
  820TIP3   OH2 2402   6.776   2.132   4.196
  820TIP3    H1 2403   6.777   2.138   4.101
  820TIP3    H2 2404   6.721   2.055   4.214
  821TIP3   OH2 2405   7.232   2.771   4.496
  821TIP3    H1 2406   7.281   2.705   4.447
  821TIP3    H2 2407   7.274   2.854   4.472
  822TIP3   OH2 2408   7.559   1.521   3.634
  822TIP3    H1 2409   7.592   1.433   3.620
  822TIP3    H2 2410   7.475   1.509   3.679
  823TIP3   OH2 2411   6.059   4.297   2.364
  823TIP3    H1 2412   6.093   4.362   2.425
  823TIP3    H2 2413   6.134   4.239   2.347
  824TIP3   OH2 2414   6.202   4.480  -0.006
  824TIP3    H1 2415   6.205   4.482   0.090
  824TIP3    H2 2416   6.173   4.392  -0.027
  825TIP3   OH2 2417   5.400   0.610   2.909
  825TIP3    H1 2418   5.403   0.600   2.814
  825TIP3    H2 2419   5.337   0.680   2.924
  826TIP3   OH2 2420   0.579   6.340   2.217
  826TIP3    H1 2421   0.598   6.433   2.205
  826TIP3    H2 2422   0.486   6.337   2.238
  827TIP3   OH2 2423   7.586   5.498   4.809
  827TIP3    H1 2424   7.605   5.591   4.814
  827TIP3    H2 2425   7.507   5.492   4.755
  828TIP3   OH2 2426   5.013   7.243   4.258
  828TIP3    H1 2427   5.076   7.265   4.326
  828TIP3    H2 2428   5.014   7.148   4.254
  829TIP3   OH2 2429   2.035   1.003   6.452
  829TIP3    H1 2430   2.074   0.987   6.538
  829TIP3    H2 2431   1.995   0.920   6.428
  830TIP3   OH2 2432   5.959   0.895   6.408
  830TIP3    H1 2433   5.936   0.836   6.336
  830TIP3    H2 2434   5.903   0.866   6.481
  831TIP3   OH2 2435   4.721   6.417   0.348
  831TIP3    H1 2436   4.757   6.336   0.313
  831TIP3    H2 2437   4.791   6.454   0.402
  832TIP3   OH2 2438   2.452   3.817   4.943
  832TIP3    H1 2439   2.455   3.912   4.929
  832TIP3    H2 2440   2.489   3.780   4.864
  833TIP3   OH2 2441   0.473   0.913   2.977
  833TIP3    H1 2442   0.401   0.856   3.003
  833TIP3    H2 2443   0.430   0.991   2.942
  834TIP3   OH2 2444   3.049   2.381   6.412
  834TIP3    H1 2445   3.125   2.324   6.405
  834TIP3    H2 2446   3.037   2.394   6.506
  835TIP3   OH2 2447   2.885   4.874   1.985
  835TIP3    H1 2448   2.919   4.832   2.064
  835TIP3    H2 2449   2.958   4.872   1.924
  836TIP3   OH2 2450   2.470   7.801   4.006
  836TIP3    H1 2451   2.532   7.760   3.946
  836TIP3    H2 2452   2.387   7.799   3.960
  837TIP3   OH2 2453   2.218   1.346   4.519
  837TIP3    H1 2454   2.172   1.364   4.437
  837TIP3    H2 2455   2.153   1.304   4.575
  838TIP3   OH2 2456   5.526   4.431   3.262
  838TIP3    H1 2457   5.538   4.491   3.336
  838TIP3    H2 2458   5.494   4.487   3.191
  839TIP3   OH2 2459   3.628   7.282   4.276
  839TIP3    H1 2460   3.722   7.274   4.292
  839TIP3    H2 2461   3.587   7.248   4.355
  840TIP3   OH2 2462   5.218   3.220   0.211
  840TIP3    H1 2463   5.241   3.262   0.128
  840TIP3    H2 2464   5.246   3.129   0.200
  841TIP3   OH2 2465   2.136   6.938   5.978
  841TIP3    H1 2466   2.132   6.859   5.925
  841TIP3    H2 2467   2.187   6.914   6.055
  842TIP3   OH2 2468   6.645   5.168   1.529
  842TIP3    H1 2469   6.631   5.171   1.624
  842TIP3    H2 2470   6.649   5.074   1.509
  843TIP3   OH2 2471   1.350   6.332   4.733
  843TIP3    H1 2472   1.403   6.252   4.730
  843TIP3    H2 2473   1.330   6.344   4.826
  844TIP3   OH2 2474   8.206   3.432   1.572
  844TIP3    H1 2475   8.132   3.444   1.631
  844TIP3    H2 2476   8.283   3.439   1.628
  845TIP3   OH2 2477   6.568   4.305   5.507
  845TIP3    H1 2478   6.580   4.227   5.451
  845TIP3    H2 2479   6.650   4.312   5.555
  846TIP3   OH2 2480   0.759   1.269   1.213
  846TIP3    H1 2481   0.726   1.205   1.150
  846TIP3    H2 2482   0.697   1.342   1.206
  847TIP3   OH2 2483   3.699   6.827   3.666
  847TIP3    H1 2484   3.683   6.819   3.572
  847TIP3    H2 2485   3.709   6.737   3.697
  848TIP3   OH2 2486   6.202   0.278   6.046
  848TIP3    H1 2487   6.188   0.192   6.007
  848TIP3    H2 2488   6.203   0.262   6.140
  849TIP3   OH2 2489   1.002   7.693   2.364
  849TIP3    H1 2490   0.995   7.780   2.405
  849TIP3    H2 2491   0.929   7.643   2.401
  850TIP3   OH2 2492   4.472   7.794   1.435
  850TIP3    H1 2493   4.457   7.725   1.500
  850TIP3    H2 2494   4.437   7.758   1.354
  851TIP3   OH2 2495   2.629   3.498   3.714
  851TIP3    H1 2496   2.683   3.434   3.667
  851TIP3    H2 2497   2.542   3.489   3.675
  852TIP3   OH2 2498   0.654   5.572   0.225
  852TIP3    H1 2499   0.739   5.608   0.198
  852TIP3    H2 2500   0.676   5.485   0.261
  853TIP3   OH2 2501   2.985   5.353   6.321
  853TIP3    H1 2502   3.064   5.403   6.300
  853TIP3    H2 2503   2.969   5.370   6.414
  854TIP3   OH2 2504   2.187   0.215   5.955
  854TIP3    H1 2505   2.113   0.215   5.894
  854TIP3    H2 2506   2.178   0.296   6.005
  855TIP3   OH2 2507   4.949   5.635   4.995
  855TIP3    H1 2508   4.909   5.584   5.066
  855TIP3    H2 2509   4.932   5.584   4.916
  856TIP3   OH2 2510   5.351   5.975   3.815
  856TIP3    H1 2511   5.348   5.881   3.798
  856TIP3    H2 2512   5.422   5.986   3.879
  857TIP3   OH2 2513   6.753   3.183   0.807
  857TIP3    H1 2514   6.743   3.197   0.902
  857TIP3    H2 2515   6.723   3.265   0.768
  858TIP3   OH2 2516   5.304   4.861   2.146
  858TIP3    H1 2517   5.353   4.902   2.217
  858TIP3    H2 2518   5.324   4.915   2.069
  859TIP3   OH2 2519   5.915   1.964   1.774
  859TIP3    H1 2520   5.840   2.018   1.750
  859TIP3    H2 2521   5.938   1.993   1.862
  860TIP3   OH2 2522   5.706   6.765   1.928
  860TIP3    H1 2523   5.765   6.752   2.003
  860TIP3    H2 2524   5.622   6.731   1.958
  861TIP3   OH2 2525   5.830   3.304   6.130
  861TIP3    H1 2526   5.896   3.373   6.136
  861TIP3    H2 2527   5.775   3.316   6.208
  862TIP3   OH2 2528   5.289   0.733   4.708
  862TIP3    H1 2529   5.321   0.695   4.626
  862TIP3    H2 2530   5.195   0.743   4.695
  863TIP3   OH2 2531   3.862   7.467   5.867
  863TIP3    H1 2532   3.846   7.508   5.951
  863TIP3    H2 2533   3.781   7.421   5.846
  864TIP3   OH2 2534   1.373   3.912   5.137
  864TIP3    H1 2535   1.402   3.974   5.070
  864TIP3    H2 2536   1.429   3.931   5.213
  865TIP3   OH2 2537   5.786   1.368   5.747
  865TIP3    H1 2538   5.726   1.443   5.737
  865TIP3    H2 2539   5.817   1.351   5.659
  866TIP3   OH2 2540   0.513   2.577   2.067
  866TIP3    H1 2541   0.580   2.604   2.004
  866TIP3    H2 2542   0.440   2.548   2.013
  867TIP3   OH2 2543   0.179   3.507   2.277
  867TIP3    H1 2544   0.116   3.452   2.231
  867TIP3    H2 2545   0.177   3.475   2.367
  868TIP3   OH2 2546   3.352   5.972   3.961
  868TIP3    H1 2547   3.417   5.924   4.012
  868TIP3    H2 2548   3.286   5.998   4.025
  869TIP3   OH2 2549   4.316   4.908   2.282
  869TIP3    H1 2550   4.319   4.999   2.312
  869TIP3    H2 2551   4.243   4.906   2.220
  870TIP3   OH2 2552   1.446   2.691   4.309
  870TIP3    H1 2553   1.421   2.606   4.344
  870TIP3    H2 2554   1.449   2.678   4.214
  871TIP3   OH2 2555   6.170   5.644   0.258
  871TIP3    H1 2556   6.083   5.615   0.285
  871TIP3    H2 2557   6.179   5.612   0.168
  872TIP3   OH2 2558   6.248   4.660   1.216
  872TIP3    H1 2559   6.171   4.670   1.272
  872TIP3    H2 2560   6.272   4.750   1.193
  873TIP3   OH2 2561   3.762   3.037   4.546
  873TIP3    H1 2562   3.797   3.029   4.458
  873TIP3    H2 2563   3.740   2.948   4.572
  874TIP3   OH2 2564   5.933   0.444   0.839
  874TIP3    H1 2565   5.937   0.382   0.767
  874TIP3    H2 2566   5.843   0.478   0.837
  875TIP3   OH2 2567   0.790   7.198   3.648
  875TIP3    H1 2568   0.883   7.200   3.672
  875TIP3    H2 2569   0.755   7.120   3.691
  876TIP3   OH2 2570   3.539   3.208   4.108
  876TIP3    H1 2571   3.520   3.192   4.200
  876TIP3    H2 2572   3.567   3.299   4.104
  877TIP3   OH2 2573   2.785   4.867   4.755
  877TIP3    H1 2574   2.849   4.907   4.814
  877TIP3    H2 2575   2.700   4.892   4.791
  878TIP3   OH2 2576   3.287   2.785   3.098
  878TIP3    H1 2577   3.218   2.750   3.154
  878TIP3    H2 2578   3.313   2.711   3.043
  879TIP3   OH2 2579   6.344   1.652   0.071
  879TIP3    H1 2580   6.391   1.622   0.148
  879TIP3    H2 2581   6.361   1.746   0.067
  880TIP3   OH2 2582   3.147   3.729   1.741
  880TIP3    H1 2583   3.188   3.750   1.825
  880TIP3    H2 2584   3.055   3.714   1.763
  881TIP3   OH2 2585   7.222   4.211   4.920
  881TIP3    H1 2586   7.290   4.144   4.923
  881TIP3    H2 2587   7.148   4.170   4.875
  882TIP3   OH2 2588   4.427   0.779   4.753
  882TIP3    H1 2589   4.492   0.831   4.706
  882TIP3    H2 2590   4.473   0.700   4.780
  883TIP3   OH2 2591   3.591   1.130   6.737
  883TIP3    H1 2592   3.506   1.103   6.773
  883TIP3    H2 2593   3.651   1.060   6.763
  884TIP3   OH2 2594   1.401   3.906   5.653
  884TIP3    H1 2595   1.322   3.951   5.623
  884TIP3    H2 2596   1.409   3.830   5.594
  885TIP3   OH2 2597   3.341   0.646   2.846
  885TIP3    H1 2598   3.262   0.681   2.887
  885TIP3    H2 2599   3.400   0.721   2.841
  886TIP3   OH2 2600   0.078   3.714   1.325
  886TIP3    H1 2601   0.159   3.765   1.312
  886TIP3    H2 2602   0.030   3.763   1.393
  887TIP3   OH2 2603   0.931   0.130   1.073
  887TIP3    H1 2604   1.025   0.112   1.065
  887TIP3    H2 2605   0.925   0.203   1.134
  888TIP3   OH2 2606   5.922   3.924   0.283
  888TIP3    H1 2607   5.837   3.880   0.278
  888TIP3    H2 2608   5.936   3.960   0.195
  889TIP3   OH2 2609   1.285   6.217   0.268
  889TIP3    H1 2610   1.371   6.217   0.308
  889TIP3    H2 2611   1.302   6.232   0.175
  890TIP3   OH2 2612   4.430   1.052   2.666
  890TIP3    H1 2613   4.511   1.072   2.620
  890TIP3    H2 2614   4.411   0.961   2.644
  891TIP3   OH2 2615   7.462   6.919   0.148
  891TIP3    H1 2616   7.389   6.911   0.210
  891TIP3    H2 2617   7.507   7.000   0.174
  892TIP3   OH2 2618   6.001   3.479   4.303
  892TIP3    H1 2619   6.036   3.565   4.327
  892TIP3    H2 2620   5.922   3.498   4.253
  893TIP3   OH2 2621   6.673   7.265   4.813
  893TIP3    H1 2622   6.592   7.309   4.841
  893TIP3    H2 2623   6.692   7.304   4.727
  894TIP3   OH2 2624   0.038   3.658   2.753
  894TIP3    H1 2625   0.063   3.625   2.840
  894TIP3    H2 2626   0.104   3.725   2.733
  895TIP3   OH2 2627   0.218   5.651   2.424
  895TIP3    H1 2628   0.257   5.717   2.481
  895TIP3    H2 2629   0.191   5.700   2.347
  896TIP3   OH2 2630   3.550   2.933   6.193
  896TIP3    H1 2631   3.624   2.987   6.219
  896TIP3    H2 2632   3.576   2.844   6.216
  897TIP3   OH2 2633   1.300   1.763   5.784
  897TIP3    H1 2634   1.389   1.731   5.798
  897TIP3    H2 2635   1.244   1.700   5.829
  898TIP3   OH2 2636   7.050   1.983   4.572
  898TIP3    H1 2637   7.092   2.043   4.511
  898TIP3    H2 2638   6.966   1.963   4.532
  899TIP3   OH2 2639   6.541   0.559   1.635
  899TIP3    H1 2640   6.632   0.568   1.662
  899TIP3    H2 2641   6.538   0.474   1.591
  900TIP3   OH2 2642   7.046   1.721   6.642
  900TIP3    H1 2643   7.041   1.808   6.682
  900TIP3    H2 2644   7.109   1.730   6.571
  901TIP3   OH2 2645   2.824   4.091   0.667
  901TIP3    H1 2646   2.737   4.081   0.628
  901TIP3    H2 2647   2.870   4.150   0.607
  902TIP3   OH2 2648   4.855   4.090   3.714
  902TIP3    H1 2649   4.816   4.147   3.648
  902TIP3    H2 2650   4.782   4.038   3.747
  903TIP3   OH2 2651   4.903   4.397   1.340
  903TIP3    H1 2652   4.981   4.352   1.307
  903TIP3    H2 2653   4.892   4.365   1.429
  904TIP3   OH2 2654   3.742   7.315   2.430
  904TIP3    H1 2655   3.649   7.324   2.450
  904TIP3    H2 2656   3.746   7.296   2.336
  905TIP3   OH2 2657   0.813   4.207   4.146
  905TIP3    H1 2658   0.745   4.274   4.143
  905TIP3    H2 2659   0.865   4.221   4.067
  906TIP3   OH2 2660   6.111   2.532   3.982
  906TIP3    H1 2661   6.137   2.452   3.935
  906TIP3    H2 2662   6.019   2.517   4.006
  907TIP3   OH2 2663   4.448   3.801   4.488
  907TIP3    H1 2664   4.514   3.766   4.549
  907TIP3    H2 2665   4.430   3.728   4.428
  908TIP3   OH2 2666   6.458   2.639   1.549
  908TIP3    H1 2667   6.539   2.688   1.534
  908TIP3    H2 2668   6.488   2.551   1.571
  909TIP3   OH2 2669   5.046   4.201   1.755
  909TIP3    H1 2670   5.114   4.147   1.714
  909TIP3    H2 2671   5.019   4.149   1.832
  910TIP3   OH2 2672   2.827   1.590   3.932
  910TIP3    H1 2673   2.772   1.568   3.856
  910TIP3    H2 2674   2.850   1.506   3.971
  911TIP3   OH2 2675   6.185   1.289   2.963
  911TIP3    H1 2676   6.163   1.230   3.034
  911TIP3    H2 2677   6.281   1.284   2.957
  912TIP3   OH2 2678   3.200   0.517   4.395
  912TIP3    H1 2679   3.181   0.485   4.483
  912TIP3    H2 2680   3.284   0.477   4.372
  913TIP3   OH2 2681   0.658   2.127   0.757
  913TIP3    H1 2682   0.721   2.198   0.766
  913TIP3    H2 2683   0.633   2.105   0.846
  914TIP3   OH2 2684   6.254   1.581   3.513
  914TIP3    H1 2685   6.226   1.490   3.518
  914TIP3    H2 2686   6.328   1.587   3.573
  915TIP3   OH2 2687   7.708   3.848   5.059
  915TIP3    H1 2688   7.663   3.832   4.976
  915TIP3    H2 2689   7.729   3.941   5.058
  916TIP3   OH2 2690   6.512   5.804   5.171
  916TIP3    H1 2691   6.585   5.789   5.232
  916TIP3    H2 2692   6.436   5.769   5.216
  917TIP3   OH2 2693   4.725   2.657   1.914
  917TIP3    H1 2694   4.743   2.589   1.979
  917TIP3    H2 2695   4.782   2.730   1.939
  918TIP3   OH2 2696   3.435   4.657   2.331
  918TIP3    H1 2697   3.512   4.621   2.288
  918TIP3    H2 2698   3.362   4.604   2.297
  919TIP3   OH2 2699   4.960   6.913   0.261
  919TIP3    H1 2700   4.867   6.931   0.247
  919TIP3    H2 2701   4.965   6.877   0.349
  920TIP3   OH2 2702   4.216   4.515   5.086
  920TIP3    H1 2703   4.246   4.554   5.004
  920TIP3    H2 2704   4.123   4.538   5.091
  921TIP3   OH2 2705   1.827   0.094   5.544
  921TIP3    H1 2706   1.921   0.102   5.528
  921TIP3    H2 2707   1.807   0.003   5.521
  922TIP3   OH2 2708   3.358   6.775   5.507
  922TIP3    H1 2709   3.379   6.804   5.596
  922TIP3    H2 2710   3.389   6.684   5.504
  923TIP3   OH2 2711   0.450   1.698   4.121
  923TIP3    H1 2712   0.382   1.764   4.123
  923TIP3    H2 2713   0.526   1.741   4.159
  924TIP3   OH2 2714   6.928   5.560   3.231
  924TIP3    H1 2715   6.925   5.467   3.252
  924TIP3    H2 2716   6.938   5.563   3.136
  925TIP3   OH2 2717   5.527   7.180   6.091
  925TIP3    H1 2718   5.460   7.156   6.026
  925TIP3    H2 2719   5.606   7.136   6.061
  926TIP3   OH2 2720   2.476   0.148   6.396
  926TIP3    H1 2721   2.479   0.235   6.436
  926TIP3    H2 2722   2.552   0.145   6.338
  927TIP3   OH2 2723   6.130   2.540   3.092
  927TIP3    H1 2724   6.165   2.577   3.174
  927TIP3    H2 2725   6.187   2.576   3.024
  928TIP3   OH2 2726   0.569   4.642   5.757
  928TIP3    H1 2727   0.655   4.677   5.735
  928TIP3    H2 2728   0.513   4.669   5.684
  929TIP3   OH2 2729   3.352   3.635   1.052
  929TIP3    H1 2730   3.319   3.717   1.017
  929TIP3    H2 2731   3.320   3.632   1.142
  930TIP3   OH2 2732   1.088   6.077   5.887
  930TIP3    H1 2733   1.070   6.169   5.867
  930TIP3    H2 2734   1.105   6.037   5.801
  931TIP3   OH2 2735   2.112   0.083   4.120
  931TIP3    H1 2736   2.184   0.124   4.167
  931TIP3    H2 2737   2.042   0.077   4.186
  932TIP3   OH2 2738   0.414   4.583   0.840
  932TIP3    H1 2739   0.355   4.539   0.902
  932TIP3    H2 2740   0.502   4.560   0.871
  933TIP3   OH2 2741   1.760   2.593   2.726
  933TIP3    H1 2742   1.746   2.648   2.648
  933TIP3    H2 2743   1.727   2.646   2.799
  934TIP3   OH2 2744   0.155   6.399   3.305
  934TIP3    H1 2745   0.186   6.328   3.248
  934TIP3    H2 2746   0.192   6.478   3.267
  935TIP3   OH2 2747   7.515   5.940   3.863
  935TIP3    H1 2748   7.500   6.013   3.803
  935TIP3    H2 2749   7.490   5.974   3.949
  936TIP3   OH2 2750   3.707   1.908   5.682
  936TIP3    H1 2751   3.778   1.853   5.716
  936TIP3    H2 2752   3.681   1.963   5.756
  937TIP3   OH2 2753   4.805   1.490   0.868
  937TIP3    H1 2754   4.721   1.452   0.842
  937TIP3    H2 2755   4.783   1.556   0.933
  938TIP3   OH2 2756   4.923   0.373   4.786
  938TIP3    H1 2757   4.910   0.392   4.693
  938TIP3    H2 2758   5.018   0.364   4.795
  939TIP3   OH2 2759   5.868   2.624   2.342
  939TIP3    H1 2760   5.940   2.561   2.339
  939TIP3    H2 2761   5.854   2.649   2.251
  940TIP3   OH2 2762   7.042   6.767   1.565
  940TIP3    H1 2763   7.020   6.757   1.658
  940TIP3    H2 2764   6.968   6.814   1.527
  941TIP3   OH2 2765   1.494   6.592   5.195
  941TIP3    H1 2766   1.433   6.625   5.261
  941TIP3    H2 2767   1.456   6.619   5.111
  942TIP3   OH2 2768   7.717   3.200   2.280
  942TIP3    H1 2769   7.655   3.236   2.343
  942TIP3    H2 2770   7.662   3.160   2.212
  943TIP3   OH2 2771   2.295   4.737   5.356
  943TIP3    H1 2772   2.388   4.742   5.333
  943TIP3    H2 2773   2.294   4.696   5.443
  944TIP3   OH2 2774   1.972   3.676   6.045
  944TIP3    H1 2775   2.064   3.681   6.071
  944TIP3    H2 2776   1.950   3.764   6.015
  945TIP3   OH2 2777   3.178   7.609   0.513
  945TIP3    H1 2778   3.135   7.661   0.581
  945TIP3    H2 2779   3.243   7.556   0.560
  946TIP3   OH2 2780   4.031   7.336   1.185
  946TIP3    H1 2781   4.057   7.367   1.098
  946TIP3    H2 2782   3.963   7.271   1.167
  947TIP3   OH2 2783   8.190   0.985   6.021
  947TIP3    H1 2784   8.219   1.011   6.108
  947TIP3    H2 2785   8.144   1.061   5.986
  948TIP3   OH2 2786   1.299   5.949   2.016
  948TIP3    H1 2787   1.210   5.944   1.981
  948TIP3    H2 2788   1.356   5.940   1.939
  949TIP3   OH2 2789   5.294   2.431   4.307
  949TIP3    H1 2790   5.274   2.371   4.236
  949TIP3    H2 2791   5.360   2.490   4.271
  950TIP3   OH2 2792   1.979   4.434   3.203
  950TIP3    H1 2793   1.933   4.488   3.267
  950TIP3    H2 2794   2.013   4.361   3.255
  951TIP3   OH2 2795   0.340   2.298   6.738
  951TIP3    H1 2796   0.388   2.279   6.658
  951TIP3    H2 2797   0.401   2.352   6.790
  952TIP3   OH2 2798   7.442   0.324   2.008
  952TIP3    H1 2799   7.414   0.293   1.922
  952TIP3    H2 2800   7.360   0.352   2.050
  953TIP3   OH2 2801   4.382   2.903   6.025
  953TIP3    H1 2802   4.469   2.866   6.017
  953TIP3    H2 2803   4.377   2.936   6.115
  954TIP3   OH2 2804   1.823   4.584   5.264
  954TIP3    H1 2805   1.865   4.575   5.178
  954TIP3    H2 2806   1.788   4.498   5.283
  955TIP3   OH2 2807   7.973   7.215   5.720
  955TIP3    H1 2808   7.908   7.154   5.687
  955TIP3    H2 2809   8.057   7.181   5.689
  956TIP3   OH2 2810   7.586   1.195   5.860
  956TIP3    H1 2811   7.622   1.131   5.922
  956TIP3    H2 2812   7.505   1.155   5.829
  957TIP3   OH2 2813   7.343   1.529   1.252
  957TIP3    H1 2814   7.430   1.530   1.292
  957TIP3    H2 2815   7.321   1.621   1.239
  958TIP3   OH2 2816   3.063   7.509   4.706
  958TIP3    H1 2817   3.125   7.580   4.687
  958TIP3    H2 2818   3.106   7.430   4.674
  959TIP3   OH2 2819   0.236   6.456   5.871
  959TIP3    H1 2820   0.273   6.404   5.942
  959TIP3    H2 2821   0.179   6.520   5.914
  960TIP3   OH2 2822   1.397   2.342   3.512
  960TIP3    H1 2823   1.397   2.248   3.533
  960TIP3    H2 2824   1.410   2.385   3.596
  961TIP3   OH2 2825   1.535   3.786   1.008
  961TIP3    H1 2826   1.540   3.873   0.968
  961TIP3    H2 2827   1.611   3.782   1.066
  962TIP3   OH2 2828   2.915   5.130   2.132
  962TIP3    H1 2829   2.921   5.062   2.065
  962TIP3    H2 2830   2.888   5.209   2.084
  963TIP3   OH2 2831   8.272   3.470   5.955
  963TIP3    H1 2832   8.230   3.463   6.041
  963TIP3    H2 2833   8.244   3.391   5.909
  964TIP3   OH2 2834   0.481   7.453   0.019
  964TIP3    H1 2835   0.523   7.370   0.043
  964TIP3    H2 2836   0.533   7.520   0.063
  965TIP3   OH2 2837   0.401   2.829   0.278
  965TIP3    H1 2838   0.375   2.750   0.325
  965TIP3    H2 2839   0.454   2.797   0.205
  966TIP3   OH2 2840   2.493   5.227   5.209
  966TIP3    H1 2841   2.402   5.213   5.235
  966TIP3    H2 2842   2.539   5.244   5.291
  967TIP3   OH2 2843   2.048   4.759   0.197
  967TIP3    H1 2844   1.970   4.779   0.249
  967TIP3    H2 2845   2.120   4.762   0.259
  968TIP3   OH2 2846   2.140   0.253   2.752
  968TIP3    H1 2847   2.070   0.252   2.686
  968TIP3    H2 2848   2.157   0.160   2.769
  969TIP3   OH2 2849   6.941   4.031   5.901
  969TIP3    H1 2850   6.960   3.938   5.911
  969TIP3    H2 2851   7.021   4.068   5.865
  970TIP3   OH2 2852   7.831   3.553   1.010
  970TIP3    H1 2853   7.902   3.493   0.989
  970TIP3    H2 2854   7.751   3.504   0.992
  971TIP3   OH2 2855   4.306   5.741   2.754
  971TIP3    H1 2856   4.322   5.718   2.662
  971TIP3    H2 2857   4.344   5.828   2.764
  972TIP3   OH2 2858   2.885   6.912   3.652
  972TIP3    H1 2859   2.933   6.852   3.708
  972TIP3    H2 2860   2.815   6.947   3.708
  973TIP3   OH2 2861   1.151   4.681   5.692
  973TIP3    H1 2862   1.133   4.775   5.701
  973TIP3    H2 2863   1.133   4.645   5.779
  974TIP3   OH2 2864   2.279   1.680   2.350
  974TIP3    H1 2865   2.302   1.603   2.299
  974TIP3    H2 2866   2.322   1.753   2.305
  975TIP3   OH2 2867   7.890   1.138   0.745
  975TIP3    H1 2868   7.811   1.158   0.694
  975TIP3    H2 2869   7.907   1.046   0.728
  976TIP3   OH2 2870   4.834   1.967   4.034
  976TIP3    H1 2871   4.902   2.030   4.010
  976TIP3    H2 2872   4.878   1.882   4.031
  977TIP3   OH2 2873   3.702   2.160   4.684
  977TIP3    H1 2874   3.676   2.246   4.653
  977TIP3    H2 2875   3.767   2.130   4.620
  978TIP3   OH2 2876   2.926   4.587   2.845
  978TIP3    H1 2877   2.879   4.628   2.772
  978TIP3    H2 2878   2.966   4.660   2.892
  979TIP3   OH2 2879   0.299   0.113   6.687
  979TIP3    H1 2880   0.223   0.168   6.699
  979TIP3    H2 2881   0.265   0.033   6.646
  980TIP3   OH2 2882   2.745   2.873   1.366
  980TIP3    H1 2883   2.793   2.956   1.374
  980TIP3    H2 2884   2.738   2.859   1.272
  981TIP3   OH2 2885   8.109   0.764   5.746
  981TIP3    H1 2886   8.173   0.698   5.774
  981TIP3    H2 2887   8.161   0.834   5.707
  982TIP3   OH2 2888   6.166   0.752   2.125
  982TIP3    H1 2889   6.246   0.701   2.137
  982TIP3    H2 2890   6.097   0.686   2.119
  983TIP3   OH2 2891   4.478   5.023   4.765
  983TIP3    H1 2892   4.434   4.978   4.693
  983TIP3    H2 2893   4.571   5.014   4.745
  984TIP3   OH2 2894   0.573   4.328   4.178
  984TIP3    H1 2895   0.595   4.408   4.226
  984TIP3    H2 2896   0.492   4.349   4.132
  985TIP3   OH2 2897   2.843   4.718   0.387
  985TIP3    H1 2898   2.842   4.634   0.340
  985TIP3    H2 2899   2.760   4.720   0.434
  986TIP3   OH2 2900   3.231   2.187   2.077
  986TIP3    H1 2901   3.196   2.275   2.086
  986TIP3    H2 2902   3.259   2.163   2.166
  987TIP3   OH2 2903   7.943   5.598   4.896
  987TIP3    H1 2904   7.861   5.643   4.917
  987TIP3    H2 2905   7.918   5.507   4.883
  988TIP3   OH2 2906   3.417   2.431   4.455
  988TIP3    H1 2907   3.411   2.338   4.436
  988TIP3    H2 2908   3.415   2.474   4.370
  989TIP3   OH2 2909   0.253   1.031   2.624
  989TIP3    H1 2910   0.161   1.010   2.610
  989TIP3    H2 2911   0.301   0.967   2.571
  990TIP3   OH2 2912   5.014   3.821   0.995
  990TIP3    H1 2913   4.987   3.905   1.033
  990TIP3    H2 2914   5.037   3.768   1.071
  991TIP3   OH2 2915   6.493   0.854   2.840
  991TIP3    H1 2916   6.573   0.816   2.876
  991TIP3    H2 2917   6.524   0.918   2.775
  992TIP3   OH2 2918   0.232   4.766   5.373
  992TIP3    H1 2919   0.181   4.693   5.408
  992TIP3    H2 2920   0.177   4.843   5.387
  993TIP3   OH2 2921   3.908   5.050   3.959
  993TIP3    H1 2922   3.970   5.005   4.017
  993TIP3    H2 2923   3.905   5.140   3.991
  994TIP3   OH2 2924   7.913   6.575   0.634
  994TIP3    H1 2925   7.960   6.493   0.626
  994TIP3    H2 2926   7.823   6.550   0.653
  995TIP3   OH2 2927   3.169   7.278   1.114
  995TIP3    H1 2928   3.085   7.281   1.068
  995TIP3    H2 2929   3.230   7.239   1.051
  996TIP3   OH2 2930   0.944   2.611   6.297
  996TIP3    H1 2931   0.854   2.578   6.301
  996TIP3    H2 2932   0.945   2.688   6.353
  997TIP3   OH2 2933   8.197   4.141   2.512
  997TIP3    H1 2934   8.108   4.149   2.477
  997TIP3    H2 2935   8.196   4.060   2.562
  998TIP3   OH2 2936   8.262   3.259   2.148
  998TIP3    H1 2937   8.272   3.253   2.053
  998TIP3    H2 2938   8.199   3.189   2.170
  999TIP3   OH2 2939   6.317   3.319   5.253
  999TIP3    H1 2940   6.230   3.318   5.214
  999TIP3    H2 2941   6.374   3.349   5.183
 1000TIP3   OH2 2942   0.727   2.960   5.673
 1000TIP3    H1 2943   0.804   3.008   5.705
 1000TIP3    H2 2944   0.656   3.023   5.679
 1001TIP3   OH2 2945   5.499   7.702   4.931
 1001TIP3    H1 2946   5.427   7.643   4.955
 1001TIP3    H2 2947   5.492   7.774   4.993
 1002TIP3   OH2 2948   3.746   2.070   6.675
 1002TIP3    H1 2949   3.839   2.053   6.659
 1002TIP3    H2 2950   3.702   1.991   6.644
 1003TIP3   OH2 2951   8.199   5.459   5.132
 1003TIP3    H1 2952   8.109   5.437   5.154
 1003TIP3    H2 2953   8.251   5.420   5.202
 1004TIP3   OH2 2954   5.233   6.063   0.628
 1004TIP3    H1 2955   5.308   6.087   0.574
 1004TIP3    H2 2956   5.174   6.138   0.621
 1005TIP3   OH2 2957   4.828   6.176   0.862
 1005TIP3    H1 2958   4.768   6.186   0.935
 1005TIP3    H2 2959   4.905   6.134   0.899
 1006TIP3   OH2 2960   1.455   1.415   1.274
 1006TIP3    H1 2961   1.493   1.329   1.292
 1006TIP3    H2 2962   1.394   1.430   1.347
 1007TIP3   OH2 2963   6.022   6.747   2.043
 1007TIP3    H1 2964   6.106   6.714   2.075
 1007TIP3    H2 2965   6.018   6.837   2.076
 1008TIP3   OH2 2966   6.058   3.635   3.212
 1008TIP3    H1 2967   6.024   3.685   3.138
 1008TIP3    H2 2968   6.026   3.547   3.198
 1009TIP3   OH2 2969   1.917   2.185   0.965
 1009TIP3    H1 2970   1.891   2.277   0.964
 1009TIP3    H2 2971   1.889   2.154   1.052
 1010TIP3   OH2 2972   6.872   5.796   5.122
 1010TIP3    H1 2973   6.928   5.719   5.111
 1010TIP3    H2 2974   6.921   5.853   5.180
 1011TIP3   OH2 2975   3.720   0.261   5.501
 1011TIP3    H1 2976   3.808   0.292   5.478
 1011TIP3    H2 2977   3.691   0.320   5.570
 1012TIP3   OH2 2978   7.773   7.758   2.175
 1012TIP3    H1 2979   7.834   7.792   2.240
 1012TIP3    H2 2980   7.765   7.665   2.195
 1013TIP3   OH2 2981   5.494   5.567   0.277
 1013TIP3    H1 2982   5.503   5.579   0.182
 1013TIP3    H2 2983   5.581   5.588   0.312
 1014TIP3   OH2 2984   6.230   6.115   3.771
 1014TIP3    H1 2985   6.254   6.122   3.863
 1014TIP3    H2 2986   6.203   6.024   3.760
 1015TIP3   OH2 2987   4.850   0.302   5.039
 1015TIP3    H1 2988   4.902   0.358   5.096
 1015TIP3    H2 2989   4.883   0.319   4.951
 1016TIP3   OH2 2990   2.568   6.396   2.596
 1016TIP3    H1 2991   2.583   6.455   2.522
 1016TIP3    H2 2992   2.476   6.370   2.587
 1017TIP3   OH2 2993   3.255   6.377   2.146
 1017TIP3    H1 2994   3.341   6.371   2.188
 1017TIP3    H2 2995   3.252   6.303   2.086
 1018TIP3   OH2 2996   0.306   3.288   6.600
 1018TIP3    H1 2997   0.344   3.376   6.603
 1018TIP3    H2 2998   0.290   3.266   6.692
 1019TIP3   OH2 2999   4.454   2.418   0.653
 1019TIP3    H1 3000   4.392   2.408   0.725
 1019TIP3    H2 3001   4.429   2.348   0.591
 1020TIP3   OH2 3002   6.711   4.910   4.870
 1020TIP3    H1 3003   6.758   4.925   4.952
 1020TIP3    H2 3004   6.619   4.917   4.892
 1021TIP3   OH2 3005   3.738   7.591   1.008
 1021TIP3    H1 3006   3.816   7.628   1.049
 1021TIP3    H2 3007   3.757   7.594   0.914
 1022TIP3   OH2 3008   5.423   0.476   2.519
 1022TIP3    H1 3009   5.471   0.554   2.493
 1022TIP3    H2 3010   5.361   0.461   2.448
 1023TIP3   OH2 3011   8.202   7.134   6.071
 1023TIP3    H1 3012   8.268   7.165   6.132
 1023TIP3    H2 3013   8.208   7.193   5.996
 1024TIP3   OH2 3014   5.858   4.788   1.912
 1024TIP3    H1 3015   5.826   4.771   1.823
 1024TIP3    H2 3016   5.883   4.703   1.946
 1025TIP3   OH2 3017   1.960   2.424   2.685
 1025TIP3    H1 3018   2.003   2.451   2.604
 1025TIP3    H2 3019   1.885   2.483   2.694
 1026TIP3   OH2 3020   4.292   5.865   0.826
 1026TIP3    H1 3021   4.218   5.871   0.886
 1026TIP3    H2 3022   4.269   5.795   0.766
 1027TIP3   OH2 3023   4.549   0.808   3.524
 1027TIP3    H1 3024   4.615   0.791   3.457
 1027TIP3    H2 3025   4.586   0.878   3.578
 1028TIP3   OH2 3026   4.113   0.594   4.097
 1028TIP3    H1 3027   4.091   0.596   4.004
 1028TIP3    H2 3028   4.038   0.550   4.137
 1029TIP3   OH2 3029   3.465   7.757   3.947
 1029TIP3    H1 3030   3.512   7.676   3.926
 1029TIP3    H2 3031   3.408   7.733   4.020
 1030TIP3   OH2 3032   5.808   4.311   4.470
 1030TIP3    H1 3033   5.814   4.277   4.560
 1030TIP3    H2 3034   5.883   4.370   4.462
 1031TIP3   OH2 3035   5.751   2.976   6.686
 1031TIP3    H1 3036   5.762   2.998   6.779
 1031TIP3    H2 3037   5.659   2.950   6.678
 1032TIP3   OH2 3038   1.813   3.302   5.570
 1032TIP3    H1 3039   1.779   3.372   5.625
 1032TIP3    H2 3040   1.896   3.277   5.611
 1033TIP3   OH2 3041   3.645   2.050   1.844
 1033TIP3    H1 3042   3.678   2.139   1.833
 1033TIP3    H2 3043   3.626   2.020   1.755
 1034TIP3   OH2 3044   1.571   5.934   0.217
 1034TIP3    H1 3045   1.585   5.929   0.123
 1034TIP3    H2 3046   1.476   5.935   0.227
 1035TIP3   OH2 3047   4.085   2.326   2.624
 1035TIP3    H1 3048   4.126   2.261   2.680
 1035TIP3    H2 3049   4.102   2.410   2.667
 1036TIP3   OH2 3050   8.265   3.434   4.741
 1036TIP3    H1 3051   8.305   3.380   4.672
 1036TIP3    H2 3052   8.315   3.412   4.820
 1037TIP3   OH2 3053   4.427   1.797   3.404
 1037TIP3    H1 3054   4.335   1.800   3.375
 1037TIP3    H2 3055   4.426   1.838   3.490
 1038TIP3   OH2 3056   1.712   0.337   2.441
 1038TIP3    H1 3057   1.663   0.328   2.523
 1038TIP3    H2 3058   1.750   0.424   2.445
 1039TIP3   OH2 3059   1.800   6.855   5.080
 1039TIP3    H1 3060   1.837   6.817   4.999
 1039TIP3    H2 3061   1.819   6.790   5.147
 1040TIP3   OH2 3062   0.481   3.608   3.599
 1040TIP3    H1 3063   0.402   3.602   3.653
 1040TIP3    H2 3064   0.544   3.551   3.643
 1041TIP3   OH2 3065   3.751   5.719   6.116
 1041TIP3    H1 3066   3.692   5.730   6.041
 1041TIP3    H2 3067   3.794   5.635   6.100
 1042TIP3   OH2 3068   0.111   6.791   4.356
 1042TIP3    H1 3069   0.106   6.734   4.279
 1042TIP3    H2 3070   0.184   6.850   4.336
 1043TIP3   OH2 3071   4.428   2.343   2.531
 1043TIP3    H1 3072   4.400   2.267   2.583
 1043TIP3    H2 3073   4.512   2.316   2.493
 1044TIP3   OH2 3074   3.695   1.890   5.102
 1044TIP3    H1 3075   3.734   1.912   5.187
 1044TIP3    H2 3076   3.681   1.974   5.059
 1045TIP3   OH2 3077   3.137   4.021   5.957
 1045TIP3    H1 3078   3.106   3.947   5.905
 1045TIP3    H2 3079   3.232   4.019   5.948
 1046TIP3   OH2 3080   2.349   4.061   1.657
 1046TIP3    H1 3081   2.353   4.096   1.568
 1046TIP3    H2 3082   2.402   3.981   1.654
 1047TIP3   OH2 3083   1.507   7.406   1.405
 1047TIP3    H1 3084   1.487   7.400   1.312
 1047TIP3    H2 3085   1.512   7.500   1.422
 1048TIP3   OH2 3086   4.636   3.479   2.000
 1048TIP3    H1 3087   4.654   3.386   2.011
 1048TIP3    H2 3088   4.714   3.523   2.034
 1049TIP3   OH2 3089   6.429   6.152   1.345
 1049TIP3    H1 3090   6.435   6.076   1.288
 1049TIP3    H2 3091   6.443   6.227   1.287
 1050TIP3   OH2 3092   1.860   4.356   2.954
 1050TIP3    H1 3093   1.897   4.384   3.038
 1050TIP3    H2 3094   1.766   4.354   2.970
 1051TIP3   OH2 3095   0.816   6.299   6.304
 1051TIP3    H1 3096   0.879   6.298   6.377
 1051TIP3    H2 3097   0.791   6.391   6.296
 1052TIP3   OH2 3098   6.861   4.680   5.038
 1052TIP3    H1 3099   6.795   4.650   4.976
 1052TIP3    H2 3100   6.814   4.739   5.097
 1053TIP3   OH2 3101   7.714   3.321   3.678
 1053TIP3    H1 3102   7.748   3.342   3.591
 1053TIP3    H2 3103   7.777   3.360   3.738
 1054TIP3   OH2 3104   6.485   5.030   2.029
 1054TIP3    H1 3105   6.479   4.954   1.971
 1054TIP3    H2 3106   6.394   5.055   2.046
 1055TIP3   OH2 3107   0.316   0.931   4.312
 1055TIP3    H1 3108   0.347   0.900   4.227
 1055TIP3    H2 3109   0.221   0.938   4.302
 1056TIP3   OH2 3110   0.842   1.200   1.476
 1056TIP3    H1 3111   0.806   1.286   1.499
 1056TIP3    H2 3112   0.803   1.181   1.391
 1057TIP3   OH2 3113   6.210   3.446   0.342
 1057TIP3    H1 3114   6.121   3.482   0.340
 1057TIP3    H2 3115   6.244   3.474   0.427
 1058TIP3   OH2 3116   3.269   2.452   5.308
 1058TIP3    H1 3117   3.273   2.507   5.230
 1058TIP3    H2 3118   3.354   2.464   5.350
 1059TIP3   OH2 3119   4.762   1.852   2.126
 1059TIP3    H1 3120   4.715   1.862   2.044
 1059TIP3    H2 3121   4.755   1.759   2.147
 1060TIP3   OH2 3122   7.197   5.248   3.908
 1060TIP3    H1 3123   7.184   5.342   3.900
 1060TIP3    H2 3124   7.131   5.220   3.971
 1061TIP3   OH2 3125   7.498   5.804   0.837
 1061TIP3    H1 3126   7.412   5.841   0.817
 1061TIP3    H2 3127   7.492   5.713   0.807
 1062TIP3   OH2 3128   5.521   2.248   0.373
 1062TIP3    H1 3129   5.563   2.190   0.436
 1062TIP3    H2 3130   5.585   2.318   0.359
 1063TIP3   OH2 3131   3.715   0.598   6.739
 1063TIP3    H1 3132   3.620   0.606   6.738
 1063TIP3    H2 3133   3.746   0.664   6.677
 1064TIP3   OH2 3134   0.969   3.799   0.335
 1064TIP3    H1 3135   0.930   3.748   0.406
 1064TIP3    H2 3136   1.062   3.805   0.359
 1065TIP3   OH2 3137   1.001   1.182   0.471
 1065TIP3    H1 3138   0.998   1.118   0.543
 1065TIP3    H2 3139   1.049   1.256   0.508
 1066TIP3   OH2 3140   3.138   0.832   2.945
 1066TIP3    H1 3141   3.175   0.906   2.993
 1066TIP3    H2 3142   3.071   0.797   3.004
 1067TIP3   OH2 3143   2.272   1.352   2.292
 1067TIP3    H1 3144   2.328   1.280   2.321
 1067TIP3    H2 3145   2.321   1.393   2.220
 1068TIP3   OH2 3146   7.797   7.176   5.192
 1068TIP3    H1 3147   7.852   7.154   5.268
 1068TIP3    H2 3148   7.757   7.093   5.166
 1069TIP3   OH2 3149   0.302   5.501   4.690
 1069TIP3    H1 3150   0.368   5.560   4.725
 1069TIP3    H2 3151   0.219   5.545   4.708
 1070TIP3   OH2 3152   3.940   1.349   4.559
 1070TIP3    H1 3153   3.875   1.305   4.613
 1070TIP3    H2 3154   3.925   1.443   4.574
 1071TIP3   OH2 3155   5.809   6.843   0.393
 1071TIP3    H1 3156   5.872   6.860   0.323
 1071TIP3    H2 3157   5.862   6.806   0.464
 1072TIP3   OH2 3158   0.238   3.167   5.696
 1072TIP3    H1 3159   0.193   3.146   5.778
 1072TIP3    H2 3160   0.171   3.207   5.641
 1073TIP3   OH2 3161   5.431   3.361   5.939
 1073TIP3    H1 3162   5.392   3.284   5.981
 1073TIP3    H2 3163   5.386   3.436   5.979
 1074TIP3   OH2 3164   6.216   0.658   1.572
 1074TIP3    H1 3165   6.147   0.593   1.560
 1074TIP3    H2 3166   6.240   0.653   1.664
 1075TIP3   OH2 3167   4.789   4.782   3.350
 1075TIP3    H1 3168   4.867   4.765   3.403
 1075TIP3    H2 3169   4.719   4.735   3.396
 1076TIP3   OH2 3170   1.385   4.702   1.727
 1076TIP3    H1 3171   1.389   4.796   1.746
 1076TIP3    H2 3172   1.380   4.660   1.813
 1077TIP3   OH2 3173   6.842   2.182   5.150
 1077TIP3    H1 3174   6.892   2.244   5.097
 1077TIP3    H2 3175   6.855   2.211   5.240
 1078TIP3   OH2 3176   1.933   1.737   4.075
 1078TIP3    H1 3177   1.846   1.775   4.090
 1078TIP3    H2 3178   1.972   1.792   4.007
 1079TIP3   OH2 3179   3.310   4.685   2.877
 1079TIP3    H1 3180   3.403   4.676   2.856
 1079TIP3    H2 3181   3.265   4.671   2.793
 1080TIP3   OH2 3182   0.577   1.166   6.330
 1080TIP3    H1 3183   0.671   1.163   6.313
 1080TIP3    H2 3184   0.557   1.080   6.369
 1081TIP3   OH2 3185   1.330   2.364   4.335
 1081TIP3    H1 3186   1.411   2.359   4.284
 1081TIP3    H2 3187   1.260   2.362   4.270
 1082TIP3   OH2 3188   1.610   1.243   3.995
 1082TIP3    H1 3189   1.603   1.327   3.951
 1082TIP3    H2 3190   1.567   1.181   3.936
 1083TIP3   OH2 3191   4.493   1.695   1.703
 1083TIP3    H1 3192   4.445   1.692   1.785
 1083TIP3    H2 3193   4.427   1.711   1.636
 1084TIP3   OH2 3194   5.130   0.767   0.763
 1084TIP3    H1 3195   5.063   0.766   0.695
 1084TIP3    H2 3196   5.211   0.784   0.716
 1085TIP3   OH2 3197   2.692   4.466   6.062
 1085TIP3    H1 3198   2.615   4.441   6.113
 1085TIP3    H2 3199   2.691   4.562   6.061
 1086TIP3   OH2 3200   1.711   4.658   4.624
 1086TIP3    H1 3201   1.753   4.581   4.663
 1086TIP3    H2 3202   1.634   4.624   4.580
 1087TIP3   OH2 3203   2.798   4.868   6.651
 1087TIP3    H1 3204   2.813   4.862   6.557
 1087TIP3    H2 3205   2.706   4.847   6.663
 1088TIP3   OH2 3206   2.449   6.917   0.533
 1088TIP3    H1 3207   2.377   6.927   0.596
 1088TIP3    H2 3208   2.528   6.936   0.583
 1089TIP3   OH2 3209   6.485   7.334   1.018
 1089TIP3    H1 3210   6.407   7.389   1.019
 1089TIP3    H2 3211   6.558   7.395   1.022
 1090TIP3   OH2 3212   6.383   0.274   6.743
 1090TIP3    H1 3213   6.352   0.352   6.695
 1090TIP3    H2 3214   6.477   0.271   6.726
 1091TIP3   OH2 3215   5.851   7.671   4.279
 1091TIP3    H1 3216   5.806   7.749   4.312
 1091TIP3    H2 3217   5.944   7.691   4.291
 1092TIP3   OH2 3218   7.269   2.971   3.894
 1092TIP3    H1 3219   7.197   3.022   3.929
 1092TIP3    H2 3220   7.346   3.003   3.940
 1093TIP3   OH2 3221   5.992   0.897   3.032
 1093TIP3    H1 3222   6.070   0.864   2.987
 1093TIP3    H2 3223   6.022   0.975   3.078
 1094TIP3   OH2 3224   7.462   7.580   2.621
 1094TIP3    H1 3225   7.515   7.501   2.632
 1094TIP3    H2 3226   7.446   7.585   2.527
 1095TIP3   OH2 3227   2.132   3.344   2.314
 1095TIP3    H1 3228   2.166   3.361   2.226
 1095TIP3    H2 3229   2.169   3.259   2.339
 1096TIP3   OH2 3230   2.391   3.012   5.535
 1096TIP3    H1 3231   2.404   3.107   5.532
 1096TIP3    H2 3232   2.463   2.976   5.483
 1097TIP3   OH2 3233   3.721   0.817   0.032
 1097TIP3    H1 3234   3.739   0.895   0.084
 1097TIP3    H2 3235   3.698   0.850  -0.054
 1098TIP3   OH2 3236   3.489   1.767   0.272
 1098TIP3    H1 3237   3.492   1.726   0.186
 1098TIP3    H2 3238   3.572   1.814   0.279
 1099TIP3   OH2 3239   2.075   1.601   6.151
 1099TIP3    H1 3240   2.150   1.549   6.179
 1099TIP3    H2 3241   2.005   1.537   6.139
 1100TIP3   OH2 3242   7.610   1.869   1.018
 1100TIP3    H1 3243   7.549   1.795   1.013
 1100TIP3    H2 3244   7.639   1.882   0.928
 1101TIP3   OH2 3245   3.424   5.827   6.182
 1101TIP3    H1 3246   3.332   5.848   6.170
 1101TIP3    H2 3247   3.469   5.869   6.108
 1102TIP3   OH2 3248   2.366   4.052   0.140
 1102TIP3    H1 3249   2.374   4.125   0.079
 1102TIP3    H2 3250   2.457   4.023   0.155
 1103TIP3   OH2 3251   4.041   2.754   2.471
 1103TIP3    H1 3252   3.982   2.829   2.481
 1103TIP3    H2 3253   4.129   2.791   2.481
 1104TIP3   OH2 3254   6.038   4.324   3.717
 1104TIP3    H1 3255   5.965   4.286   3.767
 1104TIP3    H2 3256   6.107   4.339   3.782
 1105TIP3   OH2 3257   4.934   0.443   3.519
 1105TIP3    H1 3258   4.907   0.483   3.437
 1105TIP3    H2 3259   5.008   0.495   3.549
 1106TIP3   OH2 3260   5.728   5.053   1.656
 1106TIP3    H1 3261   5.734   5.145   1.631
 1106TIP3    H2 3262   5.744   5.053   1.750
 1107TIP3   OH2 3263   5.136   5.236   1.887
 1107TIP3    H1 3264   5.203   5.280   1.836
 1107TIP3    H2 3265   5.053   5.260   1.845
 1108TIP3   OH2 3266   4.200   6.649   4.204
 1108TIP3    H1 3267   4.199   6.739   4.235
 1108TIP3    H2 3268   4.117   6.638   4.158
 1109TIP3   OH2 3269   1.573   7.024   1.249
 1109TIP3    H1 3270   1.535   6.942   1.280
 1109TIP3    H2 3271   1.537   7.090   1.308
 1110TIP3   OH2 3272   5.532   5.028   0.532
 1110TIP3    H1 3273   5.469   4.958   0.513
 1110TIP3    H2 3274   5.616   4.983   0.537
 1111TIP3   OH2 3275   5.834   5.779   2.482
 1111TIP3    H1 3276   5.908   5.721   2.464
 1111TIP3    H2 3277   5.863   5.834   2.555
 1112TIP3   OH2 3278   0.407   4.676   5.997
 1112TIP3    H1 3279   0.466   4.661   5.923
 1112TIP3    H2 3280   0.442   4.619   6.067
 1113TIP3   OH2 3281   6.581   5.781   0.275
 1113TIP3    H1 3282   6.545   5.739   0.197
 1113TIP3    H2 3283   6.630   5.712   0.319
 1114TIP3   OH2 3284   4.469   4.976   6.531
 1114TIP3    H1 3285   4.527   4.957   6.458
 1114TIP3    H2 3286   4.498   5.062   6.563
 1115TIP3   OH2 3287   2.074   6.810   2.830
 1115TIP3    H1 3288   2.002   6.853   2.875
 1115TIP3    H2 3289   2.153   6.852   2.865
 1116TIP3   OH2 3290   0.645   5.600   4.068
 1116TIP3    H1 3291   0.605   5.547   4.138
 1116TIP3    H2 3292   0.641   5.690   4.101
 1117TIP3   OH2 3293   3.956   0.232   4.889
 1117TIP3    H1 3294   3.952   0.168   4.960
 1117TIP3    H2 3295   3.885   0.293   4.908
 1118TIP3   OH2 3296   3.781   5.467   4.527
 1118TIP3    H1 3297   3.756   5.383   4.489
 1118TIP3    H2 3298   3.698   5.514   4.536
 1119TIP3   OH2 3299   5.937   5.457   2.412
 1119TIP3    H1 3300   5.939   5.466   2.508
 1119TIP3    H2 3301   5.853   5.494   2.386
 1120TIP3   OH2 3302   6.347   7.673   6.304
 1120TIP3    H1 3303   6.420   7.734   6.289
 1120TIP3    H2 3304   6.310   7.657   6.217
 1121TIP3   OH2 3305   2.951   5.991   0.106
 1121TIP3    H1 3306   2.939   5.905   0.067
 1121TIP3    H2 3307   3.002   6.040   0.041
 1122TIP3   OH2 3308   1.594   1.328   2.567
 1122TIP3    H1 3309   1.500   1.331   2.548
 1122TIP3    H2 3310   1.620   1.420   2.573
 1123TIP3   OH2 3311   6.987   2.810   6.685
 1123TIP3    H1 3312   6.954   2.891   6.723
 1123TIP3    H2 3313   7.057   2.782   6.744
 1124TIP3   OH2 3314   0.646   0.374   0.030
 1124TIP3    H1 3315   0.664   0.304   0.093
 1124TIP3    H2 3316   0.589   0.334  -0.035
 1125TIP3   OH2 3317   6.602   5.953   4.571
 1125TIP3    H1 3318   6.563   5.886   4.627
 1125TIP3    H2 3319   6.657   5.904   4.510
 1126TIP3   OH2 3320   4.137   6.738   2.678
 1126TIP3    H1 3321   4.150   6.763   2.587
 1126TIP3    H2 3322   4.119   6.644   2.675
 1127TIP3   OH2 3323   1.998   6.441   2.647
 1127TIP3    H1 3324   1.936   6.420   2.577
 1127TIP3    H2 3325   1.949   6.498   2.706
 1128TIP3   OH2 3326   5.884   7.398   4.281
 1128TIP3    H1 3327   5.799   7.357   4.295
 1128TIP3    H2 3328   5.865   7.492   4.279
 1129TIP3   OH2 3329   6.269   5.601   4.285
 1129TIP3    H1 3330   6.270   5.572   4.376
 1129TIP3    H2 3331   6.205   5.545   4.242
 1130TIP3   OH2 3332   5.659   1.014   2.904
 1130TIP3    H1 3333   5.573   1.056   2.903
 1130TIP3    H2 3334   5.653   0.946   2.837
 1131TIP3   OH2 3335   6.450   6.001   5.713
 1131TIP3    H1 3336   6.467   5.912   5.681
 1131TIP3    H2 3337   6.355   6.011   5.707
 1132TIP3   OH2 3338   4.835   7.510   3.094
 1132TIP3    H1 3339   4.916   7.527   3.144
 1132TIP3    H2 3340   4.787   7.448   3.148
 1133TIP3   OH2 3341   6.604   2.636   2.810
 1133TIP3    H1 3342   6.681   2.580   2.802
 1133TIP3    H2 3343   6.622   2.709   2.751
 1134TIP3   OH2 3344   2.163   4.537   6.256
 1134TIP3    H1 3345   2.148   4.451   6.295
 1134TIP3    H2 3346   2.212   4.520   6.176
 1135TIP3   OH2 3347   7.631   2.585   5.691
 1135TIP3    H1 3348   7.654   2.606   5.601
 1135TIP3    H2 3349   7.715   2.567   5.734
 1136TIP3   OH2 3350   1.045   7.675   4.499
 1136TIP3    H1 3351   0.977   7.682   4.433
 1136TIP3    H2 3352   1.104   7.748   4.481
 1137TIP3   OH2 3353   8.278   7.322   1.675
 1137TIP3    H1 3354   8.325   7.405   1.668
 1137TIP3    H2 3355   8.248   7.304   1.587
 1138TIP3   OH2 3356   0.211   1.838   6.749
 1138TIP3    H1 3357   0.228   1.874   6.662
 1138TIP3    H2 3358   0.293   1.794   6.773
 1139TIP3   OH2 3359   3.695   4.578   1.964
 1139TIP3    H1 3360   3.685   4.551   2.055
 1139TIP3    H2 3361   3.737   4.504   1.920
 1140TIP3   OH2 3362   3.632   7.325   1.852
 1140TIP3    H1 3363   3.639   7.411   1.810
 1140TIP3    H2 3364   3.677   7.336   1.936
 1141TIP3   OH2 3365   4.597   2.486   3.910
 1141TIP3    H1 3366   4.607   2.425   3.836
 1141TIP3    H2 3367   4.614   2.432   3.987
 1142TIP3   OH2 3368   3.447   7.797   3.407
 1142TIP3    H1 3369   3.354   7.778   3.421
 1142TIP3    H2 3370   3.470   7.746   3.329
 1143TIP3   OH2 3371   1.136   1.000   5.775
 1143TIP3    H1 3372   1.175   0.969   5.693
 1143TIP3    H2 3373   1.174   1.087   5.787
 1144TIP3   OH2 3374   4.044   2.122   5.913
 1144TIP3    H1 3375   4.076   2.053   5.855
 1144TIP3    H2 3376   4.105   2.195   5.899
 1145TIP3   OH2 3377   3.511   6.378   1.597
 1145TIP3    H1 3378   3.582   6.442   1.595
 1145TIP3    H2 3379   3.513   6.337   1.511
 1146TIP3   OH2 3380   3.404   4.531   4.217
 1146TIP3    H1 3381   3.426   4.438   4.219
 1146TIP3    H2 3382   3.409   4.556   4.124
 1147TIP3   OH2 3383   3.337   2.021   2.788
 1147TIP3    H1 3384   3.325   2.008   2.694
 1147TIP3    H2 3385   3.403   2.090   2.794
 1148TIP3   OH2 3386   2.712   2.350   1.244
 1148TIP3    H1 3387   2.769   2.290   1.292
 1148TIP3    H2 3388   2.762   2.374   1.166
 1149TIP3   OH2 3389   2.743   4.892   5.722
 1149TIP3    H1 3390   2.761   4.985   5.738
 1149TIP3    H2 3391   2.778   4.848   5.799
 1150TIP3   OH2 3392   4.831   7.620   0.611
 1150TIP3    H1 3393   4.781   7.545   0.643
 1150TIP3    H2 3394   4.879   7.651   0.687
 1151TIP3   OH2 3395   4.919   3.413   5.046
 1151TIP3    H1 3396   5.011   3.425   5.024
 1151TIP3    H2 3397   4.921   3.364   5.129
 1152TIP3   OH2 3398   7.848   3.537   4.568
 1152TIP3    H1 3399   7.782   3.488   4.618
 1152TIP3    H2 3400   7.869   3.480   4.494
 1153TIP3   OH2 3401   5.024   5.209   4.617
 1153TIP3    H1 3402   4.944   5.213   4.566
 1153TIP3    H2 3403   5.079   5.144   4.572
 1154TIP3   OH2 3404   8.207   6.450   0.546
 1154TIP3    H1 3405   8.286   6.435   0.494
 1154TIP3    H2 3406   8.227   6.528   0.598
 1155TIP3   OH2 3407   2.517   7.342   1.350
 1155TIP3    H1 3408   2.548   7.352   1.440
 1155TIP3    H2 3409   2.448   7.277   1.355
 1156TIP3   OH2 3410   0.363   6.550   3.564
 1156TIP3    H1 3411   0.377   6.469   3.614
 1156TIP3    H2 3412   0.379   6.525   3.473
 1157TIP3   OH2 3413   7.906   3.417   5.184
 1157TIP3    H1 3414   7.850   3.353   5.228
 1157TIP3    H2 3415   7.847   3.488   5.160
 1158TIP3   OH2 3416   8.075   3.740   2.343
 1158TIP3    H1 3417   8.080   3.651   2.308
 1158TIP3    H2 3418   8.166   3.765   2.357
 1159TIP3   OH2 3419   4.742   4.738   5.274
 1159TIP3    H1 3420   4.769   4.658   5.228
 1159TIP3    H2 3421   4.649   4.726   5.292
 1160TIP3   OH2 3422   5.508   0.204   6.339
 1160TIP3    H1 3423   5.430   0.227   6.289
 1160TIP3    H2 3424   5.581   0.229   6.283
 1161TIP3   OH2 3425   6.919   0.235   5.124
 1161TIP3    H1 3426   6.902   0.145   5.152
 1161TIP3    H2 3427   6.967   0.226   5.042
 1162TIP3   OH2 3428   0.067   0.312   1.109
 1162TIP3    H1 3429   0.045   0.274   1.024
 1162TIP3    H2 3430   0.058   0.407   1.096
 1163TIP3   OH2 3431   4.341   2.580   4.001
 1163TIP3    H1 3432   4.382   2.652   4.049
 1163TIP3    H2 3433   4.409   2.549   3.941
 1164TIP3   OH2 3434   6.560   4.509   0.629
 1164TIP3    H1 3435   6.585   4.470   0.545
 1164TIP3    H2 3436   6.478   4.463   0.653
 1165TIP3   OH2 3437   7.889   6.668   3.666
 1165TIP3    H1 3438   7.823   6.640   3.730
 1165TIP3    H2 3439   7.913   6.587   3.620
 1166TIP3   OH2 3440   6.577   0.662   4.596
 1166TIP3    H1 3441   6.552   0.655   4.503
 1166TIP3    H2 3442   6.667   0.694   4.594
 1167TIP3   OH2 3443   4.982   6.362   6.345
 1167TIP3    H1 3444   4.943   6.300   6.407
 1167TIP3    H2 3445   4.916   6.371   6.276
 1168TIP3   OH2 3446   2.852   3.471   0.728
 1168TIP3    H1 3447   2.871   3.466   0.821
 1168TIP3    H2 3448   2.937   3.465   0.685
 1169TIP3   OH2 3449   6.557   5.292   4.521
 1169TIP3    H1 3450   6.545   5.234   4.596
 1169TIP3    H2 3451   6.636   5.342   4.542
 1170TIP3   OH2 3452   1.454   1.032   1.086
 1170TIP3    H1 3453   1.397   1.101   1.050
 1170TIP3    H2 3454   1.393   0.971   1.128
 1171TIP3   OH2 3455   1.752   0.707   2.596
 1171TIP3    H1 3456   1.760   0.772   2.526
 1171TIP3    H2 3457   1.713   0.631   2.553
 1172TIP3   OH2 3458   2.380   0.454   3.290
 1172TIP3    H1 3459   2.385   0.475   3.197
 1172TIP3    H2 3460   2.311   0.388   3.296
 1173TIP3   OH2 3461   4.036   2.785   4.668
 1173TIP3    H1 3462   4.033   2.836   4.749
 1173TIP3    H2 3463   4.005   2.845   4.600
 1174TIP3   OH2 3464   5.638   6.632   1.703
 1174TIP3    H1 3465   5.665   6.690   1.774
 1174TIP3    H2 3466   5.720   6.595   1.670
 1175TIP3   OH2 3467   3.635   6.783   2.560
 1175TIP3    H1 3468   3.697   6.855   2.561
 1175TIP3    H2 3469   3.651   6.737   2.643
 1176TIP3   OH2 3470   7.060   5.434   2.007
 1176TIP3    H1 3471   7.093   5.344   2.010
 1176TIP3    H2 3472   6.974   5.427   1.965
 1177TIP3   OH2 3473   3.726   1.101   1.442
 1177TIP3    H1 3474   3.745   1.009   1.424
 1177TIP3    H2 3475   3.809   1.147   1.428
 1178TIP3   OH2 3476   2.209   7.417   2.211
 1178TIP3    H1 3477   2.181   7.431   2.301
 1178TIP3    H2 3478   2.177   7.329   2.189
 1179TIP3   OH2 3479   5.104   0.850   4.268
 1179TIP3    H1 3480   5.085   0.839   4.175
 1179TIP3    H2 3481   5.065   0.773   4.310
 1180TIP3   OH2 3482   6.264   5.364   5.134
 1180TIP3    H1 3483   6.326   5.306   5.091
 1180TIP3    H2 3484   6.233   5.314   5.210
 1181TIP3   OH2 3485   1.603   6.483   4.841
 1181TIP3    H1 3486   1.633   6.558   4.789
 1181TIP3    H2 3487   1.537   6.519   4.899
 1182TIP3   OH2 3488   3.343   2.665   2.658
 1182TIP3    H1 3489   3.331   2.760   2.665
 1182TIP3    H2 3490   3.434   2.656   2.629
 1183TIP3   OH2 3491   6.506   5.208   6.355
 1183TIP3    H1 3492   6.533   5.158   6.432
 1183TIP3    H2 3493   6.584   5.210   6.299
 1184TIP3   OH2 3494   4.253   1.343   0.335
 1184TIP3    H1 3495   4.230   1.345   0.242
 1184TIP3    H2 3496   4.274   1.251   0.353
 1185TIP3   OH2 3497   1.300   5.864   2.291
 1185TIP3    H1 3498   1.225   5.905   2.334
 1185TIP3    H2 3499   1.305   5.906   2.206
 1186TIP3   OH2 3500   8.248   7.668   3.649
 1186TIP3    H1 3501   8.161   7.647   3.682
 1186TIP3    H2 3502   8.257   7.762   3.663
 1187TIP3   OH2 3503   7.553   1.424   1.812
 1187TIP3    H1 3504   7.497   1.464   1.746
 1187TIP3    H2 3505   7.593   1.498   1.858
 1188TIP3   OH2 3506   4.351   1.883   4.403
 1188TIP3    H1 3507   4.292   1.959   4.399
 1188TIP3    H2 3508   4.415   1.907   4.470
 1189TIP3   OH2 3509   7.094   3.347   0.911
 1189TIP3    H1 3510   7.060   3.430   0.878
 1189TIP3    H2 3511   7.144   3.371   0.989
 1190TIP3   OH2 3512   3.706   6.563   4.869
 1190TIP3    H1 3513   3.731   6.482   4.824
 1190TIP3    H2 3514   3.727   6.548   4.961
 1191TIP3   OH2 3515   0.849   4.559   3.118
 1191TIP3    H1 3516   0.796   4.589   3.192
 1191TIP3    H2 3517   0.929   4.526   3.158
 1192TIP3   OH2 3518   2.593   3.955   6.722
 1192TIP3    H1 3519   2.511   3.997   6.699
 1192TIP3    H2 3520   2.580   3.863   6.699
 1193TIP3   OH2 3521   5.493   0.892   4.133
 1193TIP3    H1 3522   5.588   0.897   4.133
 1193TIP3    H2 3523   5.468   0.894   4.225
 1194TIP3   OH2 3524   2.166   6.087   6.060
 1194TIP3    H1 3525   2.085   6.134   6.041
 1194TIP3    H2 3526   2.139   6.015   6.117
 1195TIP3   OH2 3527   2.486   3.273   6.542
 1195TIP3    H1 3528   2.400   3.288   6.580
 1195TIP3    H2 3529   2.471   3.214   6.469
 1196TIP3   OH2 3530   6.927   7.603   4.893
 1196TIP3    H1 3531   6.903   7.681   4.843
 1196TIP3    H2 3532   6.897   7.530   4.839
 1197TIP3   OH2 3533   0.934   5.399   6.197
 1197TIP3    H1 3534   0.938   5.457   6.121
 1197TIP3    H2 3535   0.883   5.323   6.168
 1198TIP3   OH2 3536   7.120   6.491   2.146
 1198TIP3    H1 3537   7.029   6.467   2.128
 1198TIP3    H2 3538   7.148   6.538   2.067
 1199TIP3   OH2 3539   0.282   4.248   6.499
 1199TIP3    H1 3540   0.371   4.227   6.471
 1199TIP3    H2 3541   0.277   4.343   6.494
 1200TIP3   OH2 3542   7.609   6.244   5.647
 1200TIP3    H1 3543   7.543   6.242   5.716
 1200TIP3    H2 3544   7.581   6.314   5.588
 1201TIP3   OH2 3545   6.388   2.667   3.651
 1201TIP3    H1 3546   6.473   2.703   3.626
 1201TIP3    H2 3547   6.385   2.677   3.746
 1202TIP3   OH2 3548   3.889   0.815   1.445
 1202TIP3    H1 3549   3.934   0.731   1.442
 1202TIP3    H2 3550   3.954   0.876   1.480
 1203TIP3   OH2 3551   7.506   0.648   5.513
 1203TIP3    H1 3552   7.479   0.735   5.544
 1203TIP3    H2 3553   7.434   0.620   5.456
 1204TIP3   OH2 3554   8.122   6.495   5.642
 1204TIP3    H1 3555   8.098   6.551   5.715
 1204TIP3    H2 3556   8.202   6.533   5.608
 1205TIP3   OH2 3557   8.117   6.183   2.050
 1205TIP3    H1 3558   8.090   6.135   2.128
 1205TIP3    H2 3559   8.034   6.213   2.011
 1206TIP3   OH2 3560   0.069   3.481   1.790
 1206TIP3    H1 3561   0.129   3.534   1.843
 1206TIP3    H2 3562  -0.013   3.531   1.790
 1207TIP3   OH2 3563   2.283   7.348   3.654
 1207TIP3    H1 3564   2.224   7.366   3.727
 1207TIP3    H2 3565   2.312   7.434   3.625
 1208TIP3   OH2 3566   3.299   7.784   5.114
 1208TIP3    H1 3567   3.383   7.829   5.107
 1208TIP3    H2 3568   3.310   7.725   5.189
 1209TIP3   OH2 3569   0.231   6.634   3.183
 1209TIP3    H1 3570   0.208   6.695   3.252
 1209TIP3    H2 3571   0.213   6.681   3.102
 1210TIP3   OH2 3572   2.403   2.517   1.549
 1210TIP3    H1 3573   2.338   2.560   1.605
 1210TIP3    H2 3574   2.423   2.435   1.595
 1211TIP3   OH2 3575   4.243   3.329   3.117
 1211TIP3    H1 3576   4.213   3.373   3.037
 1211TIP3    H2 3577   4.169   3.276   3.145
 1212TIP3   OH2 3578   3.652   6.362   2.737
 1212TIP3    H1 3579   3.718   6.385   2.672
 1212TIP3    H2 3580   3.607   6.286   2.701
 1213TIP3   OH2 3581   2.855   6.918   1.838
 1213TIP3    H1 3582   2.787   6.980   1.863
 1213TIP3    H2 3583   2.821   6.875   1.760
 1214TIP3   OH2 3584   7.362   5.147   4.547
 1214TIP3    H1 3585   7.409   5.150   4.463
 1214TIP3    H2 3586   7.392   5.224   4.594
 1215TIP3   OH2 3587   2.160   2.170   2.082
 1215TIP3    H1 3588   2.082   2.154   2.135
 1215TIP3    H2 3589   2.127   2.179   1.992
 1216TIP3   OH2 3590   1.965   3.839   0.556
 1216TIP3    H1 3591   1.972   3.928   0.522
 1216TIP3    H2 3592   1.886   3.841   0.610
 1217TIP3   OH2 3593   0.129   0.657   3.895
 1217TIP3    H1 3594   0.157   0.672   3.804
 1217TIP3    H2 3595   0.104   0.565   3.897
 1218TIP3   OH2 3596   4.709   1.667   6.077
 1218TIP3    H1 3597   4.627   1.618   6.070
 1218TIP3    H2 3598   4.741   1.648   6.166
 1219TIP3   OH2 3599   6.840   4.777   1.562
 1219TIP3    H1 3600   6.747   4.800   1.556
 1219TIP3    H2 3601   6.861   4.743   1.475
 1220TIP3   OH2 3602   7.244   0.667   2.161
 1220TIP3    H1 3603   7.169   0.725   2.153
 1220TIP3    H2 3604   7.207   0.579   2.154
 1221TIP3   OH2 3605  -0.009   4.319   6.478
 1221TIP3    H1 3606  -0.038   4.396   6.527
 1221TIP3    H2 3607   0.081   4.305   6.505
 1222TIP3   OH2 3608   0.179   0.844   6.368
 1222TIP3    H1 3609   0.203   0.781   6.300
 1222TIP3    H2 3610   0.216   0.808   6.449
 1223TIP3   OH2 3611   4.961   5.355   0.492
 1223TIP3    H1 3612   5.030   5.404   0.538
 1223TIP3    H2 3613   4.982   5.367   0.400
 1224TIP3   OH2 3614   5.310   4.827   6.524
 1224TIP3    H1 3615   5.246   4.780   6.578
 1224TIP3    H2 3616   5.273   4.915   6.514
 1225TIP3   OH2 3617   1.317   7.418   4.027
 1225TIP3    H1 3618   1.369   7.405   3.948
 1225TIP3    H2 3619   1.265   7.496   4.008
 1226TIP3   OH2 3620   3.575   6.255   5.417
 1226TIP3    H1 3621   3.557   6.245   5.324
 1226TIP3    H2 3622   3.527   6.184   5.459
 1227TIP3   OH2 3623   3.818   4.148   6.600
 1227TIP3    H1 3624   3.882   4.207   6.639
 1227TIP3    H2 3625   3.864   4.064   6.593
 1228TIP3   OH2 3626   7.303   3.556   0.597
 1228TIP3    H1 3627   7.356   3.530   0.673
 1228TIP3    H2 3628   7.315   3.486   0.534
 1229TIP3   OH2 3629   7.516   4.364   6.407
 1229TIP3    H1 3630   7.555   4.384   6.322
 1229TIP3    H2 3631   7.498   4.449   6.446
 1230TIP3   OH2 3632   7.355   1.070   5.044
 1230TIP3    H1 3633   7.358   1.034   5.132
 1230TIP3    H2 3634   7.285   1.136   5.047
 1231TIP3   OH2 3635   2.145   2.555   6.642
 1231TIP3    H1 3636   2.099   2.593   6.567
 1231TIP3    H2 3637   2.102   2.470   6.656
 1232TIP3   OH2 3638   5.253   6.838   6.399
 1232TIP3    H1 3639   5.233   6.744   6.391
 1232TIP3    H2 3640   5.170   6.878   6.424
 1233TIP3   OH2 3641   6.551   3.915   6.196
 1233TIP3    H1 3642   6.461   3.929   6.165
 1233TIP3    H2 3643   6.583   4.003   6.218
 1234TIP3   OH2 3644   6.132   3.606   6.462
 1234TIP3    H1 3645   6.226   3.615   6.475
 1234TIP3    H2 3646   6.111   3.518   6.495
 1235TIP3   OH2 3647   4.876   2.898   3.011
 1235TIP3    H1 3648   4.804   2.952   2.977
 1235TIP3    H2 3649   4.950   2.958   3.018
 1236TIP3   OH2 3650   3.025   0.821   1.764
 1236TIP3    H1 3651   3.051   0.738   1.803
 1236TIP3    H2 3652   3.058   0.817   1.674
 1237TIP3   OH2 3653   3.981   3.997   2.461
 1237TIP3    H1 3654   3.919   3.927   2.484
 1237TIP3    H2 3655   4.044   3.997   2.533
 1238TIP3   OH2 3656   3.967   6.367   5.718
 1238TIP3    H1 3657   3.919   6.435   5.765
 1238TIP3    H2 3658   3.985   6.300   5.783
 1239TIP3   OH2 3659   2.789   2.565   5.447
 1239TIP3    H1 3660   2.882   2.562   5.423
 1239TIP3    H2 3661   2.754   2.480   5.420
 1240TIP3   OH2 3662   4.172   4.371   1.337
 1240TIP3    H1 3663   4.164   4.380   1.432
 1240TIP3    H2 3664   4.098   4.421   1.301
 1241TIP3   OH2 3665   1.541   0.617   5.069
 1241TIP3    H1 3666   1.503   0.555   5.131
 1241TIP3    H2 3667   1.501   0.701   5.091
 1242TIP3   OH2 3668   1.315   6.276   5.064
 1242TIP3    H1 3669   1.282   6.186   5.067
 1242TIP3    H2 3670   1.404   6.270   5.098
 1243TIP3   OH2 3671   1.877   2.508   5.719
 1243TIP3    H1 3672   1.867   2.555   5.802
 1243TIP3    H2 3673   1.819   2.554   5.658
 1244TIP3   OH2 3674   7.602   3.527   0.021
 1244TIP3    H1 3675   7.609   3.583   0.098
 1244TIP3    H2 3676   7.610   3.587  -0.053
 1245TIP3   OH2 3677   4.752   5.877   1.407
 1245TIP3    H1 3678   4.751   5.801   1.465
 1245TIP3    H2 3679   4.675   5.928   1.431
 1246TIP3   OH2 3680   5.289   2.908   0.239
 1246TIP3    H1 3681   5.333   2.909   0.154
 1246TIP3    H2 3682   5.217   2.847   0.228
 1247TIP3   OH2 3683   5.774   7.202   3.233
 1247TIP3    H1 3684   5.846   7.234   3.179
 1247TIP3    H2 3685   5.786   7.245   3.317
 1248TIP3   OH2 3686  -0.003   7.776   2.511
 1248TIP3    H1 3687   0.020   7.867   2.491
 1248TIP3    H2 3688   0.019   7.727   2.431
 1249TIP3   OH2 3689   4.268   7.455   4.620
 1249TIP3    H1 3690   4.326   7.520   4.581
 1249TIP3    H2 3691   4.195   7.505   4.656
 1250TIP3   OH2 3692   3.583   5.655   4.663
 1250TIP3    H1 3693   3.498   5.614   4.675
 1250TIP3    H2 3694   3.625   5.648   4.749
 1251TIP3   OH2 3695   7.404   5.501   6.512
 1251TIP3    H1 3696   7.369   5.441   6.446
 1251TIP3    H2 3697   7.427   5.445   6.586
 1252TIP3   OH2 3698   7.675   7.059   0.820
 1252TIP3    H1 3699   7.673   6.991   0.887
 1252TIP3    H2 3700   7.767   7.062   0.793
 1253TIP3   OH2 3701   0.449   1.681   6.723
 1253TIP3    H1 3702   0.538   1.678   6.690
 1253TIP3    H2 3703   0.418   1.591   6.720
 1254TIP3   OH2 3704   6.275   6.025   6.256
 1254TIP3    H1 3705   6.267   5.993   6.166
 1254TIP3    H2 3706   6.274   5.946   6.310
 1255TIP3   OH2 3707   2.797   5.517   1.511
 1255TIP3    H1 3708   2.831   5.440   1.558
 1255TIP3    H2 3709   2.783   5.485   1.422
 1256TIP3   OH2 3710   5.897   6.697   6.605
 1256TIP3    H1 3711   5.930   6.782   6.575
 1256TIP3    H2 3712   5.879   6.649   6.524
 1257TIP3   OH2 3713   4.277   6.646   1.556
 1257TIP3    H1 3714   4.198   6.654   1.502
 1257TIP3    H2 3715   4.294   6.551   1.559
 1258TIP3   OH2 3716   7.530   0.838   6.531
 1258TIP3    H1 3717   7.568   0.907   6.477
 1258TIP3    H2 3718   7.471   0.884   6.591
 1259TIP3   OH2 3719   4.790   0.803   5.412
 1259TIP3    H1 3720   4.817   0.829   5.500
 1259TIP3    H2 3721   4.816   0.712   5.405
 1260TIP3   OH2 3722   0.252   1.453   0.356
 1260TIP3    H1 3723   0.218   1.517   0.418
 1260TIP3    H2 3724   0.175   1.415   0.316
 1261TIP3   OH2 3725   3.066   7.539   0.248
 1261TIP3    H1 3726   3.100   7.609   0.192
 1261TIP3    H2 3727   3.061   7.579   0.335
 1262TIP3   OH2 3728   6.669   4.028   5.818
 1262TIP3    H1 3729   6.762   4.034   5.840
 1262TIP3    H2 3730   6.667   3.988   5.731
 1263TIP3   OH2 3731   1.902   1.014   4.644
 1263TIP3    H1 3732   1.933   0.958   4.573
 1263TIP3    H2 3733   1.916   1.104   4.612
 1264TIP3   OH2 3734   2.510   0.769   0.908
 1264TIP3    H1 3735   2.578   0.701   0.913
 1264TIP3    H2 3736   2.511   0.810   0.994
 1265TIP3   OH2 3737   7.897   7.439   1.183
 1265TIP3    H1 3738   7.929   7.508   1.242
 1265TIP3    H2 3739   7.977   7.404   1.142
 1266TIP3   OH2 3740   6.380   2.907   3.381
 1266TIP3    H1 3741   6.447   2.973   3.361
 1266TIP3    H2 3742   6.333   2.942   3.457
 1267TIP3   OH2 3743   6.501   3.844   4.224
 1267TIP3    H1 3744   6.468   3.846   4.134
 1267TIP3    H2 3745   6.473   3.928   4.261
 1268TIP3   OH2 3746   0.558   5.664   3.801
 1268TIP3    H1 3747   0.516   5.744   3.831
 1268TIP3    H2 3748   0.577   5.616   3.882
 1269TIP3   OH2 3749   1.761   6.527   2.227
 1269TIP3    H1 3750   1.720   6.603   2.269
 1269TIP3    H2 3751   1.765   6.461   2.296
 1270TIP3   OH2 3752   3.410   0.356   4.084
 1270TIP3    H1 3753   3.407   0.448   4.057
 1270TIP3    H2 3754   3.488   0.321   4.041
 1271TIP3   OH2 3755   0.775   2.740   0.199
 1271TIP3    H1 3756   0.828   2.725   0.120
 1271TIP3    H2 3757   0.702   2.794   0.169
 1272TIP3   OH2 3758   5.634   0.616   5.503
 1272TIP3    H1 3759   5.629   0.605   5.408
 1272TIP3    H2 3760   5.584   0.542   5.538
 1273TIP3   OH2 3761   1.108   0.880   3.273
 1273TIP3    H1 3762   1.019   0.915   3.276
 1273TIP3    H2 3763   1.137   0.896   3.183
 1274TIP3   OH2 3764   3.326   1.309   5.913
 1274TIP3    H1 3765   3.297   1.235   5.966
 1274TIP3    H2 3766   3.313   1.281   5.823
 1275TIP3   OH2 3767   4.884   7.323   6.584
 1275TIP3    H1 3768   4.790   7.308   6.594
 1275TIP3    H2 3769   4.923   7.282   6.661
 1276TIP3   OH2 3770   0.295   1.294   6.223
 1276TIP3    H1 3771   0.313   1.342   6.304
 1276TIP3    H2 3772   0.377   1.251   6.202
 1277TIP3   OH2 3773   6.986   2.994   6.471
 1277TIP3    H1 3774   7.027   2.938   6.536
 1277TIP3    H2 3775   6.919   2.939   6.431
 1278TIP3   OH2 3776   3.559   4.058   1.638
 1278TIP3    H1 3777   3.532   3.971   1.667
 1278TIP3    H2 3778   3.630   4.041   1.576
 1279TIP3   OH2 3779   1.802   5.267   3.394
 1279TIP3    H1 3780   1.727   5.278   3.335
 1279TIP3    H2 3781   1.852   5.348   3.384
 1280TIP3   OH2 3782   7.173   5.668   3.273
 1280TIP3    H1 3783   7.089   5.624   3.257
 1280TIP3    H2 3784   7.238   5.600   3.256
 1281TIP3   OH2 3785   1.398   1.634   4.502
 1281TIP3    H1 3786   1.326   1.697   4.504
 1281TIP3    H2 3787   1.386   1.582   4.582
 1282TIP3   OH2 3788   4.773   4.968   2.516
 1282TIP3    H1 3789   4.739   4.968   2.426
 1282TIP3    H2 3790   4.833   4.895   2.520
 1283TIP3   OH2 3791   5.307   0.315   1.136
 1283TIP3    H1 3792   5.356   0.278   1.063
 1283TIP3    H2 3793   5.344   0.275   1.214
 1284TIP3   OH2 3794   2.107   5.637   1.205
 1284TIP3    H1 3795   2.070   5.587   1.133
 1284TIP3    H2 3796   2.140   5.571   1.266
 1285TIP3   OH2 3797   6.475   7.699   0.911
 1285TIP3    H1 3798   6.451   7.780   0.956
 1285TIP3    H2 3799   6.565   7.682   0.939
 1286TIP3   OH2 3800   2.750   0.721   1.716
 1286TIP3    H1 3801   2.705   0.787   1.663
 1286TIP3    H2 3802   2.839   0.754   1.724
 1287TIP3   OH2 3803   6.206   4.111   4.505
 1287TIP3    H1 3804   6.284   4.165   4.496
 1287TIP3    H2 3805   6.135   4.172   4.524
 1288TIP3   OH2 3806   1.869   3.952   2.131
 1288TIP3    H1 3807   1.885   4.039   2.095
 1288TIP3    H2 3808   1.775   3.948   2.144
 1289TIP3   OH2 3809   2.125   3.618   2.397
 1289TIP3    H1 3810   2.039   3.636   2.360
 1289TIP3    H2 3811   2.141   3.526   2.377
 1290TIP3   OH2 3812   5.611   0.298   2.618
 1290TIP3    H1 3813   5.549   0.360   2.579
 1290TIP3    H2 3814   5.558   0.246   2.678
 1291TIP3   OH2 3815   6.978   0.152   0.595
 1291TIP3    H1 3816   6.977   0.133   0.689
 1291TIP3    H2 3817   6.905   0.100   0.559
 1292TIP3   OH2 3818   6.347   2.334   1.330
 1292TIP3    H1 3819   6.361   2.411   1.275
 1292TIP3    H2 3820   6.254   2.314   1.320
 1293TIP3   OH2 3821   4.258   3.937   4.207
 1293TIP3    H1 3822   4.319   3.970   4.272
 1293TIP3    H2 3823   4.282   3.981   4.126
 1294TIP3   OH2 3824   4.982   1.916   0.928
 1294TIP3    H1 3825   4.963   1.893   1.019
 1294TIP3    H2 3826   4.974   2.012   0.926
 1295TIP3   OH2 3827   3.543   3.773   4.446
 1295TIP3    H1 3828   3.480   3.755   4.376
 1295TIP3    H2 3829   3.626   3.783   4.401
 1296TIP3   OH2 3830   0.305   5.678   3.230
 1296TIP3    H1 3831   0.341   5.621   3.162
 1296TIP3    H2 3832   0.333   5.639   3.313
 1297TIP3   OH2 3833   7.255   5.159   2.251
 1297TIP3    H1 3834   7.335   5.113   2.277
 1297TIP3    H2 3835   7.279   5.251   2.253
 1298TIP3   OH2 3836   4.202   5.234   3.982
 1298TIP3    H1 3837   4.220   5.290   3.906
 1298TIP3    H2 3838   4.126   5.183   3.956
 1299TIP3   OH2 3839   3.153   3.493   6.722
 1299TIP3    H1 3840   3.157   3.582   6.757
 1299TIP3    H2 3841   3.244   3.471   6.701
 1300TIP3   OH2 3842   4.577   1.388   0.734
 1300TIP3    H1 3843   4.511   1.430   0.679
 1300TIP3    H2 3844   4.637   1.347   0.671
 1301TIP3   OH2 3845   5.504   4.210   6.662
 1301TIP3    H1 3846   5.433   4.163   6.706
 1301TIP3    H2 3847   5.503   4.297   6.703
 1302TIP3   OH2 3848   0.603   4.781   4.427
 1302TIP3    H1 3849   0.685   4.810   4.385
 1302TIP3    H2 3850   0.536   4.838   4.390
 1303TIP3   OH2 3851   6.567   4.184   6.255
 1303TIP3    H1 3852   6.578   4.279   6.261
 1303TIP3    H2 3853   6.480   4.168   6.292
 1304TIP3   OH2 3854   2.006   1.394   3.181
 1304TIP3    H1 3855   1.997   1.304   3.215
 1304TIP3    H2 3856   1.921   1.434   3.197
 1305TIP3   OH2 3857   3.191   4.287   4.192
 1305TIP3    H1 3858   3.132   4.218   4.159
 1305TIP3    H2 3859   3.157   4.368   4.153
 1306TIP3   OH2 3860   6.945   4.809   5.593
 1306TIP3    H1 3861   7.005   4.869   5.549
 1306TIP3    H2 3862   6.960   4.824   5.686
 1307TIP3   OH2 3863   1.063   2.610   5.476
 1307TIP3    H1 3864   1.068   2.695   5.519
 1307TIP3    H2 3865   1.115   2.620   5.396
 1308TIP3   OH2 3866   7.773   1.605   0.649
 1308TIP3    H1 3867   7.696   1.573   0.601
 1308TIP3    H2 3868   7.834   1.532   0.647
 1309TIP3   OH2 3869   2.603   1.521   3.105
 1309TIP3    H1 3870   2.633   1.579   3.035
 1309TIP3    H2 3871   2.512   1.501   3.083
 1310TIP3   OH2 3872   1.416   6.247   2.323
 1310TIP3    H1 3873   1.451   6.237   2.412
 1310TIP3    H2 3874   1.476   6.197   2.268
 1311TIP3   OH2 3875   7.887   1.349   1.586
 1311TIP3    H1 3876   7.806   1.310   1.617
 1311TIP3    H2 3877   7.914   1.293   1.513
 1312TIP3   OH2 3878   6.208   4.164   0.936
 1312TIP3    H1 3879   6.301   4.145   0.926
 1312TIP3    H2 3880   6.205   4.247   0.983
 1313TIP3   OH2 3881   1.304   0.730   4.534
 1313TIP3    H1 3882   1.356   0.696   4.607
 1313TIP3    H2 3883   1.226   0.768   4.576
 1314TIP3   OH2 3884   0.869   4.532   0.201
 1314TIP3    H1 3885   0.868   4.570   0.288
 1314TIP3    H2 3886   0.781   4.549   0.166
 1315TIP3   OH2 3887   3.056   6.289   1.120
 1315TIP3    H1 3888   3.116   6.339   1.065
 1315TIP3    H2 3889   2.982   6.269   1.062
 1316TIP3   OH2 3890   0.852   6.027   0.689
 1316TIP3    H1 3891   0.923   6.014   0.752
 1316TIP3    H2 3892   0.806   5.943   0.688
 1317TIP3   OH2 3893   1.776   6.273   3.904
 1317TIP3    H1 3894   1.793   6.308   3.992
 1317TIP3    H2 3895   1.681   6.269   3.898
 1318TIP3   OH2 3896   2.169   2.595   3.913
 1318TIP3    H1 3897   2.118   2.587   3.993
 1318TIP3    H2 3898   2.122   2.660   3.860
 1319TIP3   OH2 3899   4.483   7.494   5.820
 1319TIP3    H1 3900   4.423   7.428   5.855
 1319TIP3    H2 3901   4.466   7.572   5.873
 1320TIP3   OH2 3902   7.427   1.198   5.330
 1320TIP3    H1 3903   7.461   1.109   5.344
 1320TIP3    H2 3904   7.473   1.251   5.395
 1321TIP3   OH2 3905   4.689   7.576   1.729
 1321TIP3    H1 3906   4.732   7.616   1.654
 1321TIP3    H2 3907   4.655   7.493   1.697
 1322TIP3   OH2 3908   0.185   3.911   4.516
 1322TIP3    H1 3909   0.099   3.925   4.557
 1322TIP3    H2 3910   0.194   3.816   4.512
 1323TIP3   OH2 3911   2.757   7.699   2.815
 1323TIP3    H1 3912   2.714   7.615   2.803
 1323TIP3    H2 3913   2.817   7.685   2.889
 1324TIP3   OH2 3914   2.065   6.817   0.068
 1324TIP3    H1 3915   2.109   6.734   0.048
 1324TIP3    H2 3916   2.018   6.800   0.149
 1325TIP3   OH2 3917   4.506   5.937   1.536
 1325TIP3    H1 3918   4.525   5.957   1.628
 1325TIP3    H2 3919   4.440   5.868   1.539
 1326TIP3   OH2 3920   6.521   7.558   3.584
 1326TIP3    H1 3921   6.485   7.610   3.512
 1326TIP3    H2 3922   6.494   7.468   3.566
 1327TIP3   OH2 3923   1.840   7.342   4.710
 1327TIP3    H1 3924   1.755   7.387   4.710
 1327TIP3    H2 3925   1.900   7.403   4.751
 1328TIP3   OH2 3926   4.288   0.381   3.937
 1328TIP3    H1 3927   4.213   0.369   3.879
 1328TIP3    H2 3928   4.272   0.464   3.981
 1329TIP3   OH2 3929   5.023   7.632   1.746
 1329TIP3    H1 3930   5.019   7.542   1.715
 1329TIP3    H2 3931   5.117   7.649   1.757
 1330TIP3   OH2 3932   3.296   2.246   6.373
 1330TIP3    H1 3933   3.259   2.179   6.431
 1330TIP3    H2 3934   3.388   2.221   6.364
 1331TIP3   OH2 3935   2.392   6.114   4.258
 1331TIP3    H1 3936   2.414   6.144   4.346
 1331TIP3    H2 3937   2.297   6.103   4.260
 1332TIP3   OH2 3938   7.344   3.772   0.249
 1332TIP3    H1 3939   7.343   3.830   0.325
 1332TIP3    H2 3940   7.255   3.775   0.215
 1333TIP3   OH2 3941   6.261   6.449   1.981
 1333TIP3    H1 3942   6.302   6.363   1.986
 1333TIP3    H2 3943   6.184   6.437   1.926
 1334TIP3   OH2 3944   2.252   1.644   4.771
 1334TIP3    H1 3945   2.192   1.572   4.753
 1334TIP3    H2 3946   2.217   1.718   4.721
 1335TIP3   OH2 3947   4.512   3.065   5.076
 1335TIP3    H1 3948   4.570   2.993   5.054
 1335TIP3    H2 3949   4.542   3.094   5.162
 1336TIP3   OH2 3950   4.089   2.305   4.468
 1336TIP3    H1 3951   4.030   2.364   4.422
 1336TIP3    H2 3952   4.030   2.245   4.515
 1337TIP3   OH2 3953   4.448   6.754   6.426
 1337TIP3    H1 3954   4.467   6.786   6.338
 1337TIP3    H2 3955   4.399   6.825   6.467
 1338TIP3   OH2 3956   3.579   5.804   5.282
 1338TIP3    H1 3957   3.627   5.746   5.341
 1338TIP3    H2 3958   3.643   5.872   5.258
 1339TIP3   OH2 3959   1.872   0.791   5.573
 1339TIP3    H1 3960   1.801   0.779   5.511
 1339TIP3    H2 3961   1.951   0.795   5.519
 1340TIP3   OH2 3962   0.412   6.743   1.340
 1340TIP3    H1 3963   0.334   6.717   1.291
 1340TIP3    H2 3964   0.389   6.728   1.432
 1341TIP3   OH2 3965   4.537   2.449   5.568
 1341TIP3    H1 3966   4.592   2.526   5.552
 1341TIP3    H2 3967   4.582   2.378   5.522
 1342TIP3   OH2 3968   6.153   7.488   4.259
 1342TIP3    H1 3969   6.100   7.431   4.315
 1342TIP3    H2 3970   6.141   7.576   4.295
 1343TIP3   OH2 3971   4.627   0.447   5.419
 1343TIP3    H1 3972   4.535   0.473   5.423
 1343TIP3    H2 3973   4.625   0.356   5.389
 1344TIP3   OH2 3974   7.049   2.566   4.386
 1344TIP3    H1 3975   7.026   2.481   4.423
 1344TIP3    H2 3976   7.122   2.597   4.440
 1345TIP3   OH2 3977   0.075   7.295   6.216
 1345TIP3    H1 3978   0.074   7.345   6.298
 1345TIP3    H2 3979   0.163   7.309   6.181
 1346TIP3   OH2 3980   0.552   4.993   0.489
 1346TIP3    H1 3981   0.620   4.927   0.501
 1346TIP3    H2 3982   0.502   4.963   0.413
 1347TIP3   OH2 3983   1.096   6.872   5.914
 1347TIP3    H1 3984   1.059   6.910   5.994
 1347TIP3    H2 3985   1.139   6.791   5.944
 1348TIP3   OH2 3986   4.798   3.550   1.500
 1348TIP3    H1 3987   4.751   3.634   1.500
 1348TIP3    H2 3988   4.731   3.485   1.479
 1349TIP3   OH2 3989   3.030   3.509   0.977
 1349TIP3    H1 3990   3.074   3.589   0.948
 1349TIP3    H2 3991   2.991   3.532   1.061
 1350TIP3   OH2 3992   6.456   5.920   0.869
 1350TIP3    H1 3993   6.394   5.992   0.885
 1350TIP3    H2 3994   6.428   5.851   0.929
 1351TIP3   OH2 3995   3.822   5.217   3.600
 1351TIP3    H1 3996   3.887   5.155   3.570
 1351TIP3    H2 3997   3.773   5.241   3.521
 1352TIP3   OH2 3998   7.575   1.856   0.540
 1352TIP3    H1 3999   7.492   1.863   0.586
 1352TIP3    H2 4000   7.635   1.821   0.606
 1353TIP3   OH2 4001   6.317   3.267   3.262
 1353TIP3    H1 4002   6.359   3.263   3.176
 1353TIP3    H2 4003   6.361   3.200   3.314
 1354TIP3   OH2 4004   8.096   2.759   6.332
 1354TIP3    H1 4005   8.083   2.721   6.245
 1354TIP3    H2 4006   8.106   2.853   6.316
 1355TIP3   OH2 4007   7.877   5.601   6.026
 1355TIP3    H1 4008   7.879   5.605   5.930
 1355TIP3    H2 4009   7.817   5.670   6.052
 1356TIP3   OH2 4010   3.749   2.653   6.755
 1356TIP3    H1 4011   3.822   2.608   6.713
 1356TIP3    H2 4012   3.706   2.701   6.684
 1357TIP3   OH2 4013   0.847   7.636   0.602
 1357TIP3    H1 4014   0.915   7.676   0.656
 1357TIP3    H2 4015   0.867   7.542   0.605
 1358TIP3   OH2 4016   0.200   0.808   4.557
 1358TIP3    H1 4017   0.262   0.794   4.486
 1358TIP3    H2 4018   0.254   0.840   4.630
 1359TIP3   OH2 4019   7.718   5.368   4.366
 1359TIP3    H1 4020   7.748   5.310   4.296
 1359TIP3    H2 4021   7.764   5.450   4.351
 1360TIP3   OH2 4022   0.153   7.269   6.771
 1360TIP3    H1 4023   0.068   7.311   6.783
 1360TIP3    H2 4024   0.210   7.338   6.738
 1361TIP3   OH2 4025   2.530   3.249   2.518
 1361TIP3    H1 4026   2.582   3.168   2.516
 1361TIP3    H2 4027   2.586   3.312   2.563
 1362TIP3   OH2 4028   2.055   7.681   0.045
 1362TIP3    H1 4029   1.995   7.700   0.116
 1362TIP3    H2 4030   2.067   7.586   0.048
 1363TIP3   OH2 4031   4.619   4.148   5.162
 1363TIP3    H1 4032   4.678   4.182   5.228
 1363TIP3    H2 4033   4.640   4.198   5.083
 1364TIP3   OH2 4034   3.925   6.852   3.327
 1364TIP3    H1 4035   3.916   6.815   3.239
 1364TIP3    H2 4036   3.928   6.776   3.384
 1365TIP3   OH2 4037   6.148   1.058   2.070
 1365TIP3    H1 4038   6.086   0.985   2.066
 1365TIP3    H2 4039   6.217   1.027   2.127
 1366TIP3   OH2 4040   1.720   3.023   2.864
 1366TIP3    H1 4041   1.782   3.081   2.818
 1366TIP3    H2 4042   1.695   3.072   2.942
 1367TIP3   OH2 4043   1.933   0.521   2.457
 1367TIP3    H1 4044   1.964   0.585   2.521
 1367TIP3    H2 4045   1.972   0.439   2.485
 1368TIP3   OH2 4046   3.976   3.382   5.500
 1368TIP3    H1 4047   3.894   3.341   5.526
 1368TIP3    H2 4048   4.016   3.320   5.439
 1369TIP3   OH2 4049   1.616   1.012   5.201
 1369TIP3    H1 4050   1.692   1.019   5.143
 1369TIP3    H2 4051   1.602   1.102   5.232
 1370TIP3   OH2 4052   5.752   2.615   0.696
 1370TIP3    H1 4053   5.802   2.695   0.716
 1370TIP3    H2 4054   5.664   2.647   0.676
 1371TIP3   OH2 4055   0.476   5.337   3.156
 1371TIP3    H1 4056   0.557   5.347   3.206
 1371TIP3    H2 4057   0.465   5.421   3.112
 1372TIP3   OH2 4058   6.271   4.167   2.242
 1372TIP3    H1 4059   6.255   4.228   2.170
 1372TIP3    H2 4060   6.346   4.115   2.212
 1373TIP3   OH2 4061   7.281   7.570   3.202
 1373TIP3    H1 4062   7.299   7.532   3.116
 1373TIP3    H2 4063   7.225   7.505   3.245
 1374TIP3   OH2 4064   5.129   6.327   1.878
 1374TIP3    H1 4065   5.152   6.245   1.836
 1374TIP3    H2 4066   5.203   6.385   1.861
 1375TIP3   OH2 4067   6.598   3.061   6.678
 1375TIP3    H1 4068   6.510   3.024   6.669
 1375TIP3    H2 4069   6.602   3.092   6.769
 1376TIP3   OH2 4070   3.539   4.275   5.219
 1376TIP3    H1 4071   3.449   4.244   5.216
 1376TIP3    H2 4072   3.566   4.280   5.127
 1377TIP3   OH2 4073   0.429   6.863   5.652
 1377TIP3    H1 4074   0.382   6.817   5.583
 1377TIP3    H2 4075   0.506   6.809   5.670
 1378TIP3   OH2 4076   5.466   2.328   4.592
 1378TIP3    H1 4077   5.481   2.264   4.523
 1378TIP3    H2 4078   5.373   2.319   4.614
 1379TIP3   OH2 4079   1.353   1.386   1.986
 1379TIP3    H1 4080   1.299   1.465   1.988
 1379TIP3    H2 4081   1.311   1.326   2.047
 1380TIP3   OH2 4082   4.920   0.124   2.599
 1380TIP3    H1 4083   4.922   0.145   2.692
 1380TIP3    H2 4084   4.981   0.186   2.559
 1381TIP3   OH2 4085   6.982   1.928   2.076
 1381TIP3    H1 4086   7.003   1.851   2.130
 1381TIP3    H2 4087   7.052   1.990   2.096
 1382TIP3   OH2 4088   2.777   4.029   2.368
 1382TIP3    H1 4089   2.780   3.943   2.410
 1382TIP3    H2 4090   2.687   4.058   2.379
 1383TIP3   OH2 4091   4.144   4.890   5.162
 1383TIP3    H1 4092   4.211   4.881   5.093
 1383TIP3    H2 4093   4.083   4.956   5.128
 1384TIP3   OH2 4094   1.354   7.697   0.181
 1384TIP3    H1 4095   1.379   7.611   0.216
 1384TIP3    H2 4096   1.259   7.691   0.171
 1385TIP3   OH2 4097   6.070   3.243   3.584
 1385TIP3    H1 4098   6.088   3.213   3.495
 1385TIP3    H2 4099   6.157   3.250   3.625
 1386TIP3   OH2 4100   3.871   7.510   6.398
 1386TIP3    H1 4101   3.866   7.446   6.469
 1386TIP3    H2 4102   3.912   7.586   6.437
 1387TIP3   OH2 4103   4.047   1.095   0.590
 1387TIP3    H1 4104   4.071   1.009   0.625
 1387TIP3    H2 4105   4.130   1.134   0.563
 1388TIP3   OH2 4106   3.450   4.753   1.482
 1388TIP3    H1 4107   3.460   4.709   1.398
 1388TIP3    H2 4108   3.493   4.838   1.469
 1389TIP3   OH2 4109   6.559   1.726   5.768
 1389TIP3    H1 4110   6.544   1.806   5.717
 1389TIP3    H2 4111   6.489   1.726   5.833
 1390TIP3   OH2 4112   4.255   2.982   2.307
 1390TIP3    H1 4113   4.224   3.062   2.350
 1390TIP3    H2 4114   4.330   2.955   2.359
 1391TIP3   OH2 4115   0.262   5.774   6.445
 1391TIP3    H1 4116   0.299   5.688   6.426
 1391TIP3    H2 4117   0.338   5.831   6.458
 1392TIP3   OH2 4118   2.096   7.101   2.532
 1392TIP3    H1 4119   2.106   7.166   2.603
 1392TIP3    H2 4120   2.020   7.049   2.558
 1393TIP3   OH2 4121   4.950   0.014   1.611
 1393TIP3    H1 4122   4.983   0.065   1.537
 1393TIP3    H2 4123   4.861   0.046   1.625
 1394TIP3   OH2 4124   2.110   0.788   2.646
 1394TIP3    H1 4125   2.185   0.753   2.694
 1394TIP3    H2 4126   2.134   0.777   2.554
 1395TIP3   OH2 4127   6.666   7.748   6.606
 1395TIP3    H1 4128   6.745   7.717   6.650
 1395TIP3    H2 4129   6.596   7.692   6.641
 1396TIP3   OH2 4130   2.763   4.549   1.031
 1396TIP3    H1 4131   2.730   4.459   1.029
 1396TIP3    H2 4132   2.795   4.564   0.943
 1397TIP3   OH2 4133   4.766   7.254   4.978
 1397TIP3    H1 4134   4.752   7.190   5.048
 1397TIP3    H2 4135   4.808   7.203   4.908
 1398TIP3   OH2 4136   5.597   0.503   5.034
 1398TIP3    H1 4137   5.632   0.415   5.020
 1398TIP3    H2 4138   5.512   0.502   4.989
 1399TIP3   OH2 4139   5.623   3.141   5.268
 1399TIP3    H1 4140   5.530   3.120   5.262
 1399TIP3    H2 4141   5.634   3.217   5.211
 1400TIP3   OH2 4142   0.099   2.546   2.909
 1400TIP3    H1 4143   0.077   2.482   2.842
 1400TIP3    H2 4144   0.140   2.495   2.979
 1401TIP3   OH2 4145   4.527   1.051   0.695
 1401TIP3    H1 4146   4.571   1.092   0.621
 1401TIP3    H2 4147   4.591   1.056   0.767
 1402TIP3   OH2 4148   6.472   5.406   2.466
 1402TIP3    H1 4149   6.486   5.321   2.509
 1402TIP3    H2 4150   6.470   5.386   2.373
 1403TIP3   OH2 4151   1.852   5.556   6.089
 1403TIP3    H1 4152   1.923   5.543   6.025
 1403TIP3    H2 4153   1.896   5.592   6.166
 1404TIP3   OH2 4154   7.752   5.155   0.479
 1404TIP3    H1 4155   7.837   5.179   0.517
 1404TIP3    H2 4156   7.690   5.217   0.519
 1405TIP3   OH2 4157   0.137   2.275   1.835
 1405TIP3    H1 4158   0.122   2.206   1.900
 1405TIP3    H2 4159   0.070   2.341   1.854
 1406TIP3   OH2 4160   5.581   7.299   0.297
 1406TIP3    H1 4161   5.551   7.209   0.304
 1406TIP3    H2 4162   5.568   7.336   0.385
 1407TIP3   OH2 4163   5.795   0.915   5.374
 1407TIP3    H1 4164   5.829   0.914   5.285
 1407TIP3    H2 4165   5.870   0.943   5.427
 1408TIP3   OH2 4166   7.742   5.357   2.842
 1408TIP3    H1 4167   7.835   5.377   2.853
 1408TIP3    H2 4168   7.738   5.262   2.837
 1409TIP3   OH2 4169   6.126   7.334   4.000
 1409TIP3    H1 4170   6.154   7.294   4.083
 1409TIP3    H2 4171   6.128   7.428   4.017
 1410TIP3   OH2 4172   7.973   3.274   5.503
 1410TIP3    H1 4173   8.034   3.209   5.539
 1410TIP3    H2 4174   8.028   3.347   5.478
 1411TIP3   OH2 4175   6.134   5.823   3.707
 1411TIP3    H1 4176   6.068   5.768   3.747
 1411TIP3    H2 4177   6.148   5.785   3.620
 1412TIP3   OH2 4178   1.323   2.827   5.462
 1412TIP3    H1 4179   1.310   2.917   5.433
 1412TIP3    H2 4180   1.257   2.777   5.413
 1413TIP3   OH2 4181   0.422   5.001   4.321
 1413TIP3    H1 4182   0.402   4.967   4.234
 1413TIP3    H2 4183   0.361   5.073   4.334
 1414TIP3   OH2 4184   6.658   7.249   0.070
 1414TIP3    H1 4185   6.637   7.219  -0.019
 1414TIP3    H2 4186   6.575   7.278   0.106
 1415TIP3   OH2 4187   5.055   3.856   4.162
 1415TIP3    H1 4188   4.962   3.854   4.138
 1415TIP3    H2 4189   5.055   3.856   4.258
 1416TIP3   OH2 4190   0.909   0.579   2.496
 1416TIP3    H1 4191   0.818   0.588   2.523
 1416TIP3    H2 4192   0.943   0.508   2.551
 1417TIP3   OH2 4193   1.073   3.099   1.619
 1417TIP3    H1 4194   1.088   3.165   1.687
 1417TIP3    H2 4195   1.161   3.066   1.599
 1418TIP3   OH2 4196   1.554   1.272   4.573
 1418TIP3    H1 4197   1.580   1.297   4.484
 1418TIP3    H2 4198   1.459   1.275   4.572
 1419TIP3   OH2 4199   7.800   2.667   0.475
 1419TIP3    H1 4200   7.798   2.754   0.435
 1419TIP3    H2 4201   7.791   2.607   0.401
 1420TIP3   OH2 4202   7.033   4.790   4.511
 1420TIP3    H1 4203   7.028   4.798   4.607
 1420TIP3    H2 4204   7.102   4.725   4.496
 1421TIP3   OH2 4205   3.233   2.902   0.946
 1421TIP3    H1 4206   3.303   2.837   0.946
 1421TIP3    H2 4207   3.184   2.884   1.027
 1422TIP3   OH2 4208   1.482   7.433   1.098
 1422TIP3    H1 4209   1.501   7.439   1.004
 1422TIP3    H2 4210   1.401   7.383   1.103
 1423TIP3   OH2 4211   4.922   6.821   1.025
 1423TIP3    H1 4212   4.913   6.818   0.930
 1423TIP3    H2 4213   4.906   6.731   1.054
 1424TIP3   OH2 4214   3.554   6.059   0.149
 1424TIP3    H1 4215   3.462   6.033   0.144
 1424TIP3    H2 4216   3.603   5.978   0.135
 1425TIP3   OH2 4217   0.587   7.602   1.267
 1425TIP3    H1 4218   0.655   7.576   1.204
 1425TIP3    H2 4219   0.601   7.696   1.280
 1426TIP3   OH2 4220   4.685   1.505   1.742
 1426TIP3    H1 4221   4.621   1.573   1.723
 1426TIP3    H2 4222   4.706   1.515   1.834
 1427TIP3   OH2 4223   7.559   0.655   4.004
 1427TIP3    H1 4224   7.516   0.598   3.940
 1427TIP3    H2 4225   7.580   0.597   4.077
 1428TIP3   OH2 4226   8.268   7.324   5.897
 1428TIP3    H1 4227   8.228   7.392   5.953
 1428TIP3    H2 4228   8.315   7.373   5.830
 1429TIP3   OH2 4229   0.263   0.605   6.249
 1429TIP3    H1 4230   0.225   0.523   6.218
 1429TIP3    H2 4231   0.333   0.578   6.309
 1430TIP3   OH2 4232   0.705   1.748   3.411
 1430TIP3    H1 4233   0.799   1.759   3.402
 1430TIP3    H2 4234   0.674   1.735   3.321
 1431TIP3   OH2 4235   0.783   4.364   1.078
 1431TIP3    H1 4236   0.840   4.324   1.012
 1431TIP3    H2 4237   0.782   4.301   1.150
 1432TIP3   OH2 4238   2.824   6.442   5.403
 1432TIP3    H1 4239   2.807   6.509   5.470
 1432TIP3    H2 4240   2.747   6.385   5.407
 1433TIP3   OH2 4241   1.631   6.360   6.488
 1433TIP3    H1 4242   1.565   6.398   6.546
 1433TIP3    H2 4243   1.628   6.416   6.410
 1434TIP3   OH2 4244   4.848   5.579   3.863
 1434TIP3    H1 4245   4.916   5.513   3.875
 1434TIP3    H2 4246   4.894   5.657   3.834
 1435TIP3   OH2 4247   3.147   0.408   4.634
 1435TIP3    H1 4248   3.057   0.389   4.607
 1435TIP3    H2 4249   3.137   0.458   4.716
 1436TIP3   OH2 4250   3.281   4.878   6.056
 1436TIP3    H1 4251   3.304   4.832   5.975
 1436TIP3    H2 4252   3.206   4.933   6.032
 1437TIP3   OH2 4253   6.269   2.734   4.176
 1437TIP3    H1 4254   6.289   2.701   4.263
 1437TIP3    H2 4255   6.240   2.657   4.127
 1438TIP3   OH2 4256   1.539   3.712   4.017
 1438TIP3    H1 4257   1.444   3.711   4.004
 1438TIP3    H2 4258   1.574   3.668   3.939
 1439TIP3   OH2 4259   1.614   4.651   2.944
 1439TIP3    H1 4260   1.617   4.605   3.027
 1439TIP3    H2 4261   1.541   4.611   2.897
 1440TIP3   OH2 4262   4.430   3.218   0.631
 1440TIP3    H1 4263   4.406   3.290   0.689
 1440TIP3    H2 4264   4.458   3.261   0.550
 1441TIP3   OH2 4265   0.691   5.232   5.453
 1441TIP3    H1 4266   0.782   5.258   5.439
 1441TIP3    H2 4267   0.695   5.163   5.519
 1442TIP3   OH2 4268   5.800   2.911   2.548
 1442TIP3    H1 4269   5.877   2.854   2.546
 1442TIP3    H2 4270   5.727   2.853   2.526
 1443TIP3   OH2 4271   6.202   7.459   5.833
 1443TIP3    H1 4272   6.212   7.404   5.755
 1443TIP3    H2 4273   6.107   7.466   5.845
 1444TIP3   OH2 4274   7.339   2.214   6.490
 1444TIP3    H1 4275   7.329   2.200   6.396
 1444TIP3    H2 4276   7.355   2.127   6.525
 1445TIP3   OH2 4277   7.640   5.092   4.752
 1445TIP3    H1 4278   7.610   5.001   4.747
 1445TIP3    H2 4279   7.700   5.102   4.679
 1446TIP3   OH2 4280   8.196   4.856   1.095
 1446TIP3    H1 4281   8.292   4.857   1.096
 1446TIP3    H2 4282   8.172   4.770   1.130
 1447TIP3   OH2 4283   4.969   6.967   6.433
 1447TIP3    H1 4284   4.874   6.957   6.436
 1447TIP3    H2 4285   4.983   7.057   6.402
 1448TIP3   OH2 4286   6.386   6.078   0.571
 1448TIP3    H1 4287   6.470   6.065   0.527
 1448TIP3    H2 4288   6.327   6.015   0.529
 1449TIP3   OH2 4289   1.099   2.808   0.884
 1449TIP3    H1 4290   1.011   2.842   0.867
 1449TIP3    H2 4291   1.087   2.742   0.952
 1450TIP3   OH2 4292   1.802   4.252   3.381
 1450TIP3    H1 4293   1.741   4.325   3.392
 1450TIP3    H2 4294   1.762   4.196   3.314
 1451TIP3   OH2 4295   7.273   7.513   6.168
 1451TIP3    H1 4296   7.250   7.478   6.254
 1451TIP3    H2 4297   7.194   7.558   6.139
 1452TIP3   OH2 4298   3.230   0.982   6.305
 1452TIP3    H1 4299   3.179   0.901   6.300
 1452TIP3    H2 4300   3.189   1.031   6.377
 1453TIP3   OH2 4301   2.412   4.933   0.630
 1453TIP3    H1 4302   2.454   4.965   0.709
 1453TIP3    H2 4303   2.334   4.887   0.660
 1454TIP3   OH2 4304   5.925   5.792   5.677
 1454TIP3    H1 4305   5.855   5.846   5.714
 1454TIP3    H2 4306   5.931   5.820   5.586
 1455TIP3   OH2 4307   6.342   2.425   0.915
 1455TIP3    H1 4308   6.413   2.403   0.853
 1455TIP3    H2 4309   6.384   2.424   1.001
 1456TIP3   OH2 4310   2.816   1.387   1.892
 1456TIP3    H1 4311   2.856   1.300   1.896
 1456TIP3    H2 4312   2.807   1.406   1.799
 1457TIP3   OH2 4313   1.518   3.065   4.055
 1457TIP3    H1 4314   1.457   2.996   4.082
 1457TIP3    H2 4315   1.485   3.095   3.971
 1458TIP3   OH2 4316   0.708   4.965   5.231
 1458TIP3    H1 4317   0.786   5.020   5.231
 1458TIP3    H2 4318   0.692   4.946   5.323
 1459TIP3   OH2 4319   3.461   4.323   6.483
 1459TIP3    H1 4320   3.472   4.229   6.498
 1459TIP3    H2 4321   3.546   4.351   6.449
 1460TIP3   OH2 4322   1.550   5.934   1.376
 1460TIP3    H1 4323   1.475   5.994   1.374
 1460TIP3    H2 4324   1.563   5.910   1.284
 1461TIP3   OH2 4325   2.811   3.625   1.496
 1461TIP3    H1 4326   2.808   3.538   1.535
 1461TIP3    H2 4327   2.786   3.684   1.567
 1462TIP3   OH2 4328   5.808   4.568   2.283
 1462TIP3    H1 4329   5.799   4.561   2.378
 1462TIP3    H2 4330   5.744   4.635   2.258
 1463TIP3   OH2 4331   5.084   5.304   5.271
 1463TIP3    H1 4332   5.086   5.282   5.364
 1463TIP3    H2 4333   5.023   5.378   5.265
 1464TIP3   OH2 4334   5.234   3.436   2.937
 1464TIP3    H1 4335   5.266   3.457   2.849
 1464TIP3    H2 4336   5.304   3.384   2.976
 1465TIP3   OH2 4337   5.269   0.725   5.142
 1465TIP3    H1 4338   5.315   0.805   5.115
 1465TIP3    H2 4339   5.176   0.751   5.142
 1466TIP3   OH2 4340   0.311   3.131   4.801
 1466TIP3    H1 4341   0.275   3.092   4.880
 1466TIP3    H2 4342   0.262   3.213   4.790
 1467TIP3   OH2 4343   7.568   0.622   1.114
 1467TIP3    H1 4344   7.577   0.702   1.167
 1467TIP3    H2 4345   7.522   0.652   1.036
 1468TIP3   OH2 4346   3.493   3.091   0.051
 1468TIP3    H1 4347   3.566   3.030   0.056
 1468TIP3    H2 4348   3.522   3.159  -0.010
 1469TIP3   OH2 4349   1.352   7.178   5.902
 1469TIP3    H1 4350   1.387   7.123   5.832
 1469TIP3    H2 4351   1.384   7.139   5.983
 1470TIP3   OH2 4352   7.665   4.840   3.913
 1470TIP3    H1 4353   7.622   4.874   3.835
 1470TIP3    H2 4354   7.740   4.791   3.879
 1471TIP3   OH2 4355   6.530   2.300   0.452
 1471TIP3    H1 4356   6.476   2.339   0.383
 1471TIP3    H2 4357   6.482   2.222   0.478
 1472TIP3   OH2 4358   0.917   3.021   6.733
 1472TIP3    H1 4359   0.855   2.948   6.725
 1472TIP3    H2 4360   0.936   3.047   6.643
 1473TIP3   OH2 4361   5.364   7.182   1.419
 1473TIP3    H1 4362   5.445   7.180   1.470
 1473TIP3    H2 4363   5.299   7.218   1.479
 1474TIP3   OH2 4364   7.417   6.551   6.182
 1474TIP3    H1 4365   7.489   6.563   6.121
 1474TIP3    H2 4366   7.415   6.457   6.199
 1475TIP3   OH2 4367   4.987   1.472   3.778
 1475TIP3    H1 4368   5.022   1.561   3.779
 1475TIP3    H2 4369   5.009   1.439   3.690
 1476TIP3   OH2 4370   1.785   6.379   2.450
 1476TIP3    H1 4371   1.756   6.288   2.446
 1476TIP3    H2 4372   1.719   6.423   2.504
 1477TIP3   OH2 4373   5.039   0.863   4.002
 1477TIP3    H1 4374   5.026   0.854   3.908
 1477TIP3    H2 4375   4.953   0.849   4.040
 1478TIP3   OH2 4376   2.630   2.775   6.708
 1478TIP3    H1 4377   2.719   2.758   6.741
 1478TIP3    H2 4378   2.575   2.712   6.754
 1479TIP3   OH2 4379   7.239   4.648   0.090
 1479TIP3    H1 4380   7.306   4.630   0.156
 1479TIP3    H2 4381   7.263   4.734   0.055
 1480TIP3   OH2 4382   4.547   2.736   2.860
 1480TIP3    H1 4383   4.619   2.694   2.907
 1480TIP3    H2 4384   4.562   2.712   2.769
 1481TIP3   OH2 4385   5.818   2.900   5.349
 1481TIP3    H1 4386   5.752   2.852   5.299
 1481TIP3    H2 4387   5.898   2.849   5.338
 1482TIP3   OH2 4388   0.577   7.557   4.463
 1482TIP3    H1 4389   0.622   7.630   4.420
 1482TIP3    H2 4390   0.606   7.479   4.415
 1483TIP3   OH2 4391   1.711   2.632   3.489
 1483TIP3    H1 4392   1.768   2.572   3.538
 1483TIP3    H2 4393   1.623   2.615   3.523
 1484TIP3   OH2 4394   6.784   6.755   1.755
 1484TIP3    H1 4395   6.756   6.795   1.672
 1484TIP3    H2 4396   6.783   6.828   1.817
 1485TIP3   OH2 4397   4.412   4.168   0.142
 1485TIP3    H1 4398   4.422   4.083   0.184
 1485TIP3    H2 4399   4.495   4.181   0.096
 1486TIP3   OH2 4400   0.265   2.868   3.783
 1486TIP3    H1 4401   0.204   2.928   3.740
 1486TIP3    H2 4402   0.300   2.918   3.857
 1487TIP3   OH2 4403   3.301   4.191   0.130
 1487TIP3    H1 4404   3.380   4.157   0.090
 1487TIP3    H2 4405   3.248   4.114   0.150
 1488TIP3   OH2 4406   7.409   5.996   4.878
 1488TIP3    H1 4407   7.327   6.011   4.830
 1488TIP3    H2 4408   7.381   5.964   4.964
 1489TIP3   OH2 4409   6.753   2.002   0.877
 1489TIP3    H1 4410   6.765   2.093   0.849
 1489TIP3    H2 4411   6.683   1.968   0.821
 1490TIP3   OH2 4412   3.850   1.985   2.271
 1490TIP3    H1 4413   3.908   1.974   2.195
 1490TIP3    H2 4414   3.777   2.037   2.237
 1491TIP3   OH2 4415   4.687   3.233   6.502
 1491TIP3    H1 4416   4.728   3.302   6.555
 1491TIP3    H2 4417   4.733   3.153   6.528
 1492TIP3   OH2 4418   2.778   5.898   0.997
 1492TIP3    H1 4419   2.858   5.909   1.048
 1492TIP3    H2 4420   2.777   5.974   0.938
 1493TIP3   OH2 4421   5.850   2.326   5.861
 1493TIP3    H1 4422   5.788   2.262   5.895
 1493TIP3    H2 4423   5.910   2.343   5.934
 1494TIP3   OH2 4424   7.986   3.801   4.375
 1494TIP3    H1 4425   7.956   3.876   4.426
 1494TIP3    H2 4426   7.916   3.785   4.311
 1495TIP3   OH2 4427   0.399   3.337   6.309
 1495TIP3    H1 4428   0.437   3.256   6.273
 1495TIP3    H2 4429   0.382   3.317   6.401
 1496TIP3   OH2 4430   4.099   2.174   4.141
 1496TIP3    H1 4431   4.043   2.098   4.128
 1496TIP3    H2 4432   4.044   2.249   4.117
 1497TIP3   OH2 4433   1.485   3.371   2.634
 1497TIP3    H1 4434   1.523   3.445   2.587
 1497TIP3    H2 4435   1.480   3.400   2.725
 1498TIP3   OH2 4436   3.015   3.829   0.423
 1498TIP3    H1 4437   3.000   3.735   0.423
 1498TIP3    H2 4438   2.942   3.865   0.373
 1499TIP3   OH2 4439   7.080   5.281   6.212
 1499TIP3    H1 4440   7.001   5.325   6.244
 1499TIP3    H2 4441   7.075   5.289   6.117
 1500TIP3   OH2 4442   3.665   2.330   0.557
 1500TIP3    H1 4443   3.577   2.293   0.564
 1500TIP3    H2 4444   3.690   2.348   0.648
 1501TIP3   OH2 4445   1.418   7.200   0.674
 1501TIP3    H1 4446   1.360   7.146   0.620
 1501TIP3    H2 4447   1.506   7.183   0.641
 1502TIP3   OH2 4448   1.219   4.149   2.454
 1502TIP3    H1 4449   1.285   4.107   2.399
 1502TIP3    H2 4450   1.135   4.120   2.418
 1503TIP3   OH2 4451   3.724   0.748   4.908
 1503TIP3    H1 4452   3.689   0.679   4.965
 1503TIP3    H2 4453   3.819   0.739   4.915
 1504TIP3   OH2 4454   6.715   1.146   1.308
 1504TIP3    H1 4455   6.807   1.132   1.288
 1504TIP3    H2 4456   6.676   1.176   1.225
 1505TIP3   OH2 4457   5.821   7.207   5.539
 1505TIP3    H1 4458   5.771   7.279   5.578
 1505TIP3    H2 4459   5.766   7.177   5.466
 1506TIP3   OH2 4460   1.919   4.688   0.861
 1506TIP3    H1 4461   1.825   4.706   0.851
 1506TIP3    H2 4462   1.940   4.720   0.949
 1507TIP3   OH2 4463   6.078   5.472   3.748
 1507TIP3    H1 4464   6.084   5.455   3.842
 1507TIP3    H2 4465   6.137   5.408   3.708
 1508TIP3   OH2 4466   3.483   2.275   3.145
 1508TIP3    H1 4467   3.528   2.194   3.121
 1508TIP3    H2 4468   3.398   2.269   3.101
 1509TIP3   OH2 4469   7.143   1.857   1.058
 1509TIP3    H1 4470   7.219   1.879   1.004
 1509TIP3    H2 4471   7.179   1.848   1.146
 1510TIP3   OH2 4472   5.565   7.324   1.718
 1510TIP3    H1 4473   5.608   7.405   1.745
 1510TIP3    H2 4474   5.474   7.334   1.747
 1511TIP3   OH2 4475   0.129   0.939   1.107
 1511TIP3    H1 4476   0.198   0.995   1.145
 1511TIP3    H2 4477   0.144   0.945   1.012
 1512TIP3   OH2 4478   0.931   5.862   6.260
 1512TIP3    H1 4479   0.947   5.877   6.167
 1512TIP3    H2 4480   0.987   5.925   6.305
 1513TIP3   OH2 4481   0.521   1.878   6.472
 1513TIP3    H1 4482   0.580   1.950   6.446
 1513TIP3    H2 4483   0.441   1.922   6.499
 1514TIP3   OH2 4484   0.926   4.373   5.996
 1514TIP3    H1 4485   0.885   4.392   6.080
 1514TIP3    H2 4486   0.987   4.445   5.982
 1515TIP3   OH2 4487   2.274   7.216   5.548
 1515TIP3    H1 4488   2.307   7.246   5.463
 1515TIP3    H2 4489   2.342   7.241   5.610
 1516TIP3   OH2 4490   0.409   6.538   3.988
 1516TIP3    H1 4491   0.320   6.539   3.953
 1516TIP3    H2 4492   0.464   6.525   3.911
 1517TIP3   OH2 4493   4.143   4.731   5.698
 1517TIP3    H1 4494   4.176   4.717   5.609
 1517TIP3    H2 4495   4.148   4.826   5.711
 1518TIP3   OH2 4496   1.385   1.647   0.972
 1518TIP3    H1 4497   1.315   1.587   0.997
 1518TIP3    H2 4498   1.428   1.669   1.055
 1519TIP3   OH2 4499   3.591   6.811   5.135
 1519TIP3    H1 4500   3.569   6.803   5.042
 1519TIP3    H2 4501   3.687   6.809   5.137
 1520TIP3   OH2 4502   5.442   7.146   5.098
 1520TIP3    H1 4503   5.484   7.127   5.181
 1520TIP3    H2 4504   5.484   7.087   5.035
 1521TIP3   OH2 4505   5.975   1.826   2.688
 1521TIP3    H1 4506   5.993   1.915   2.657
 1521TIP3    H2 4507   5.886   1.830   2.722
 1522TIP3   OH2 4508   5.515   4.857   5.521
 1522TIP3    H1 4509   5.596   4.837   5.473
 1522TIP3    H2 4510   5.506   4.952   5.514
 1523TIP3   OH2 4511   7.551   3.965   6.242
 1523TIP3    H1 4512   7.475   4.010   6.279
 1523TIP3    H2 4513   7.517   3.917   6.166
 1524TIP3   OH2 4514   5.703   1.079   4.950
 1524TIP3    H1 4515   5.791   1.045   4.928
 1524TIP3    H2 4516   5.668   1.014   5.011
 1525TIP3   OH2 4517   0.715   3.099   2.584
 1525TIP3    H1 4518   0.667   3.106   2.502
 1525TIP3    H2 4519   0.699   3.009   2.613
 1526TIP3   OH2 4520   2.600   1.556   3.737
 1526TIP3    H1 4521   2.594   1.528   3.828
 1526TIP3    H2 4522   2.509   1.567   3.709
 1527TIP3   OH2 4523   0.175   6.657   6.399
 1527TIP3    H1 4524   0.081   6.646   6.385
 1527TIP3    H2 4525   0.216   6.609   6.327
 1528TIP3   OH2 4526   2.270   0.485   5.381
 1528TIP3    H1 4527   2.307   0.568   5.410
 1528TIP3    H2 4528   2.267   0.431   5.460
 1529TIP3   OH2 4529   4.408   3.079   5.784
 1529TIP3    H1 4530   4.380   3.037   5.866
 1529TIP3    H2 4531   4.329   3.121   5.750
 1530TIP3   OH2 4532   4.011   0.956   0.909
 1530TIP3    H1 4533   3.962   1.008   0.846
 1530TIP3    H2 4534   3.954   0.951   0.986
 1531TIP3   OH2 4535   3.524   6.691   1.754
 1531TIP3    H1 4536   3.442   6.647   1.773
 1531TIP3    H2 4537   3.560   6.643   1.679
 1532TIP3   OH2 4538   5.709   5.448   3.872
 1532TIP3    H1 4539   5.747   5.361   3.874
 1532TIP3    H2 4540   5.753   5.492   3.799
 1533TIP3   OH2 4541   3.499   0.864   6.405
 1533TIP3    H1 4542   3.441   0.929   6.366
 1533TIP3    H2 4543   3.578   0.868   6.352
 1534TIP3   OH2 4544   2.197   0.245   3.262
 1534TIP3    H1 4545   2.103   0.257   3.252
 1534TIP3    H2 4546   2.218   0.173   3.203
 1535TIP3   OH2 4547   4.035   0.840   3.674
 1535TIP3    H1 4548   4.095   0.912   3.692
 1535TIP3    H2 4549   3.969   0.878   3.616
 1536TIP3   OH2 4550   2.619   2.457   5.006
 1536TIP3    H1 4551   2.553   2.524   5.024
 1536TIP3    H2 4552   2.673   2.455   5.085
 1537TIP3   OH2 4553   0.314   7.528   2.797
 1537TIP3    H1 4554   0.231   7.528   2.750
 1537TIP3    H2 4555   0.316   7.612   2.843
 1538TIP3   OH2 4556   3.942   2.853   1.762
 1538TIP3    H1 4557   4.035   2.830   1.758
 1538TIP3    H2 4558   3.920   2.878   1.673
 1539TIP3   OH2 4559   1.717   2.665   0.055
 1539TIP3    H1 4560   1.804   2.685   0.090
 1539TIP3    H2 4561   1.656   2.702   0.119
 1540TIP3   OH2 4562   0.445   3.399   2.324
 1540TIP3    H1 4563   0.373   3.413   2.263
 1540TIP3    H2 4564   0.427   3.456   2.398
 1541TIP3   OH2 4565   7.739   0.524   1.321
 1541TIP3    H1 4566   7.680   0.535   1.247
 1541TIP3    H2 4567   7.681   0.527   1.398
 1542TIP3   OH2 4568   4.406   0.745   5.624
 1542TIP3    H1 4569   4.484   0.703   5.661
 1542TIP3    H2 4570   4.422   0.748   5.530
 1543TIP3   OH2 4571   0.354   0.220   2.591
 1543TIP3    H1 4572   0.356   0.213   2.496
 1543TIP3    H2 4573   0.413   0.152   2.622
 1544TIP3   OH2 4574   1.450   6.404   3.145
 1544TIP3    H1 4575   1.477   6.482   3.096
 1544TIP3    H2 4576   1.442   6.434   3.235
 1545TIP3   OH2 4577   1.870   5.800   4.471
 1545TIP3    H1 4578   1.896   5.722   4.519
 1545TIP3    H2 4579   1.934   5.807   4.400
 1546TIP3   OH2 4580   4.182   7.047   1.816
 1546TIP3    H1 4581   4.135   7.053   1.899
 1546TIP3    H2 4582   4.163   6.959   1.783
 1547TIP3   OH2 4583   7.381   2.598   2.631
 1547TIP3    H1 4584   7.423   2.550   2.702
 1547TIP3    H2 4585   7.411   2.555   2.551
 1548TIP3   OH2 4586   8.202   6.264   1.508
 1548TIP3    H1 4587   8.194   6.335   1.445
 1548TIP3    H2 4588   8.196   6.184   1.456
 1549TIP3   OH2 4589   4.481   7.060   4.377
 1549TIP3    H1 4590   4.491   6.975   4.335
 1549TIP3    H2 4591   4.491   7.123   4.306
 1550TIP3   OH2 4592   0.371   0.157   0.101
 1550TIP3    H1 4593   0.296   0.172   0.158
 1550TIP3    H2 4594   0.348   0.200   0.019
 1551TIP3   OH2 4595   1.426   5.060   0.201
 1551TIP3    H1 4596   1.385   5.136   0.243
 1551TIP3    H2 4597   1.370   5.042   0.125
 1552TIP3   OH2 4598   4.490   5.481   0.621
 1552TIP3    H1 4599   4.585   5.490   0.609
 1552TIP3    H2 4600   4.474   5.522   0.706
 1553TIP3   OH2 4601   2.487   0.413   6.044
 1553TIP3    H1 4602   2.507   0.433   5.953
 1553TIP3    H2 4603   2.515   0.322   6.055
 1554TIP3   OH2 4604   7.336   7.082   2.044
 1554TIP3    H1 4605   7.399   7.113   1.979
 1554TIP3    H2 4606   7.298   7.003   2.005
 1555TIP3   OH2 4607   2.913   7.198   4.640
 1555TIP3    H1 4608   2.852   7.126   4.629
 1555TIP3    H2 4609   2.999   7.156   4.644
 1556TIP3   OH2 4610   0.540   5.383   2.117
 1556TIP3    H1 4611   0.493   5.317   2.067
 1556TIP3    H2 4612   0.480   5.457   2.121
 1557TIP3   OH2 4613   3.322   3.147   0.905
 1557TIP3    H1 4614   3.297   3.164   0.996
 1557TIP3    H2 4615   3.297   3.056   0.889
 1558TIP3   OH2 4616   6.646   4.502   4.518
 1558TIP3    H1 4617   6.601   4.576   4.559
 1558TIP3    H2 4618   6.598   4.487   4.437
 1559TIP3   OH2 4619   3.079   5.666   1.402
 1559TIP3    H1 4620   3.036   5.629   1.324
 1559TIP3    H2 4621   3.084   5.593   1.463
 1560TIP3   OH2 4622   7.531   3.456   2.028
 1560TIP3    H1 4623   7.544   3.504   2.110
 1560TIP3    H2 4624   7.586   3.501   1.964
 1561TIP3   OH2 4625   7.494   5.566   1.864
 1561TIP3    H1 4626   7.404   5.577   1.834
 1561TIP3    H2 4627   7.539   5.522   1.791
 1562TIP3   OH2 4628   7.366   5.193   2.907
 1562TIP3    H1 4629   7.382   5.101   2.927
 1562TIP3    H2 4630   7.435   5.217   2.845
 1563TIP3   OH2 4631   7.575   6.981   6.664
 1563TIP3    H1 4632   7.539   6.917   6.726
 1563TIP3    H2 4633   7.567   7.065   6.709
 1564TIP3   OH2 4634   7.061   1.519   2.767
 1564TIP3    H1 4635   7.153   1.499   2.781
 1564TIP3    H2 4636   7.044   1.594   2.824
 1565TIP3   OH2 4637   7.224   1.057   1.338
 1565TIP3    H1 4638   7.246   1.140   1.295
 1565TIP3    H2 4639   7.254   0.990   1.276
 1566TIP3   OH2 4640   0.388   2.872   0.824
 1566TIP3    H1 4641   0.392   2.831   0.910
 1566TIP3    H2 4642   0.371   2.799   0.764
 1567TIP3   OH2 4643   3.941   7.144   4.970
 1567TIP3    H1 4644   3.936   7.049   4.961
 1567TIP3    H2 4645   4.013   7.169   4.912
 1568TIP3   OH2 4646   6.215   6.778   2.599
 1568TIP3    H1 4647   6.214   6.731   2.516
 1568TIP3    H2 4648   6.221   6.870   2.574
 1569TIP3   OH2 4649   1.606   4.938   5.558
 1569TIP3    H1 4650   1.645   4.867   5.508
 1569TIP3    H2 4651   1.538   4.896   5.611
 1570TIP3   OH2 4652   2.367   0.424   2.143
 1570TIP3    H1 4653   2.449   0.409   2.189
 1570TIP3    H2 4654   2.317   0.481   2.202
 1571TIP3   OH2 4655   2.923   3.213   5.547
 1571TIP3    H1 4656   3.013   3.246   5.556
 1571TIP3    H2 4657   2.873   3.262   5.612
 1572TIP3   OH2 4658   2.678   0.124   3.858
 1572TIP3    H1 4659   2.596   0.088   3.825
 1572TIP3    H2 4660   2.702   0.065   3.930
 1573TIP3   OH2 4661   3.332   5.269   1.625
 1573TIP3    H1 4662   3.417   5.259   1.581
 1573TIP3    H2 4663   3.304   5.179   1.642
 1574TIP3   OH2 4664   3.757   0.389   5.019
 1574TIP3    H1 4665   3.707   0.307   5.015
 1574TIP3    H2 4666   3.704   0.447   5.073
 1575TIP3   OH2 4667   4.882   2.258   3.007
 1575TIP3    H1 4668   4.937   2.181   3.019
 1575TIP3    H2 4669   4.809   2.228   2.952
 1576TIP3   OH2 4670   7.630   1.751   2.812
 1576TIP3    H1 4671   7.561   1.715   2.756
 1576TIP3    H2 4672   7.635   1.843   2.788
 1577TIP3   OH2 4673   3.174   0.168   0.758
 1577TIP3    H1 4674   3.153   0.218   0.679
 1577TIP3    H2 4675   3.220   0.090   0.725
 1578TIP3   OH2 4676   2.288   4.502   4.076
 1578TIP3    H1 4677   2.322   4.575   4.128
 1578TIP3    H2 4678   2.193   4.510   4.084
 1579TIP3   OH2 4679   1.813   7.628   5.055
 1579TIP3    H1 4680   1.810   7.532   5.050
 1579TIP3    H2 4681   1.741   7.657   4.998
 1580TIP3   OH2 4682   2.174   5.610   1.625
 1580TIP3    H1 4683   2.170   5.563   1.709
 1580TIP3    H2 4684   2.267   5.609   1.602
 1581TIP3   OH2 4685   6.193   6.350   4.520
 1581TIP3    H1 4686   6.172   6.322   4.431
 1581TIP3    H2 4687   6.117   6.401   4.547
 1582TIP3   OH2 4688   3.066   1.688   3.166
 1582TIP3    H1 4689   3.056   1.772   3.210
 1582TIP3    H2 4690   3.090   1.626   3.236
 1583TIP3   OH2 4691   3.389   6.505   2.623
 1583TIP3    H1 4692   3.447   6.535   2.693
 1583TIP3    H2 4693   3.303   6.499   2.663
 1584TIP3   OH2 4694   0.832   5.977   0.394
 1584TIP3    H1 4695   0.916   6.018   0.415
 1584TIP3    H2 4696   0.782   5.983   0.475
 1585TIP3   OH2 4697   0.249   6.182   3.177
 1585TIP3    H1 4698   0.287   6.175   3.090
 1585TIP3    H2 4699   0.195   6.103   3.185
 1586TIP3   OH2 4700   5.122   4.863   5.232
 1586TIP3    H1 4701   5.102   4.952   5.201
 1586TIP3    H2 4702   5.170   4.823   5.160
 1587TIP3   OH2 4703   1.505   4.682   1.151
 1587TIP3    H1 4704   1.426   4.639   1.185
 1587TIP3    H2 4705   1.564   4.687   1.226
 1588TIP3   OH2 4706   2.258   1.318   5.349
 1588TIP3    H1 4707   2.306   1.344   5.428
 1588TIP3    H2 4708   2.174   1.362   5.356
 1589TIP3   OH2 4709   2.913   5.140   1.216
 1589TIP3    H1 4710   2.954   5.059   1.247
 1589TIP3    H2 4711   2.841   5.156   1.278
 1590TIP3   OH2 4712   5.091   7.093   3.471
 1590TIP3    H1 4713   5.109   7.173   3.521
 1590TIP3    H2 4714   5.125   7.022   3.526
 1591TIP3   OH2 4715   6.425   6.313   1.129
 1591TIP3    H1 4716   6.480   6.391   1.141
 1591TIP3    H2 4717   6.463   6.268   1.054
 1592TIP3   OH2 4718   1.327   0.699   1.681
 1592TIP3    H1 4719   1.239   0.720   1.712
 1592TIP3    H2 4720   1.378   0.685   1.760
 1593TIP3   OH2 4721   3.196   2.703   4.082
 1593TIP3    H1 4722   3.165   2.759   4.011
 1593TIP3    H2 4723   3.242   2.632   4.038
 1594TIP3   OH2 4724   6.822   1.040   2.049
 1594TIP3    H1 4725   6.795   1.123   2.089
 1594TIP3    H2 4726   6.745   1.009   2.001
 1595TIP3   OH2 4727   0.851   0.570   1.772
 1595TIP3    H1 4728   0.778   0.586   1.832
 1595TIP3    H2 4729   0.896   0.655   1.766
 1596TIP3   OH2 4730   5.826   1.652   2.882
 1596TIP3    H1 4731   5.859   1.562   2.887
 1596TIP3    H2 4732   5.820   1.670   2.789
 1597TIP3   OH2 4733   7.560   1.065   1.043
 1597TIP3    H1 4734   7.606   1.142   1.009
 1597TIP3    H2 4735   7.625   1.022   1.100
 1598TIP3   OH2 4736   0.361   2.413   6.056
 1598TIP3    H1 4737   0.435   2.378   6.105
 1598TIP3    H2 4738   0.395   2.426   5.967
 1599TIP3   OH2 4739   6.369   7.306   2.281
 1599TIP3    H1 4740   6.305   7.346   2.340
 1599TIP3    H2 4741   6.440   7.279   2.338
 1600TIP3   OH2 4742   3.779   3.116   6.209
 1600TIP3    H1 4743   3.822   3.095   6.292
 1600TIP3    H2 4744   3.850   3.116   6.145
 1601TIP3   OH2 4745   7.515   7.278   2.171
 1601TIP3    H1 4746   7.502   7.324   2.088
 1601TIP3    H2 4747   7.474   7.192   2.158
 1602TIP3   OH2 4748   6.320   6.574   5.979
 1602TIP3    H1 4749   6.329   6.666   5.954
 1602TIP3    H2 4750   6.228   6.565   6.004
 1603TIP3   OH2 4751   6.998   3.753   5.660
 1603TIP3    H1 4752   6.940   3.678   5.673
 1603TIP3    H2 4753   7.031   3.773   5.747
 1604TIP3   OH2 4754   7.388   2.402   5.299
 1604TIP3    H1 4755   7.354   2.398   5.388
 1604TIP3    H2 4756   7.481   2.422   5.309
 1605TIP3   OH2 4757   3.676   3.175   3.617
 1605TIP3    H1 4758   3.638   3.108   3.559
 1605TIP3    H2 4759   3.618   3.250   3.608
 1606TIP3   OH2 4760   1.057  -0.031   0.470
 1606TIP3    H1 4761   0.986   0.013   0.516
 1606TIP3    H2 4762   1.122   0.038   0.454
 1607TIP3   OH2 4763   4.103   4.096   0.085
 1607TIP3    H1 4764   4.163   4.125   0.154
 1607TIP3    H2 4765   4.139   4.132   0.004
 1608TIP3   OH2 4766   5.216   7.204   4.962
 1608TIP3    H1 4767   5.283   7.183   5.027
 1608TIP3    H2 4768   5.165   7.275   5.002
 1609TIP3   OH2 4769   5.357   6.367   5.230
 1609TIP3    H1 4770   5.435   6.414   5.198
 1609TIP3    H2 4771   5.382   6.275   5.226
 1610TIP3   OH2 4772   7.167   5.354   2.615
 1610TIP3    H1 4773   7.097   5.392   2.562
 1610TIP3    H2 4774   7.138   5.368   2.705
 1611TIP3   OH2 4775   6.377   5.599   5.534
 1611TIP3    H1 4776   6.337   5.639   5.457
 1611TIP3    H2 4777   6.312   5.536   5.565
 1612TIP3   OH2 4778   1.890   2.589   1.962
 1612TIP3    H1 4779   1.817   2.597   1.900
 1612TIP3    H2 4780   1.861   2.522   2.024
 1613TIP3   OH2 4781   2.120   4.474   5.169
 1613TIP3    H1 4782   2.044   4.434   5.128
 1613TIP3    H2 4783   2.191   4.464   5.105
 1614TIP3   OH2 4784   1.645   7.624   3.255
 1614TIP3    H1 4785   1.592   7.551   3.285
 1614TIP3    H2 4786   1.696   7.650   3.332
 1615TIP3   OH2 4787   6.090   1.823   1.465
 1615TIP3    H1 4788   6.162   1.870   1.423
 1615TIP3    H2 4789   6.028   1.806   1.394
 1616TIP3   OH2 4790   6.101   6.763   4.749
 1616TIP3    H1 4791   6.050   6.701   4.697
 1616TIP3    H2 4792   6.055   6.846   4.739
 1617TIP3   OH2 4793   1.732   3.255   0.585
 1617TIP3    H1 4794   1.636   3.256   0.590
 1617TIP3    H2 4795   1.760   3.279   0.673
 1618TIP3   OH2 4796   2.751   7.324   1.093
 1618TIP3    H1 4797   2.691   7.345   1.022
 1618TIP3    H2 4798   2.722   7.377   1.167
 1619TIP3   OH2 4799   1.002   1.502   1.409
 1619TIP3    H1 4800   0.920   1.540   1.379
 1619TIP3    H2 4801   1.032   1.560   1.479
 1620TIP3   OH2 4802   1.846   0.046   2.648
 1620TIP3    H1 4803   1.758   0.012   2.662
 1620TIP3    H2 4804   1.903  -0.031   2.659
 1621TIP3   OH2 4805   3.784   2.258   1.720
 1621TIP3    H1 4806   3.879   2.265   1.728
 1621TIP3    H2 4807   3.769   2.245   1.626
 1622TIP3   OH2 4808   0.417   0.516   0.277
 1622TIP3    H1 4809   0.375   0.584   0.224
 1622TIP3    H2 4810   0.344   0.469   0.317
 1623TIP3   OH2 4811   8.102   3.250   4.058
 1623TIP3    H1 4812   8.127   3.261   4.150
 1623TIP3    H2 4813   8.154   3.176   4.028
 1624TIP3   OH2 4814   0.600   7.645   6.009
 1624TIP3    H1 4815   0.671   7.709   6.001
 1624TIP3    H2 4816   0.610   7.588   5.933
 1625TIP3   OH2 4817   2.595   4.935   1.616
 1625TIP3    H1 4818   2.686   4.958   1.635
 1625TIP3    H2 4819   2.548   4.951   1.698
 1626TIP3   OH2 4820   8.156   2.800   4.114
 1626TIP3    H1 4821   8.080   2.741   4.119
 1626TIP3    H2 4822   8.231   2.743   4.128
 1627TIP3   OH2 4823   8.193   0.231   2.531
 1627TIP3    H1 4824   8.139   0.289   2.477
 1627TIP3    H2 4825   8.193   0.272   2.617
 1628TIP3   OH2 4826   1.820   6.024   1.449
 1628TIP3    H1 4827   1.767   5.974   1.387
 1628TIP3    H2 4828   1.886   5.962   1.480
 1629TIP3   OH2 4829   7.344   2.292   4.292
 1629TIP3    H1 4830   7.401   2.246   4.354
 1629TIP3    H2 4831   7.303   2.222   4.241
 1630TIP3   OH2 4832   0.350   4.385   0.062
 1630TIP3    H1 4833   0.279   4.406   0.002
 1630TIP3    H2 4834   0.370   4.293   0.045
 1631TIP3   OH2 4835   8.007   1.262   4.293
 1631TIP3    H1 4836   8.004   1.355   4.271
 1631TIP3    H2 4837   7.960   1.255   4.376
 1632TIP3   OH2 4838   5.824   1.940   4.512
 1632TIP3    H1 4839   5.896   1.877   4.513
 1632TIP3    H2 4840   5.838   1.993   4.591
 1633TIP3   OH2 4841   7.277   3.686   2.083
 1633TIP3    H1 4842   7.223   3.712   2.158
 1633TIP3    H2 4843   7.214   3.670   2.013
 1634TIP3   OH2 4844   6.129   3.507   5.405
 1634TIP3    H1 4845   6.105   3.472   5.491
 1634TIP3    H2 4846   6.187   3.442   5.367
 1635TIP3   OH2 4847   7.491   0.152   0.890
 1635TIP3    H1 4848   7.541   0.215   0.941
 1635TIP3    H2 4849   7.505   0.177   0.799
 1636TIP3   OH2 4850   6.187   2.967   2.655
 1636TIP3    H1 4851   6.158   3.011   2.735
 1636TIP3    H2 4852   6.118   2.903   2.637
 1637TIP3   OH2 4853   7.910   4.562   1.783
 1637TIP3    H1 4854   7.948   4.600   1.863
 1637TIP3    H2 4855   7.837   4.620   1.762
 1638TIP3   OH2 4856   6.447   1.076   4.073
 1638TIP3    H1 4857   6.389   1.063   3.998
 1638TIP3    H2 4858   6.390   1.068   4.149
 1639TIP3   OH2 4859   7.351   1.530   2.183
 1639TIP3    H1 4860   7.390   1.448   2.152
 1639TIP3    H2 4861   7.424   1.593   2.182
 1640TIP3   OH2 4862   2.536   3.670   3.378
 1640TIP3    H1 4863   2.603   3.707   3.320
 1640TIP3    H2 4864   2.518   3.739   3.442
 1641TIP3   OH2 4865   4.376   2.218   5.978
 1641TIP3    H1 4866   4.470   2.202   5.980
 1641TIP3    H2 4867   4.360   2.257   5.893
 1642TIP3   OH2 4868   6.774   6.525   1.438
 1642TIP3    H1 4869   6.838   6.561   1.377
 1642TIP3    H2 4870   6.823   6.509   1.518
 1643TIP3   OH2 4871   3.928   6.378   0.284
 1643TIP3    H1 4872   3.968   6.384   0.197
 1643TIP3    H2 4873   3.879   6.296   0.282
 1644TIP3   OH2 4874   1.258   2.348   0.612
 1644TIP3    H1 4875   1.232   2.357   0.703
 1644TIP3    H2 4876   1.195   2.285   0.575
 1645TIP3   OH2 4877   6.166   7.362   0.191
 1645TIP3    H1 4878   6.259   7.342   0.200
 1645TIP3    H2 4879   6.122   7.284   0.224
 1646TIP3   OH2 4880   1.041   3.304   3.394
 1646TIP3    H1 4881   1.088   3.306   3.477
 1646TIP3    H2 4882   0.949   3.313   3.419
 1647TIP3   OH2 4883   5.607   2.216   2.725
 1647TIP3    H1 4884   5.543   2.236   2.657
 1647TIP3    H2 4885   5.608   2.293   2.781
 1648TIP3   OH2 4886   1.951   3.784   1.339
 1648TIP3    H1 4887   1.938   3.879   1.334
 1648TIP3    H2 4888   1.869   3.750   1.374
 1649TIP3   OH2 4889   5.215   1.737   1.593
 1649TIP3    H1 4890   5.228   1.763   1.502
 1649TIP3    H2 4891   5.276   1.793   1.642
 1650TIP3   OH2 4892   1.069   7.333   2.310
 1650TIP3    H1 4893   1.160   7.335   2.279
 1650TIP3    H2 4894   1.073   7.365   2.400
 1651TIP3   OH2 4895   1.605   1.285   5.320
 1651TIP3    H1 4896   1.649   1.366   5.295
 1651TIP3    H2 4897   1.542   1.312   5.387
 1652TIP3   OH2 4898   0.264   7.160   6.478
 1652TIP3    H1 4899   0.186   7.107   6.467
 1652TIP3    H2 4900   0.285   7.153   6.571
 1653TIP3   OH2 4901   1.206   4.191   6.132
 1653TIP3    H1 4902   1.137   4.134   6.164
 1653TIP3    H2 4903   1.253   4.139   6.067
 1654TIP3   OH2 4904   0.362   1.437   6.453
 1654TIP3    H1 4905   0.351   1.522   6.411
 1654TIP3    H2 4906   0.380   1.458   6.545
 1655TIP3   OH2 4907   3.501   3.520   2.311
 1655TIP3    H1 4908   3.474   3.591   2.252
 1655TIP3    H2 4909   3.482   3.553   2.399
 1656TIP3   OH2 4910   3.326   2.034   3.470
 1656TIP3    H1 4911   3.317   2.008   3.561
 1656TIP3    H2 4912   3.414   2.005   3.444
 1657TIP3   OH2 4913   0.537   4.930   2.153
 1657TIP3    H1 4914   0.550   4.841   2.186
 1657TIP3    H2 4915   0.442   4.938   2.144
 1658TIP3   OH2 4916   5.639   6.754   0.856
 1658TIP3    H1 4917   5.619   6.687   0.790
 1658TIP3    H2 4918   5.575   6.739   0.925
 1659TIP3   OH2 4919   5.146   1.565   6.132
 1659TIP3    H1 4920   5.227   1.593   6.174
 1659TIP3    H2 4921   5.129   1.632   6.066
 1660TIP3   OH2 4922   1.139   7.465   4.825
 1660TIP3    H1 4923   1.210   7.488   4.885
 1660TIP3    H2 4924   1.125   7.372   4.838
 1661TIP3   OH2 4925   7.632   3.916   2.593
 1661TIP3    H1 4926   7.634   3.978   2.520
 1661TIP3    H2 4927   7.589   3.838   2.557
 1662TIP3   OH2 4928   0.928   7.275   1.437
 1662TIP3    H1 4929   0.897   7.365   1.450
 1662TIP3    H2 4930   0.860   7.221   1.477
 1663TIP3   OH2 4931   3.505   0.208   1.924
 1663TIP3    H1 4932   3.589   0.252   1.941
 1663TIP3    H2 4933   3.498   0.144   1.995
 1664TIP3   OH2 4934   8.184   7.586   0.405
 1664TIP3    H1 4935   8.192   7.527   0.480
 1664TIP3    H2 4936   8.092   7.578   0.379
 1665TIP3   OH2 4937   0.850   1.892   0.735
 1665TIP3    H1 4938   0.861   1.987   0.723
 1665TIP3    H2 4939   0.935   1.863   0.768
 1666TIP3   OH2 4940   4.616   2.895   4.772
 1666TIP3    H1 4941   4.546   2.940   4.726
 1666TIP3    H2 4942   4.696   2.919   4.725
 1667TIP3   OH2 4943   0.649   3.766   1.168
 1667TIP3    H1 4944   0.659   3.848   1.216
 1667TIP3    H2 4945   0.731   3.756   1.120
 1668TIP3   OH2 4946   3.448   0.448   2.299
 1668TIP3    H1 4947   3.441   0.354   2.316
 1668TIP3    H2 4948   3.504   0.481   2.369
 1669TIP3   OH2 4949   1.172   1.793   4.468
 1669TIP3    H1 4950   1.107   1.781   4.537
 1669TIP3    H2 4951   1.190   1.888   4.470
 1670TIP3   OH2 4952   1.732   0.921   3.051
 1670TIP3    H1 4953   1.816   0.875   3.047
 1670TIP3    H2 4954   1.717   0.952   2.961
 1671TIP3   OH2 4955   1.352   2.311   2.168
 1671TIP3    H1 4956   1.439   2.322   2.206
 1671TIP3    H2 4957   1.296   2.367   2.222
 1672TIP3   OH2 4958   0.775   0.194   3.156
 1672TIP3    H1 4959   0.800   0.155   3.240
 1672TIP3    H2 4960   0.812   0.282   3.158
 1673TIP3   OH2 4961   7.183   4.570   1.479
 1673TIP3    H1 4962   7.270   4.533   1.496
 1673TIP3    H2 4963   7.201   4.649   1.427
 1674TIP3   OH2 4964   0.168   5.826   6.094
 1674TIP3    H1 4965   0.259   5.828   6.065
 1674TIP3    H2 4966   0.120   5.788   6.021
 1675TIP3   OH2 4967   2.741   6.475   2.045
 1675TIP3    H1 4968   2.725   6.505   1.955
 1675TIP3    H2 4969   2.791   6.394   2.034
 1676TIP3   OH2 4970   4.485   4.648   1.683
 1676TIP3    H1 4971   4.408   4.674   1.733
 1676TIP3    H2 4972   4.555   4.643   1.749
 1677TIP3   OH2 4973   7.828   6.400   0.177
 1677TIP3    H1 4974   7.885   6.414   0.252
 1677TIP3    H2 4975   7.846   6.309   0.151
 1678TIP3   OH2 4976   1.020   6.848   3.240
 1678TIP3    H1 4977   1.092   6.793   3.271
 1678TIP3    H2 4978   1.053   6.938   3.246
 1679TIP3   OH2 4979   2.160   7.601   6.267
 1679TIP3    H1 4980   2.079   7.652   6.274
 1679TIP3    H2 4981   2.136   7.526   6.212
 1680TIP3   OH2 4982   4.383   7.491   4.051
 1680TIP3    H1 4983   4.472   7.518   4.074
 1680TIP3    H2 4984   4.375   7.403   4.089
 1681TIP3   OH2 4985   0.820   4.724   5.733
 1681TIP3    H1 4986   0.897   4.782   5.730
 1681TIP3    H2 4987   0.857   4.637   5.748
 1682TIP3   OH2 4988   5.702   2.350   6.494
 1682TIP3    H1 4989   5.759   2.402   6.438
 1682TIP3    H2 4990   5.745   2.350   6.580
 1683TIP3   OH2 4991   0.335   0.745   0.134
 1683TIP3    H1 4992   0.414   0.798   0.125
 1683TIP3    H2 4993   0.267   0.807   0.162
 1684TIP3   OH2 4994   7.642   3.737   0.216
 1684TIP3    H1 4995   7.577   3.782   0.269
 1684TIP3    H2 4996   7.654   3.793   0.139
 1685TIP3   OH2 4997   8.203   6.296   0.764
 1685TIP3    H1 4998   8.205   6.360   0.835
 1685TIP3    H2 4999   8.195   6.348   0.685
 1686TIP3   OH2 5000   6.785   4.812   1.934
 1686TIP3    H1 5001   6.766   4.825   2.027
 1686TIP3    H2 5002   6.876   4.840   1.923
 1687TIP3   OH2 5003   1.750   3.428   5.336
 1687TIP3    H1 5004   1.743   3.375   5.415
 1687TIP3    H2 5005   1.840   3.416   5.306
 1688TIP3   OH2 5006   4.934   0.369   6.485
 1688TIP3    H1 5007   4.960   0.410   6.568
 1688TIP3    H2 5008   4.980   0.285   6.484
 1689TIP3   OH2 5009   2.297   5.917   2.201
 1689TIP3    H1 5010   2.350   5.981   2.154
 1689TIP3    H2 5011   2.250   5.870   2.132
 1690TIP3   OH2 5012   8.066   0.914   5.356
 1690TIP3    H1 5013   8.121   0.888   5.283
 1690TIP3    H2 5014   8.118   0.977   5.405
 1691TIP3   OH2 5015   1.084   6.888   0.448
 1691TIP3    H1 5016   1.072   6.929   0.534
 1691TIP3    H2 5017   1.172   6.850   0.451
 1692TIP3   OH2 5018   2.222   5.899   6.614
 1692TIP3    H1 5019   2.304   5.945   6.596
 1692TIP3    H2 5020   2.165   5.966   6.653
 1693TIP3   OH2 5021   5.257   1.111   5.434
 1693TIP3    H1 5022   5.256   1.163   5.354
 1693TIP3    H2 5023   5.335   1.056   5.425
 1694TIP3   OH2 5024   0.031   6.887   4.927
 1694TIP3    H1 5025   0.085   6.932   4.862
 1694TIP3    H2 5026  -0.056   6.882   4.886
 1695TIP3   OH2 5027   2.357   1.011   5.419
 1695TIP3    H1 5028   2.450   1.030   5.431
 1695TIP3    H2 5029   2.317   1.096   5.400
 1696TIP3   OH2 5030   8.078   2.470   1.293
 1696TIP3    H1 5031   8.131   2.495   1.218
 1696TIP3    H2 5032   8.140   2.438   1.358
 1697TIP3   OH2 5033   6.323   1.756   1.835
 1697TIP3    H1 5034   6.313   1.708   1.753
 1697TIP3    H2 5035   6.281   1.701   1.901
 1698TIP3   OH2 5036   0.686   4.780   0.852
 1698TIP3    H1 5037   0.665   4.687   0.859
 1698TIP3    H2 5038   0.650   4.818   0.932
 1699TIP3   OH2 5039   4.651   6.661   3.103
 1699TIP3    H1 5040   4.673   6.685   3.193
 1699TIP3    H2 5041   4.574   6.604   3.112
 1700TIP3   OH2 5042   5.734   6.626   0.607
 1700TIP3    H1 5043   5.748   6.536   0.637
 1700TIP3    H2 5044   5.738   6.620   0.512
 1701TIP3   OH2 5045   6.915   6.521   1.834
 1701TIP3    H1 5046   6.875   6.608   1.834
 1701TIP3    H2 5047   6.948   6.510   1.745
 1702TIP3   OH2 5048   7.773   2.552   3.357
 1702TIP3    H1 5049   7.714   2.530   3.429
 1702TIP3    H2 5050   7.737   2.633   3.320
 1703TIP3   OH2 5051   6.824   3.299   6.728
 1703TIP3    H1 5052   6.876   3.219   6.729
 1703TIP3    H2 5053   6.887   3.370   6.740
 1704TIP3   OH2 5054   0.096   1.937   3.655
 1704TIP3    H1 5055   0.174   1.911   3.606
 1704TIP3    H2 5056   0.034   1.865   3.641
 1705TIP3   OH2 5057   1.281   7.448   2.080
 1705TIP3    H1 5058   1.370   7.469   2.052
 1705TIP3    H2 5059   1.279   7.353   2.089
 1706TIP3   OH2 5060   6.164   1.657   0.933
 1706TIP3    H1 5061   6.232   1.667   0.999
 1706TIP3    H2 5062   6.172   1.736   0.879
 1707TIP3   OH2 5063   0.968   7.153   1.158
 1707TIP3    H1 5064   0.930   7.172   1.244
 1707TIP3    H2 5065   0.946   7.062   1.142
 1708TIP3   OH2 5066   7.549   0.985   4.787
 1708TIP3    H1 5067   7.464   1.001   4.829
 1708TIP3    H2 5068   7.611   0.980   4.860
 1709TIP3   OH2 5069   8.118   1.484   3.323
 1709TIP3    H1 5070   8.193   1.459   3.269
 1709TIP3    H2 5071   8.083   1.400   3.354
 1710TIP3   OH2 5072   6.162   6.626   0.626
 1710TIP3    H1 5073   6.236   6.656   0.573
 1710TIP3    H2 5074   6.089   6.681   0.599
 1711TIP3   OH2 5075   2.439   6.717   6.711
 1711TIP3    H1 5076   2.529   6.687   6.699
 1711TIP3    H2 5077   2.448   6.810   6.735
 1712TIP3   OH2 5078   2.115   2.406   1.092
 1712TIP3    H1 5079   2.152   2.491   1.066
 1712TIP3    H2 5080   2.033   2.400   1.044
 1713TIP3   OH2 5081   4.438   2.495   2.084
 1713TIP3    H1 5082   4.527   2.530   2.081
 1713TIP3    H2 5083   4.448   2.403   2.060
 1714TIP3   OH2 5084   2.936   6.013   5.195
 1714TIP3    H1 5085   2.905   5.967   5.274
 1714TIP3    H2 5086   2.990   6.084   5.229
 1715TIP3   OH2 5087   6.489   4.128   2.908
 1715TIP3    H1 5088   6.460   4.078   2.832
 1715TIP3    H2 5089   6.418   4.190   2.924
 1716TIP3   OH2 5090   3.788   7.606   0.755
 1716TIP3    H1 5091   3.882   7.613   0.744
 1716TIP3    H2 5092   3.756   7.578   0.669
 1717TIP3   OH2 5093   7.643   7.748   2.790
 1717TIP3    H1 5094   7.675   7.771   2.877
 1717TIP3    H2 5095   7.585   7.673   2.805
 1718TIP3   OH2 5096   0.256   0.731   3.010
 1718TIP3    H1 5097   0.198   0.722   2.934
 1718TIP3    H2 5098   0.196   0.744   3.084
 1719TIP3   OH2 5099   2.434   0.658   1.274
 1719TIP3    H1 5100   2.408   0.611   1.195
 1719TIP3    H2 5101   2.368   0.727   1.283
 1720TIP3   OH2 5102   1.293   5.032   5.996
 1720TIP3    H1 5103   1.335   5.016   5.911
 1720TIP3    H2 5104   1.235   5.106   5.981
 1721TIP3   OH2 5105   0.462   7.160   3.162
 1721TIP3    H1 5106   0.527   7.109   3.113
 1721TIP3    H2 5107   0.445   7.237   3.108
 1722TIP3   OH2 5108   0.328   4.428   3.449
 1722TIP3    H1 5109   0.399   4.373   3.415
 1722TIP3    H2 5110   0.332   4.508   3.396
 1723TIP3   OH2 5111   6.388   0.664   0.519
 1723TIP3    H1 5112   6.401   0.718   0.597
 1723TIP3    H2 5113   6.313   0.609   0.540
 1724TIP3   OH2 5114   7.919   4.427   5.828
 1724TIP3    H1 5115   7.914   4.463   5.917
 1724TIP3    H2 5116   7.972   4.348   5.837
 1725TIP3   OH2 5117   5.098   0.520   3.947
 1725TIP3    H1 5118   5.018   0.571   3.964
 1725TIP3    H2 5119   5.113   0.529   3.853
 1726TIP3   OH2 5120   6.153   1.318   3.492
 1726TIP3    H1 5121   6.062   1.289   3.497
 1726TIP3    H2 5122   6.193   1.283   3.572
 1727TIP3   OH2 5123   8.212   2.915   1.844
 1727TIP3    H1 5124   8.151   2.899   1.915
 1727TIP3    H2 5125   8.157   2.929   1.767
 1728TIP3   OH2 5126   6.868   1.189   3.456
 1728TIP3    H1 5127   6.900   1.121   3.516
 1728TIP3    H2 5128   6.938   1.255   3.455
 1729TIP3   OH2 5129   0.981   4.043   4.301
 1729TIP3    H1 5130   0.963   4.059   4.393
 1729TIP3    H2 5131   0.920   4.100   4.254
 1730TIP3   OH2 5132   1.628   0.189   3.198
 1730TIP3    H1 5133   1.721   0.171   3.214
 1730TIP3    H2 5134   1.598   0.114   3.146
 1731TIP3   OH2 5135   0.978   4.854   3.471
 1731TIP3    H1 5136   1.066   4.888   3.487
 1731TIP3    H2 5137   0.981   4.763   3.501
 1732TIP3   OH2 5138   5.478   5.339   2.347
 1732TIP3    H1 5139   5.544   5.405   2.324
 1732TIP3    H2 5140   5.476   5.279   2.272
 1733TIP3   OH2 5141   2.757   1.742   5.025
 1733TIP3    H1 5142   2.773   1.676   5.092
 1733TIP3    H2 5143   2.765   1.694   4.942
 1734TIP3   OH2 5144   1.274   2.079   4.428
 1734TIP3    H1 5145   1.253   2.112   4.340
 1734TIP3    H2 5146   1.352   2.128   4.454
 1735TIP3   OH2 5147   7.662   2.820   1.572
 1735TIP3    H1 5148   7.746   2.775   1.578
 1735TIP3    H2 5149   7.614   2.773   1.504
 1736TIP3   OH2 5150   7.261   5.413   1.025
 1736TIP3    H1 5151   7.345   5.366   1.022
 1736TIP3    H2 5152   7.270   5.480   0.956
 1737TIP3   OH2 5153   3.785   4.572   1.629
 1737TIP3    H1 5154   3.844   4.497   1.630
 1737TIP3    H2 5155   3.839   4.646   1.601
 1738TIP3   OH2 5156   3.903   7.214   2.009
 1738TIP3    H1 5157   3.924   7.262   1.929
 1738TIP3    H2 5158   3.984   7.216   2.060
 1739TIP3   OH2 5159   5.552   2.597   4.682
 1739TIP3    H1 5160   5.599   2.660   4.626
 1739TIP3    H2 5161   5.529   2.525   4.623
 1740TIP3   OH2 5162   1.333   2.624   3.335
 1740TIP3    H1 5163   1.419   2.599   3.301
 1740TIP3    H2 5164   1.274   2.613   3.260
 1741TIP3   OH2 5165   3.963   7.657   3.323
 1741TIP3    H1 5166   3.911   7.579   3.303
 1741TIP3    H2 5167   3.900   7.719   3.361
 1742TIP3   OH2 5168   7.034   6.919   5.965
 1742TIP3    H1 5169   7.062   7.003   5.929
 1742TIP3    H2 5170   7.025   6.861   5.889
 1743TIP3   OH2 5171   3.333   4.832   3.292
 1743TIP3    H1 5172   3.284   4.764   3.244
 1743TIP3    H2 5173   3.417   4.838   3.245
 1744TIP3   OH2 5174   2.978   0.912   1.182
 1744TIP3    H1 5175   3.007   0.850   1.115
 1744TIP3    H2 5176   2.947   0.857   1.254
 1745TIP3   OH2 5177   5.807   6.144   2.830
 1745TIP3    H1 5178   5.893   6.172   2.863
 1745TIP3    H2 5179   5.745   6.204   2.872
 1746TIP3   OH2 5180   6.228   6.574   5.316
 1746TIP3    H1 5181   6.255   6.526   5.238
 1746TIP3    H2 5182   6.235   6.510   5.387
 1747TIP3   OH2 5183   2.970   1.845   0.616
 1747TIP3    H1 5184   2.885   1.876   0.647
 1747TIP3    H2 5185   3.014   1.924   0.582
 1748TIP3   OH2 5186   3.948   7.512   4.102
 1748TIP3    H1 5187   3.983   7.580   4.046
 1748TIP3    H2 5188   3.853   7.529   4.104
 1749TIP3   OH2 5189   7.487   1.876   3.852
 1749TIP3    H1 5190   7.523   1.873   3.941
 1749TIP3    H2 5191   7.421   1.944   3.855
 1750TIP3   OH2 5192   3.030   3.976   6.203
 1750TIP3    H1 5193   3.030   4.026   6.121
 1750TIP3    H2 5194   3.121   3.949   6.214
 1751TIP3   OH2 5195   4.860   7.777   1.209
 1751TIP3    H1 5196   4.865   7.751   1.117
 1751TIP3    H2 5197   4.869   7.872   1.208
 1752TIP3   OH2 5198   5.185   1.897   4.006
 1752TIP3    H1 5199   5.172   1.852   4.090
 1752TIP3    H2 5200   5.190   1.990   4.030
 1753TIP3   OH2 5201   1.137   6.540   3.860
 1753TIP3    H1 5202   1.087   6.506   3.934
 1753TIP3    H2 5203   1.199   6.602   3.899
 1754TIP3   OH2 5204   4.829   1.026   3.028
 1754TIP3    H1 5205   4.822   1.011   2.934
 1754TIP3    H2 5206   4.743   1.060   3.053
 1755TIP3   OH2 5207   0.302   6.304   5.006
 1755TIP3    H1 5208   0.274   6.394   5.020
 1755TIP3    H2 5209   0.309   6.267   5.094
 1756TIP3   OH2 5210   6.691   5.947   1.405
 1756TIP3    H1 5211   6.664   5.924   1.494
 1756TIP3    H2 5212   6.614   5.931   1.352
 1757TIP3   OH2 5213   0.077   7.437   5.434
 1757TIP3    H1 5214   0.151   7.393   5.476
 1757TIP3    H2 5215   0.054   7.507   5.495
 1758TIP3   OH2 5216   4.413   0.457   4.220
 1758TIP3    H1 5217   4.409   0.517   4.145
 1758TIP3    H2 5218   4.408   0.370   4.181
 1759TIP3   OH2 5219   3.914   7.290   0.519
 1759TIP3    H1 5220   3.833   7.315   0.475
 1759TIP3    H2 5221   3.953   7.223   0.462
 1760TIP3   OH2 5222   1.665   0.039   2.075
 1760TIP3    H1 5223   1.743   0.077   2.115
 1760TIP3    H2 5224   1.647  -0.039   2.129
 1761TIP3   OH2 5225   6.706   2.188   6.413
 1761TIP3    H1 5226   6.635   2.131   6.384
 1761TIP3    H2 5227   6.677   2.222   6.497
 1762TIP3   OH2 5228   1.135   3.741   3.601
 1762TIP3    H1 5229   1.194   3.816   3.599
 1762TIP3    H2 5230   1.176   3.680   3.663
 1763TIP3   OH2 5231   5.823   4.224   3.868
 1763TIP3    H1 5232   5.756   4.256   3.928
 1763TIP3    H2 5233   5.815   4.128   3.872
 1764TIP3   OH2 5234   5.766   6.307   1.918
 1764TIP3    H1 5235   5.730   6.328   2.004
 1764TIP3    H2 5236   5.848   6.356   1.914
 1765TIP3   OH2 5237   7.532   1.864   6.186
 1765TIP3    H1 5238   7.592   1.802   6.227
 1765TIP3    H2 5239   7.525   1.834   6.096
 1766TIP3   OH2 5240   4.428   5.707   3.359
 1766TIP3    H1 5241   4.461   5.696   3.448
 1766TIP3    H2 5242   4.492   5.762   3.316
 1767TIP3   OH2 5243   3.296   7.558   5.273
 1767TIP3    H1 5244   3.249   7.531   5.195
 1767TIP3    H2 5245   3.239   7.532   5.346
 1768TIP3   OH2 5246   3.460   0.603   5.428
 1768TIP3    H1 5247   3.433   0.517   5.396
 1768TIP3    H2 5248   3.541   0.623   5.380
 1769TIP3   OH2 5249   4.765   2.886   0.103
 1769TIP3    H1 5250   4.804   2.806   0.138
 1769TIP3    H2 5251   4.718   2.924   0.177
 1770TIP3   OH2 5252   8.088   0.470   6.024
 1770TIP3    H1 5253   8.003   0.495   5.988
 1770TIP3    H2 5254   8.068   0.398   6.084
 1771TIP3   OH2 5255   2.774   5.613   5.598
 1771TIP3    H1 5256   2.860   5.646   5.571
 1771TIP3    H2 5257   2.742   5.566   5.521
 1772TIP3   OH2 5258   3.683   4.938   0.835
 1772TIP3    H1 5259   3.640   4.970   0.756
 1772TIP3    H2 5260   3.681   4.843   0.826
 1773TIP3   OH2 5261   5.005   0.719   1.323
 1773TIP3    H1 5262   4.981   0.722   1.230
 1773TIP3    H2 5263   5.064   0.794   1.335
 1774TIP3   OH2 5264   7.143   2.002   6.695
 1774TIP3    H1 5265   7.221   1.985   6.642
 1774TIP3    H2 5266   7.086   2.054   6.639
 1775TIP3   OH2 5267   7.512   1.158   3.908
 1775TIP3    H1 5268   7.537   1.072   3.942
 1775TIP3    H2 5269   7.435   1.140   3.854
 1776TIP3   OH2 5270   7.946   3.769   1.264
 1776TIP3    H1 5271   7.855   3.761   1.294
 1776TIP3    H2 5272   7.984   3.834   1.322
 1777TIP3   OH2 5273   3.733   4.848   0.172
 1777TIP3    H1 5274   3.666   4.903   0.213
 1777TIP3    H2 5275   3.709   4.847   0.079
 1778TIP3   OH2 5276   6.376   4.163   0.539
 1778TIP3    H1 5277   6.368   4.181   0.633
 1778TIP3    H2 5278   6.313   4.093   0.522
 1779TIP3   OH2 5279   1.535   7.697   1.472
 1779TIP3    H1 5280   1.628   7.703   1.453
 1779TIP3    H2 5281   1.510   7.786   1.498
 1780TIP3   OH2 5282   1.814   5.528   3.307
 1780TIP3    H1 5283   1.823   5.573   3.223
 1780TIP3    H2 5284   1.803   5.599   3.371
 1781TIP3   OH2 5285   2.246   3.250   5.107
 1781TIP3    H1 5286   2.221   3.162   5.135
 1781TIP3    H2 5287   2.341   3.253   5.118
 1782TIP3   OH2 5288   6.094   6.544   6.733
 1782TIP3    H1 5289   6.169   6.601   6.753
 1782TIP3    H2 5290   6.040   6.596   6.673
 1783TIP3   OH2 5291   7.468   5.861   2.853
 1783TIP3    H1 5292   7.560   5.835   2.844
 1783TIP3    H2 5293   7.433   5.856   2.763
 1784TIP3   OH2 5294   1.599   3.437   3.905
 1784TIP3    H1 5295   1.514   3.413   3.942
 1784TIP3    H2 5296   1.661   3.425   3.976
 1785TIP3   OH2 5297   3.654   2.810   4.580
 1785TIP3    H1 5298   3.559   2.820   4.573
 1785TIP3    H2 5299   3.678   2.758   4.503
 1786TIP3   OH2 5300   4.547   1.752   1.076
 1786TIP3    H1 5301   4.598   1.740   0.997
 1786TIP3    H2 5302   4.459   1.719   1.054
 1787TIP3   OH2 5303   2.253   7.065   1.842
 1787TIP3    H1 5304   2.313   7.000   1.805
 1787TIP3    H2 5305   2.174   7.015   1.865
 1788TIP3   OH2 5306   1.607   4.313   2.677
 1788TIP3    H1 5307   1.558   4.381   2.632
 1788TIP3    H2 5308   1.578   4.317   2.768
 1789TIP3   OH2 5309   5.739   4.402   6.434
 1789TIP3    H1 5310   5.703   4.455   6.362
 1789TIP3    H2 5311   5.696   4.435   6.512
 1790TIP3   OH2 5312   2.573   4.846   3.558
 1790TIP3    H1 5313   2.500   4.807   3.509
 1790TIP3    H2 5314   2.570   4.939   3.534
 1791TIP3   OH2 5315   6.630   3.269   3.979
 1791TIP3    H1 5316   6.668   3.304   4.060
 1791TIP3    H2 5317   6.555   3.218   4.008
 1792TIP3   OH2 5318   7.037   0.457   2.364
 1792TIP3    H1 5319   7.055   0.418   2.450
 1792TIP3    H2 5320   6.960   0.511   2.378
 1793TIP3   OH2 5321   0.097   3.594   3.052
 1793TIP3    H1 5322   0.061   3.663   3.108
 1793TIP3    H2 5323   0.022   3.541   3.027
 1794TIP3   OH2 5324   1.368   1.352   5.432
 1794TIP3    H1 5325   1.311   1.409   5.484
 1794TIP3    H2 5326   1.336   1.361   5.342
 1795TIP3   OH2 5327   4.425   3.012   1.703
 1795TIP3    H1 5328   4.421   3.104   1.728
 1795TIP3    H2 5329   4.443   3.014   1.609
 1796TIP3   OH2 5330   2.617   2.523   4.432
 1796TIP3    H1 5331   2.675   2.447   4.441
 1796TIP3    H2 5332   2.628   2.571   4.514
 1797TIP3   OH2 5333   5.110   6.484   0.809
 1797TIP3    H1 5334   5.172   6.546   0.771
 1797TIP3    H2 5335   5.161   6.435   0.873
 1798TIP3   OH2 5336   3.329   6.410   0.037
 1798TIP3    H1 5337   3.270   6.417   0.112
 1798TIP3    H2 5338   3.289   6.466  -0.030
 1799TIP3   OH2 5339   1.546   7.054   5.087
 1799TIP3    H1 5340   1.597   7.055   5.006
 1799TIP3    H2 5341   1.496   7.136   5.085
 1800TIP3   OH2 5342   6.926   3.737   4.917
 1800TIP3    H1 5343   6.972   3.656   4.937
 1800TIP3    H2 5344   6.946   3.795   4.991
 1801TIP3   OH2 5345   7.709   6.400   2.465
 1801TIP3    H1 5346   7.774   6.465   2.439
 1801TIP3    H2 5347   7.632   6.451   2.491
 1802TIP3   OH2 5348   2.026   3.173   1.383
 1802TIP3    H1 5349   1.968   3.249   1.380
 1802TIP3    H2 5350   2.079   3.181   1.303
 1803TIP3   OH2 5351   0.160   5.856   0.693
 1803TIP3    H1 5352   0.184   5.794   0.624
 1803TIP3    H2 5353   0.204   5.938   0.669
 1804TIP3   OH2 5354   5.778   5.232   4.691
 1804TIP3    H1 5355   5.784   5.172   4.616
 1804TIP3    H2 5356   5.869   5.256   4.710
 1805TIP3   OH2 5357   2.494   4.086   4.801
 1805TIP3    H1 5358   2.556   4.064   4.731
 1805TIP3    H2 5359   2.549   4.112   4.874
 1806TIP3   OH2 5360   6.562   3.791   1.863
 1806TIP3    H1 5361   6.653   3.780   1.834
 1806TIP3    H2 5362   6.538   3.707   1.900
 1807TIP3   OH2 5363   6.620   6.264   2.041
 1807TIP3    H1 5364   6.648   6.185   2.086
 1807TIP3    H2 5365   6.616   6.240   1.949
 1808TIP3   OH2 5366   2.159   0.472   3.795
 1808TIP3    H1 5367   2.167   0.488   3.889
 1808TIP3    H2 5368   2.171   0.558   3.755
 1809TIP3   OH2 5369   2.882   5.870   1.974
 1809TIP3    H1 5370   2.877   5.791   1.920
 1809TIP3    H2 5371   2.924   5.935   1.918
 1810TIP3   OH2 5372   7.731   5.749   1.333
 1810TIP3    H1 5373   7.818   5.721   1.304
 1810TIP3    H2 5374   7.727   5.723   1.425
 1811TIP3   OH2 5375   5.119   0.723   1.987
 1811TIP3    H1 5376   5.045   0.691   1.935
 1811TIP3    H2 5377   5.166   0.783   1.929
 1812TIP3   OH2 5378   2.597   2.271   3.739
 1812TIP3    H1 5379   2.643   2.307   3.815
 1812TIP3    H2 5380   2.523   2.332   3.725
 1813TIP3   OH2 5381   5.049   3.604   4.010
 1813TIP3    H1 5382   5.009   3.521   4.035
 1813TIP3    H2 5383   5.132   3.579   3.970
 1814TIP3   OH2 5384   3.976   2.088   5.147
 1814TIP3    H1 5385   4.030   2.094   5.225
 1814TIP3    H2 5386   4.004   2.006   5.105
 1815TIP3   OH2 5387   8.203   5.324   6.494
 1815TIP3    H1 5388   8.264   5.350   6.563
 1815TIP3    H2 5389   8.188   5.231   6.509
 1816TIP3   OH2 5390   6.624   0.166   0.106
 1816TIP3    H1 5391   6.667   0.085   0.079
 1816TIP3    H2 5392   6.693   0.232   0.106
 1817TIP3   OH2 5393   5.380   0.486   3.748
 1817TIP3    H1 5394   5.467   0.504   3.711
 1817TIP3    H2 5395   5.376   0.540   3.827
 1818TIP3   OH2 5396   5.121   0.605   3.680
 1818TIP3    H1 5397   5.216   0.599   3.671
 1818TIP3    H2 5398   5.102   0.699   3.677
 1819TIP3   OH2 5399   6.824   7.607   5.545
 1819TIP3    H1 5400   6.868   7.590   5.462
 1819TIP3    H2 5401   6.812   7.520   5.583
 1820TIP3   OH2 5402   6.372   7.757   4.198
 1820TIP3    H1 5403   6.332   7.725   4.117
 1820TIP3    H2 5404   6.465   7.739   4.187
 1821TIP3   OH2 5405   3.143   3.193   5.816
 1821TIP3    H1 5406   3.192   3.275   5.815
 1821TIP3    H2 5407   3.210   3.124   5.817
 1822TIP3   OH2 5408   7.098   0.972   3.863
 1822TIP3    H1 5409   7.129   0.907   3.926
 1822TIP3    H2 5410   7.178   1.015   3.832
 1823TIP3   OH2 5411   3.005   1.306   1.642
 1823TIP3    H1 5412   3.090   1.310   1.598
 1823TIP3    H2 5413   3.005   1.221   1.686
 1824TIP3   OH2 5414   4.529   3.657   4.729
 1824TIP3    H1 5415   4.488   3.722   4.785
 1824TIP3    H2 5416   4.460   3.592   4.714
 1825TIP3   OH2 5417   1.103   7.026   1.502
 1825TIP3    H1 5418   1.059   7.067   1.428
 1825TIP3    H2 5419   1.046   6.953   1.527
 1826TIP3   OH2 5420   1.453   5.889   2.839
 1826TIP3    H1 5421   1.358   5.892   2.824
 1826TIP3    H2 5422   1.463   5.838   2.919
 1827TIP3   OH2 5423   7.818   1.855   3.883
 1827TIP3    H1 5424   7.750   1.918   3.860
 1827TIP3    H2 5425   7.887   1.869   3.819
 1828TIP3   OH2 5426   1.905   2.945   1.457
 1828TIP3    H1 5427   1.870   2.934   1.368
 1828TIP3    H2 5428   1.958   3.025   1.453
 1829TIP3   OH2 5429   6.801   0.539   1.691
 1829TIP3    H1 5430   6.864   0.599   1.731
 1829TIP3    H2 5431   6.853   0.463   1.666
 1830TIP3   OH2 5432   2.416   5.128   5.664
 1830TIP3    H1 5433   2.377   5.099   5.581
 1830TIP3    H2 5434   2.355   5.098   5.731
 1831TIP3   OH2 5435   5.809   5.433   2.947
 1831TIP3    H1 5436   5.880   5.496   2.938
 1831TIP3    H2 5437   5.852   5.348   2.944
 1832TIP3   OH2 5438   3.415   5.754   6.628
 1832TIP3    H1 5439   3.472   5.816   6.584
 1832TIP3    H2 5440   3.409   5.680   6.568
 1833TIP3   OH2 5441   2.285   1.511   1.537
 1833TIP3    H1 5442   2.218   1.443   1.540
 1833TIP3    H2 5443   2.340   1.487   1.462
 1834TIP3   OH2 5444   2.447   6.036   4.622
 1834TIP3    H1 5445   2.438   6.123   4.583
 1834TIP3    H2 5446   2.481   6.053   4.710
 1835TIP3   OH2 5447   6.877   2.269   3.527
 1835TIP3    H1 5448   6.853   2.361   3.518
 1835TIP3    H2 5449   6.896   2.241   3.437
 1836TIP3   OH2 5450   6.637   4.749   0.726
 1836TIP3    H1 5451   6.558   4.796   0.752
 1836TIP3    H2 5452   6.605   4.666   0.691
 1837TIP3   OH2 5453   1.043   4.102   4.861
 1837TIP3    H1 5454   0.974   4.092   4.795
 1837TIP3    H2 5455   1.054   4.014   4.897
 1838TIP3   OH2 5456   4.799   7.362   5.490
 1838TIP3    H1 5457   4.815   7.429   5.556
 1838TIP3    H2 5458   4.852   7.287   5.518
 1839TIP3   OH2 5459   3.270   5.427   1.062
 1839TIP3    H1 5460   3.199   5.387   1.113
 1839TIP3    H2 5461   3.296   5.503   1.114
 1840TIP3   OH2 5462   6.331   2.567   4.709
 1840TIP3    H1 5463   6.265   2.634   4.695
 1840TIP3    H2 5464   6.362   2.582   4.799
 1841TIP3   OH2 5465   0.372   0.043   3.253
 1841TIP3    H1 5466   0.413  -0.043   3.265
 1841TIP3    H2 5467   0.283   0.023   3.224
 1842TIP3   OH2 5468   2.301   3.949   3.727
 1842TIP3    H1 5469   2.311   3.993   3.811
 1842TIP3    H2 5470   2.208   3.927   3.722
 1843TIP3   OH2 5471   4.845   0.362   1.068
 1843TIP3    H1 5472   4.834   0.310   1.148
 1843TIP3    H2 5473   4.770   0.340   1.014
 1844TIP3   OH2 5474   6.339   3.159   5.695
 1844TIP3    H1 5475   6.423   3.179   5.736
 1844TIP3    H2 5476   6.355   3.163   5.601
 1845TIP3   OH2 5477   4.522   5.662   5.065
 1845TIP3    H1 5478   4.553   5.750   5.086
 1845TIP3    H2 5479   4.527   5.614   5.147
 1846TIP3   OH2 5480   3.912   2.602   5.032
 1846TIP3    H1 5481   3.913   2.506   5.033
 1846TIP3    H2 5482   3.858   2.624   4.956
 1847TIP3   OH2 5483   5.287   0.193   0.255
 1847TIP3    H1 5484   5.353   0.244   0.301
 1847TIP3    H2 5485   5.336   0.142   0.191
 1848TIP3   OH2 5486   0.144   5.842   5.152
 1848TIP3    H1 5487   0.207   5.900   5.195
 1848TIP3    H2 5488   0.152   5.864   5.059
 1849TIP3   OH2 5489   4.929   4.298   0.835
 1849TIP3    H1 5490   4.905   4.309   0.743
 1849TIP3    H2 5491   4.928   4.387   0.871
 1850TIP3   OH2 5492   2.972   0.935   5.128
 1850TIP3    H1 5493   2.986   0.984   5.047
 1850TIP3    H2 5494   2.933   0.852   5.100
 1851TIP3   OH2 5495   5.098   0.662   5.585
 1851TIP3    H1 5496   5.095   0.755   5.609
 1851TIP3    H2 5497   5.020   0.649   5.532
 1852TIP3   OH2 5498   5.338   7.662   1.007
 1852TIP3    H1 5499   5.293   7.610   0.940
 1852TIP3    H2 5500   5.430   7.636   1.000
 1853TIP3   OH2 5501   0.284   4.967   0.624
 1853TIP3    H1 5502   0.372   4.993   0.595
 1853TIP3    H2 5503   0.233   4.960   0.544
 1854TIP3   OH2 5504   5.101   4.916   3.193
 1854TIP3    H1 5505   5.161   4.966   3.137
 1854TIP3    H2 5506   5.020   4.912   3.143
 1855TIP3   OH2 5507   0.346   5.406   2.375
 1855TIP3    H1 5508   0.300   5.482   2.411
 1855TIP3    H2 5509   0.439   5.426   2.386
 1856TIP3   OH2 5510   5.142   4.276   2.783
 1856TIP3    H1 5511   5.106   4.355   2.741
 1856TIP3    H2 5512   5.236   4.293   2.789
 1857TIP3   OH2 5513   5.356   0.172   6.709
 1857TIP3    H1 5514   5.413   0.237   6.751
 1857TIP3    H2 5515   5.357   0.196   6.616
 1858TIP3   OH2 5516   7.749   4.988   1.867
 1858TIP3    H1 5517   7.833   4.999   1.911
 1858TIP3    H2 5518   7.688   5.041   1.917
 1859TIP3   OH2 5519   2.469   0.038   5.031
 1859TIP3    H1 5520   2.408   0.058   4.960
 1859TIP3    H2 5521   2.454  -0.055   5.050
 1860TIP3   OH2 5522   0.252   5.859   6.739
 1860TIP3    H1 5523   0.209   5.836   6.656
 1860TIP3    H2 5524   0.191   5.920   6.781
 1861TIP3   OH2 5525   0.514   4.599   5.028
 1861TIP3    H1 5526   0.432   4.550   5.026
 1861TIP3    H2 5527   0.487   4.690   5.038
 1862TIP3   OH2 5528   3.534   7.120   4.481
 1862TIP3    H1 5529   3.460   7.082   4.528
 1862TIP3    H2 5530   3.610   7.070   4.512
 1863TIP3   OH2 5531   6.026   1.799   4.423
 1863TIP3    H1 5532   5.991   1.764   4.342
 1863TIP3    H2 5533   6.120   1.788   4.416
 1864TIP3   OH2 5534   2.150   3.274   6.099
 1864TIP3    H1 5535   2.187   3.186   6.107
 1864TIP3    H2 5536   2.077   3.264   6.038
 1865TIP3   OH2 5537   0.875   7.300   3.075
 1865TIP3    H1 5538   0.931   7.378   3.078
 1865TIP3    H2 5539   0.786   7.335   3.072
 1866TIP3   OH2 5540   1.078   4.065   5.314
 1866TIP3    H1 5541   1.022   3.990   5.296
 1866TIP3    H2 5542   1.019   4.129   5.355
 1867TIP3   OH2 5543   4.635   4.037   2.081
 1867TIP3    H1 5544   4.636   4.122   2.036
 1867TIP3    H2 5545   4.639   4.060   2.174
 1868TIP3   OH2 5546   7.345   3.761   2.753
 1868TIP3    H1 5547   7.384   3.674   2.747
 1868TIP3    H2 5548   7.414   3.816   2.789
 1869TIP3   OH2 5549   0.776   3.517   5.221
 1869TIP3    H1 5550   0.752   3.488   5.309
 1869TIP3    H2 5551   0.822   3.442   5.183
 1870TIP3   OH2 5552   8.260   1.322   5.837
 1870TIP3    H1 5553   8.310   1.346   5.916
 1870TIP3    H2 5554   8.267   1.399   5.781
 1871TIP3   OH2 5555   4.741   6.951   1.709
 1871TIP3    H1 5556   4.693   6.888   1.763
 1871TIP3    H2 5557   4.689   6.959   1.629
 1872TIP3   OH2 5558   3.991   0.598   4.893
 1872TIP3    H1 5559   4.031   0.566   4.973
 1872TIP3    H2 5560   4.062   0.600   4.829
 1873TIP3   OH2 5561   2.352   5.340   3.607
 1873TIP3    H1 5562   2.425   5.367   3.663
 1873TIP3    H2 5563   2.282   5.318   3.669
 1874TIP3   OH2 5564   0.068   7.065   1.760
 1874TIP3    H1 5565   0.155   7.090   1.730
 1874TIP3    H2 5566   0.013   7.141   1.741
 1875TIP3   OH2 5567   2.452   6.858   0.254
 1875TIP3    H1 5568   2.494   6.899   0.329
 1875TIP3    H2 5569   2.387   6.922   0.224
 1876TIP3   OH2 5570   6.926   2.544   1.209
 1876TIP3    H1 5571   6.877   2.471   1.171
 1876TIP3    H2 5572   6.950   2.515   1.297
 1877TIP3   OH2 5573   7.528   4.416   3.828
 1877TIP3    H1 5574   7.503   4.349   3.764
 1877TIP3    H2 5575   7.623   4.425   3.818
 1878TIP3   OH2 5576   7.354   5.063   4.016
 1878TIP3    H1 5577   7.304   5.130   3.970
 1878TIP3    H2 5578   7.340   4.983   3.965
 1879TIP3   OH2 5579   1.373   7.716   6.646
 1879TIP3    H1 5580   1.319   7.698   6.569
 1879TIP3    H2 5581   1.317   7.769   6.703
 1880TIP3   OH2 5582   0.549   4.879   3.157
 1880TIP3    H1 5583   0.603   4.873   3.236
 1880TIP3    H2 5584   0.609   4.909   3.088
 1881TIP3   OH2 5585   0.808   7.212   2.067
 1881TIP3    H1 5586   0.721   7.209   2.107
 1881TIP3    H2 5587   0.849   7.129   2.093
 1882TIP3   OH2 5588   2.076   4.351   2.125
 1882TIP3    H1 5589   2.098   4.259   2.142
 1882TIP3    H2 5590   2.039   4.350   2.037
 1883TIP3   OH2 5591   6.125   0.419   4.613
 1883TIP3    H1 5592   6.070   0.379   4.545
 1883TIP3    H2 5593   6.176   0.485   4.565
 1884TIP3   OH2 5594   6.639   5.215   0.484
 1884TIP3    H1 5595   6.615   5.262   0.403
 1884TIP3    H2 5596   6.687   5.138   0.454
 1885TIP3   OH2 5597   4.746   1.873   6.389
 1885TIP3    H1 5598   4.667   1.860   6.337
 1885TIP3    H2 5599   4.717   1.859   6.479
 1886TIP3   OH2 5600   8.206   1.798   5.383
 1886TIP3    H1 5601   8.270   1.728   5.392
 1886TIP3    H2 5602   8.253   1.869   5.340
 1887TIP3   OH2 5603   4.505   2.961   2.992
 1887TIP3    H1 5604   4.557   2.920   2.922
 1887TIP3    H2 5605   4.529   3.054   2.988
 1888TIP3   OH2 5606   2.686   6.984   6.091
 1888TIP3    H1 5607   2.632   6.940   6.157
 1888TIP3    H2 5608   2.765   7.010   6.138
 1889TIP3   OH2 5609   1.111   1.746   0.773
 1889TIP3    H1 5610   1.162   1.816   0.733
 1889TIP3    H2 5611   1.145   1.738   0.862
 1890TIP3   OH2 5612   0.601   2.129   5.928
 1890TIP3    H1 5613   0.522   2.082   5.956
 1890TIP3    H2 5614   0.572   2.180   5.852
 1891TIP3   OH2 5615   3.668   4.361   1.469
 1891TIP3    H1 5616   3.748   4.313   1.489
 1891TIP3    H2 5617   3.664   4.429   1.536
 1892TIP3   OH2 5618   2.414   6.852   2.644
 1892TIP3    H1 5619   2.388   6.922   2.584
 1892TIP3    H2 5620   2.387   6.772   2.599
 1893TIP3   OH2 5621   7.385   2.570   4.330
 1893TIP3    H1 5622   7.351   2.490   4.291
 1893TIP3    H2 5623   7.460   2.542   4.382
 1894TIP3   OH2 5624   7.813   1.182   5.237
 1894TIP3    H1 5625   7.832   1.096   5.273
 1894TIP3    H2 5626   7.766   1.164   5.156
 1895TIP3   OH2 5627   2.358   7.787   1.230
 1895TIP3    H1 5628   2.308   7.711   1.261
 1895TIP3    H2 5629   2.330   7.799   1.140
 1896TIP3   OH2 5630   1.501   4.870   0.736
 1896TIP3    H1 5631   1.543   4.811   0.798
 1896TIP3    H2 5632   1.552   4.951   0.742
 1897TIP3   OH2 5633   0.716   3.800   6.321
 1897TIP3    H1 5634   0.723   3.798   6.226
 1897TIP3    H2 5635   0.781   3.737   6.352
 1898TIP3   OH2 5636   7.430   0.174   2.476
 1898TIP3    H1 5637   7.449   0.181   2.569
 1898TIP3    H2 5638   7.511   0.200   2.433
 1899TIP3   OH2 5639   2.740   3.706   0.640
 1899TIP3    H1 5640   2.756   3.614   0.663
 1899TIP3    H2 5641   2.793   3.756   0.702
 1900TIP3   OH2 5642   6.405   1.345   4.386
 1900TIP3    H1 5643   6.401   1.275   4.450
 1900TIP3    H2 5644   6.317   1.349   4.348
 1901TIP3   OH2 5645   3.800   4.868   3.759
 1901TIP3    H1 5646   3.823   4.939   3.699
 1901TIP3    H2 5647   3.859   4.881   3.834
 1902TIP3   OH2 5648   6.781   6.775   0.371
 1902TIP3    H1 5649   6.760   6.859   0.412
 1902TIP3    H2 5650   6.696   6.740   0.345
 1903TIP3   OH2 5651   5.870   2.006   4.028
 1903TIP3    H1 5652   5.829   2.071   4.085
 1903TIP3    H2 5653   5.895   1.934   4.086
 1904TIP3   OH2 5654   5.728   0.265   4.977
 1904TIP3    H1 5655   5.809   0.221   4.951
 1904TIP3    H2 5656   5.660   0.199   4.968
 1905TIP3   OH2 5657   2.190   0.674   6.221
 1905TIP3    H1 5658   2.235   0.710   6.297
 1905TIP3    H2 5659   2.162   0.751   6.171
 1906TIP3   OH2 5660   1.935   0.511   0.860
 1906TIP3    H1 5661   1.880   0.561   0.800
 1906TIP3    H2 5662   1.997   0.575   0.896
 1907TIP3   OH2 5663   5.264   2.389   0.091
 1907TIP3    H1 5664   5.312   2.457   0.138
 1907TIP3    H2 5665   5.188   2.370   0.147
 1908TIP3   OH2 5666   5.476   6.017   4.931
 1908TIP3    H1 5667   5.411   5.959   4.892
 1908TIP3    H2 5668   5.431   6.056   5.006
 1909TIP3   OH2 5669   7.907   2.691   5.588
 1909TIP3    H1 5670   7.992   2.648   5.582
 1909TIP3    H2 5671   7.891   2.699   5.682
 1910TIP3   OH2 5672   6.422   4.314   0.767
 1910TIP3    H1 5673   6.334   4.351   0.774
 1910TIP3    H2 5674   6.472   4.358   0.836
 1911TIP3   OH2 5675   4.820   1.394   1.501
 1911TIP3    H1 5676   4.837   1.310   1.543
 1911TIP3    H2 5677   4.779   1.447   1.570
 1912TIP3   OH2 5678   0.896   7.326   0.579
 1912TIP3    H1 5679   0.991   7.315   0.582
 1912TIP3    H2 5680   0.863   7.243   0.546
 1913TIP3   OH2 5681   3.247   7.191   5.535
 1913TIP3    H1 5682   3.256   7.167   5.443
 1913TIP3    H2 5683   3.314   7.140   5.580
 1914TIP3   OH2 5684   0.595   6.604   3.171
 1914TIP3    H1 5685   0.540   6.561   3.237
 1914TIP3    H2 5686   0.667   6.542   3.157
 1915TIP3   OH2 5687   8.205   6.516   3.317
 1915TIP3    H1 5688   8.294   6.483   3.331
 1915TIP3    H2 5689   8.195   6.520   3.222
 1916TIP3   OH2 5690   5.467   6.082   2.716
 1916TIP3    H1 5691   5.435   6.085   2.626
 1916TIP3    H2 5692   5.534   6.013   2.716
 1917TIP3   OH2 5693   0.663   6.350   5.296
 1917TIP3    H1 5694   0.635   6.374   5.208
 1917TIP3    H2 5695   0.756   6.374   5.300
 1918TIP3   OH2 5696   4.318   4.873   0.453
 1918TIP3    H1 5697   4.245   4.893   0.395
 1918TIP3    H2 5698   4.293   4.912   0.537
 1919TIP3   OH2 5699   7.558   1.428   6.700
 1919TIP3    H1 5700   7.540   1.499   6.761
 1919TIP3    H2 5701   7.633   1.382   6.739
 1920TIP3   OH2 5702   5.031   6.032   4.212
 1920TIP3    H1 5703   5.081   5.960   4.250
 1920TIP3    H2 5704   5.023   6.009   4.119
 1921TIP3   OH2 5705   1.694   4.558   4.241
 1921TIP3    H1 5706   1.670   4.529   4.329
 1921TIP3    H2 5707   1.720   4.649   4.252
 1922TIP3   OH2 5708   2.534   5.470   2.524
 1922TIP3    H1 5709   2.577   5.523   2.591
 1922TIP3    H2 5710   2.504   5.392   2.571
 1923TIP3   OH2 5711   0.952   4.360   3.591
 1923TIP3    H1 5712   1.020   4.322   3.535
 1923TIP3    H2 5713   0.872   4.316   3.564
 1924TIP3   OH2 5714   3.236   5.436   2.335
 1924TIP3    H1 5715   3.190   5.355   2.310
 1924TIP3    H2 5716   3.292   5.456   2.261
 1925TIP3   OH2 5717   3.035   3.736   3.047
 1925TIP3    H1 5718   3.001   3.758   2.960
 1925TIP3    H2 5719   3.013   3.812   3.101
 1926TIP3   OH2 5720   4.128   7.314   4.011
 1926TIP3    H1 5721   4.066   7.370   4.058
 1926TIP3    H2 5722   4.104   7.325   3.919
 1927TIP3   OH2 5723   1.246   5.968   6.076
 1927TIP3    H1 5724   1.189   6.022   6.022
 1927TIP3    H2 5725   1.284   6.029   6.139
 1928TIP3   OH2 5726   1.114   1.507   1.055
 1928TIP3    H1 5727   1.066   1.502   0.973
 1928TIP3    H2 5728   1.090   1.426   1.101
 1929TIP3   OH2 5729   4.804   4.682   1.330
 1929TIP3    H1 5730   4.743   4.688   1.257
 1929TIP3    H2 5731   4.800   4.591   1.358
 1930TIP3   OH2 5732   6.025   6.726   5.407
 1930TIP3    H1 5733   6.097   6.668   5.380
 1930TIP3    H2 5734   6.005   6.778   5.329
 1931TIP3   OH2 5735   6.768   2.303   0.870
 1931TIP3    H1 5736   6.754   2.325   0.962
 1931TIP3    H2 5737   6.861   2.280   0.865
 1932TIP3   OH2 5738   1.759   4.633   1.814
 1932TIP3    H1 5739   1.712   4.716   1.805
 1932TIP3    H2 5740   1.703   4.569   1.769
 1933TIP3   OH2 5741   1.999   1.940   1.207
 1933TIP3    H1 5742   2.000   1.908   1.116
 1933TIP3    H2 5743   2.047   2.022   1.203
 1934TIP3   OH2 5744   1.478   5.533   3.785
 1934TIP3    H1 5745   1.426   5.526   3.705
 1934TIP3    H2 5746   1.565   5.499   3.760
 1935TIP3   OH2 5747   4.629   7.548   1.217
 1935TIP3    H1 5748   4.713   7.556   1.172
 1935TIP3    H2 5749   4.581   7.628   1.192
 1936TIP3   OH2 5750   2.759   0.744   1.064
 1936TIP3    H1 5751   2.753   0.687   1.141
 1936TIP3    H2 5752   2.704   0.819   1.085
 1937TIP3   OH2 5753   4.378   0.149   6.763
 1937TIP3    H1 5754   4.455   0.183   6.808
 1937TIP3    H2 5755   4.346   0.223   6.712
 1938TIP3   OH2 5756   5.191   2.808   0.721
 1938TIP3    H1 5757   5.241   2.852   0.652
 1938TIP3    H2 5758   5.134   2.747   0.675
 1939TIP3   OH2 5759   4.039   7.234   5.944
 1939TIP3    H1 5760   3.982   7.243   6.020
 1939TIP3    H2 5761   4.003   7.296   5.880
 1940TIP3   OH2 5762   2.131   6.934   4.035
 1940TIP3    H1 5763   2.188   6.938   3.958
 1940TIP3    H2 5764   2.078   7.014   4.030
 1941TIP3   OH2 5765   3.155   5.742   4.629
 1941TIP3    H1 5766   3.192   5.762   4.714
 1941TIP3    H2 5767   3.063   5.722   4.647
 1942TIP3   OH2 5768   0.044   4.891   2.173
 1942TIP3    H1 5769  -0.025   4.832   2.143
 1942TIP3    H2 5770   0.025   4.905   2.266
 1943TIP3   OH2 5771   2.089   4.777   3.309
 1943TIP3    H1 5772   2.086   4.873   3.307
 1943TIP3    H2 5773   2.058   4.750   3.222
 1944TIP3   OH2 5774   3.894   4.627   4.444
 1944TIP3    H1 5775   3.924   4.573   4.371
 1944TIP3    H2 5776   3.832   4.689   4.405
 1945TIP3   OH2 5777   6.449   3.373   6.435
 1945TIP3    H1 5778   6.396   3.432   6.488
 1945TIP3    H2 5779   6.389   3.302   6.411
 1946TIP3   OH2 5780   0.355   1.217   0.934
 1946TIP3    H1 5781   0.299   1.148   0.901
 1946TIP3    H2 5782   0.352   1.286   0.867
 1947TIP3   OH2 5783   7.859   5.458   6.599
 1947TIP3    H1 5784   7.809   5.538   6.613
 1947TIP3    H2 5785   7.889   5.433   6.686
 1948TIP3   OH2 5786   2.623   0.843   0.479
 1948TIP3    H1 5787   2.697   0.861   0.536
 1948TIP3    H2 5788   2.550   0.824   0.539
 1949TIP3   OH2 5789   8.066   1.835   6.686
 1949TIP3    H1 5790   8.089   1.927   6.677
 1949TIP3    H2 5791   8.122   1.789   6.624
 1950TIP3   OH2 5792   2.845   6.225   5.649
 1950TIP3    H1 5793   2.795   6.277   5.712
 1950TIP3    H2 5794   2.784   6.208   5.578
 1951TIP3   OH2 5795   4.562   7.343   4.685
 1951TIP3    H1 5796   4.650   7.321   4.656
 1951TIP3    H2 5797   4.546   7.431   4.652
 1952TIP3   OH2 5798   5.327   7.039   4.757
 1952TIP3    H1 5799   5.410   7.004   4.789
 1952TIP3    H2 5800   5.302   7.105   4.821
 1953TIP3   OH2 5801   6.508   5.266   2.991
 1953TIP3    H1 5802   6.560   5.217   2.928
 1953TIP3    H2 5803   6.467   5.199   3.046
 1954TIP3   OH2 5804   6.759   5.902   5.797
 1954TIP3    H1 5805   6.702   5.834   5.830
 1954TIP3    H2 5806   6.769   5.963   5.870
 1955TIP3   OH2 5807   7.949   0.671   5.387
 1955TIP3    H1 5808   7.998   0.593   5.413
 1955TIP3    H2 5809   8.016   0.739   5.379
 1956TIP3   OH2 5810   1.820   0.690   0.687
 1956TIP3    H1 5811   1.795   0.646   0.606
 1956TIP3    H2 5812   1.740   0.736   0.714
 1957TIP3   OH2 5813   7.387   7.730   6.491
 1957TIP3    H1 5814   7.421   7.702   6.576
 1957TIP3    H2 5815   7.327   7.660   6.465
 1958TIP3   OH2 5816   1.914   3.248   5.961
 1958TIP3    H1 5817   1.887   3.325   5.912
 1958TIP3    H2 5818   1.890   3.174   5.905
 1959TIP3   OH2 5819   2.290   5.025   3.283
 1959TIP3    H1 5820   2.214   5.055   3.233
 1959TIP3    H2 5821   2.351   4.991   3.217
 1960TIP3   OH2 5822   4.834   1.990   0.227
 1960TIP3    H1 5823   4.797   2.060   0.280
 1960TIP3    H2 5824   4.758   1.948   0.187
 1961TIP3   OH2 5825   5.915   7.077   0.993
 1961TIP3    H1 5826   5.936   6.988   1.019
 1961TIP3    H2 5827   5.820   7.083   1.000
 1962TIP3   OH2 5828   0.823   2.874   4.891
 1962TIP3    H1 5829   0.897   2.868   4.831
 1962TIP3    H2 5830   0.833   2.959   4.934
 1963TIP3   OH2 5831   4.419   6.695   2.367
 1963TIP3    H1 5832   4.447   6.783   2.344
 1963TIP3    H2 5833   4.438   6.643   2.288
 1964TIP3   OH2 5834   0.610   2.440   4.596
 1964TIP3    H1 5835   0.627   2.456   4.688
 1964TIP3    H2 5836   0.578   2.524   4.563
 1965TIP3   OH2 5837   4.619   5.207   6.207
 1965TIP3    H1 5838   4.670   5.148   6.152
 1965TIP3    H2 5839   4.532   5.207   6.167
 1966TIP3   OH2 5840   4.353   6.120   0.745
 1966TIP3    H1 5841   4.436   6.119   0.697
 1966TIP3    H2 5842   4.346   6.032   0.782
 1967TIP3   OH2 5843   7.091   2.733   2.962
 1967TIP3    H1 5844   7.021   2.775   2.914
 1967TIP3    H2 5845   7.097   2.645   2.925
 1968TIP3   OH2 5846   2.763   3.087   0.697
 1968TIP3    H1 5847   2.781   3.026   0.768
 1968TIP3    H2 5848   2.848   3.097   0.652
 1969TIP3   OH2 5849   7.736   6.334   0.465
 1969TIP3    H1 5850   7.821   6.353   0.425
 1969TIP3    H2 5851   7.746   6.245   0.500
 1970TIP3   OH2 5852   7.776   6.108   4.549
 1970TIP3    H1 5853   7.802   6.039   4.610
 1970TIP3    H2 5854   7.699   6.148   4.589
 1971TIP3   OH2 5855   1.551   1.676   1.514
 1971TIP3    H1 5856   1.573   1.583   1.517
 1971TIP3    H2 5857   1.540   1.695   1.421
 1972TIP3   OH2 5858   7.212   4.125   5.372
 1972TIP3    H1 5859   7.224   4.167   5.457
 1972TIP3    H2 5860   7.171   4.041   5.392
 1973TIP3   OH2 5861   3.916   2.383   2.416
 1973TIP3    H1 5862   3.921   2.466   2.368
 1973TIP3    H2 5863   3.985   2.390   2.482
 1974TIP3   OH2 5864   6.125   0.132   4.788
 1974TIP3    H1 5865   6.210   0.160   4.754
 1974TIP3    H2 5866   6.116   0.180   4.871
 1975TIP3   OH2 5867   2.804   7.799   2.547
 1975TIP3    H1 5868   2.890   7.757   2.551
 1975TIP3    H2 5869   2.774   7.799   2.638
 1976TIP3   OH2 5870   4.075   2.929   4.905
 1976TIP3    H1 5871   3.996   2.979   4.885
 1976TIP3    H2 5872   4.136   2.994   4.941
 1977TIP3   OH2 5873   4.760   7.452   0.895
 1977TIP3    H1 5874   4.762   7.404   0.978
 1977TIP3    H2 5875   4.773   7.543   0.920
 1978TIP3   OH2 5876   5.528   6.101   0.990
 1978TIP3    H1 5877   5.574   6.178   0.956
 1978TIP3    H2 5878   5.545   6.033   0.925
 1979TIP3   OH2 5879   6.089   6.287   2.528
 1979TIP3    H1 5880   6.182   6.275   2.510
 1979TIP3    H2 5881   6.086   6.316   2.619
 1980TIP3   OH2 5882   3.645   7.591   1.780
 1980TIP3    H1 5883   3.647   7.648   1.858
 1980TIP3    H2 5884   3.724   7.615   1.732
 1981TIP3   OH2 5885   1.850   1.083   6.733
 1981TIP3    H1 5886   1.876   1.004   6.684
 1981TIP3    H2 5887   1.884   1.068   6.821
 1982TIP3   OH2 5888   1.658   4.706   5.000
 1982TIP3    H1 5889   1.742   4.691   5.045
 1982TIP3    H2 5890   1.649   4.629   4.943
 1983TIP3   OH2 5891   3.653   2.401   4.589
 1983TIP3    H1 5892   3.700   2.409   4.506
 1983TIP3    H2 5893   3.561   2.417   4.566
 1984TIP3   OH2 5894   5.283   3.110   4.653
 1984TIP3    H1 5895   5.373   3.081   4.648
 1984TIP3    H2 5896   5.255   3.087   4.742
 1985TIP3   OH2 5897   5.779   0.914   4.075
 1985TIP3    H1 5898   5.835   0.843   4.105
 1985TIP3    H2 5899   5.807   0.931   3.985
 1986TIP3   OH2 5900   0.012   6.862   1.924
 1986TIP3    H1 5901   0.026   6.928   1.856
 1986TIP3    H2 5902   0.086   6.802   1.914
 1987TIP3   OH2 5903   0.981   4.586   1.403
 1987TIP3    H1 5904   1.017   4.674   1.413
 1987TIP3    H2 5905   0.898   4.600   1.357
 1988TIP3   OH2 5906   7.208   5.644   1.463
 1988TIP3    H1 5907   7.116   5.652   1.439
 1988TIP3    H2 5908   7.230   5.729   1.501
 1989TIP3   OH2 5909   2.930   4.999   6.242
 1989TIP3    H1 5910   2.923   4.911   6.204
 1989TIP3    H2 5911   2.839   5.024   6.260
 1990TIP3   OH2 5912   1.711   4.844   6.541
 1990TIP3    H1 5913   1.801   4.818   6.520
 1990TIP3    H2 5914   1.705   4.835   6.636
 1991TIP3   OH2 5915   4.387   6.069   5.374
 1991TIP3    H1 5916   4.445   6.020   5.431
 1991TIP3    H2 5917   4.308   6.083   5.426
 1992TIP3   OH2 5918   6.524   3.139   1.887
 1992TIP3    H1 5919   6.520   3.127   1.793
 1992TIP3    H2 5920   6.497   3.055   1.924
 1993TIP3   OH2 5921   5.590   3.448   3.167
 1993TIP3    H1 5922   5.585   3.410   3.254
 1993TIP3    H2 5923   5.573   3.541   3.180
 1994TIP3   OH2 5924   2.111   3.801   2.053
 1994TIP3    H1 5925   2.102   3.880   2.000
 1994TIP3    H2 5926   2.072   3.823   2.138
 1995TIP3   OH2 5927   0.160   2.936   4.579
 1995TIP3    H1 5928   0.243   2.913   4.537
 1995TIP3    H2 5929   0.185   2.963   4.667
 1996TIP3   OH2 5930   6.040   3.536   6.215
 1996TIP3    H1 5931   6.055   3.538   6.309
 1996TIP3    H2 5932   6.098   3.604   6.180
 1997TIP3   OH2 5933   2.899   5.902   1.692
 1997TIP3    H1 5934   2.851   5.832   1.738
 1997TIP3    H2 5935   2.876   5.889   1.600
 1998TIP3   OH2 5936   4.901   5.875   2.068
 1998TIP3    H1 5937   4.938   5.788   2.079
 1998TIP3    H2 5938   4.977   5.932   2.056
 1999TIP3   OH2 5939   6.715   7.391   1.336
 1999TIP3    H1 5940   6.681   7.302   1.328
 1999TIP3    H2 5941   6.805   7.385   1.303
 2000TIP3   OH2 5942   4.646   6.415   6.247
 2000TIP3    H1 5943   4.716   6.419   6.181
 2000TIP3    H2 5944   4.565   6.413   6.196
 2001TIP3   OH2 5945   8.133   2.941   0.228
 2001TIP3    H1 5946   8.204   2.897   0.181
 2001TIP3    H2 5947   8.165   2.948   0.318
 2002TIP3   OH2 5948   7.902   6.635   5.813
 2002TIP3    H1 5949   7.876   6.547   5.787
 2002TIP3    H2 5950   7.835   6.693   5.775
 2003TIP3   OH2 5951   8.054   6.554   0.047
 2003TIP3    H1 5952   8.099   6.470   0.053
 2003TIP3    H2 5953   7.964   6.535   0.074
 2004TIP3   OH2 5954   4.861   1.941   5.103
 2004TIP3    H1 5955   4.931   1.928   5.167
 2004TIP3    H2 5956   4.819   2.022   5.129
 2005TIP3   OH2 5957   5.940   6.568   1.157
 2005TIP3    H1 5958   6.009   6.604   1.213
 2005TIP3    H2 5959   5.890   6.644   1.129
 2006TIP3   OH2 5960   4.701   2.377   3.653
 2006TIP3    H1 5961   4.708   2.296   3.602
 2006TIP3    H2 5962   4.789   2.392   3.688
 2007TIP3   OH2 5963   5.947   2.377   1.149
 2007TIP3    H1 5964   5.898   2.426   1.083
 2007TIP3    H2 5965   6.004   2.442   1.191
 2008TIP3   OH2 5966   7.577   6.493   4.795
 2008TIP3    H1 5967   7.658   6.464   4.752
 2008TIP3    H2 5968   7.541   6.413   4.834
 2009TIP3   OH2 5969   5.717   1.654   6.055
 2009TIP3    H1 5970   5.668   1.702   6.121
 2009TIP3    H2 5971   5.660   1.580   6.033
 2010TIP3   OH2 5972   6.147   2.981   6.319
 2010TIP3    H1 5973   6.155   3.050   6.384
 2010TIP3    H2 5974   6.097   3.021   6.247
 2011TIP3   OH2 5975   5.851   6.611   3.627
 2011TIP3    H1 5976   5.935   6.567   3.635
 2011TIP3    H2 5977   5.851   6.676   3.697
 2012TIP3   OH2 5978   5.552   6.371   2.693
 2012TIP3    H1 5979   5.617   6.360   2.762
 2012TIP3    H2 5980   5.535   6.282   2.662
 2013TIP3   OH2 5981   7.438   7.590   3.579
 2013TIP3    H1 5982   7.374   7.637   3.526
 2013TIP3    H2 5983   7.394   7.575   3.662
 2014TIP3   OH2 5984   2.475   0.764   2.367
 2014TIP3    H1 5985   2.544   0.825   2.343
 2014TIP3    H2 5986   2.521   0.683   2.390
 2015TIP3   OH2 5987   0.134   0.541   5.470
 2015TIP3    H1 5988   0.178   0.458   5.454
 2015TIP3    H2 5989   0.192   0.606   5.430
 2016TIP3   OH2 5990   3.051   2.684   0.230
 2016TIP3    H1 5991   2.973   2.663   0.179
 2016TIP3    H2 5992   3.116   2.713   0.165
 2017TIP3   OH2 5993   4.702   6.582   3.678
 2017TIP3    H1 5994   4.706   6.488   3.656
 2017TIP3    H2 5995   4.671   6.584   3.768
 2018TIP3   OH2 5996   2.782   1.523   0.435
 2018TIP3    H1 5997   2.783   1.436   0.476
 2018TIP3    H2 5998   2.873   1.552   0.436
 2019TIP3   OH2 5999   7.419   0.695   0.889
 2019TIP3    H1 6000   7.479   0.635   0.845
 2019TIP3    H2 6001   7.418   0.773   0.834
 2020TIP3   OH2 6002   6.928   6.671   6.188
 2020TIP3    H1 6003   7.008   6.704   6.148
 2020TIP3    H2 6004   6.935   6.695   6.280
 2021TIP3   OH2 6005   6.667   5.128   5.418
 2021TIP3    H1 6006   6.586   5.167   5.452
 2021TIP3    H2 6007   6.665   5.148   5.324
 2022TIP3   OH2 6008   0.222   2.892   5.858
 2022TIP3    H1 6009   0.257   2.803   5.855
 2022TIP3    H2 6010   0.201   2.913   5.767
 2023TIP3   OH2 6011   3.501   4.305   1.718
 2023TIP3    H1 6012   3.520   4.216   1.690
 2023TIP3    H2 6013   3.580   4.333   1.764
 2024TIP3   OH2 6014   3.244   6.139   4.185
 2024TIP3    H1 6015   3.327   6.148   4.231
 2024TIP3    H2 6016   3.223   6.227   4.154
 2025TIP3   OH2 6017   4.154   1.652   2.107
 2025TIP3    H1 6018   4.104   1.724   2.144
 2025TIP3    H2 6019   4.164   1.590   2.180
 2026TIP3   OH2 6020   4.273   5.711   3.858
 2026TIP3    H1 6021   4.346   5.770   3.875
 2026TIP3    H2 6022   4.226   5.751   3.785
 2027TIP3   OH2 6023   2.080   5.130   0.479
 2027TIP3    H1 6024   2.086   5.198   0.546
 2027TIP3    H2 6025   2.108   5.174   0.398
 2028TIP3   OH2 6026   0.112   5.611   2.930
 2028TIP3    H1 6027   0.187   5.665   2.905
 2028TIP3    H2 6028   0.044   5.635   2.867
 2029TIP3   OH2 6029   0.561   0.093   0.737
 2029TIP3    H1 6030   0.483   0.087   0.681
 2029TIP3    H2 6031   0.596   0.003   0.739
 2030TIP3   OH2 6032   1.717   5.375   3.704
 2030TIP3    H1 6033   1.775   5.449   3.688
 2030TIP3    H2 6034   1.733   5.315   3.631
 2031TIP3   OH2 6035   8.234   1.463   5.148
 2031TIP3    H1 6036   8.295   1.431   5.081
 2031TIP3    H2 6037   8.187   1.386   5.178
 2032TIP3   OH2 6038   0.598   6.717   1.036
 2032TIP3    H1 6039   0.639   6.639   1.000
 2032TIP3    H2 6040   0.626   6.719   1.128
 2033TIP3   OH2 6041   8.095   7.198   4.401
 2033TIP3    H1 6042   8.061   7.200   4.311
 2033TIP3    H2 6043   8.093   7.106   4.426
 2034TIP3   OH2 6044   2.133   1.847   0.888
 2034TIP3    H1 6045   2.166   1.757   0.887
 2034TIP3    H2 6046   2.185   1.890   0.956
 2035TIP3   OH2 6047   3.879   2.602   4.522
 2035TIP3    H1 6048   3.943   2.660   4.563
 2035TIP3    H2 6049   3.922   2.570   4.443
 2036TIP3   OH2 6050   3.671   6.987   0.236
 2036TIP3    H1 6051   3.748   6.956   0.284
 2036TIP3    H2 6052   3.675   6.940   0.153
 2037TIP3   OH2 6053   4.070   2.572   2.250
 2037TIP3    H1 6054   4.080   2.634   2.322
 2037TIP3    H2 6055   4.137   2.506   2.267
 2038TIP3   OH2 6056   4.134   5.809   3.618
 2038TIP3    H1 6057   4.097   5.750   3.553
 2038TIP3    H2 6058   4.107   5.897   3.591
 2039TIP3   OH2 6059   3.878   3.720   5.557
 2039TIP3    H1 6060   3.946   3.654   5.568
 2039TIP3    H2 6061   3.843   3.733   5.645
 2040TIP3   OH2 6062   6.895   3.239   5.995
 2040TIP3    H1 6063   6.987   3.228   6.021
 2040TIP3    H2 6064   6.865   3.315   6.044
 2041TIP3   OH2 6065   3.516   5.088   4.602
 2041TIP3    H1 6066   3.443   5.058   4.657
 2041TIP3    H2 6067   3.589   5.031   4.626
 2042TIP3   OH2 6068   3.884   3.656   0.976
 2042TIP3    H1 6069   3.827   3.728   1.002
 2042TIP3    H2 6070   3.829   3.578   0.988
 2043TIP3   OH2 6071   3.681   7.775   1.312
 2043TIP3    H1 6072   3.651   7.836   1.245
 2043TIP3    H2 6073   3.601   7.748   1.358
 2044TIP3   OH2 6074   4.336   6.295   3.048
 2044TIP3    H1 6075   4.344   6.323   2.957
 2044TIP3    H2 6076   4.400   6.348   3.095
 2045TIP3   OH2 6077   4.438   3.808   3.756
 2045TIP3    H1 6078   4.415   3.831   3.667
 2045TIP3    H2 6079   4.529   3.777   3.750
 2046TIP3   OH2 6080   5.057   2.749   2.441
 2046TIP3    H1 6081   4.994   2.774   2.374
 2046TIP3    H2 6082   5.133   2.718   2.392
 2047TIP3   OH2 6083   6.105   3.853   1.654
 2047TIP3    H1 6084   6.049   3.858   1.576
 2047TIP3    H2 6085   6.121   3.759   1.666
 2048TIP3   OH2 6086   4.054   6.838   1.669
 2048TIP3    H1 6087   3.972   6.816   1.626
 2048TIP3    H2 6088   4.118   6.778   1.630
 2049TIP3   OH2 6089   1.454   4.206   4.713
 2049TIP3    H1 6090   1.429   4.168   4.798
 2049TIP3    H2 6091   1.541   4.171   4.696
 2050TIP3   OH2 6092   0.231   6.325   1.318
 2050TIP3    H1 6093   0.136   6.336   1.317
 2050TIP3    H2 6094   0.252   6.301   1.409
 2051TIP3   OH2 6095   2.207   7.607   4.195
 2051TIP3    H1 6096   2.139   7.539   4.202
 2051TIP3    H2 6097   2.246   7.593   4.108
 2052TIP3   OH2 6098   0.692   2.771   0.789
 2052TIP3    H1 6099   0.704   2.677   0.773
 2052TIP3    H2 6100   0.638   2.802   0.717
 2053TIP3   OH2 6101   1.915   0.595   4.092
 2053TIP3    H1 6102   1.936   0.684   4.062
 2053TIP3    H2 6103   1.971   0.538   4.038
 2054TIP3   OH2 6104   1.043   1.823   2.643
 2054TIP3    H1 6105   0.965   1.835   2.588
 2054TIP3    H2 6106   1.081   1.740   2.613
 2055TIP3   OH2 6107   2.443   5.609   3.808
 2055TIP3    H1 6108   2.493   5.532   3.784
 2055TIP3    H2 6109   2.499   5.683   3.786
 2056TIP3   OH2 6110   0.904   3.644   6.485
 2056TIP3    H1 6111   0.896   3.549   6.475
 2056TIP3    H2 6112   0.995   3.658   6.511
 2057TIP3   OH2 6113   6.303   2.719   3.898
 2057TIP3    H1 6114   6.244   2.650   3.926
 2057TIP3    H2 6115   6.247   2.779   3.848
 2058TIP3   OH2 6116   0.273   5.812   0.132
 2058TIP3    H1 6117   0.225   5.892   0.114
 2058TIP3    H2 6118   0.212   5.757   0.182
 2059TIP3   OH2 6119   6.412   7.634   0.315
 2059TIP3    H1 6120   6.436   7.663   0.227
 2059TIP3    H2 6121   6.476   7.675   0.373
 2060TIP3   OH2 6122   0.052   2.825   0.485
 2060TIP3    H1 6123   0.095   2.907   0.461
 2060TIP3    H2 6124  -0.027   2.852   0.533
 2061TIP3   OH2 6125   3.620   1.093   5.870
 2061TIP3    H1 6126   3.693   1.142   5.834
 2061TIP3    H2 6127   3.552   1.097   5.803
 2062TIP3   OH2 6128   3.242   7.483   5.556
 2062TIP3    H1 6129   3.178   7.485   5.485
 2062TIP3    H2 6130   3.255   7.390   5.575
 2063TIP3   OH2 6131   6.067   3.730   0.397
 2063TIP3    H1 6132   6.016   3.811   0.391
 2063TIP3    H2 6133   6.026   3.670   0.336
 2064TIP3   OH2 6134   7.280   4.609   4.255
 2064TIP3    H1 6135   7.274   4.602   4.350
 2064TIP3    H2 6136   7.368   4.579   4.234
 2065TIP3   OH2 6137   0.468   4.380   2.215
 2065TIP3    H1 6138   0.445   4.325   2.140
 2065TIP3    H2 6139   0.393   4.375   2.273
 2066TIP3   OH2 6140   2.411   0.738   3.116
 2066TIP3    H1 6141   2.326   0.711   3.082
 2066TIP3    H2 6142   2.434   0.815   3.063
 2067TIP3   OH2 6143   1.989   2.226   4.883
 2067TIP3    H1 6144   2.041   2.154   4.919
 2067TIP3    H2 6145   1.946   2.264   4.959
 2068TIP3   OH2 6146   0.848   3.750   3.469
 2068TIP3    H1 6147   0.788   3.779   3.538
 2068TIP3    H2 6148   0.933   3.745   3.512
 2069TIP3   OH2 6149   5.259   4.577   2.222
 2069TIP3    H1 6150   5.272   4.504   2.161
 2069TIP3    H2 6151   5.300   4.652   2.178
 2070TIP3   OH2 6152   3.672   3.308   5.195
 2070TIP3    H1 6153   3.730   3.236   5.168
 2070TIP3    H2 6154   3.721   3.387   5.174
 2071TIP3   OH2 6155   7.148   6.721   0.588
 2071TIP3    H1 6156   7.222   6.660   0.581
 2071TIP3    H2 6157   7.074   6.666   0.615
 2072TIP3   OH2 6158   7.795   4.274   5.454
 2072TIP3    H1 6159   7.789   4.352   5.509
 2072TIP3    H2 6160   7.830   4.207   5.512
 2073TIP3   OH2 6161   1.227   6.712   6.736
 2073TIP3    H1 6162   1.296   6.710   6.802
 2073TIP3    H2 6163   1.265   6.760   6.662
 2074TIP3   OH2 6164   2.136   5.376   1.329
 2074TIP3    H1 6165   2.076   5.308   1.299
 2074TIP3    H2 6166   2.126   5.377   1.424
 2075TIP3   OH2 6167   7.636   0.190   4.089
 2075TIP3    H1 6168   7.608   0.213   4.177
 2075TIP3    H2 6169   7.688   0.110   4.101
 2076TIP3   OH2 6170   7.901   4.772   3.758
 2076TIP3    H1 6171   7.971   4.755   3.822
 2076TIP3    H2 6172   7.936   4.739   3.675
 2077TIP3   OH2 6173   5.369   2.132   1.358
 2077TIP3    H1 6174   5.449   2.080   1.364
 2077TIP3    H2 6175   5.373   2.190   1.434
 2078TIP3   OH2 6176   0.821   2.364   5.256
 2078TIP3    H1 6177   0.830   2.316   5.173
 2078TIP3    H2 6178   0.880   2.319   5.316
 2079TIP3   OH2 6179   6.072   3.870   2.135
 2079TIP3    H1 6180   5.986   3.833   2.112
 2079TIP3    H2 6181   6.096   3.922   2.059
 2080TIP3   OH2 6182   6.956   4.032   2.949
 2080TIP3    H1 6183   6.891   3.987   3.004
 2080TIP3    H2 6184   6.921   4.121   2.939
 2081TIP3   OH2 6185   5.098   1.051   1.281
 2081TIP3    H1 6186   5.066   1.038   1.370
 2081TIP3    H2 6187   5.060   1.136   1.255
 2082TIP3   OH2 6188   5.722   5.965   0.197
 2082TIP3    H1 6189   5.638   6.010   0.210
 2082TIP3    H2 6190   5.785   6.020   0.243
 2083TIP3   OH2 6191   3.800   3.166   4.014
 2083TIP3    H1 6192   3.714   3.181   4.054
 2083TIP3    H2 6193   3.827   3.253   3.983
 2084TIP3   OH2 6194   6.920   2.863   3.245
 2084TIP3    H1 6195   6.927   2.942   3.192
 2084TIP3    H2 6196   6.828   2.837   3.236
 2085TIP3   OH2 6197   5.705   2.096   6.398
 2085TIP3    H1 6198   5.684   2.043   6.474
 2085TIP3    H2 6199   5.709   2.186   6.432
 2086TIP3   OH2 6200   5.281   4.670   0.679
 2086TIP3    H1 6201   5.244   4.664   0.768
 2086TIP3    H2 6202   5.374   4.687   0.693
 2087TIP3   OH2 6203   5.025   4.343   4.276
 2087TIP3    H1 6204   5.094   4.279   4.295
 2087TIP3    H2 6205   4.996   4.372   4.362
 2088TIP3   OH2 6206   4.145   7.828   6.681
 2088TIP3    H1 6207   4.154   7.883   6.759
 2088TIP3    H2 6208   4.153   7.739   6.714
 2089TIP3   OH2 6209   5.776   6.464   3.395
 2089TIP3    H1 6210   5.799   6.502   3.479
 2089TIP3    H2 6211   5.757   6.540   3.339
 2090TIP3   OH2 6212   6.938   7.275   3.002
 2090TIP3    H1 6213   7.026   7.240   2.996
 2090TIP3    H2 6214   6.944   7.362   2.961
 2091TIP3   OH2 6215   3.337   6.960   2.000
 2091TIP3    H1 6216   3.304   7.049   1.985
 2091TIP3    H2 6217   3.266   6.903   1.971
 2092TIP3   OH2 6218   7.664   3.464   3.938
 2092TIP3    H1 6219   7.756   3.492   3.935
 2092TIP3    H2 6220   7.616   3.536   3.896
 2093TIP3   OH2 6221   6.016   5.855   3.223
 2093TIP3    H1 6222   5.955   5.798   3.269
 2093TIP3    H2 6223   6.096   5.803   3.215
 2094TIP3   OH2 6224   1.889   7.623   1.670
 2094TIP3    H1 6225   1.937   7.705   1.685
 2094TIP3    H2 6226   1.814   7.629   1.729
 2095TIP3   OH2 6227   1.310   3.924   6.109
 2095TIP3    H1 6228   1.260   3.843   6.097
 2095TIP3    H2 6229   1.306   3.940   6.204
 2096TIP3   OH2 6230   1.268   1.168   0.928
 2096TIP3    H1 6231   1.192   1.110   0.927
 2096TIP3    H2 6232   1.233   1.254   0.908
 2097TIP3   OH2 6233   3.785   5.559   5.870
 2097TIP3    H1 6234   3.783   5.510   5.788
 2097TIP3    H2 6235   3.713   5.622   5.862
 2098TIP3   OH2 6236   1.198   0.461   4.119
 2098TIP3    H1 6237   1.290   0.486   4.127
 2098TIP3    H2 6238   1.194   0.411   4.038
 2099TIP3   OH2 6239   6.346   1.003   3.492
 2099TIP3    H1 6240   6.283   0.956   3.546
 2099TIP3    H2 6241   6.399   0.934   3.452
 2100TIP3   OH2 6242   0.503   3.126   3.574
 2100TIP3    H1 6243   0.552   3.130   3.656
 2100TIP3    H2 6244   0.436   3.194   3.583
 2101TIP3   OH2 6245   3.481   5.315   6.576
 2101TIP3    H1 6246   3.446   5.228   6.596
 2101TIP3    H2 6247   3.404   5.370   6.566
 2102TIP3   OH2 6248   7.715   6.933   2.640
 2102TIP3    H1 6249   7.705   6.843   2.611
 2102TIP3    H2 6250   7.769   6.974   2.573
 2103TIP3   OH2 6251   3.051   0.360   2.452
 2103TIP3    H1 6252   3.128   0.393   2.500
 2103TIP3    H2 6253   3.064   0.265   2.449
 2104TIP3   OH2 6254   2.161   4.994   1.199
 2104TIP3    H1 6255   2.238   4.991   1.256
 2104TIP3    H2 6256   2.182   5.062   1.135
 2105TIP3   OH2 6257   7.040   1.317   6.323
 2105TIP3    H1 6258   6.973   1.249   6.325
 2105TIP3    H2 6259   7.013   1.379   6.390
 2106TIP3   OH2 6260   1.826   1.376   1.821
 2106TIP3    H1 6261   1.872   1.338   1.896
 2106TIP3    H2 6262   1.895   1.404   1.762
 2107TIP3   OH2 6263   4.322   2.656   2.552
 2107TIP3    H1 6264   4.407   2.626   2.583
 2107TIP3    H2 6265   4.326   2.643   2.457
 2108TIP3   OH2 6266   2.715   2.956   4.326
 2108TIP3    H1 6267   2.784   2.895   4.354
 2108TIP3    H2 6268   2.637   2.927   4.373
 2109TIP3   OH2 6269   1.809   4.239   1.648
 2109TIP3    H1 6270   1.878   4.174   1.660
 2109TIP3    H2 6271   1.759   4.207   1.573
 2110TIP3   OH2 6272   3.802   2.357   3.470
 2110TIP3    H1 6273   3.880   2.346   3.523
 2110TIP3    H2 6274   3.818   2.437   3.420
 2111TIP3   OH2 6275   6.120   7.627   0.316
 2111TIP3    H1 6276   6.098   7.541   0.280
 2111TIP3    H2 6277   6.212   7.640   0.291
 2112TIP3   OH2 6278   4.949   1.276   1.948
 2112TIP3    H1 6279   5.041   1.301   1.946
 2112TIP3    H2 6280   4.903   1.355   1.978
 2113TIP3   OH2 6281   6.791   1.019   0.889
 2113TIP3    H1 6282   6.738   0.941   0.907
 2113TIP3    H2 6283   6.874   0.984   0.856
 2114TIP3   OH2 6284   0.109   0.024   3.169
 2114TIP3    H1 6285   0.082   0.079   3.243
 2114TIP3    H2 6286   0.034  -0.032   3.151
 2115TIP3   OH2 6287   5.059   2.078   0.562
 2115TIP3    H1 6288   5.145   2.038   0.555
 2115TIP3    H2 6289   5.076   2.172   0.559
 2116TIP3   OH2 6290   5.882   4.672   5.799
 2116TIP3    H1 6291   5.810   4.621   5.836
 2116TIP3    H2 6292   5.906   4.734   5.869
 2117TIP3   OH2 6293   3.601   5.415   5.166
 2117TIP3    H1 6294   3.692   5.445   5.166
 2117TIP3    H2 6295   3.582   5.396   5.258
 2118TIP3   OH2 6296   5.169   2.395   5.177
 2118TIP3    H1 6297   5.234   2.379   5.246
 2118TIP3    H2 6298   5.185   2.328   5.112
 2119TIP3   OH2 6299   0.146   2.700   1.512
 2119TIP3    H1 6300   0.218   2.651   1.473
 2119TIP3    H2 6301   0.150   2.786   1.471
 2120TIP3   OH2 6302   1.701   6.652   3.964
 2120TIP3    H1 6303   1.783   6.616   3.930
 2120TIP3    H2 6304   1.670   6.711   3.895
 2121TIP3   OH2 6305   5.603   2.813   5.196
 2121TIP3    H1 6306   5.588   2.724   5.163
 2121TIP3    H2 6307   5.588   2.807   5.290
 2122TIP3   OH2 6308   7.072   1.463   4.429
 2122TIP3    H1 6309   7.000   1.411   4.393
 2122TIP3    H2 6310   7.146   1.402   4.432
 2123TIP3   OH2 6311   3.859   1.114   5.047
 2123TIP3    H1 6312   3.818   1.052   5.108
 2123TIP3    H2 6313   3.929   1.155   5.099
 2124TIP3   OH2 6314   1.725   3.810   0.675
 2124TIP3    H1 6315   1.642   3.858   0.674
 2124TIP3    H2 6316   1.701   3.719   0.656
 2125TIP3   OH2 6317   6.636   7.552   2.460
 2125TIP3    H1 6318   6.604   7.574   2.547
 2125TIP3    H2 6319   6.659   7.459   2.466
 2126TIP3   OH2 6320   1.599   2.316   2.305
 2126TIP3    H1 6321   1.640   2.359   2.379
 2126TIP3    H2 6322   1.634   2.226   2.307
 2127TIP3   OH2 6323   0.493   7.183   6.700
 2127TIP3    H1 6324   0.557   7.121   6.666
 2127TIP3    H2 6325   0.511   7.265   6.653
 2128TIP3   OH2 6326   3.615   2.661   2.614
 2128TIP3    H1 6327   3.678   2.733   2.611
 2128TIP3    H2 6328   3.663   2.589   2.654
 2129TIP3   OH2 6329   2.261   0.199   5.256
 2129TIP3    H1 6330   2.265   0.295   5.253
 2129TIP3    H2 6331   2.219   0.180   5.340
 2130TIP3   OH2 6332   5.101   6.307   4.213
 2130TIP3    H1 6333   5.188   6.327   4.179
 2130TIP3    H2 6334   5.099   6.211   4.217
 2131TIP3   OH2 6335   4.559   2.255   2.284
 2131TIP3    H1 6336   4.500   2.187   2.315
 2131TIP3    H2 6337   4.530   2.274   2.195
 2132TIP3   OH2 6338   5.834   3.354   3.447
 2132TIP3    H1 6339   5.899   3.378   3.513
 2132TIP3    H2 6340   5.886   3.338   3.368
 2133TIP3   OH2 6341   8.131   2.263   0.652
 2133TIP3    H1 6342   8.221   2.241   0.679
 2133TIP3    H2 6343   8.099   2.321   0.721
 2134TIP3   OH2 6344   6.528   4.398   1.006
 2134TIP3    H1 6345   6.465   4.466   1.027
 2134TIP3    H2 6346   6.604   4.417   1.061
 2135TIP3   OH2 6347   7.548   2.950   0.641
 2135TIP3    H1 6348   7.474   2.949   0.581
 2135TIP3    H2 6349   7.625   2.944   0.585
 2136TIP3   OH2 6350   5.966   1.091   2.495
 2136TIP3    H1 6351   5.886   1.055   2.534
 2136TIP3    H2 6352   6.031   1.085   2.565
 2137TIP3   OH2 6353   1.018   1.290   1.839
 2137TIP3    H1 6354   1.083   1.227   1.870
 2137TIP3    H2 6355   0.971   1.243   1.770
 2138TIP3   OH2 6356   0.840   2.893   0.951
 2138TIP3    H1 6357   0.780   2.853   0.888
 2138TIP3    H2 6358   0.798   2.975   0.976
 2139TIP3   OH2 6359   0.516   2.189   4.616
 2139TIP3    H1 6360   0.521   2.125   4.544
 2139TIP3    H2 6361   0.513   2.274   4.572
 2140TIP3   OH2 6362   0.263   7.153   1.088
 2140TIP3    H1 6363   0.352   7.118   1.078
 2140TIP3    H2 6364   0.276   7.241   1.122
 2141TIP3   OH2 6365   1.455   5.950   6.309
 2141TIP3    H1 6366   1.454   6.003   6.388
 2141TIP3    H2 6367   1.442   5.860   6.341
 2142TIP3   OH2 6368   2.341   2.574   5.902
 2142TIP3    H1 6369   2.310   2.570   5.993
 2142TIP3    H2 6370   2.273   2.621   5.855
 2143TIP3   OH2 6371   2.582   4.294   1.760
 2143TIP3    H1 6372   2.491   4.286   1.729
 2143TIP3    H2 6373   2.593   4.388   1.774
 2144TIP3   OH2 6374   0.333   3.847   0.488
 2144TIP3    H1 6375   0.332   3.776   0.553
 2144TIP3    H2 6376   0.410   3.898   0.510
 2145TIP3   OH2 6377   7.828   5.640   1.038
 2145TIP3    H1 6378   7.890   5.676   0.975
 2145TIP3    H2 6379   7.750   5.619   0.988
 2146TIP3   OH2 6380   3.325   5.355   3.739
 2146TIP3    H1 6381   3.361   5.330   3.825
 2146TIP3    H2 6382   3.379   5.429   3.712
 2147TIP3   OH2 6383   5.676   2.034   4.903
 2147TIP3    H1 6384   5.685   1.953   4.954
 2147TIP3    H2 6385   5.587   2.030   4.868
 2148TIP3   OH2 6386   5.009   6.480   1.270
 2148TIP3    H1 6387   5.099   6.504   1.245
 2148TIP3    H2 6388   4.958   6.493   1.190
 2149TIP3   OH2 6389   5.328   4.204   4.580
 2149TIP3    H1 6390   5.383   4.252   4.518
 2149TIP3    H2 6391   5.304   4.124   4.533
 2150TIP3   OH2 6392   3.913   3.813   1.934
 2150TIP3    H1 6393   3.848   3.792   2.001
 2150TIP3    H2 6394   3.965   3.883   1.973
 2151TIP3   OH2 6395   5.094   6.419   5.278
 2151TIP3    H1 6396   5.180   6.379   5.269
 2151TIP3    H2 6397   5.090   6.449   5.368
 2152TIP3   OH2 6398   0.606   6.279   2.538
 2152TIP3    H1 6399   0.670   6.240   2.596
 2152TIP3    H2 6400   0.657   6.337   2.481
 2153TIP3   OH2 6401   7.249   2.254   1.019
 2153TIP3    H1 6402   7.306   2.218   1.088
 2153TIP3    H2 6403   7.257   2.349   1.029
 2154TIP3   OH2 6404   7.456   6.588   3.996
 2154TIP3    H1 6405   7.534   6.634   4.028
 2154TIP3    H2 6406   7.415   6.648   3.935
 2155TIP3   OH2 6407   3.520   7.711   1.541
 2155TIP3    H1 6408   3.550   7.675   1.625
 2155TIP3    H2 6409   3.450   7.652   1.514
 2156TIP3   OH2 6410   8.019   4.091   6.676
 2156TIP3    H1 6411   8.032   4.182   6.703
 2156TIP3    H2 6412   7.967   4.097   6.596
 2157TIP3   OH2 6413   6.287   5.130   6.074
 2157TIP3    H1 6414   6.193   5.140   6.084
 2157TIP3    H2 6415   6.308   5.176   5.992
 2158TIP3   OH2 6416   7.959   5.753   6.710
 2158TIP3    H1 6417   8.022   5.823   6.692
 2158TIP3    H2 6418   7.930   5.770   6.800
 2159TIP3   OH2 6419   7.809   0.425   3.162
 2159TIP3    H1 6420   7.720   0.436   3.127
 2159TIP3    H2 6421   7.809   0.337   3.200
 2160TIP3   OH2 6422   5.400   1.916   3.546
 2160TIP3    H1 6423   5.383   1.849   3.480
 2160TIP3    H2 6424   5.479   1.961   3.516
 2161TIP3   OH2 6425   2.572   5.362   3.786
 2161TIP3    H1 6426   2.644   5.380   3.847
 2161TIP3    H2 6427   2.608   5.299   3.724
 2162TIP3   OH2 6428   1.839   3.045   5.810
 2162TIP3    H1 6429   1.744   3.050   5.822
 2162TIP3    H2 6430   1.864   2.964   5.855
 2163TIP3   OH2 6431   5.446   5.797   4.170
 2163TIP3    H1 6432   5.485   5.749   4.096
 2163TIP3    H2 6433   5.460   5.889   4.149
 2164TIP3   OH2 6434   7.439   2.676   0.301
 2164TIP3    H1 6435   7.416   2.768   0.314
 2164TIP3    H2 6436   7.376   2.645   0.236
 2165TIP3   OH2 6437   0.955   1.859   5.726
 2165TIP3    H1 6438   0.923   1.843   5.637
 2165TIP3    H2 6439   1.049   1.844   5.720
 2166TIP3   OH2 6440   4.215   7.426   3.319
 2166TIP3    H1 6441   4.168   7.476   3.386
 2166TIP3    H2 6442   4.263   7.360   3.368
 2167TIP3   OH2 6443   8.157   3.106   3.578
 2167TIP3    H1 6444   8.154   3.195   3.543
 2167TIP3    H2 6445   8.100   3.109   3.655
 2168TIP3   OH2 6446   8.150   7.429   3.388
 2168TIP3    H1 6447   8.128   7.520   3.367
 2168TIP3    H2 6448   8.235   7.435   3.433
 2169TIP3   OH2 6449   0.077   4.224   2.137
 2169TIP3    H1 6450   0.155   4.266   2.174
 2169TIP3    H2 6451   0.004   4.256   2.190
 2170TIP3   OH2 6452   6.922   7.577   1.939
 2170TIP3    H1 6453   6.867   7.523   1.996
 2170TIP3    H2 6454   6.993   7.518   1.912
 2171TIP3   OH2 6455   5.829   5.501   1.012
 2171TIP3    H1 6456   5.759   5.561   0.987
 2171TIP3    H2 6457   5.909   5.555   1.006
 2172TIP3   OH2 6458   1.501   0.150   3.430
 2172TIP3    H1 6459   1.547   0.141   3.347
 2172TIP3    H2 6460   1.487   0.244   3.440
 2173TIP3   OH2 6461   4.695   2.350   0.096
 2173TIP3    H1 6462   4.688   2.396   0.180
 2173TIP3    H2 6463   4.786   2.363   0.070
 2174TIP3   OH2 6464   1.153   2.035   5.282
 2174TIP3    H1 6465   1.166   2.071   5.194
 2174TIP3    H2 6466   1.233   1.984   5.299
 2175TIP3   OH2 6467   1.083   2.640   3.128
 2175TIP3    H1 6468   1.107   2.730   3.108
 2175TIP3    H2 6469   1.104   2.591   3.049
 2176TIP3   OH2 6470   0.880   6.720   0.832
 2176TIP3    H1 6471   0.804   6.777   0.822
 2176TIP3    H2 6472   0.871   6.655   0.763
 2177TIP3   OH2 6473   4.217   0.022   0.392
 2177TIP3    H1 6474   4.185  -0.050   0.338
 2177TIP3    H2 6475   4.230   0.095   0.331
 2178TIP3   OH2 6476   6.255   5.686   6.304
 2178TIP3    H1 6477   6.291   5.695   6.216
 2178TIP3    H2 6478   6.187   5.620   6.296
 2179TIP3   OH2 6479   5.845   3.105   1.421
 2179TIP3    H1 6480   5.940   3.095   1.426
 2179TIP3    H2 6481   5.825   3.173   1.485
 2180TIP3   OH2 6482   5.454   3.474   0.124
 2180TIP3    H1 6483   5.432   3.532   0.197
 2180TIP3    H2 6484   5.370   3.441   0.093
 2181TIP3   OH2 6485   5.841   0.456   1.184
 2181TIP3    H1 6486   5.789   0.473   1.262
 2181TIP3    H2 6487   5.861   0.543   1.149
 2182TIP3   OH2 6488   6.831   6.572   1.014
 2182TIP3    H1 6489   6.781   6.528   1.084
 2182TIP3    H2 6490   6.798   6.532   0.933
 2183TIP3   OH2 6491   1.794   5.016   3.050
 2183TIP3    H1 6492   1.739   5.021   3.128
 2183TIP3    H2 6493   1.802   5.106   3.020
 2184TIP3   OH2 6494   7.435   4.360   0.265
 2184TIP3    H1 6495   7.478   4.419   0.203
 2184TIP3    H2 6496   7.485   4.370   0.346
 2185TIP3   OH2 6497   2.357   0.753   5.468
 2185TIP3    H1 6498   2.378   0.782   5.557
 2185TIP3    H2 6499   2.364   0.833   5.415
 2186TIP3   OH2 6500   4.965   5.303   6.349
 2186TIP3    H1 6501   4.980   5.330   6.440
 2186TIP3    H2 6502   5.009   5.368   6.296
 2187TIP3   OH2 6503   7.659   5.716   0.070
 2187TIP3    H1 6504   7.701   5.638   0.106
 2187TIP3    H2 6505   7.652   5.776   0.145
 2188TIP3   OH2 6506   1.664   2.718   4.013
 2188TIP3    H1 6507   1.653   2.677   3.927
 2188TIP3    H2 6508   1.673   2.812   3.994
 2189TIP3   OH2 6509   8.279   5.985   6.522
 2189TIP3    H1 6510   8.311   6.063   6.566
 2189TIP3    H2 6511   8.184   5.999   6.515
 2190TIP3   OH2 6512   2.355   5.630   0.400
 2190TIP3    H1 6513   2.344   5.585   0.484
 2190TIP3    H2 6514   2.450   5.632   0.387
 2191TIP3   OH2 6515   7.063   6.391   2.876
 2191TIP3    H1 6516   7.043   6.484   2.863
 2191TIP3    H2 6517   7.147   6.390   2.923
 2192TIP3   OH2 6518   7.040   3.423   0.226
 2192TIP3    H1 6519   7.074   3.368   0.156
 2192TIP3    H2 6520   7.117   3.464   0.264
 2193TIP3   OH2 6521   3.740   6.581   3.802
 2193TIP3    H1 6522   3.771   6.509   3.749
 2193TIP3    H2 6523   3.670   6.543   3.857
 2194TIP3   OH2 6524   0.626   3.369   4.304
 2194TIP3    H1 6525   0.542   3.325   4.314
 2194TIP3    H2 6526   0.691   3.300   4.314
 2195TIP3   OH2 6527   7.632   0.964   2.673
 2195TIP3    H1 6528   7.544   0.938   2.702
 2195TIP3    H2 6529   7.656   0.898   2.608
 2196TIP3   OH2 6530   4.901   7.374   1.547
 2196TIP3    H1 6531   4.855   7.348   1.627
 2196TIP3    H2 6532   4.842   7.351   1.476
 2197TIP3   OH2 6533   7.372   2.329   3.283
 2197TIP3    H1 6534   7.288   2.376   3.280
 2197TIP3    H2 6535   7.365   2.263   3.213
 2198TIP3   OH2 6536   1.199   5.121   2.392
 2198TIP3    H1 6537   1.106   5.120   2.370
 2198TIP3    H2 6538   1.202   5.103   2.486
 2199TIP3   OH2 6539   2.207   2.084   3.098
 2199TIP3    H1 6540   2.284   2.032   3.117
 2199TIP3    H2 6541   2.233   2.174   3.115
 2200TIP3   OH2 6542   7.697   4.506   2.581
 2200TIP3    H1 6543   7.741   4.576   2.630
 2200TIP3    H2 6544   7.606   4.508   2.612
 2201TIP3   OH2 6545   7.103   5.159   2.001
 2201TIP3    H1 6546   7.109   5.166   2.097
 2201TIP3    H2 6547   7.057   5.077   1.986
 2202TIP3   OH2 6548   7.965   0.220   4.069
 2202TIP3    H1 6549   8.055   0.225   4.100
 2202TIP3    H2 6550   7.951   0.304   4.025
 2203TIP3   OH2 6551   4.577   7.112   3.240
 2203TIP3    H1 6552   4.634   7.037   3.258
 2203TIP3    H2 6553   4.526   7.123   3.319
 2204TIP3   OH2 6554   2.509   0.218   0.868
 2204TIP3    H1 6555   2.427   0.224   0.917
 2204TIP3    H2 6556   2.516   0.126   0.844
 2205TIP3   OH2 6557   7.381   4.499   6.674
 2205TIP3    H1 6558   7.460   4.445   6.664
 2205TIP3    H2 6559   7.357   4.524   6.585
 2206TIP3   OH2 6560   0.648   2.856   6.677
 2206TIP3    H1 6561   0.658   2.951   6.665
 2206TIP3    H2 6562   0.578   2.848   6.742
 2207TIP3   OH2 6563   7.746   5.222   0.208
 2207TIP3    H1 6564   7.728   5.201   0.300
 2207TIP3    H2 6565   7.797   5.303   0.212
 2208TIP3   OH2 6566   3.439   0.088   3.510
 2208TIP3    H1 6567   3.496   0.132   3.572
 2208TIP3    H2 6568   3.462  -0.005   3.517
 2209TIP3   OH2 6569   3.079   7.359   4.307
 2209TIP3    H1 6570   3.170   7.332   4.291
 2209TIP3    H2 6571   3.041   7.370   4.220
 2210TIP3   OH2 6572   7.289   5.480   5.099
 2210TIP3    H1 6573   7.232   5.514   5.168
 2210TIP3    H2 6574   7.378   5.491   5.133
 2211TIP3   OH2 6575   7.350   4.488   5.659
 2211TIP3    H1 6576   7.363   4.453   5.747
 2211TIP3    H2 6577   7.423   4.548   5.647
 2212TIP3   OH2 6578   7.197   1.339   1.118
 2212TIP3    H1 6579   7.212   1.337   1.024
 2212TIP3    H2 6580   7.228   1.425   1.146
 2213TIP3   OH2 6581   3.266   0.311   1.008
 2213TIP3    H1 6582   3.228   0.246   0.949
 2213TIP3    H2 6583   3.305   0.377   0.950
 2214TIP3   OH2 6584   2.319   5.585   0.131
 2214TIP3    H1 6585   2.338   5.598   0.224
 2214TIP3    H2 6586   2.404   5.593   0.088
 2215TIP3   OH2 6587   7.420   3.019   0.956
 2215TIP3    H1 6588   7.404   3.019   1.050
 2215TIP3    H2 6589   7.365   2.948   0.923
 2216TIP3   OH2 6590   8.225   6.098   4.958
 2216TIP3    H1 6591   8.228   6.089   5.053
 2216TIP3    H2 6592   8.133   6.116   4.939
 2217TIP3   OH2 6593   1.506   7.462   6.616
 2217TIP3    H1 6594   1.581   7.484   6.671
 2217TIP3    H2 6595   1.443   7.532   6.631
 2218TIP3   OH2 6596   1.533   1.795   3.604
 2218TIP3    H1 6597   1.506   1.715   3.559
 2218TIP3    H2 6598   1.529   1.773   3.697
 2219TIP3   OH2 6599   7.894   0.561   0.258
 2219TIP3    H1 6600   7.951   0.553   0.334
 2219TIP3    H2 6601   7.906   0.478   0.211
 2220TIP3   OH2 6602   5.520   7.637   0.114
 2220TIP3    H1 6603   5.546   7.707   0.054
 2220TIP3    H2 6604   5.433   7.610   0.083
 2221TIP3   OH2 6605   5.626   6.414   3.681
 2221TIP3    H1 6606   5.686   6.488   3.681
 2221TIP3    H2 6607   5.561   6.435   3.614
 2222TIP3   OH2 6608   3.239   5.251   3.080
 2222TIP3    H1 6609   3.275   5.167   3.049
 2222TIP3    H2 6610   3.294   5.274   3.155
 2223TIP3   OH2 6611   5.366   1.311   2.835
 2223TIP3    H1 6612   5.363   1.216   2.846
 2223TIP3    H2 6613   5.450   1.328   2.792
 2224TIP3   OH2 6614   7.885   3.004   5.174
 2224TIP3    H1 6615   7.931   2.998   5.258
 2224TIP3    H2 6616   7.954   3.001   5.108
 2225TIP3   OH2 6617   2.241   1.594   5.862
 2225TIP3    H1 6618   2.266   1.557   5.946
 2225TIP3    H2 6619   2.148   1.570   5.852
 2226TIP3   OH2 6620   6.927   7.378   6.422
 2226TIP3    H1 6621   6.926   7.309   6.488
 2226TIP3    H2 6622   6.838   7.377   6.386
 2227TIP3   OH2 6623   1.402   0.082   1.266
 2227TIP3    H1 6624   1.481   0.136   1.271
 2227TIP3    H2 6625   1.330   0.145   1.272
 2228TIP3   OH2 6626   3.034   4.754   0.766
 2228TIP3    H1 6627   3.061   4.808   0.840
 2228TIP3    H2 6628   3.106   4.764   0.703
 2229TIP3   OH2 6629   7.239   3.435   1.402
 2229TIP3    H1 6630   7.173   3.482   1.453
 2229TIP3    H2 6631   7.280   3.503   1.348
 2230TIP3   OH2 6632   4.793   5.235   3.443
 2230TIP3    H1 6633   4.731   5.173   3.403
 2230TIP3    H2 6634   4.874   5.184   3.453
 2231TIP3   OH2 6635   1.299   0.539   1.035
 2231TIP3    H1 6636   1.314   0.445   1.035
 2231TIP3    H2 6637   1.286   0.562   1.127
 2232TIP3   OH2 6638   2.053   2.301   6.569
 2232TIP3    H1 6639   2.064   2.225   6.626
 2232TIP3    H2 6640   1.977   2.347   6.604
 2233TIP3   OH2 6641   5.384   5.541   3.252
 2233TIP3    H1 6642   5.435   5.623   3.251
 2233TIP3    H2 6643   5.422   5.489   3.181
 2234TIP3   OH2 6644   6.951   1.131   4.053
 2234TIP3    H1 6645   6.864   1.096   4.071
 2234TIP3    H2 6646   6.983   1.080   3.979
 2235TIP3   OH2 6647   1.420   0.725   3.605
 2235TIP3    H1 6648   1.460   0.799   3.559
 2235TIP3    H2 6649   1.352   0.694   3.544
 2236TIP3   OH2 6650   0.185   1.312   4.693
 2236TIP3    H1 6651   0.156   1.251   4.625
 2236TIP3    H2 6652   0.186   1.397   4.650
 2237TIP3   OH2 6653   3.370   7.594   4.441
 2237TIP3    H1 6654   3.335   7.657   4.504
 2237TIP3    H2 6655   3.337   7.509   4.473
 2238TIP3   OH2 6656   6.772   0.567   2.394
 2238TIP3    H1 6657   6.712   0.493   2.389
 2238TIP3    H2 6658   6.776   0.600   2.304
 2239TIP3   OH2 6659   3.499   6.210   3.878
 2239TIP3    H1 6660   3.449   6.135   3.911
 2239TIP3    H2 6661   3.585   6.174   3.856
 2240TIP3   OH2 6662   3.368   1.656   4.067
 2240TIP3    H1 6663   3.335   1.711   3.997
 2240TIP3    H2 6664   3.296   1.650   4.129
 2241TIP3   OH2 6665   8.107   6.052   0.785
 2241TIP3    H1 6666   8.168   6.012   0.847
 2241TIP3    H2 6667   8.132   6.144   0.783
 2242TIP3   OH2 6668   1.806   0.473   2.888
 2242TIP3    H1 6669   1.849   0.400   2.933
 2242TIP3    H2 6670   1.728   0.490   2.941
 2243TIP3   OH2 6671   0.941   6.168   2.509
 2243TIP3    H1 6672   0.892   6.171   2.426
 2243TIP3    H2 6673   0.953   6.259   2.533
 2244TIP3   OH2 6674   5.814   0.076   4.422
 2244TIP3    H1 6675   5.727   0.112   4.435
 2244TIP3    H2 6676   5.801  -0.019   4.420
 2245TIP3   OH2 6677   5.569   2.137   2.057
 2245TIP3    H1 6678   5.624   2.176   2.125
 2245TIP3    H2 6679   5.630   2.121   1.984
 2246TIP3   OH2 6680   0.293   4.703   0.489
 2246TIP3    H1 6681   0.224   4.637   0.479
 2246TIP3    H2 6682   0.273   4.747   0.571
 2247TIP3   OH2 6683   2.151   2.598   2.062
 2247TIP3    H1 6684   2.065   2.610   2.020
 2247TIP3    H2 6685   2.157   2.670   2.125
 2248TIP3   OH2 6686   1.906   1.013   2.018
 2248TIP3    H1 6687   1.976   0.999   1.954
 2248TIP3    H2 6688   1.837   0.953   1.992
 2249TIP3   OH2 6689   3.127   4.852   4.727
 2249TIP3    H1 6690   3.123   4.771   4.675
 2249TIP3    H2 6691   3.125   4.922   4.662
 2250TIP3   OH2 6692   2.123   0.737   0.992
 2250TIP3    H1 6693   2.179   0.785   0.931
 2250TIP3    H2 6694   2.061   0.802   1.025
 2251TIP3   OH2 6695   1.363   2.505   2.624
 2251TIP3    H1 6696   1.358   2.509   2.528
 2251TIP3    H2 6697   1.298   2.440   2.649
 2252TIP3   OH2 6698   2.254   7.709   5.730
 2252TIP3    H1 6699   2.230   7.794   5.693
 2252TIP3    H2 6700   2.199   7.701   5.808
 2253TIP3   OH2 6701   0.866   6.287   5.853
 2253TIP3    H1 6702   0.810   6.301   5.776
 2253TIP3    H2 6703   0.817   6.226   5.908
 2254TIP3   OH2 6704   1.941   6.799   4.830
 2254TIP3    H1 6705   2.018   6.745   4.846
 2254TIP3    H2 6706   1.975   6.888   4.825
 2255TIP3   OH2 6707   3.408   4.611   1.923
 2255TIP3    H1 6708   3.490   4.564   1.939
 2255TIP3    H2 6709   3.351   4.587   1.996
 2256TIP3   OH2 6710   0.478   6.409   6.475
 2256TIP3    H1 6711   0.394   6.416   6.520
 2256TIP3    H2 6712   0.468   6.465   6.398
 2257TIP3   OH2 6713   5.813   2.512   6.286
 2257TIP3    H1 6714   5.738   2.565   6.312
 2257TIP3    H2 6715   5.849   2.557   6.209
 2258TIP3   OH2 6716   3.464   5.580   2.615
 2258TIP3    H1 6717   3.423   5.503   2.655
 2258TIP3    H2 6718   3.493   5.550   2.529
 2259TIP3   OH2 6719   1.359   1.841   4.862
 2259TIP3    H1 6720   1.309   1.901   4.805
 2259TIP3    H2 6721   1.346   1.755   4.822
 2260TIP3   OH2 6722   1.057   5.238   5.117
 2260TIP3    H1 6723   0.994   5.208   5.051
 2260TIP3    H2 6724   1.132   5.269   5.067
 2261TIP3   OH2 6725   4.205   5.260   4.559
 2261TIP3    H1 6726   4.205   5.304   4.474
 2261TIP3    H2 6727   4.114   5.233   4.572
 2262TIP3   OH2 6728   1.185   3.847   6.759
 2262TIP3    H1 6729   1.188   3.770   6.816
 2262TIP3    H2 6730   1.267   3.842   6.709
 2263TIP3   OH2 6731   0.541   0.918   6.390
 2263TIP3    H1 6732   0.604   0.868   6.442
 2263TIP3    H2 6733   0.456   0.884   6.416
 2264TIP3   OH2 6734   3.302   4.646   5.228
 2264TIP3    H1 6735   3.294   4.729   5.275
 2264TIP3    H2 6736   3.298   4.579   5.296
 2265TIP3   OH2 6737   6.639   6.186   1.773
 2265TIP3    H1 6738   6.646   6.219   1.684
 2265TIP3    H2 6739   6.726   6.153   1.794
 2266TIP3   OH2 6740   3.081   5.517   5.959
 2266TIP3    H1 6741   3.032   5.599   5.955
 2266TIP3    H2 6742   3.105   5.500   5.868
 2267TIP3   OH2 6743   6.820   0.376   5.526
 2267TIP3    H1 6744   6.741   0.409   5.484
 2267TIP3    H2 6745   6.883   0.448   5.519
 2268TIP3   OH2 6746   4.771   0.118   3.427
 2268TIP3    H1 6747   4.811   0.203   3.406
 2268TIP3    H2 6748   4.782   0.066   3.348
 2269TIP3   OH2 6749   5.019   0.111   0.973
 2269TIP3    H1 6750   5.005   0.204   0.954
 2269TIP3    H2 6751   5.105   0.091   0.937
 2270TIP3   OH2 6752   3.234   2.838   6.769
 2270TIP3    H1 6753   3.215   2.915   6.716
 2270TIP3    H2 6754   3.314   2.801   6.730
 2271TIP3   OH2 6755   0.047   7.431   4.522
 2271TIP3    H1 6756   0.013   7.511   4.561
 2271TIP3    H2 6757   0.130   7.457   4.482
 2272TIP3   OH2 6758   2.847   6.022   0.458
 2272TIP3    H1 6759   2.826   6.077   0.383
 2272TIP3    H2 6760   2.919   5.967   0.428
 2273TIP3   OH2 6761   3.546   3.253   0.767
 2273TIP3    H1 6762   3.523   3.342   0.739
 2273TIP3    H2 6763   3.468   3.221   0.812
 2274TIP3   OH2 6764   7.423   7.627   5.320
 2274TIP3    H1 6765   7.414   7.707   5.269
 2274TIP3    H2 6766   7.467   7.655   5.400
 2275TIP3   OH2 6767   1.838   3.731   3.338
 2275TIP3    H1 6768   1.801   3.719   3.426
 2275TIP3    H2 6769   1.836   3.644   3.299
 2276TIP3   OH2 6770   2.261   5.901   0.189
 2276TIP3    H1 6771   2.284   5.956   0.114
 2276TIP3    H2 6772   2.204   5.834   0.152
 2277TIP3   OH2 6773   3.326   2.438   0.305
 2277TIP3    H1 6774   3.289   2.441   0.216
 2277TIP3    H2 6775   3.421   2.441   0.291
 2278TIP3   OH2 6776   2.530   4.590   0.858
 2278TIP3    H1 6777   2.624   4.596   0.841
 2278TIP3    H2 6778   2.508   4.674   0.899
 2279TIP3   OH2 6779   5.463   3.538   1.956
 2279TIP3    H1 6780   5.536   3.506   1.904
 2279TIP3    H2 6781   5.447   3.627   1.923
 2280TIP3   OH2 6782   7.378   2.120   0.192
 2280TIP3    H1 6783   7.376   2.024   0.187
 2280TIP3    H2 6784   7.412   2.138   0.279
 2281TIP3   OH2 6785   8.003   7.423   3.773
 2281TIP3    H1 6786   8.010   7.507   3.728
 2281TIP3    H2 6787   8.001   7.358   3.702
 2282TIP3   OH2 6788   1.616   5.650   2.058
 2282TIP3    H1 6789   1.692   5.699   2.088
 2282TIP3    H2 6790   1.644   5.609   1.976
 2283TIP3   OH2 6791   0.919   0.078   5.070
 2283TIP3    H1 6792   0.830   0.096   5.101
 2283TIP3    H2 6793   0.970   0.155   5.094
 2284TIP3   OH2 6794   4.171   1.725   3.368
 2284TIP3    H1 6795   4.169   1.697   3.459
 2284TIP3    H2 6796   4.099   1.678   3.327
 2285TIP3   OH2 6797   6.922   1.611   5.836
 2285TIP3    H1 6798   6.971   1.655   5.905
 2285TIP3    H2 6799   6.960   1.645   5.754
 2286TIP3   OH2 6800   5.675   6.481   0.353
 2286TIP3    H1 6801   5.582   6.462   0.345
 2286TIP3    H2 6802   5.715   6.442   0.276
 2287TIP3   OH2 6803   2.856   1.174   3.103
 2287TIP3    H1 6804   2.847   1.224   3.184
 2287TIP3    H2 6805   2.951   1.166   3.090
 2288TIP3   OH2 6806   6.793   3.073   2.148
 2288TIP3    H1 6807   6.708   3.035   2.170
 2288TIP3    H2 6808   6.771   3.149   2.094
 2289TIP3   OH2 6809   0.778   4.825   6.016
 2289TIP3    H1 6810   0.770   4.765   5.942
 2289TIP3    H2 6811   0.779   4.912   5.976
 2290TIP3   OH2 6812   5.364   2.879   6.377
 2290TIP3    H1 6813   5.290   2.939   6.382
 2290TIP3    H2 6814   5.402   2.879   6.465
 2291TIP3   OH2 6815   5.863   5.216   3.905
 2291TIP3    H1 6816   5.929   5.201   3.836
 2291TIP3    H2 6817   5.908   5.272   3.969
 2292TIP3   OH2 6818   7.578   7.511   4.167
 2292TIP3    H1 6819   7.518   7.554   4.106
 2292TIP3    H2 6820   7.639   7.462   4.111
 2293TIP3   OH2 6821   0.373   0.355   1.563
 2293TIP3    H1 6822   0.402   0.418   1.629
 2293TIP3    H2 6823   0.427   0.374   1.486
 2294TIP3   OH2 6824   8.241   5.160   4.111
 2294TIP3    H1 6825   8.275   5.249   4.104
 2294TIP3    H2 6826   8.252   5.123   4.024
 2295TIP3   OH2 6827   6.439   1.738   4.570
 2295TIP3    H1 6828   6.374   1.688   4.520
 2295TIP3    H2 6829   6.522   1.692   4.555
 2296TIP3   OH2 6830   0.514   1.351   2.961
 2296TIP3    H1 6831   0.556   1.275   3.002
 2296TIP3    H2 6832   0.465   1.315   2.888
 2297TIP3   OH2 6833   5.043   4.711   1.964
 2297TIP3    H1 6834   5.085   4.791   1.933
 2297TIP3    H2 6835   4.970   4.697   1.904
 2298TIP3   OH2 6836   7.651   2.735   6.334
 2298TIP3    H1 6837   7.684   2.730   6.424
 2298TIP3    H2 6838   7.574   2.792   6.340
 2299TIP3   OH2 6839   6.590   4.151   2.516
 2299TIP3    H1 6840   6.559   4.235   2.483
 2299TIP3    H2 6841   6.514   4.114   2.562
 2300TIP3   OH2 6842   2.809   2.854   5.350
 2300TIP3    H1 6843   2.798   2.762   5.375
 2300TIP3    H2 6844   2.903   2.869   5.356
 2301TIP3   OH2 6845   4.147   1.645   6.511
 2301TIP3    H1 6846   4.183   1.586   6.576
 2301TIP3    H2 6847   4.109   1.588   6.444
 2302TIP3   OH2 6848   5.384   7.601   5.984
 2302TIP3    H1 6849   5.418   7.550   6.058
 2302TIP3    H2 6850   5.462   7.633   5.939
 2303TIP3   OH2 6851   3.020   1.855   2.198
 2303TIP3    H1 6852   2.927   1.849   2.219
 2303TIP3    H2 6853   3.032   1.795   2.125
 2304TIP3   OH2 6854   6.305   7.677   3.941
 2304TIP3    H1 6855   6.222   7.724   3.942
 2304TIP3    H2 6856   6.356   7.720   3.872
 2305TIP3   OH2 6857   0.473   7.244   4.448
 2305TIP3    H1 6858   0.564   7.263   4.425
 2305TIP3    H2 6859   0.435   7.208   4.368
 2306TIP3   OH2 6860   7.044   7.588   0.280
 2306TIP3    H1 6861   6.952   7.583   0.305
 2306TIP3    H2 6862   7.077   7.666   0.324
 2307TIP3   OH2 6863   7.402   6.231   0.474
 2307TIP3    H1 6864   7.472   6.171   0.501
 2307TIP3    H2 6865   7.434   6.271   0.393
 2308TIP3   OH2 6866   6.382   5.001   1.703
 2308TIP3    H1 6867   6.473   4.987   1.676
 2308TIP3    H2 6868   6.367   4.934   1.770
 2309TIP3   OH2 6869   6.307   6.494   4.831
 2309TIP3    H1 6870   6.329   6.563   4.769
 2309TIP3    H2 6871   6.381   6.433   4.826
 2310TIP3   OH2 6872   0.660   2.982   2.952
 2310TIP3    H1 6873   0.597   3.003   2.882
 2310TIP3    H2 6874   0.613   2.922   3.010
 2311TIP3   OH2 6875   1.680   2.544   0.793
 2311TIP3    H1 6876   1.762   2.564   0.748
 2311TIP3    H2 6877   1.631   2.626   0.793
 2312TIP3   OH2 6878   5.089   7.233   1.272
 2312TIP3    H1 6879   5.148   7.241   1.347
 2312TIP3    H2 6880   5.020   7.174   1.301
 2313TIP3   OH2 6881   4.553   3.790   5.040
 2313TIP3    H1 6882   4.546   3.836   5.124
 2313TIP3    H2 6883   4.620   3.839   4.992
 2314TIP3   OH2 6884   1.580   4.747   3.847
 2314TIP3    H1 6885   1.597   4.826   3.899
 2314TIP3    H2 6886   1.503   4.770   3.794
 2315TIP3   OH2 6887   1.859   3.049   0.866
 2315TIP3    H1 6888   1.902   3.042   0.781
 2315TIP3    H2 6889   1.819   2.963   0.880
 2316TIP3   OH2 6890   7.816   6.036   2.452
 2316TIP3    H1 6891   7.787   5.952   2.487
 2316TIP3    H2 6892   7.740   6.070   2.405
 2317TIP3   OH2 6893   4.959   5.970   5.644
 2317TIP3    H1 6894   5.024   5.902   5.665
 2317TIP3    H2 6895   4.874   5.926   5.655
 2318TIP3   OH2 6896   3.622   3.994   2.134
 2318TIP3    H1 6897   3.561   3.977   2.061
 2318TIP3    H2 6898   3.661   3.908   2.152
 2319TIP3   OH2 6899   2.834   0.225   6.505
 2319TIP3    H1 6900   2.896   0.172   6.454
 2319TIP3    H2 6901   2.757   0.232   6.448
 2320TIP3   OH2 6902   0.046   5.396   5.882
 2320TIP3    H1 6903   0.010   5.454   5.815
 2320TIP3    H2 6904   0.007   5.425   5.964
 2321TIP3   OH2 6905   7.139   6.319   6.003
 2321TIP3    H1 6906   7.169   6.236   6.040
 2321TIP3    H2 6907   7.066   6.345   6.058
 2322TIP3   OH2 6908   1.209   3.152   0.047
 2322TIP3    H1 6909   1.229   3.059   0.036
 2322TIP3    H2 6910   1.113   3.155   0.048
 2323TIP3   OH2 6911   5.146   1.335   5.942
 2323TIP3    H1 6912   5.071   1.366   5.993
 2323TIP3    H2 6913   5.205   1.298   6.007
 2324TIP3   OH2 6914   3.396   6.320   3.004
 2324TIP3    H1 6915   3.419   6.293   2.916
 2324TIP3    H2 6916   3.323   6.264   3.029
 2325TIP3   OH2 6917   3.425   0.948   3.208
 2325TIP3    H1 6918   3.487   1.020   3.197
 2325TIP3    H2 6919   3.429   0.926   3.301
 2326TIP3   OH2 6920   7.128   6.170   3.886
 2326TIP3    H1 6921   7.164   6.259   3.893
 2326TIP3    H2 6922   7.204   6.115   3.865
 2327TIP3   OH2 6923   5.135   1.696   0.781
 2327TIP3    H1 6924   5.059   1.664   0.733
 2327TIP3    H2 6925   5.108   1.780   0.816
 2328TIP3   OH2 6926   2.147   1.155   3.976
 2328TIP3    H1 6927   2.197   1.188   4.050
 2328TIP3    H2 6928   2.056   1.178   3.996
 2329TIP3   OH2 6929   7.923   5.806   0.471
 2329TIP3    H1 6930   7.957   5.861   0.400
 2329TIP3    H2 6931   7.983   5.731   0.474
 2330TIP3   OH2 6932   1.445   2.945   0.052
 2330TIP3    H1 6933   1.420   2.900  -0.028
 2330TIP3    H2 6934   1.487   2.878   0.106
 2331TIP3   OH2 6935   8.055   2.395   5.868
 2331TIP3    H1 6936   8.018   2.360   5.949
 2331TIP3    H2 6937   8.127   2.335   5.847
 2332TIP3   OH2 6938   0.046   3.764   2.107
 2332TIP3    H1 6939  -0.031   3.814   2.079
 2332TIP3    H2 6940   0.042   3.764   2.202
 2333TIP3   OH2 6941   7.626   2.132   2.347
 2333TIP3    H1 6942   7.548   2.096   2.390
 2333TIP3    H2 6943   7.674   2.055   2.317
 2334TIP3   OH2 6944   5.524   1.447   6.065
 2334TIP3    H1 6945   5.471   1.518   6.030
 2334TIP3    H2 6946   5.464   1.396   6.120
 2335TIP3   OH2 6947   2.395   3.222   3.213
 2335TIP3    H1 6948   2.315   3.263   3.244
 2335TIP3    H2 6949   2.366   3.154   3.152
 2336TIP3   OH2 6950   1.114   6.139   4.742
 2336TIP3    H1 6951   1.086   6.083   4.815
 2336TIP3    H2 6952   1.188   6.092   4.703
 2337TIP3   OH2 6953   5.513   4.375   0.573
 2337TIP3    H1 6954   5.459   4.453   0.589
 2337TIP3    H2 6955   5.453   4.302   0.580
 2338TIP3   OH2 6956   3.715   7.058   5.337
 2338TIP3    H1 6957   3.648   7.049   5.269
 2338TIP3    H2 6958   3.700   6.984   5.396
 2339TIP3   OH2 6959   2.612   1.231   1.115
 2339TIP3    H1 6960   2.547   1.233   1.044
 2339TIP3    H2 6961   2.652   1.318   1.112
 2340TIP3   OH2 6962   1.672   5.759   4.295
 2340TIP3    H1 6963   1.731   5.785   4.365
 2340TIP3    H2 6964   1.730   5.742   4.220
 2341TIP3   OH2 6965   6.445   1.410   0.955
 2341TIP3    H1 6966   6.469   1.454   0.873
 2341TIP3    H2 6967   6.388   1.338   0.928
 2342TIP3   OH2 6968   2.088   2.793   2.947
 2342TIP3    H1 6969   2.071   2.846   2.869
 2342TIP3    H2 6970   2.114   2.708   2.913
 2343TIP3   OH2 6971   1.625   1.220   1.412
 2343TIP3    H1 6972   1.703   1.168   1.391
 2343TIP3    H2 6973   1.650   1.270   1.489
 2344TIP3   OH2 6974   2.156   1.972   0.304
 2344TIP3    H1 6975   2.155   1.990   0.210
 2344TIP3    H2 6976   2.209   1.893   0.313
 2345TIP3   OH2 6977   1.053   2.278   1.589
 2345TIP3    H1 6978   1.110   2.249   1.518
 2345TIP3    H2 6979   1.058   2.374   1.586
 2346TIP3   OH2 6980   1.637   5.375   4.260
 2346TIP3    H1 6981   1.639   5.415   4.173
 2346TIP3    H2 6982   1.724   5.336   4.271
 2347TIP3   OH2 6983   0.224   7.099   2.087
 2347TIP3    H1 6984   0.257   7.177   2.042
 2347TIP3    H2 6985   0.151   7.069   2.033
 2348TIP3   OH2 6986   1.423   5.707   1.534
 2348TIP3    H1 6987   1.336   5.718   1.494
 2348TIP3    H2 6988   1.472   5.785   1.508
 2349TIP3   OH2 6989   6.949   1.211   1.631
 2349TIP3    H1 6990   6.898   1.243   1.557
 2349TIP3    H2 6991   6.928   1.117   1.636
 2350TIP3   OH2 6992   7.832   6.432   4.449
 2350TIP3    H1 6993   7.776   6.368   4.405
 2350TIP3    H2 6994   7.838   6.401   4.539
 2351TIP3   OH2 6995   4.093   0.170   5.312
 2351TIP3    H1 6996   4.125   0.216   5.390
 2351TIP3    H2 6997   4.030   0.106   5.346
 2352TIP3   OH2 6998   4.973   2.933   6.711
 2352TIP3    H1 6999   4.968   2.846   6.751
 2352TIP3    H2 7000   5.067   2.949   6.701
 2353TIP3   OH2 7001   7.782   0.972   2.978
 2353TIP3    H1 7002   7.753   1.040   3.039
 2353TIP3    H2 7003   7.702   0.943   2.935
 2354TIP3   OH2 7004   0.621   5.870   4.156
 2354TIP3    H1 7005   0.529   5.894   4.164
 2354TIP3    H2 7006   0.667   5.922   4.222
 2355TIP3   OH2 7007   6.420   1.251   2.884
 2355TIP3    H1 7008   6.509   1.223   2.862
 2355TIP3    H2 7009   6.382   1.278   2.800
 2356TIP3   OH2 7010   5.929   0.037   6.268
 2356TIP3    H1 7011   5.861   0.031   6.201
 2356TIP3    H2 7012   5.886   0.079   6.342
 2357TIP3   OH2 7013   5.349   5.099   3.670
 2357TIP3    H1 7014   5.310   5.186   3.675
 2357TIP3    H2 7015   5.328   5.059   3.755
 2358TIP3   OH2 7016   4.612   4.415   4.313
 2358TIP3    H1 7017   4.686   4.370   4.272
 2358TIP3    H2 7018   4.546   4.421   4.244
 2359TIP3   OH2 7019   4.303   4.191   2.340
 2359TIP3    H1 7020   4.243   4.126   2.305
 2359TIP3    H2 7021   4.281   4.272   2.293
 2360TIP3   OH2 7022   3.774   0.179   0.938
 2360TIP3    H1 7023   3.846   0.236   0.963
 2360TIP3    H2 7024   3.719   0.174   1.016
 2361TIP3   OH2 7025   5.037   2.101   3.348
 2361TIP3    H1 7026   5.117   2.080   3.301
 2361TIP3    H2 7027   5.065   2.114   3.439
 2362TIP3   OH2 7028   1.933   6.413   3.721
 2362TIP3    H1 7029   1.891   6.352   3.782
 2362TIP3    H2 7030   1.988   6.357   3.666
 2363TIP3   OH2 7031   3.261   3.055   3.232
 2363TIP3    H1 7032   3.279   2.962   3.245
 2363TIP3    H2 7033   3.167   3.063   3.244
 2364TIP3   OH2 7034   0.926   6.700   3.039
 2364TIP3    H1 7035   0.948   6.755   3.114
 2364TIP3    H2 7036   0.879   6.757   2.980
 2365TIP3   OH2 7037   7.290   4.242   2.131
 2365TIP3    H1 7038   7.201   4.274   2.141
 2365TIP3    H2 7039   7.342   4.298   2.189
 2366TIP3   OH2 7040   6.320   6.685   2.096
 2366TIP3    H1 7041   6.295   6.615   2.035
 2366TIP3    H2 7042   6.414   6.675   2.106
 2367TIP3   OH2 7043   5.229   7.775   3.251
 2367TIP3    H1 7044   5.203   7.867   3.249
 2367TIP3    H2 7045   5.263   7.762   3.339
 2368TIP3   OH2 7046   3.570   1.118   2.457
 2368TIP3    H1 7047   3.476   1.129   2.468
 2368TIP3    H2 7048   3.607   1.136   2.544
 2369TIP3   OH2 7049   1.656   6.226   2.663
 2369TIP3    H1 7050   1.710   6.164   2.614
 2369TIP3    H2 7051   1.655   6.192   2.752
 2370TIP3   OH2 7052   2.266   6.409   5.037
 2370TIP3    H1 7053   2.337   6.404   5.100
 2370TIP3    H2 7054   2.227   6.321   5.039
 2371TIP3   OH2 7055   8.068   1.462   1.323
 2371TIP3    H1 7056   8.089   1.440   1.232
 2371TIP3    H2 7057   8.139   1.425   1.374
 2372TIP3   OH2 7058   8.251   2.351   2.731
 2372TIP3    H1 7059   8.205   2.282   2.778
 2372TIP3    H2 7060   8.322   2.307   2.685
 2373TIP3   OH2 7061   7.436   5.635   2.125
 2373TIP3    H1 7062   7.493   5.609   2.053
 2373TIP3    H2 7063   7.486   5.704   2.170
 2374TIP3   OH2 7064   4.203   1.696   0.413
 2374TIP3    H1 7065   4.240   1.778   0.380
 2374TIP3    H2 7066   4.277   1.653   0.457
 2375TIP3   OH2 7067   1.610   3.561   4.738
 2375TIP3    H1 7068   1.665   3.506   4.682
 2375TIP3    H2 7069   1.521   3.529   4.725
 2376TIP3   OH2 7070   7.367   3.347   6.151
 2376TIP3    H1 7071   7.361   3.396   6.234
 2376TIP3    H2 7072   7.406   3.409   6.090
 2377TIP3   OH2 7073   4.536   3.574   1.770
 2377TIP3    H1 7074   4.593   3.501   1.746
 2377TIP3    H2 7075   4.503   3.550   1.857
 2378TIP3   OH2 7076   0.158   2.909   6.130
 2378TIP3    H1 7077   0.175   2.905   6.036
 2378TIP3    H2 7078   0.086   2.970   6.139
 2379TIP3   OH2 7079   2.079   4.471   0.830
 2379TIP3    H1 7080   2.041   4.548   0.873
 2379TIP3    H2 7081   2.117   4.505   0.749
 2380TIP3   OH2 7082   2.687   2.335   6.740
 2380TIP3    H1 7083   2.732   2.413   6.772
 2380TIP3    H2 7084   2.732   2.314   6.658
 2381TIP3   OH2 7085   5.675   5.681   4.656
 2381TIP3    H1 7086   5.624   5.725   4.588
 2381TIP3    H2 7087   5.692   5.593   4.620
 2382TIP3   OH2 7088   4.722   4.973   0.771
 2382TIP3    H1 7089   4.736   5.068   0.778
 2382TIP3    H2 7090   4.802   4.935   0.807
 2383TIP3   OH2 7091   4.283   0.383   6.614
 2383TIP3    H1 7092   4.266   0.348   6.526
 2383TIP3    H2 7093   4.317   0.471   6.598
 2384TIP3   OH2 7094   8.007   3.503   4.815
 2384TIP3    H1 7095   8.094   3.494   4.776
 2384TIP3    H2 7096   7.947   3.492   4.741
 2385TIP3   OH2 7097   3.577   6.160   1.396
 2385TIP3    H1 7098   3.603   6.093   1.333
 2385TIP3    H2 7099   3.618   6.133   1.478
 2386TIP3   OH2 7100   5.333   0.593   0.509
 2386TIP3    H1 7101   5.244   0.568   0.485
 2386TIP3    H2 7102   5.389   0.549   0.445
 2387TIP3   OH2 7103   5.853   5.611   2.148
 2387TIP3    H1 7104   5.869   5.681   2.085
 2387TIP3    H2 7105   5.935   5.562   2.151
 2388TIP3   OH2 7106   7.556   6.159   1.049
 2388TIP3    H1 7107   7.592   6.080   1.088
 2388TIP3    H2 7108   7.585   6.157   0.958
 2389TIP3   OH2 7109   4.994   3.263   6.472
 2389TIP3    H1 7110   4.951   3.249   6.556
 2389TIP3    H2 7111   4.986   3.357   6.455
 2390TIP3   OH2 7112   5.122   2.436   3.506
 2390TIP3    H1 7113   5.149   2.515   3.460
 2390TIP3    H2 7114   5.202   2.400   3.543
 2391TIP3   OH2 7115   7.182   5.294   4.936
 2391TIP3    H1 7116   7.229   5.351   4.998
 2391TIP3    H2 7117   7.187   5.207   4.975
 2392TIP3   OH2 7118   4.179   5.393   5.973
 2392TIP3    H1 7119   4.174   5.484   6.001
 2392TIP3    H2 7120   4.100   5.352   6.009
 2393TIP3   OH2 7121   1.616   5.636   5.892
 2393TIP3    H1 7122   1.642   5.646   5.984
 2393TIP3    H2 7123   1.539   5.693   5.883
 2394TIP3   OH2 7124   5.037   0.845   4.635
 2394TIP3    H1 7125   5.066   0.917   4.579
 2394TIP3    H2 7126   4.962   0.808   4.589
 2395TIP3   OH2 7127   3.394   3.322   5.163
 2395TIP3    H1 7128   3.400   3.417   5.146
 2395TIP3    H2 7129   3.486   3.293   5.164
 2396TIP3   OH2 7130   6.901   6.412   3.566
 2396TIP3    H1 7131   6.924   6.466   3.491
 2396TIP3    H2 7132   6.884   6.475   3.636
 2397TIP3   OH2 7133   2.366   6.664   0.760
 2397TIP3    H1 7134   2.324   6.744   0.729
 2397TIP3    H2 7135   2.459   6.687   0.764
 2398TIP3   OH2 7136   6.761   5.626   1.756
 2398TIP3    H1 7137   6.737   5.583   1.838
 2398TIP3    H2 7138   6.748   5.559   1.689
 2399TIP3   OH2 7139   8.264   4.146   1.405
 2399TIP3    H1 7140   8.203   4.198   1.352
 2399TIP3    H2 7141   8.259   4.058   1.367
 2400TIP3   OH2 7142   6.412   1.032   0.346
 2400TIP3    H1 7143   6.445   1.097   0.408
 2400TIP3    H2 7144   6.366   1.083   0.280
 2401TIP3   OH2 7145   1.563   5.135   0.492
 2401TIP3    H1 7146   1.646   5.175   0.516
 2401TIP3    H2 7147   1.577   5.103   0.403
 2402TIP3   OH2 7148   1.900   3.730   2.291
 2402TIP3    H1 7149   1.818   3.682   2.282
 2402TIP3    H2 7150   1.891   3.805   2.233
 2403TIP3   OH2 7151   0.097   3.157   5.935
 2403TIP3    H1 7152   0.063   3.069   5.952
 2403TIP3    H2 7153   0.090   3.202   6.020
 2404TIP3   OH2 7154   7.529   3.962   3.965
 2404TIP3    H1 7155   7.584   4.022   4.016
 2404TIP3    H2 7156   7.482   4.019   3.904
 2405TIP3   OH2 7157   7.196   3.573   3.818
 2405TIP3    H1 7158   7.276   3.523   3.831
 2405TIP3    H2 7159   7.195   3.637   3.890
 2406TIP3   OH2 7160   0.420   5.023   1.166
 2406TIP3    H1 7161   0.487   5.062   1.110
 2406TIP3    H2 7162   0.372   5.097   1.202
 2407TIP3   OH2 7163   0.712   2.875   6.082
 2407TIP3    H1 7164   0.696   2.913   6.168
 2407TIP3    H2 7165   0.626   2.865   6.043
 2408TIP3   OH2 7166   2.972   4.193   2.898
 2408TIP3    H1 7167   3.002   4.124   2.957
 2408TIP3    H2 7168   2.923   4.147   2.830
 2409TIP3   OH2 7169   4.745   0.138   4.608
 2409TIP3    H1 7170   4.806   0.135   4.534
 2409TIP3    H2 7171   4.659   0.152   4.569
 2410TIP3   OH2 7172   2.482   6.409   1.959
 2410TIP3    H1 7173   2.546   6.419   2.029
 2410TIP3    H2 7174   2.417   6.348   1.995
 2411TIP3   OH2 7175   5.778   5.993   3.651
 2411TIP3    H1 7176   5.810   5.946   3.728
 2411TIP3    H2 7177   5.777   5.927   3.581
 2412TIP3   OH2 7178   4.651   0.301   0.906
 2412TIP3    H1 7179   4.563   0.287   0.870
 2412TIP3    H2 7180   4.709   0.258   0.843
 2413TIP3   OH2 7181   4.418   3.026   4.289
 2413TIP3    H1 7182   4.491   2.974   4.320
 2413TIP3    H2 7183   4.356   2.961   4.253
 2414TIP3   OH2 7184   1.837   5.707   3.108
 2414TIP3    H1 7185   1.873   5.659   3.033
 2414TIP3    H2 7186   1.912   5.750   3.148
 2415TIP3   OH2 7187   1.164   6.488   1.929
 2415TIP3    H1 7188   1.241   6.466   1.876
 2415TIP3    H2 7189   1.120   6.557   1.879
 2416TIP3   OH2 7190   4.134   2.739   2.067
 2416TIP3    H1 7191   4.104   2.668   2.124
 2416TIP3    H2 7192   4.083   2.815   2.095
 2417TIP3   OH2 7193   3.136   4.288   3.650
 2417TIP3    H1 7194   3.128   4.384   3.648
 2417TIP3    H2 7195   3.050   4.257   3.623
 2418TIP3   OH2 7196   0.149   3.256   6.198
 2418TIP3    H1 7197   0.226   3.202   6.213
 2418TIP3    H2 7198   0.135   3.302   6.280
 2419TIP3   OH2 7199   0.561   2.335   5.439
 2419TIP3    H1 7200   0.608   2.270   5.387
 2419TIP3    H2 7201   0.612   2.415   5.429
 2420TIP3   OH2 7202   7.501   3.380   1.225
 2420TIP3    H1 7203   7.441   3.333   1.283
 2420TIP3    H2 7204   7.562   3.424   1.285
 2421TIP3   OH2 7205   3.246   4.356   1.426
 2421TIP3    H1 7206   3.278   4.270   1.453
 2421TIP3    H2 7207   3.241   4.407   1.508
 2422TIP3   OH2 7208   4.147   6.041   3.463
 2422TIP3    H1 7209   4.070   6.089   3.434
 2422TIP3    H2 7210   4.213   6.056   3.394
 2423TIP3   OH2 7211   5.705   4.227   2.823
 2423TIP3    H1 7212   5.722   4.276   2.904
 2423TIP3    H2 7213   5.757   4.147   2.832
 2424TIP3   OH2 7214   7.410   2.755   5.274
 2424TIP3    H1 7215   7.491   2.734   5.321
 2424TIP3    H2 7216   7.439   2.794   5.192
 2425TIP3   OH2 7217   1.944   6.443   5.290
 2425TIP3    H1 7218   1.868   6.385   5.284
 2425TIP3    H2 7219   1.908   6.530   5.277
 2426TIP3   OH2 7220   2.059   5.750   4.282
 2426TIP3    H1 7221   2.018   5.725   4.200
 2426TIP3    H2 7222   2.129   5.686   4.295
 2427TIP3   OH2 7223   1.234   7.274   1.121
 2427TIP3    H1 7224   1.250   7.197   1.066
 2427TIP3    H2 7225   1.171   7.244   1.186
 2428TIP3   OH2 7226   2.157   6.247   2.823
 2428TIP3    H1 7227   2.101   6.170   2.825
 2428TIP3    H2 7228   2.109   6.310   2.769
 2429TIP3   OH2 7229   4.365   3.924   0.751
 2429TIP3    H1 7230   4.376   4.017   0.732
 2429TIP3    H2 7231   4.453   3.888   0.748
 2430TIP3   OH2 7232   1.292   2.855   3.467
 2430TIP3    H1 7233   1.289   2.768   3.427
 2430TIP3    H2 7234   1.360   2.847   3.535
 2431TIP3   OH2 7235   8.273   4.176   3.598
 2431TIP3    H1 7236   8.281   4.173   3.693
 2431TIP3    H2 7237   8.299   4.265   3.574
 2432TIP3   OH2 7238   4.398   3.930   3.479
 2432TIP3    H1 7239   4.339   3.862   3.447
 2432TIP3    H2 7240   4.415   3.985   3.403
 2433TIP3   OH2 7241   1.912   7.442   4.434
 2433TIP3    H1 7242   1.947   7.362   4.395
 2433TIP3    H2 7243   1.873   7.414   4.517
 2434TIP3   OH2 7244   1.948   3.603   1.871
 2434TIP3    H1 7245   1.992   3.656   1.937
 2434TIP3    H2 7246   2.014   3.589   1.803
 2435TIP3   OH2 7247   3.226   2.053   6.597
 2435TIP3    H1 7248   3.234   1.975   6.541
 2435TIP3    H2 7249   3.265   2.027   6.680
 2436TIP3   OH2 7250   3.986   7.860   4.266
 2436TIP3    H1 7251   4.020   7.845   4.178
 2436TIP3    H2 7252   3.924   7.788   4.280
 2437TIP3   OH2 7253   0.157   5.791   2.201
 2437TIP3    H1 7254   0.179   5.881   2.225
 2437TIP3    H2 7255   0.077   5.799   2.149
 2438TIP3   OH2 7256   5.626   4.565   5.391
 2438TIP3    H1 7257   5.706   4.523   5.424
 2438TIP3    H2 7258   5.557   4.534   5.450
 2439TIP3   OH2 7259   8.266   5.672   6.332
 2439TIP3    H1 7260   8.184   5.643   6.372
 2439TIP3    H2 7261   8.302   5.594   6.291
 2440TIP3   OH2 7262   7.652   4.686   4.513
 2440TIP3    H1 7263   7.727   4.662   4.567
 2440TIP3    H2 7264   7.681   4.763   4.464
 2441TIP3   OH2 7265   6.379   2.122   2.598
 2441TIP3    H1 7266   6.463   2.077   2.609
 2441TIP3    H2 7267   6.335   2.112   2.682
 2442TIP3   OH2 7268   1.151   1.005   1.215
 2442TIP3    H1 7269   1.226   1.005   1.276
 2442TIP3    H2 7270   1.144   1.096   1.186
 2443TIP3   OH2 7271   6.290   2.166   2.012
 2443TIP3    H1 7272   6.279   2.107   1.937
 2443TIP3    H2 7273   6.375   2.143   2.048
 2444TIP3   OH2 7274   5.440   3.557   6.446
 2444TIP3    H1 7275   5.502   3.578   6.376
 2444TIP3    H2 7276   5.484   3.584   6.527
 2445TIP3   OH2 7277   6.600   6.616   0.799
 2445TIP3    H1 7278   6.574   6.574   0.717
 2445TIP3    H2 7279   6.524   6.606   0.856
 2446TIP3   OH2 7280   4.826   0.067   3.123
 2446TIP3    H1 7281   4.818   0.019   3.041
 2446TIP3    H2 7282   4.887   0.139   3.103
 2447TIP3   OH2 7283   2.668   0.171   4.156
 2447TIP3    H1 7284   2.617   0.249   4.133
 2447TIP3    H2 7285   2.752   0.184   4.113
 2448TIP3   OH2 7286   6.903   5.106   0.908
 2448TIP3    H1 7287   6.884   5.012   0.900
 2448TIP3    H2 7288   6.817   5.148   0.907
 2449TIP3   OH2 7289   3.335   0.843   5.794
 2449TIP3    H1 7290   3.314   0.767   5.739
 2449TIP3    H2 7291   3.271   0.909   5.769
 2450TIP3   OH2 7292   3.854   1.241   5.844
 2450TIP3    H1 7293   3.885   1.216   5.757
 2450TIP3    H2 7294   3.912   1.193   5.904
 2451TIP3   OH2 7295   1.327   3.896   2.603
 2451TIP3    H1 7296   1.354   3.831   2.539
 2451TIP3    H2 7297   1.263   3.950   2.557
 2452TIP3   OH2 7298   7.241   1.673   6.467
 2452TIP3    H1 7299   7.333   1.647   6.462
 2452TIP3    H2 7300   7.238   1.758   6.422
 2453TIP3   OH2 7301   0.384   1.571   2.727
 2453TIP3    H1 7302   0.314   1.625   2.765
 2453TIP3    H2 7303   0.464   1.607   2.765
 2454TIP3   OH2 7304   0.119   3.385   2.584
 2454TIP3    H1 7305   0.069   3.461   2.614
 2454TIP3    H2 7306   0.137   3.336   2.664
 2455TIP3   OH2 7307   0.428   3.985   5.611
 2455TIP3    H1 7308   0.356   3.940   5.655
 2455TIP3    H2 7309   0.502   3.974   5.671
 2456TIP3   OH2 7310   2.045   5.295   1.571
 2456TIP3    H1 7311   1.982   5.223   1.562
 2456TIP3    H2 7312   2.095   5.273   1.650
 2457TIP3   OH2 7313   8.081   6.547   4.951
 2457TIP3    H1 7314   8.120   6.496   4.879
 2457TIP3    H2 7315   8.152   6.558   5.014
 2458TIP3   OH2 7316   4.067   1.302   3.384
 2458TIP3    H1 7317   4.084   1.393   3.407
 2458TIP3    H2 7318   3.971   1.297   3.378
 2459TIP3   OH2 7319   5.837   1.568   0.381
 2459TIP3    H1 7320   5.749   1.598   0.357
 2459TIP3    H2 7321   5.863   1.624   0.453
 2460TIP3   OH2 7322   2.087   6.581   0.556
 2460TIP3    H1 7323   2.076   6.554   0.648
 2460TIP3    H2 7324   2.178   6.611   0.551
 2461TIP3   OH2 7325   1.976   3.016   3.104
 2461TIP3    H1 7326   1.993   2.926   3.077
 2461TIP3    H2 7327   1.890   3.036   3.068
 2462TIP3   OH2 7328   5.496   6.634   2.601
 2462TIP3    H1 7329   5.529   6.550   2.633
 2462TIP3    H2 7330   5.566   6.696   2.620
 2463TIP3   OH2 7331   6.094   1.642   0.198
 2463TIP3    H1 7332   6.144   1.644   0.116
 2463TIP3    H2 7333   6.003   1.632   0.170
 2464TIP3   OH2 7334   4.366   6.053   6.565
 2464TIP3    H1 7335   4.363   6.121   6.631
 2464TIP3    H2 7336   4.449   6.007   6.580
 2465TIP3   OH2 7337   7.557   7.418   3.231
 2465TIP3    H1 7338   7.550   7.470   3.310
 2465TIP3    H2 7339   7.612   7.470   3.172
 2466TIP3   OH2 7340   0.635   5.228   2.650
 2466TIP3    H1 7341   0.559   5.175   2.628
 2466TIP3    H2 7342   0.609   5.317   2.627
 2467TIP3   OH2 7343   3.987   2.409   5.407
 2467TIP3    H1 7344   3.902   2.429   5.367
 2467TIP3    H2 7345   3.968   2.337   5.468
 2468TIP3   OH2 7346   4.805   3.691   4.820
 2468TIP3    H1 7347   4.818   3.609   4.867
 2468TIP3    H2 7348   4.720   3.681   4.776
 2469TIP3   OH2 7349   7.326   0.854   3.589
 2469TIP3    H1 7350   7.367   0.829   3.506
 2469TIP3    H2 7351   7.321   0.773   3.639
 2470TIP3   OH2 7352   5.713   6.085   1.358
 2470TIP3    H1 7353   5.622   6.100   1.332
 2470TIP3    H2 7354   5.720   6.126   1.444
 2471TIP3   OH2 7355   0.899   1.207   5.775
 2471TIP3    H1 7356   0.824   1.253   5.738
 2471TIP3    H2 7357   0.908   1.242   5.863
 2472TIP3   OH2 7358   1.957   2.549   3.671
 2472TIP3    H1 7359   2.010   2.493   3.614
 2472TIP3    H2 7360   1.941   2.496   3.749
 2473TIP3   OH2 7361   4.750   7.509   5.736
 2473TIP3    H1 7362   4.743   7.444   5.806
 2473TIP3    H2 7363   4.663   7.548   5.731
 2474TIP3   OH2 7364   4.124   5.927   1.034
 2474TIP3    H1 7365   4.069   5.855   1.065
 2474TIP3    H2 7366   4.073   5.967   0.963
 2475TIP3   OH2 7367   2.635   0.088   6.634
 2475TIP3    H1 7368   2.583   0.134   6.568
 2475TIP3    H2 7369   2.720   0.133   6.632
 2476TIP3   OH2 7370   4.130   4.643   2.211
 2476TIP3    H1 7371   4.105   4.721   2.161
 2476TIP3    H2 7372   4.049   4.595   2.223
 2477TIP3   OH2 7373   8.152   0.849   5.102
 2477TIP3    H1 7374   8.152   0.901   5.022
 2477TIP3    H2 7375   8.245   0.833   5.119
 2478TIP3   OH2 7376   0.153   0.790   5.101
 2478TIP3    H1 7377   0.204   0.811   5.179
 2478TIP3    H2 7378   0.172   0.699   5.082
 2479TIP3   OH2 7379   0.673   2.835   2.698
 2479TIP3    H1 7380   0.625   2.864   2.775
 2479TIP3    H2 7381   0.682   2.740   2.710
 2480TIP3   OH2 7382   1.097   0.475   5.998
 2480TIP3    H1 7383   1.061   0.490   5.911
 2480TIP3    H2 7384   1.163   0.544   6.009
 2481TIP3   OH2 7385   6.327   2.413   2.780
 2481TIP3    H1 7386   6.413   2.378   2.757
 2481TIP3    H2 7387   6.274   2.336   2.801
 2482TIP3   OH2 7388   2.853   4.278   3.621
 2482TIP3    H1 7389   2.776   4.234   3.659
 2482TIP3    H2 7390   2.883   4.337   3.690
 2483TIP3   OH2 7391   2.497   2.019   0.869
 2483TIP3    H1 7392   2.468   2.027   0.778
 2483TIP3    H2 7393   2.424   2.054   0.921
 2484TIP3   OH2 7394   3.505   4.353   0.518
 2484TIP3    H1 7395   3.584   4.306   0.493
 2484TIP3    H2 7396   3.468   4.384   0.436
 2485TIP3   OH2 7397   3.451   7.564   4.175
 2485TIP3    H1 7398   3.429   7.588   4.265
 2485TIP3    H2 7399   3.393   7.490   4.155
 2486TIP3   OH2 7400   7.761   4.858   2.664
 2486TIP3    H1 7401   7.771   4.846   2.569
 2486TIP3    H2 7402   7.679   4.813   2.685
 2487TIP3   OH2 7403   7.562   5.061   2.245
 2487TIP3    H1 7404   7.608   5.082   2.326
 2487TIP3    H2 7405   7.547   4.966   2.251
 2488TIP3   OH2 7406   5.046   4.044   6.646
 2488TIP3    H1 7407   5.002   4.122   6.611
 2488TIP3    H2 7408   4.975   3.991   6.681
 2489TIP3   OH2 7409   3.355   5.524   4.698
 2489TIP3    H1 7410   3.337   5.509   4.790
 2489TIP3    H2 7411   3.279   5.572   4.665
 2490TIP3   OH2 7412   5.971   1.491   2.581
 2490TIP3    H1 7413   5.995   1.459   2.668
 2490TIP3    H2 7414   6.044   1.546   2.554
 2491TIP3   OH2 7415   0.108   1.806   5.648
 2491TIP3    H1 7416   0.036   1.869   5.653
 2491TIP3    H2 7417   0.176   1.851   5.599
 2492TIP3   OH2 7418   0.373   1.106   1.203
 2492TIP3    H1 7419   0.462   1.072   1.201
 2492TIP3    H2 7420   0.365   1.158   1.124
 2493TIP3   OH2 7421   4.270   2.134   4.342
 2493TIP3    H1 7422   4.214   2.149   4.266
 2493TIP3    H2 7423   4.228   2.182   4.413
 2494TIP3   OH2 7424   3.369   2.494   6.258
 2494TIP3    H1 7425   3.342   2.411   6.299
 2494TIP3    H2 7426   3.425   2.468   6.185
 2495TIP3   OH2 7427   4.216   4.361   0.904
 2495TIP3    H1 7428   4.198   4.451   0.931
 2495TIP3    H2 7429   4.239   4.316   0.985
 2496TIP3   OH2 7430   5.873   2.825   6.510
 2496TIP3    H1 7431   5.871   2.875   6.428
 2496TIP3    H2 7432   5.853   2.890   6.577
 2497TIP3   OH2 7433   2.437   2.548   1.954
 2497TIP3    H1 7434   2.357   2.566   2.003
 2497TIP3    H2 7435   2.439   2.453   1.943
 2498TIP3   OH2 7436   5.253   0.294   2.982
 2498TIP3    H1 7437   5.295   0.223   2.934
 2498TIP3    H2 7438   5.323   0.329   3.038
 2499TIP3   OH2 7439   6.219   2.215   6.289
 2499TIP3    H1 7440   6.155   2.145   6.300
 2499TIP3    H2 7441   6.205   2.273   6.364
 2500TIP3   OH2 7442   4.987   3.931   2.579
 2500TIP3    H1 7443   4.967   4.023   2.593
 2500TIP3    H2 7444   5.016   3.927   2.488
 2501TIP3   OH2 7445   2.880   3.452   1.890
 2501TIP3    H1 7446   2.824   3.483   1.819
 2501TIP3    H2 7447   2.910   3.532   1.933
 2502TIP3   OH2 7448   0.450   3.884   2.865
 2502TIP3    H1 7449   0.408   3.841   2.940
 2502TIP3    H2 7450   0.494   3.813   2.819
 2503TIP3   OH2 7451   7.788   2.339   6.332
 2503TIP3    H1 7452   7.737   2.258   6.325
 2503TIP3    H2 7453   7.774   2.368   6.422
 2504TIP3   OH2 7454   0.518   2.115   6.275
 2504TIP3    H1 7455   0.549   2.035   6.231
 2504TIP3    H2 7456   0.430   2.129   6.240
 2505TIP3   OH2 7457   5.486   3.192   2.821
 2505TIP3    H1 7458   5.573   3.176   2.785
 2505TIP3    H2 7459   5.445   3.254   2.760
 2506TIP3   OH2 7460   8.114   6.924   4.459
 2506TIP3    H1 7461   8.052   6.858   4.427
 2506TIP3    H2 7462   8.199   6.895   4.426
 2507TIP3   OH2 7463   1.428   3.548   3.474
 2507TIP3    H1 7464   1.380   3.542   3.556
 2507TIP3    H2 7465   1.519   3.531   3.498
 2508TIP3   OH2 7466   1.013   4.641   5.430
 2508TIP3    H1 7467   1.053   4.609   5.510
 2508TIP3    H2 7468   0.919   4.622   5.441
 2509TIP3   OH2 7469   4.296   1.967   0.566
 2509TIP3    H1 7470   4.299   2.023   0.488
 2509TIP3    H2 7471   4.385   1.930   0.572
 2510TIP3   OH2 7472   2.077   1.369   4.760
 2510TIP3    H1 7473   1.982   1.377   4.774
 2510TIP3    H2 7474   2.113   1.353   4.847
 2511TIP3   OH2 7475   2.354   2.627   3.158
 2511TIP3    H1 7476   2.342   2.683   3.081
 2511TIP3    H2 7477   2.306   2.673   3.228
 2512TIP3   OH2 7478   6.311   4.381   1.356
 2512TIP3    H1 7479   6.379   4.448   1.354
 2512TIP3    H2 7480   6.341   4.318   1.421
 2513TIP3   OH2 7481   1.248   6.205   3.374
 2513TIP3    H1 7482   1.192   6.277   3.402
 2513TIP3    H2 7483   1.186   6.134   3.354
 2514TIP3   OH2 7484   0.574   0.739   3.483
 2514TIP3    H1 7485   0.497   0.758   3.428
 2514TIP3    H2 7486   0.610   0.825   3.503
 2515TIP3   OH2 7487   2.991   0.739   4.425
 2515TIP3    H1 7488   2.964   0.777   4.509
 2515TIP3    H2 7489   3.031   0.655   4.449
 2516TIP3   OH2 7490   3.871   2.865   1.496
 2516TIP3    H1 7491   3.854   2.822   1.412
 2516TIP3    H2 7492   3.959   2.901   1.487
 2517TIP3   OH2 7493   8.054   5.506   2.479
 2517TIP3    H1 7494   8.054   5.508   2.383
 2517TIP3    H2 7495   8.024   5.418   2.501
 2518TIP3   OH2 7496   8.149   6.102   0.479
 2518TIP3    H1 7497   8.185   6.101   0.567
 2518TIP3    H2 7498   8.177   6.019   0.440
 2519TIP3   OH2 7499   5.739   0.737   1.510
 2519TIP3    H1 7500   5.815   0.783   1.547
 2519TIP3    H2 7501   5.704   0.797   1.445
 2520TIP3   OH2 7502   3.718   3.687   4.682
 2520TIP3    H1 7503   3.701   3.622   4.614
 2520TIP3    H2 7504   3.725   3.770   4.636
 2521TIP3   OH2 7505   0.848   7.399   5.092
 2521TIP3    H1 7506   0.780   7.447   5.044
 2521TIP3    H2 7507   0.802   7.360   5.166
 2522TIP3   OH2 7508   1.984   7.289   1.058
 2522TIP3    H1 7509   1.895   7.254   1.063
 2522TIP3    H2 7510   2.036   7.219   1.019
 2523TIP3   OH2 7511   5.371   7.195   2.692
 2523TIP3    H1 7512   5.342   7.122   2.746
 2523TIP3    H2 7513   5.368   7.271   2.749
 2524TIP3   OH2 7514   3.424   5.503   5.949
 2524TIP3    H1 7515   3.363   5.505   5.875
 2524TIP3    H2 7516   3.469   5.587   5.945
 2525TIP3   OH2 7517  -0.047   2.770   5.261
 2525TIP3    H1 7518  -0.013   2.751   5.174
 2525TIP3    H2 7519   0.023   2.742   5.321
 2526TIP3   OH2 7520   0.729   6.134   1.650
 2526TIP3    H1 7521   0.712   6.189   1.727
 2526TIP3    H2 7522   0.792   6.184   1.598
 2527TIP3   OH2 7523   5.363   2.327   5.365
 2527TIP3    H1 7524   5.437   2.334   5.305
 2527TIP3    H2 7525   5.398   2.280   5.441
 2528TIP3   OH2 7526   5.286   2.127   0.308
 2528TIP3    H1 7527   5.368   2.171   0.328
 2528TIP3    H2 7528   5.221   2.198   0.303
 2529TIP3   OH2 7529   6.135   2.558   1.211
 2529TIP3    H1 7530   6.134   2.570   1.306
 2529TIP3    H2 7531   6.165   2.642   1.176
 2530TIP3   OH2 7532   6.439   0.829   4.745
 2530TIP3    H1 7533   6.488   0.770   4.687
 2530TIP3    H2 7534   6.506   0.864   4.804
 2531TIP3   OH2 7535   8.093   5.378   6.090
 2531TIP3    H1 7536   8.049   5.462   6.073
 2531TIP3    H2 7537   8.021   5.315   6.099
 2532TIP3   OH2 7538   2.933   5.858   2.736
 2532TIP3    H1 7539   2.850   5.904   2.720
 2532TIP3    H2 7540   2.990   5.885   2.664
 2533TIP3   OH2 7541   1.603   2.777   5.298
 2533TIP3    H1 7542   1.693   2.769   5.267
 2533TIP3    H2 7543   1.580   2.868   5.280
 2534TIP3   OH2 7544   7.909   3.928   1.800
 2534TIP3    H1 7545   7.995   3.894   1.825
 2534TIP3    H2 7546   7.852   3.851   1.800
 2535TIP3   OH2 7547   6.916   5.358   3.872
 2535TIP3    H1 7548   6.881   5.326   3.789
 2535TIP3    H2 7549   6.935   5.450   3.856
 2536TIP3   OH2 7550   8.299   1.177   2.124
 2536TIP3    H1 7551   8.210   1.152   2.099
 2536TIP3    H2 7552   8.353   1.103   2.098
 2537TIP3   OH2 7553   4.243   0.216   5.579
 2537TIP3    H1 7554   4.280   0.285   5.524
 2537TIP3    H2 7555   4.155   0.246   5.599
 2538TIP3   OH2 7556   5.460   5.701   0.892
 2538TIP3    H1 7557   5.516   5.775   0.868
 2538TIP3    H2 7558   5.460   5.701   0.988
 2539TIP3   OH2 7559   0.740   2.084   1.894
 2539TIP3    H1 7560   0.823   2.125   1.874
 2539TIP3    H2 7561   0.746   2.059   1.986
 2540TIP3   OH2 7562   1.243   3.387   5.259
 2540TIP3    H1 7563   1.337   3.377   5.268
 2540TIP3    H2 7564   1.213   3.418   5.345
 2541TIP3   OH2 7565   1.069   3.122   4.607
 2541TIP3    H1 7566   1.137   3.187   4.627
 2541TIP3    H2 7567   1.097   3.082   4.525
 2542TIP3   OH2 7568   0.488   1.598   0.971
 2542TIP3    H1 7569   0.510   1.535   0.903
 2542TIP3    H2 7570   0.522   1.682   0.938
 2543TIP3   OH2 7571   2.048   5.642   0.498
 2543TIP3    H1 7572   2.026   5.691   0.419
 2543TIP3    H2 7573   2.135   5.605   0.479
 2544TIP3   OH2 7574   0.606   1.748   3.138
 2544TIP3    H1 7575   0.545   1.821   3.144
 2544TIP3    H2 7576   0.594   1.712   3.050
 2545TIP3   OH2 7577   2.891   1.429   0.775
 2545TIP3    H1 7578   2.800   1.456   0.773
 2545TIP3    H2 7579   2.936   1.499   0.822
 2546TIP3   OH2 7580   7.209   2.571   6.061
 2546TIP3    H1 7581   7.213   2.654   6.110
 2546TIP3    H2 7582   7.121   2.539   6.078
 2547TIP3   OH2 7583   7.675   6.303   1.789
 2547TIP3    H1 7584   7.605   6.261   1.839
 2547TIP3    H2 7585   7.635   6.381   1.752
 2548TIP3   OH2 7586   1.415   4.795   5.744
 2548TIP3    H1 7587   1.342   4.735   5.733
 2548TIP3    H2 7588   1.473   4.751   5.806
 2549TIP3   OH2 7589   0.977   0.745   6.426
 2549TIP3    H1 7590   0.994   0.651   6.428
 2549TIP3    H2 7591   1.063   0.784   6.407
 2550TIP3   OH2 7592   6.816   4.797   0.072
 2550TIP3    H1 7593   6.882   4.830   0.134
 2550TIP3    H2 7594   6.858   4.721   0.031
 2551TIP3   OH2 7595   6.430   5.129   4.719
 2551TIP3    H1 7596   6.335   5.119   4.724
 2551TIP3    H2 7597   6.464   5.039   4.723
 2552TIP3   OH2 7598   1.065   0.791   1.723
 2552TIP3    H1 7599   1.004   0.823   1.655
 2552TIP3    H2 7600   1.036   0.835   1.803
 2553TIP3   OH2 7601   5.310   5.323   3.931
 2553TIP3    H1 7602   5.334   5.384   3.861
 2553TIP3    H2 7603   5.389   5.314   3.983
 2554TIP3   OH2 7604   2.857   4.186   4.268
 2554TIP3    H1 7605   2.945   4.159   4.242
 2554TIP3    H2 7606   2.823   4.233   4.192
 2555TIP3   OH2 7607   3.648   7.766   5.860
 2555TIP3    H1 7608   3.673   7.678   5.832
 2555TIP3    H2 7609   3.716   7.823   5.826
 2556TIP3   OH2 7610   3.694   7.624   4.097
 2556TIP3    H1 7611   3.614   7.592   4.139
 2556TIP3    H2 7612   3.673   7.624   4.003
 2557TIP3   OH2 7613   3.851   6.559   5.881
 2557TIP3    H1 7614   3.767   6.572   5.924
 2557TIP3    H2 7615   3.884   6.648   5.865
 2558TIP3   OH2 7616   2.008   4.260   0.205
 2558TIP3    H1 7617   1.947   4.329   0.177
 2558TIP3    H2 7618   2.094   4.293   0.180
 2559TIP3   OH2 7619   0.782   4.014   3.536
 2559TIP3    H1 7620   0.771   4.079   3.466
 2559TIP3    H2 7621   0.708   4.029   3.594
 2560TIP3   OH2 7622   3.959   3.960   3.468
 2560TIP3    H1 7623   3.949   3.965   3.563
 2560TIP3    H2 7624   3.870   3.959   3.434
 2561TIP3   OH2 7625   6.696   5.768   3.913
 2561TIP3    H1 7626   6.632   5.744   3.847
 2561TIP3    H2 7627   6.720   5.858   3.893
 2562TIP3   OH2 7628   4.203   7.318   0.192
 2562TIP3    H1 7629   4.168   7.233   0.219
 2562TIP3    H2 7630   4.286   7.297   0.148
 2563TIP3   OH2 7631   2.278   0.939   4.767
 2563TIP3    H1 7632   2.265   0.883   4.691
 2563TIP3    H2 7633   2.365   0.917   4.799
 2564TIP3   OH2 7634   7.123   4.335   2.536
 2564TIP3    H1 7635   7.206   4.298   2.506
 2564TIP3    H2 7636   7.110   4.412   2.482
 2565TIP3   OH2 7637   5.724   3.680   3.716
 2565TIP3    H1 7638   5.719   3.662   3.622
 2565TIP3    H2 7639   5.814   3.660   3.739
 2566TIP3   OH2 7640   6.676   3.414   2.241
 2566TIP3    H1 7641   6.727   3.494   2.239
 2566TIP3    H2 7642   6.691   3.373   2.156
 2567TIP3   OH2 7643   2.339   2.953   3.431
 2567TIP3    H1 7644   2.309   2.863   3.417
 2567TIP3    H2 7645   2.297   3.003   3.361
 2568TIP3   OH2 7646   7.486   2.510   2.377
 2568TIP3    H1 7647   7.556   2.575   2.383
 2568TIP3    H2 7648   7.519   2.444   2.315
 2569TIP3   OH2 7649   5.065   2.385   2.497
 2569TIP3    H1 7650   5.107   2.299   2.489
 2569TIP3    H2 7651   4.975   2.366   2.522
 2570TIP3   OH2 7652   6.119   2.344   3.775
 2570TIP3    H1 7653   6.086   2.398   3.703
 2570TIP3    H2 7654   6.214   2.345   3.764
 2571TIP3   OH2 7655   1.058   4.777   0.235
 2571TIP3    H1 7656   1.017   4.693   0.216
 2571TIP3    H2 7657   1.147   4.755   0.262
 2572TIP3   OH2 7658   5.533   3.768   5.939
 2572TIP3    H1 7659   5.518   3.680   5.904
 2572TIP3    H2 7660   5.574   3.816   5.867
 2573TIP3   OH2 7661   6.891   7.802   5.746
 2573TIP3    H1 7662   6.867   7.721   5.702
 2573TIP3    H2 7663   6.830   7.868   5.711
 2574TIP3   OH2 7664   2.839   1.308   5.170
 2574TIP3    H1 7665   2.752   1.345   5.183
 2574TIP3    H2 7666   2.824   1.213   5.166
 2575TIP3   OH2 7667   4.415   2.703   0.542
 2575TIP3    H1 7668   4.324   2.713   0.569
 2575TIP3    H2 7669   4.439   2.615   0.572
 2576TIP3   OH2 7670   4.017   4.605   3.252
 2576TIP3    H1 7671   4.030   4.626   3.160
 2576TIP3    H2 7672   4.099   4.565   3.280
 2577TIP3   OH2 7673   4.471   6.851   4.200
 2577TIP3    H1 7674   4.522   6.874   4.123
 2577TIP3    H2 7675   4.465   6.756   4.198
 2578TIP3   OH2 7676   2.454   7.326   5.368
 2578TIP3    H1 7677   2.407   7.354   5.290
 2578TIP3    H2 7678   2.547   7.332   5.344
 2579TIP3   OH2 7679   1.785   2.145   4.699
 2579TIP3    H1 7680   1.863   2.173   4.748
 2579TIP3    H2 7681   1.713   2.194   4.738
 2580TIP3   OH2 7682   3.606   2.513   3.163
 2580TIP3    H1 7683   3.582   2.421   3.172
 2580TIP3    H2 7684   3.549   2.546   3.093
 2581TIP3   OH2 7685   7.551   7.404   1.837
 2581TIP3    H1 7686   7.565   7.448   1.921
 2581TIP3    H2 7687   7.479   7.452   1.797
 2582TIP3   OH2 7688   0.099   6.635   6.028
 2582TIP3    H1 7689   0.150   6.697   6.080
 2582TIP3    H2 7690   0.012   6.674   6.023
 2583TIP3   OH2 7691   2.456   6.586   2.297
 2583TIP3    H1 7692   2.396   6.575   2.371
 2583TIP3    H2 7693   2.473   6.680   2.293
 2584TIP3   OH2 7694   7.551   7.125   1.880
 2584TIP3    H1 7695   7.591   7.069   1.813
 2584TIP3    H2 7696   7.583   7.213   1.859
 2585TIP3   OH2 7697   0.891   3.953   3.926
 2585TIP3    H1 7698   0.819   4.012   3.905
 2585TIP3    H2 7699   0.878   3.877   3.869
 2586TIP3   OH2 7700   6.896   3.151   1.483
 2586TIP3    H1 7701   6.921   3.213   1.551
 2586TIP3    H2 7702   6.972   3.147   1.425
 2587TIP3   OH2 7703   1.736   0.841   3.795
 2587TIP3    H1 7704   1.657   0.885   3.764
 2587TIP3    H2 7705   1.756   0.777   3.727
 2588TIP3   OH2 7706   8.013   6.800   5.005
 2588TIP3    H1 7707   8.027   6.845   4.922
 2588TIP3    H2 7708   8.028   6.707   4.985
 2589TIP3   OH2 7709   1.943   1.772   2.392
 2589TIP3    H1 7710   1.965   1.780   2.300
 2589TIP3    H2 7711   2.017   1.811   2.438
 2590TIP3   OH2 7712   0.704   4.907   5.491
 2590TIP3    H1 7713   0.667   4.962   5.560
 2590TIP3    H2 7714   0.758   4.844   5.538
 2591TIP3   OH2 7715   5.362   2.553   5.491
 2591TIP3    H1 7716   5.361   2.467   5.447
 2591TIP3    H2 7717   5.354   2.532   5.584
 2592TIP3   OH2 7718   7.808   3.548   3.276
 2592TIP3    H1 7719   7.786   3.624   3.331
 2592TIP3    H2 7720   7.821   3.477   3.338
 2593TIP3   OH2 7721   0.771   4.058   6.417
 2593TIP3    H1 7722   0.852   4.045   6.467
 2593TIP3    H2 7723   0.750   3.971   6.383
 2594TIP3   OH2 7724   8.262   4.525   1.464
 2594TIP3    H1 7725   8.272   4.516   1.369
 2594TIP3    H2 7726   8.332   4.471   1.501
 2595TIP3   OH2 7727   1.266   7.473   4.523
 2595TIP3    H1 7728   1.206   7.400   4.542
 2595TIP3    H2 7729   1.208   7.547   4.505
 2596TIP3   OH2 7730   1.903   5.626   4.687
 2596TIP3    H1 7731   1.980   5.596   4.734
 2596TIP3    H2 7732   1.862   5.546   4.653
 2597TIP3   OH2 7733   5.001   0.840   3.205
 2597TIP3    H1 7734   4.944   0.826   3.129
 2597TIP3    H2 7735   5.036   0.928   3.192
 2598TIP3   OH2 7736   1.325   2.287   5.394
 2598TIP3    H1 7737   1.361   2.370   5.427
 2598TIP3    H2 7738   1.389   2.258   5.329
 2599TIP3   OH2 7739   4.429   5.416   1.211
 2599TIP3    H1 7740   4.370   5.375   1.275
 2599TIP3    H2 7741   4.433   5.508   1.239
 2600TIP3   OH2 7742   5.882   2.492   2.954
 2600TIP3    H1 7743   5.906   2.538   3.034
 2600TIP3    H2 7744   5.838   2.559   2.901
 2601TIP3   OH2 7745   1.868   1.924   6.490
 2601TIP3    H1 7746   1.944   1.894   6.441
 2601TIP3    H2 7747   1.885   1.895   6.580
 2602TIP3   OH2 7748   7.984   1.983   1.334
 2602TIP3    H1 7749   8.047   1.911   1.344
 2602TIP3    H2 7750   7.921   1.950   1.270
 2603TIP3   OH2 7751   7.168   0.581   5.076
 2603TIP3    H1 7752   7.175   0.661   5.025
 2603TIP3    H2 7753   7.174   0.510   5.012
 2604TIP3   OH2 7754   2.166   7.722   5.348
 2604TIP3    H1 7755   2.136   7.632   5.358
 2604TIP3    H2 7756   2.125   7.752   5.267
 2605TIP3   OH2 7757   7.384   6.094   4.379
 2605TIP3    H1 7758   7.293   6.075   4.402
 2605TIP3    H2 7759   7.427   6.114   4.462
 2606TIP3   OH2 7760   4.317   7.265   5.962
 2606TIP3    H1 7761   4.223   7.269   5.945
 2606TIP3    H2 7762   4.352   7.211   5.890
 2607TIP3   OH2 7763   6.585   1.023   6.497
 2607TIP3    H1 7764   6.651   1.092   6.507
 2607TIP3    H2 7765   6.573   1.015   6.403
 2608TIP3   OH2 7766   4.396   3.285   1.757
 2608TIP3    H1 7767   4.327   3.350   1.745
 2608TIP3    H2 7768   4.421   3.292   1.849
 2609TIP3   OH2 7769   5.943   0.928   0.909
 2609TIP3    H1 7770   5.900   0.962   0.987
 2609TIP3    H2 7771   5.904   0.977   0.837
 2610TIP3   OH2 7772   4.628   4.313   3.008
 2610TIP3    H1 7773   4.540   4.293   3.039
 2610TIP3    H2 7774   4.685   4.285   3.080
 2611TIP3   OH2 7775   3.226   4.448   0.576
 2611TIP3    H1 7776   3.313   4.426   0.543
 2611TIP3    H2 7777   3.174   4.368   0.564
 2612TIP3   OH2 7778   7.269   3.328   5.059
 2612TIP3    H1 7779   7.319   3.261   5.106
 2612TIP3    H2 7780   7.335   3.385   5.021
 2613TIP3   OH2 7781   0.430   6.496   5.341
 2613TIP3    H1 7782   0.426   6.586   5.307
 2613TIP3    H2 7783   0.522   6.483   5.363
 2614TIP3   OH2 7784   1.178   1.245   2.141
 2614TIP3    H1 7785   1.123   1.317   2.172
 2614TIP3    H2 7786   1.197   1.193   2.220
 2615TIP3   OH2 7787   4.650   7.740   2.683
 2615TIP3    H1 7788   4.701   7.808   2.725
 2615TIP3    H2 7789   4.586   7.787   2.629
 2616TIP3   OH2 7790   0.017   3.058   3.936
 2616TIP3    H1 7791   0.095   3.030   3.984
 2616TIP3    H2 7792  -0.017   2.978   3.896
 2617TIP3   OH2 7793   1.659   6.730   1.364
 2617TIP3    H1 7794   1.636   6.643   1.332
 2617TIP3    H2 7795   1.661   6.721   1.459
 2618TIP3   OH2 7796   0.725   3.869   4.903
 2618TIP3    H1 7797   0.687   3.929   4.967
 2618TIP3    H2 7798   0.705   3.782   4.936
 2619TIP3   OH2 7799   1.187   3.723   6.347
 2619TIP3    H1 7800   1.111   3.683   6.305
 2619TIP3    H2 7801   1.236   3.648   6.383
 2620TIP3   OH2 7802   0.770   2.526   4.840
 2620TIP3    H1 7803   0.731   2.594   4.895
 2620TIP3    H2 7804   0.845   2.495   4.890
 2621TIP3   OH2 7805   3.617   2.036   3.021
 2621TIP3    H1 7806   3.559   1.968   3.054
 2621TIP3    H2 7807   3.684   1.989   2.971
 2622TIP3   OH2 7808   7.073   5.175   3.664
 2622TIP3    H1 7809   7.110   5.192   3.751
 2622TIP3    H2 7810   7.069   5.080   3.658
 2623TIP3   OH2 7811   4.512   0.082   0.760
 2623TIP3    H1 7812   4.450   0.010   0.773
 2623TIP3    H2 7813   4.550   0.066   0.674
 2624TIP3   OH2 7814   7.811   7.783   6.384
 2624TIP3    H1 7815   7.737   7.839   6.362
 2624TIP3    H2 7816   7.887   7.842   6.382
 2625TIP3   OH2 7817   2.255   4.363   0.085
 2625TIP3    H1 7818   2.258   4.446   0.037
 2625TIP3    H2 7819   2.303   4.301   0.029
 2626TIP3   OH2 7820   6.444   3.426   4.996
 2626TIP3    H1 7821   6.494   3.506   4.980
 2626TIP3    H2 7822   6.509   3.356   4.991
 2627TIP3   OH2 7823   6.747   4.209   0.888
 2627TIP3    H1 7824   6.801   4.171   0.957
 2627TIP3    H2 7825   6.715   4.133   0.839
 2628TIP3   OH2 7826   1.963   0.713   1.560
 2628TIP3    H1 7827   1.907   0.783   1.526
 2628TIP3    H2 7828   2.040   0.714   1.503
 2629TIP3   OH2 7829   3.678   5.380   0.576
 2629TIP3    H1 7830   3.606   5.336   0.619
 2629TIP3    H2 7831   3.664   5.365   0.483
 2630TIP3   OH2 7832   7.770   0.030   1.983
 2630TIP3    H1 7833   7.803  -0.037   2.043
 2630TIP3    H2 7834   7.849   0.073   1.950
 2631TIP3   OH2 7835   3.720   5.817   1.703
 2631TIP3    H1 7836   3.712   5.801   1.609
 2631TIP3    H2 7837   3.702   5.911   1.713
 2632TIP3   OH2 7838   4.975   6.259   3.189
 2632TIP3    H1 7839   5.069   6.279   3.189
 2632TIP3    H2 7840   4.934   6.336   3.227
 2633TIP3   OH2 7841   2.408   7.401   0.179
 2633TIP3    H1 7842   2.439   7.481   0.222
 2633TIP3    H2 7843   2.476   7.336   0.197
 2634TIP3   OH2 7844   1.280   5.294   0.238
 2634TIP3    H1 7845   1.316   5.341   0.314
 2634TIP3    H2 7846   1.186   5.295   0.252
 2635TIP3   OH2 7847   8.159   3.298   5.762
 2635TIP3    H1 7848   8.127   3.211   5.785
 2635TIP3    H2 7849   8.192   3.289   5.673
 2636TIP3   OH2 7850   2.457   5.548   6.162
 2636TIP3    H1 7851   2.385   5.495   6.196
 2636TIP3    H2 7852   2.466   5.620   6.225
 2637TIP3   OH2 7853   4.733   7.270   1.359
 2637TIP3    H1 7854   4.696   7.187   1.391
 2637TIP3    H2 7855   4.659   7.330   1.357
 2638TIP3   OH2 7856   1.645   7.769   1.129
 2638TIP3    H1 7857   1.676   7.682   1.153
 2638TIP3    H2 7858   1.552   7.756   1.108
 2639TIP3   OH2 7859   0.181   6.666   1.144
 2639TIP3    H1 7860   0.089   6.656   1.118
 2639TIP3    H2 7861   0.214   6.737   1.090
 2640TIP3   OH2 7862   3.147   2.643   0.755
 2640TIP3    H1 7863   3.140   2.736   0.736
 2640TIP3    H2 7864   3.140   2.600   0.670
 2641TIP3   OH2 7865   0.858   0.799   1.550
 2641TIP3    H1 7866   0.880   0.830   1.462
 2641TIP3    H2 7867   0.798   0.727   1.535
 2642TIP3   OH2 7868   6.095   3.127   1.046
 2642TIP3    H1 7869   6.041   3.063   1.092
 2642TIP3    H2 7870   6.108   3.090   0.959
 2643TIP3   OH2 7871   5.604   7.185   5.340
 2643TIP3    H1 7872   5.540   7.208   5.407
 2643TIP3    H2 7873   5.655   7.265   5.326
 2644TIP3   OH2 7874   7.097   1.441   4.005
 2644TIP3    H1 7875   7.016   1.477   4.041
 2644TIP3    H2 7876   7.083   1.346   4.006
 2645TIP3   OH2 7877   6.036   6.932   0.270
 2645TIP3    H1 7878   6.051   7.010   0.323
 2645TIP3    H2 7879   6.068   6.954   0.183
 2646TIP3   OH2 7880   6.785   1.303   5.917
 2646TIP3    H1 7881   6.768   1.209   5.916
 2646TIP3    H2 7882   6.869   1.311   5.963
 2647TIP3   OH2 7883   5.350   2.946   5.694
 2647TIP3    H1 7884   5.346   2.910   5.783
 2647TIP3    H2 7885   5.370   3.038   5.706
 2648TIP3   OH2 7886   1.031   2.278   5.388
 2648TIP3    H1 7887   1.084   2.207   5.353
 2648TIP3    H2 7888   1.094   2.344   5.415
 2649TIP3   OH2 7889   1.072   7.644   5.919
 2649TIP3    H1 7890   1.052   7.680   5.833
 2649TIP3    H2 7891   1.100   7.554   5.901
 2650TIP3   OH2 7892   1.221   7.783   2.548
 2650TIP3    H1 7893   1.205   7.732   2.468
 2650TIP3    H2 7894   1.206   7.874   2.522
 2651TIP3   OH2 7895   4.506   4.460   4.060
 2651TIP3    H1 7896   4.533   4.416   3.979
 2651TIP3    H2 7897   4.548   4.546   4.056
 2652TIP3   OH2 7898   1.652   2.057   5.978
 2652TIP3    H1 7899   1.694   2.142   5.975
 2652TIP3    H2 7900   1.559   2.076   5.963
 2653TIP3   OH2 7901   5.033   1.796   3.141
 2653TIP3    H1 7902   5.104   1.778   3.202
 2653TIP3    H2 7903   5.039   1.727   3.075
 2654TIP3   OH2 7904   6.328   5.477   4.819
 2654TIP3    H1 7905   6.339   5.529   4.898
 2654TIP3    H2 7906   6.390   5.404   4.829
 2655TIP3   OH2 7907   4.477   0.993   2.019
 2655TIP3    H1 7908   4.540   0.922   2.034
 2655TIP3    H2 7909   4.524   1.055   1.963
 2656TIP3   OH2 7910   3.999   7.075   1.387
 2656TIP3    H1 7911   3.923   7.031   1.425
 2656TIP3    H2 7912   4.053   7.098   1.463
 2657TIP3   OH2 7913   2.840   2.937   6.523
 2657TIP3    H1 7914   2.792   2.857   6.545
 2657TIP3    H2 7915   2.898   2.951   6.598
 2658TIP3   OH2 7916   0.396   3.060   1.179
 2658TIP3    H1 7917   0.367   3.116   1.251
 2658TIP3    H2 7918   0.315   3.032   1.136
 2659TIP3   OH2 7919   5.344   1.563   6.755
 2659TIP3    H1 7920   5.274   1.589   6.695
 2659TIP3    H2 7921   5.415   1.624   6.735
 2660TIP3   OH2 7922   5.175   2.122   4.502
 2660TIP3    H1 7923   5.240   2.054   4.484
 2660TIP3    H2 7924   5.110   2.079   4.558
 2661TIP3   OH2 7925   0.164   4.623   2.678
 2661TIP3    H1 7926   0.186   4.620   2.585
 2661TIP3    H2 7927   0.092   4.686   2.684
 2662TIP3   OH2 7928   6.080   6.313   0.131
 2662TIP3    H1 7929   6.142   6.266   0.188
 2662TIP3    H2 7930   6.129   6.390   0.101
 2663TIP3   OH2 7931   5.397   1.338   1.420
 2663TIP3    H1 7932   5.323   1.328   1.480
 2663TIP3    H2 7933   5.359   1.334   1.333
 2664TIP3   OH2 7934   5.961   1.756   4.142
 2664TIP3    H1 7935   6.030   1.750   4.076
 2664TIP3    H2 7936   5.884   1.718   4.099
 2665TIP3   OH2 7937   1.177   5.271   0.942
 2665TIP3    H1 7938   1.184   5.190   0.890
 2665TIP3    H2 7939   1.135   5.333   0.882
 2666TIP3   OH2 7940   8.150   0.644   3.359
 2666TIP3    H1 7941   8.159   0.600   3.443
 2666TIP3    H2 7942   8.145   0.574   3.294
 2667TIP3   OH2 7943   2.321   3.005   3.065
 2667TIP3    H1 7944   2.250   2.992   3.002
 2667TIP3    H2 7945   2.334   2.918   3.103
 2668TIP3   OH2 7946   6.428   1.797   2.454
 2668TIP3    H1 7947   6.505   1.830   2.409
 2668TIP3    H2 7948   6.460   1.721   2.503
 2669TIP3   OH2 7949   6.586   6.302   6.516
 2669TIP3    H1 7950   6.632   6.226   6.551
 2669TIP3    H2 7951   6.586   6.365   6.587
 2670TIP3   OH2 7952   3.627   0.354   0.674
 2670TIP3    H1 7953   3.587   0.399   0.748
 2670TIP3    H2 7954   3.631   0.420   0.605
 2671TIP3   OH2 7955   1.943   3.326   6.341
 2671TIP3    H1 7956   2.011   3.311   6.276
 2671TIP3    H2 7957   1.959   3.414   6.374
 2672TIP3   OH2 7958   3.426   3.732   4.204
 2672TIP3    H1 7959   3.483   3.710   4.130
 2672TIP3    H2 7960   3.385   3.815   4.179
 2673TIP3   OH2 7961   2.122   1.022   3.737
 2673TIP3    H1 7962   2.216   1.039   3.738
 2673TIP3    H2 7963   2.085   1.082   3.802
 2674TIP3   OH2 7964   3.085   4.491   1.021
 2674TIP3    H1 7965   3.042   4.431   0.960
 2674TIP3    H2 7966   3.027   4.567   1.025
 2675TIP3   OH2 7967   6.410   6.573   1.414
 2675TIP3    H1 7968   6.439   6.664   1.402
 2675TIP3    H2 7969   6.483   6.530   1.460
 2676TIP3   OH2 7970   0.717   0.568   5.224
 2676TIP3    H1 7971   0.734   0.648   5.173
 2676TIP3    H2 7972   0.759   0.585   5.309
 2677TIP3   OH2 7973   2.929   0.407   4.323
 2677TIP3    H1 7974   2.868   0.465   4.277
 2677TIP3    H2 7975   2.915   0.427   4.416
 2678TIP3   OH2 7976   6.567   1.232   1.859
 2678TIP3    H1 7977   6.631   1.165   1.835
 2678TIP3    H2 7978   6.489   1.211   1.807
 2679TIP3   OH2 7979   3.077   0.725   6.686
 2679TIP3    H1 7980   3.068   0.651   6.746
 2679TIP3    H2 7981   3.150   0.702   6.630
 2680TIP3   OH2 7982   5.615   7.399   4.907
 2680TIP3    H1 7983   5.626   7.433   4.818
 2680TIP3    H2 7984   5.620   7.304   4.898
 2681TIP3   OH2 7985   0.114   6.928   6.389
 2681TIP3    H1 7986   0.124   6.832   6.391
 2681TIP3    H2 7987   0.126   6.950   6.296
 2682TIP3   OH2 7988   2.261   1.081   4.394
 2682TIP3    H1 7989   2.231   1.160   4.440
 2682TIP3    H2 7990   2.181   1.043   4.357
 2683TIP3   OH2 7991   1.047   3.831   4.116
 2683TIP3    H1 7992   1.003   3.889   4.179
 2683TIP3    H2 7993   0.994   3.839   4.036
 2684TIP3   OH2 7994   0.772   1.391   1.922
 2684TIP3    H1 7995   0.860   1.362   1.899
 2684TIP3    H2 7996   0.759   1.471   1.871
 2685TIP3   OH2 7997   8.032   3.172   1.911
 2685TIP3    H1 7998   8.049   3.109   1.841
 2685TIP3    H2 7999   7.941   3.198   1.898
 2686TIP3   OH2 8000   5.695   2.264   1.713
 2686TIP3    H1 8001   5.755   2.274   1.787
 2686TIP3    H2 8002   5.751   2.271   1.635
 2687TIP3   OH2 8003   4.155   0.334   6.050
 2687TIP3    H1 8004   4.198   0.270   5.993
 2687TIP3    H2 8005   4.220   0.404   6.061
 2688TIP3   OH2 8006   2.708   5.984   4.370
 2688TIP3    H1 8007   2.632   5.977   4.311
 2688TIP3    H2 8008   2.685   6.055   4.430
 2689TIP3   OH2 8009   3.425   2.238   0.628
 2689TIP3    H1 8010   3.341   2.278   0.654
 2689TIP3    H2 8011   3.403   2.147   0.611
 2690TIP3   OH2 8012   6.327   6.916   3.241
 2690TIP3    H1 8013   6.411   6.946   3.205
 2690TIP3    H2 8014   6.297   6.849   3.179
 2691TIP3   OH2 8015   5.998   2.553   2.068
 2691TIP3    H1 8016   6.025   2.641   2.097
 2691TIP3    H2 8017   6.062   2.530   2.001
 2692TIP3   OH2 8018   5.255   5.846   1.358
 2692TIP3    H1 8019   5.314   5.816   1.427
 2692TIP3    H2 8020   5.180   5.882   1.405
 2693TIP3   OH2 8021   7.431   3.972   5.594
 2693TIP3    H1 8022   7.522   3.999   5.588
 2693TIP3    H2 8023   7.390   4.008   5.514
 2694TIP3   OH2 8024   2.388   0.299   3.739
 2694TIP3    H1 8025   2.310   0.346   3.770
 2694TIP3    H2 8026   2.360   0.260   3.655
 2695TIP3   OH2 8027   0.503   4.811   3.467
 2695TIP3    H1 8028   0.555   4.802   3.547
 2695TIP3    H2 8029   0.477   4.903   3.465
 2696TIP3   OH2 8030   2.313   7.453   5.197
 2696TIP3    H1 8031   2.308   7.548   5.199
 2696TIP3    H2 8032   2.247   7.427   5.133
 2697TIP3   OH2 8033   7.782   4.448   3.755
 2697TIP3    H1 8034   7.811   4.493   3.834
 2697TIP3    H2 8035   7.862   4.433   3.705
 2698TIP3   OH2 8036   0.721   3.484   3.297
 2698TIP3    H1 8037   0.685   3.514   3.214
 2698TIP3    H2 8038   0.706   3.557   3.358
 2699TIP3   OH2 8039   0.725   4.952   2.453
 2699TIP3    H1 8040   0.645   4.995   2.485
 2699TIP3    H2 8041   0.713   4.860   2.473
 2700TIP3   OH2 8042   4.549   2.946   5.576
 2700TIP3    H1 8043   4.471   2.893   5.557
 2700TIP3    H2 8044   4.521   3.006   5.645
 2701TIP3   OH2 8045   4.463   0.160   2.934
 2701TIP3    H1 8046   4.503   0.171   3.021
 2701TIP3    H2 8047   4.376   0.124   2.953
 2702TIP3   OH2 8048   7.134   4.636   5.086
 2702TIP3    H1 8049   7.047   4.674   5.070
 2702TIP3    H2 8050   7.115   4.550   5.123
 2703TIP3   OH2 8051   7.118   4.994   6.214
 2703TIP3    H1 8052   7.086   5.084   6.215
 2703TIP3    H2 8053   7.090   4.959   6.129
 2704TIP3   OH2 8054   4.402   2.403   4.432
 2704TIP3    H1 8055   4.349   2.329   4.401
 2704TIP3    H2 8056   4.473   2.409   4.368
 2705TIP3   OH2 8057   7.622   2.964   5.114
 2705TIP3    H1 8058   7.600   3.044   5.067
 2705TIP3    H2 8059   7.712   2.978   5.144
 2706TIP3   OH2 8060   4.544   7.501   2.791
 2706TIP3    H1 8061   4.611   7.436   2.769
 2706TIP3    H2 8062   4.588   7.585   2.779
 2707TIP3   OH2 8063   3.888   0.618   5.909
 2707TIP3    H1 8064   3.840   0.609   5.991
 2707TIP3    H2 8065   3.850   0.551   5.852
 2708TIP3   OH2 8066   1.236   7.491   0.907
 2708TIP3    H1 8067   1.220   7.451   0.821
 2708TIP3    H2 8068   1.221   7.420   0.969
 2709TIP3   OH2 8069   3.757   2.987   0.035
 2709TIP3    H1 8070   3.795   3.070   0.005
 2709TIP3    H2 8071   3.827   2.923   0.023
 2710TIP3   OH2 8072   2.976   0.981   6.014
 2710TIP3    H1 8073   2.900   1.026   6.053
 2710TIP3    H2 8074   2.942   0.942   5.933
 2711TIP3   OH2 8075   5.289   1.264   0.336
 2711TIP3    H1 8076   5.350   1.252   0.263
 2711TIP3    H2 8077   5.341   1.308   0.404
 2712TIP3   OH2 8078   7.708   6.045   5.507
 2712TIP3    H1 8079   7.706   6.090   5.422
 2712TIP3    H2 8080   7.667   6.106   5.567
 2713TIP3   OH2 8081   5.394   0.538   1.009
 2713TIP3    H1 8082   5.361   0.463   1.058
 2713TIP3    H2 8083   5.379   0.515   0.918
 2714TIP3   OH2 8084   5.458   5.099   5.455
 2714TIP3    H1 8085   5.365   5.085   5.471
 2714TIP3    H2 8086   5.466   5.095   5.359
 2715TIP3   OH2 8087   5.040   5.317   3.950
 2715TIP3    H1 8088   5.027   5.372   4.027
 2715TIP3    H2 8089   5.134   5.320   3.935
 2716TIP3   OH2 8090   5.027   1.054   2.082
 2716TIP3    H1 8091   4.983   1.129   2.040
 2716TIP3    H2 8092   5.103   1.037   2.027
 2717TIP3   OH2 8093   1.465   3.111   1.706
 2717TIP3    H1 8094   1.428   3.197   1.685
 2717TIP3    H2 8095   1.465   3.064   1.623
 2718TIP3   OH2 8096   1.861   6.020   3.984
 2718TIP3    H1 8097   1.782   6.059   3.949
 2718TIP3    H2 8098   1.866   6.052   4.074
 2719TIP3   OH2 8099   2.249   2.290   0.802
 2719TIP3    H1 8100   2.213   2.208   0.767
 2719TIP3    H2 8101   2.287   2.334   0.726
 2720TIP3   OH2 8102   7.443   5.362   4.391
 2720TIP3    H1 8103   7.394   5.306   4.331
 2720TIP3    H2 8104   7.535   5.344   4.370
 2721TIP3   OH2 8105   1.002  -0.006   1.356
 2721TIP3    H1 8106   1.045  -0.064   1.419
 2721TIP3    H2 8107   1.022   0.082   1.387
 2722TIP3   OH2 8108   4.810   1.084   4.097
 2722TIP3    H1 8109   4.841   1.126   4.017
 2722TIP3    H2 8110   4.761   1.152   4.143
 2723TIP3   OH2 8111   7.968   3.399   6.403
 2723TIP3    H1 8112   7.969   3.491   6.429
 2723TIP3    H2 8113   8.011   3.354   6.476
 2724TIP3   OH2 8114   6.845   7.045   2.876
 2724TIP3    H1 8115   6.878   7.131   2.902
 2724TIP3    H2 8116   6.822   7.055   2.783
 2725TIP3   OH2 8117   8.081   2.655   6.093
 2725TIP3    H1 8118   8.079   2.666   5.998
 2725TIP3    H2 8119   7.989   2.644   6.117
 2726TIP3   OH2 8120   4.593   7.689   6.082
 2726TIP3    H1 8121   4.596   7.729   5.996
 2726TIP3    H2 8122   4.507   7.712   6.117
 2727TIP3   OH2 8123   7.112   0.385   5.739
 2727TIP3    H1 8124   7.141   0.475   5.752
 2727TIP3    H2 8125   7.175   0.332   5.788
 2728TIP3   OH2 8126   8.023   2.671   3.565
 2728TIP3    H1 8127   8.006   2.764   3.583
 2728TIP3    H2 8128   7.945   2.641   3.518
 2729TIP3   OH2 8129   4.981   4.402   3.462
 2729TIP3    H1 8130   5.003   4.414   3.554
 2729TIP3    H2 8131   5.065   4.388   3.419
 2730TIP3   OH2 8132   5.812   7.207   0.485
 2730TIP3    H1 8133   5.788   7.252   0.566
 2730TIP3    H2 8134   5.755   7.130   0.482
 2731TIP3   OH2 8135   6.503   6.593   3.759
 2731TIP3    H1 8136   6.415   6.629   3.749
 2731TIP3    H2 8137   6.516   6.539   3.680
 2732TIP3   OH2 8138   5.012   1.281   1.162
 2732TIP3    H1 8139   5.088   1.336   1.143
 2732TIP3    H2 8140   4.940   1.343   1.174
 2733TIP3   OH2 8141   1.581   2.562   3.259
 2733TIP3    H1 8142   1.632   2.566   3.178
 2733TIP3    H2 8143   1.646   2.565   3.328
 2734TIP3   OH2 8144   5.053   1.823   4.924
 2734TIP3    H1 8145   5.031   1.730   4.925
 2734TIP3    H2 8146   4.976   1.866   4.960
 2735TIP3   OH2 8147   2.880   1.557   6.567
 2735TIP3    H1 8148   2.971   1.563   6.598
 2735TIP3    H2 8149   2.878   1.609   6.487
 2736TIP3   OH2 8150   4.156   4.148   5.340
 2736TIP3    H1 8151   4.101   4.072   5.321
 2736TIP3    H2 8152   4.246   4.114   5.335
 2737TIP3   OH2 8153   7.974   1.272   3.109
 2737TIP3    H1 8154   8.051   1.259   3.165
 2737TIP3    H2 8155   7.914   1.202   3.135
 2738TIP3   OH2 8156   3.286   6.795   4.673
 2738TIP3    H1 8157   3.311   6.887   4.661
 2738TIP3    H2 8158   3.194   6.792   4.646
 2739TIP3   OH2 8159   1.514   6.204   3.846
 2739TIP3    H1 8160   1.458   6.266   3.893
 2739TIP3    H2 8161   1.513   6.125   3.900
 2740TIP3   OH2 8162   4.896   2.269   4.191
 2740TIP3    H1 8163   4.975   2.298   4.146
 2740TIP3    H2 8164   4.922   2.257   4.282
 2741TIP3   OH2 8165   7.828   6.613   4.882
 2741TIP3    H1 8166   7.916   6.591   4.913
 2741TIP3    H2 8167   7.818   6.563   4.801
 2742TIP3   OH2 8168   6.999   6.388   4.246
 2742TIP3    H1 8169   6.906   6.366   4.238
 2742TIP3    H2 8170   7.019   6.441   4.169
 2743TIP3   OH2 8171   8.021   4.121   3.941
 2743TIP3    H1 8172   8.011   4.149   4.032
 2743TIP3    H2 8173   7.946   4.065   3.925
 2744TIP3   OH2 8174   4.293   2.857   3.977
 2744TIP3    H1 8175   4.386   2.859   4.002
 2744TIP3    H2 8176   4.262   2.772   4.006
 2745TIP3   OH2 8177   6.223   6.786   1.274
 2745TIP3    H1 8178   6.272   6.750   1.348
 2745TIP3    H2 8179   6.278   6.857   1.240
 2746TIP3   OH2 8180   7.465   2.067   1.876
 2746TIP3    H1 8181   7.478   2.007   1.949
 2746TIP3    H2 8182   7.547   2.116   1.871
 2747TIP3   OH2 8183   7.327   7.370   0.140
 2747TIP3    H1 8184   7.376   7.433   0.193
 2747TIP3    H2 8185   7.248   7.417   0.114
 2748TIP3   OH2 8186   3.567   3.526   5.438
 2748TIP3    H1 8187   3.525   3.491   5.359
 2748TIP3    H2 8188   3.579   3.619   5.419
 2749TIP3   OH2 8189   1.974   2.739   4.917
 2749TIP3    H1 8190   2.037   2.678   4.881
 2749TIP3    H2 8191   1.914   2.758   4.844
 2750TIP3   OH2 8192   5.535   5.130   2.143
 2750TIP3    H1 8193   5.470   5.106   2.077
 2750TIP3    H2 8194   5.618   5.129   2.096
 2751TIP3   OH2 8195   0.767   0.145   1.957
 2751TIP3    H1 8196   0.748   0.063   2.004
 2751TIP3    H2 8197   0.863   0.149   1.954
 2752TIP3   OH2 8198   7.944   6.117   5.967
 2752TIP3    H1 8199   7.914   6.048   6.026
 2752TIP3    H2 8200   7.940   6.078   5.880
 2753TIP3   OH2 8201   5.660   6.883   4.147
 2753TIP3    H1 8202   5.705   6.951   4.096
 2753TIP3    H2 8203   5.706   6.882   4.231
 2754TIP3   OH2 8204   2.510   0.794   4.688
 2754TIP3    H1 8205   2.496   0.856   4.617
 2754TIP3    H2 8206   2.573   0.732   4.653
 2755TIP3   OH2 8207   5.630   3.070   5.548
 2755TIP3    H1 8208   5.593   3.066   5.636
 2755TIP3    H2 8209   5.558   3.043   5.490
 2756TIP3   OH2 8210   4.455   5.605   0.876
 2756TIP3    H1 8211   4.367   5.592   0.911
 2756TIP3    H2 8212   4.503   5.527   0.903
 2757TIP3   OH2 8213   5.652   7.278   5.823
 2757TIP3    H1 8214   5.632   7.318   5.907
 2757TIP3    H2 8215   5.682   7.189   5.844
 2758TIP3   OH2 8216   3.432   6.016   5.591
 2758TIP3    H1 8217   3.361   5.987   5.533
 2758TIP3    H2 8218   3.470   5.934   5.623
 2759TIP3   OH2 8219   7.057   3.612   1.139
 2759TIP3    H1 8220   7.084   3.662   1.062
 2759TIP3    H2 8221   7.114   3.535   1.139
 2760TIP3   OH2 8222   4.948   1.219   1.672
 2760TIP3    H1 8223   4.992   1.303   1.661
 2760TIP3    H2 8224   4.930   1.214   1.766
 2761TIP3   OH2 8225   5.794   3.496   2.409
 2761TIP3    H1 8226   5.824   3.416   2.451
 2761TIP3    H2 8227   5.716   3.522   2.459
 2762TIP3   OH2 8228   7.231   0.119   1.069
 2762TIP3    H1 8229   7.307   0.153   1.117
 2762TIP3    H2 8230   7.240   0.156   0.981
 2763TIP3   OH2 8231   4.990   7.036   1.666
 2763TIP3    H1 8232   4.899   7.006   1.672
 2763TIP3    H2 8233   5.015   7.053   1.757
 2764TIP3   OH2 8234   4.832   0.533   2.209
 2764TIP3    H1 8235   4.771   0.584   2.157
 2764TIP3    H2 8236   4.832   0.575   2.295
 2765TIP3   OH2 8237   3.653   2.332   5.605
 2765TIP3    H1 8238   3.670   2.322   5.511
 2765TIP3    H2 8239   3.558   2.345   5.610
 2766TIP3   OH2 8240   4.841   5.046   6.025
 2766TIP3    H1 8241   4.881   5.060   6.111
 2766TIP3    H2 8242   4.852   4.952   6.009
 2767TIP3   OH2 8243   0.707   6.583   6.236
 2767TIP3    H1 8244   0.719   6.664   6.286
 2767TIP3    H2 8245   0.635   6.603   6.176
 2768TIP3   OH2 8246   4.648   7.639   3.643
 2768TIP3    H1 8247   4.732   7.663   3.605
 2768TIP3    H2 8248   4.660   7.651   3.737
 2769TIP3   OH2 8249   3.409   3.400   6.663
 2769TIP3    H1 8250   3.435   3.480   6.710
 2769TIP3    H2 8251   3.457   3.404   6.580
 2770TIP3   OH2 8252   1.124   5.363   5.618
 2770TIP3    H1 8253   1.207   5.411   5.613
 2770TIP3    H2 8254   1.149   5.272   5.627
 2771TIP3   OH2 8255   5.211   4.298   5.371
 2771TIP3    H1 8256   5.249   4.355   5.436
 2771TIP3    H2 8257   5.152   4.240   5.420
 2772TIP3   OH2 8258   2.712   5.160   5.746
 2772TIP3    H1 8259   2.628   5.163   5.701
 2772TIP3    H2 8260   2.755   5.242   5.722
 2773TIP3   OH2 8261   8.265   4.973   2.417
 2773TIP3    H1 8262   8.196   4.945   2.478
 2773TIP3    H2 8263   8.301   5.052   2.457
 2774TIP3   OH2 8264   7.336   7.151   6.481
 2774TIP3    H1 8265   7.284   7.071   6.486
 2774TIP3    H2 8266   7.418   7.124   6.440
 2775TIP3   OH2 8267   5.471   1.600   0.823
 2775TIP3    H1 8268   5.388   1.610   0.777
 2775TIP3    H2 8269   5.471   1.510   0.855
 2776TIP3   OH2 8270   3.635   0.235   5.234
 2776TIP3    H1 8271   3.674   0.255   5.320
 2776TIP3    H2 8272   3.646   0.140   5.224
 2777TIP3   OH2 8273   5.597   7.613   2.527
 2777TIP3    H1 8274   5.517   7.586   2.481
 2777TIP3    H2 8275   5.565   7.654   2.607
 2778TIP3   OH2 8276   6.488   3.206   2.578
 2778TIP3    H1 8277   6.544   3.281   2.597
 2778TIP3    H2 8278   6.413   3.243   2.532
 2779TIP3   OH2 8279   2.781   6.602   2.283
 2779TIP3    H1 8280   2.874   6.585   2.271
 2779TIP3    H2 8281   2.743   6.593   2.196
 2780TIP3   OH2 8282   1.539   0.609   6.575
 2780TIP3    H1 8283   1.622   0.597   6.620
 2780TIP3    H2 8284   1.474   0.570   6.634
 2781TIP3   OH2 8285   1.378   2.243   1.776
 2781TIP3    H1 8286   1.350   2.313   1.835
 2781TIP3    H2 8287   1.457   2.278   1.734
 2782TIP3   OH2 8288   2.082   7.117   3.600
 2782TIP3    H1 8289   2.022   7.072   3.541
 2782TIP3    H2 8290   2.067   7.210   3.582
 2783TIP3   OH2 8291   0.887   3.396   2.800
 2783TIP3    H1 8292   0.807   3.357   2.836
 2783TIP3    H2 8293   0.914   3.460   2.867
 2784TIP3   OH2 8294   4.683   0.293   6.700
 2784TIP3    H1 8295   4.649   0.272   6.787
 2784TIP3    H2 8296   4.726   0.378   6.712
 2785TIP3   OH2 8297   4.419   5.620   5.367
 2785TIP3    H1 8298   4.514   5.620   5.377
 2785TIP3    H2 8299   4.387   5.668   5.443
 2786TIP3   OH2 8300   1.150   4.103   5.588
 2786TIP3    H1 8301   1.145   4.087   5.494
 2786TIP3    H2 8302   1.137   4.197   5.598
 2787TIP3   OH2 8303   3.878   6.287   5.466
 2787TIP3    H1 8304   3.786   6.270   5.484
 2787TIP3    H2 8305   3.910   6.328   5.547
 2788TIP3   OH2 8306   7.981   1.422   2.883
 2788TIP3    H1 8307   7.900   1.461   2.915
 2788TIP3    H2 8308   8.015   1.373   2.958
 2789TIP3   OH2 8309   0.218   4.819   1.390
 2789TIP3    H1 8310   0.301   4.865   1.403
 2789TIP3    H2 8311   0.201   4.827   1.296
 2790TIP3   OH2 8312   8.191   3.964   1.120
 2790TIP3    H1 8313   8.189   3.890   1.182
 2790TIP3    H2 8314   8.282   3.967   1.091
 2791TIP3   OH2 8315   4.645   1.105   6.611
 2791TIP3    H1 8316   4.716   1.047   6.583
 2791TIP3    H2 8317   4.690   1.180   6.650
 2792TIP3   OH2 8318   4.180   5.525   2.505
 2792TIP3    H1 8319   4.209   5.614   2.486
 2792TIP3    H2 8320   4.260   5.473   2.508
 2793TIP3   OH2 8321   7.047   3.283   2.319
 2793TIP3    H1 8322   6.964   3.304   2.276
 2793TIP3    H2 8323   7.113   3.334   2.270
 2794TIP3   OH2 8324   2.681   6.344   5.026
 2794TIP3    H1 8325   2.767   6.308   5.050
 2794TIP3    H2 8326   2.630   6.340   5.107
 2795TIP3   OH2 8327   8.022   4.342   3.722
 2795TIP3    H1 8328   8.082   4.278   3.684
 2795TIP3    H2 8329   7.984   4.297   3.797
 2796TIP3   OH2 8330   3.982   0.328   1.071
 2796TIP3    H1 8331   4.013   0.323   1.161
 2796TIP3    H2 8332   4.001   0.418   1.044
 2797TIP3   OH2 8333   6.038   5.130   3.678
 2797TIP3    H1 8334   6.030   5.035   3.690
 2797TIP3    H2 8335   6.111   5.155   3.734
 2798TIP3   OH2 8336   4.938   7.817   4.634
 2798TIP3    H1 8337   4.949   7.892   4.577
 2798TIP3    H2 8338   4.889   7.754   4.582
 2799TIP3   OH2 8339   0.784   3.957   0.159
 2799TIP3    H1 8340   0.850   3.903   0.202
 2799TIP3    H2 8341   0.831   4.000   0.088
 2800TIP3   OH2 8342   5.641   4.592   3.466
 2800TIP3    H1 8343   5.608   4.596   3.555
 2800TIP3    H2 8344   5.719   4.537   3.471
 2801TIP3   OH2 8345   6.434   5.341   3.886
 2801TIP3    H1 8346   6.442   5.411   3.821
 2801TIP3    H2 8347   6.519   5.338   3.929
 2802TIP3   OH2 8348   3.513   7.365   0.833
 2802TIP3    H1 8349   3.497   7.455   0.804
 2802TIP3    H2 8350   3.607   7.360   0.847
 2803TIP3   OH2 8351   3.181   1.871   1.474
 2803TIP3    H1 8352   3.162   1.803   1.409
 2803TIP3    H2 8353   3.114   1.858   1.542
 2804TIP3   OH2 8354   6.161   4.368   1.125
 2804TIP3    H1 8355   6.206   4.374   1.209
 2804TIP3    H2 8356   6.145   4.459   1.099
 2805TIP3   OH2 8357   1.502   7.524   5.192
 2805TIP3    H1 8358   1.585   7.478   5.198
 2805TIP3    H2 8359   1.523   7.614   5.217
 2806TIP3   OH2 8360   3.694   1.167   5.454
 2806TIP3    H1 8361   3.783   1.143   5.481
 2806TIP3    H2 8362   3.645   1.172   5.536
 2807TIP3   OH2 8363   8.153   6.841   3.268
 2807TIP3    H1 8364   8.091   6.785   3.315
 2807TIP3    H2 8365   8.158   6.802   3.180
 2808TIP3   OH2 8366   1.198   7.785   5.496
 2808TIP3    H1 8367   1.267   7.718   5.491
 2808TIP3    H2 8368   1.207   7.822   5.584
 2809TIP3   OH2 8369   6.725   4.849   5.209
 2809TIP3    H1 8370   6.727   4.832   5.303
 2809TIP3    H2 8371   6.713   4.943   5.202
 2810TIP3   OH2 8372   5.199   2.150   1.161
 2810TIP3    H1 8373   5.267   2.127   1.225
 2810TIP3    H2 8374   5.142   2.211   1.208
 2811TIP3   OH2 8375   2.776   3.432   5.809
 2811TIP3    H1 8376   2.822   3.503   5.764
 2811TIP3    H2 8377   2.832   3.411   5.884
 2812TIP3   OH2 8378   3.223   4.859   1.234
 2812TIP3    H1 8379   3.262   4.946   1.233
 2812TIP3    H2 8380   3.154   4.864   1.299
 2813TIP3   OH2 8381   0.443   2.086   0.286
 2813TIP3    H1 8382   0.494   2.070   0.365
 2813TIP3    H2 8383   0.487   2.034   0.219
 2814TIP3   OH2 8384   7.488   7.110   2.591
 2814TIP3    H1 8385   7.455   7.104   2.502
 2814TIP3    H2 8386   7.542   7.031   2.602
 2815TIP3   OH2 8387   0.361   4.882   0.317
 2815TIP3    H1 8388   0.442   4.838   0.292
 2815TIP3    H2 8389   0.314   4.817   0.370
 2816TIP3   OH2 8390   5.053   4.077   3.971
 2816TIP3    H1 8391   5.094   4.117   4.048
 2816TIP3    H2 8392   5.036   3.987   3.998
 2817TIP3   OH2 8393   0.302   6.799   0.614
 2817TIP3    H1 8394   0.285   6.891   0.636
 2817TIP3    H2 8395   0.357   6.803   0.536
 2818TIP3   OH2 8396   6.534   1.966   0.722
 2818TIP3    H1 8397   6.466   2.008   0.669
 2818TIP3    H2 8398   6.499   1.879   0.742
 2819TIP3   OH2 8399   0.232   6.942   2.559
 2819TIP3    H1 8400   0.172   6.995   2.507
 2819TIP3    H2 8401   0.190   6.935   2.645
 2820TIP3   OH2 8402   5.720   2.233   3.040
 2820TIP3    H1 8403   5.806   2.272   3.026
 2820TIP3    H2 8404   5.659   2.297   3.003
 2821TIP3   OH2 8405   8.036   7.347   4.628
 2821TIP3    H1 8406   8.116   7.347   4.680
 2821TIP3    H2 8407   8.054   7.285   4.557
 2822TIP3   OH2 8408   0.192   3.885   2.640
 2822TIP3    H1 8409   0.151   3.969   2.657
 2822TIP3    H2 8410   0.273   3.887   2.693
 2823TIP3   OH2 8411   4.738   2.183   2.786
 2823TIP3    H1 8412   4.684   2.117   2.828
 2823TIP3    H2 8413   4.773   2.140   2.708
 2824TIP3   OH2 8414   0.056   3.542   5.454
 2824TIP3    H1 8415   0.060   3.560   5.548
 2824TIP3    H2 8416  -0.037   3.536   5.434
 2825TIP3   OH2 8417   0.964   6.596   1.227
 2825TIP3    H1 8418   1.055   6.626   1.228
 2825TIP3    H2 8419   0.913   6.673   1.252
 2826TIP3   OH2 8420   3.515   6.591   0.280
 2826TIP3    H1 8421   3.589   6.610   0.223
 2826TIP3    H2 8422   3.513   6.496   0.286
 2827TIP3   OH2 8423   7.121   4.633   2.707
 2827TIP3    H1 8424   7.061   4.644   2.781
 2827TIP3    H2 8425   7.134   4.722   2.674
 2828TIP3   OH2 8426   0.751   7.144   6.581
 2828TIP3    H1 8427   0.690   7.112   6.515
 2828TIP3    H2 8428   0.825   7.177   6.532
 2829TIP3   OH2 8429   6.008   5.005   5.482
 2829TIP3    H1 8430   5.913   5.004   5.491
 2829TIP3    H2 8431   6.032   4.912   5.475
 2830TIP3   OH2 8432   2.264   6.620   4.526
 2830TIP3    H1 8433   2.218   6.587   4.449
 2830TIP3    H2 8434   2.235   6.564   4.597
 2831TIP3   OH2 8435   0.024   0.535   5.745
 2831TIP3    H1 8436   0.041   0.531   5.651
 2831TIP3    H2 8437  -0.006   0.447   5.769
 2832TIP3   OH2 8438   2.282   6.550   2.558
 2832TIP3    H1 8439   2.212   6.543   2.623
 2832TIP3    H2 8440   2.273   6.471   2.505
 2833TIP3   OH2 8441   7.097   3.491   4.671
 2833TIP3    H1 8442   7.016   3.443   4.688
 2833TIP3    H2 8443   7.108   3.547   4.748
 2834TIP3   OH2 8444   2.766   0.854   0.714
 2834TIP3    H1 8445   2.718   0.835   0.795
 2834TIP3    H2 8446   2.846   0.802   0.720
 2835TIP3   OH2 8447   6.756   0.300   3.268
 2835TIP3    H1 8448   6.828   0.255   3.225
 2835TIP3    H2 8449   6.724   0.363   3.203
 2836TIP3   OH2 8450   6.639   3.797   1.210
 2836TIP3    H1 8451   6.714   3.739   1.214
 2836TIP3    H2 8452   6.673   3.883   1.236
 2837TIP3   OH2 8453   6.681   7.746   1.137
 2837TIP3    H1 8454   6.626   7.783   1.207
 2837TIP3    H2 8455   6.768   7.782   1.153
 2838TIP3   OH2 8456   7.173   4.978   4.293
 2838TIP3    H1 8457   7.144   4.920   4.364
 2838TIP3    H2 8458   7.256   5.013   4.323
 2839TIP3   OH2 8459   3.335   0.736   5.221
 2839TIP3    H1 8460   3.375   0.716   5.306
 2839TIP3    H2 8461   3.348   0.830   5.210
 2840TIP3   OH2 8462   5.466   1.214   2.003
 2840TIP3    H1 8463   5.477   1.290   2.060
 2840TIP3    H2 8464   5.555   1.193   1.974
 2841TIP3   OH2 8465   2.573   7.789   5.992
 2841TIP3    H1 8466   2.485   7.779   6.030
 2841TIP3    H2 8467   2.593   7.703   5.955
 2842TIP3   OH2 8468   5.417   0.208   5.883
 2842TIP3    H1 8469   5.426   0.137   5.946
 2842TIP3    H2 8470   5.498   0.205   5.832
 2843TIP3   OH2 8471   4.812   2.834   3.354
 2843TIP3    H1 8472   4.805   2.743   3.383
 2843TIP3    H2 8473   4.837   2.829   3.262
 2844TIP3   OH2 8474   5.999   6.411   0.642
 2844TIP3    H1 8475   6.072   6.472   0.654
 2844TIP3    H2 8476   6.033   6.345   0.582
 2845TIP3   OH2 8477   8.198   4.402   4.414
 2845TIP3    H1 8478   8.288   4.374   4.435
 2845TIP3    H2 8479   8.202   4.425   4.321
 2846TIP3   OH2 8480   7.841   5.373   4.767
 2846TIP3    H1 8481   7.842   5.303   4.702
 2846TIP3    H2 8482   7.752   5.408   4.764
 2847TIP3   OH2 8483   5.564   1.866   0.566
 2847TIP3    H1 8484   5.600   1.789   0.610
 2847TIP3    H2 8485   5.475   1.874   0.600
 2848TIP3   OH2 8486   8.141   6.877   6.186
 2848TIP3    H1 8487   8.143   6.866   6.091
 2848TIP3    H2 8488   8.213   6.937   6.205
 2849TIP3   OH2 8489   2.320   6.078   0.916
 2849TIP3    H1 8490   2.278   6.017   0.855
 2849TIP3    H2 8491   2.247   6.120   0.962
 2850TIP3   OH2 8492   7.486   4.714   3.444
 2850TIP3    H1 8493   7.580   4.696   3.448
 2850TIP3    H2 8494   7.460   4.686   3.356
 2851TIP3   OH2 8495   6.022   0.290   5.007
 2851TIP3    H1 8496   6.082   0.319   5.075
 2851TIP3    H2 8497   6.005   0.368   4.954
 2852TIP3   OH2 8498   2.731   0.521   0.081
 2852TIP3    H1 8499   2.727   0.582   0.155
 2852TIP3    H2 8500   2.672   0.450   0.106
 2853TIP3   OH2 8501   7.092   2.810   4.744
 2853TIP3    H1 8502   7.157   2.781   4.680
 2853TIP3    H2 8503   7.105   2.905   4.750
 2854TIP3   OH2 8504   3.206   2.533   5.855
 2854TIP3    H1 8505   3.227   2.495   5.940
 2854TIP3    H2 8506   3.113   2.517   5.844
 2855TIP3   OH2 8507   7.010   7.045   0.777
 2855TIP3    H1 8508   6.988   7.091   0.696
 2855TIP3    H2 8509   6.943   6.976   0.784
 2856TIP3   OH2 8510   6.497   6.645   1.810
 2856TIP3    H1 8511   6.503   6.552   1.790
 2856TIP3    H2 8512   6.588   6.673   1.819
 2857TIP3   OH2 8513   2.125   1.089   0.075
 2857TIP3    H1 8514   2.152   1.003   0.107
 2857TIP3    H2 8515   2.033   1.079   0.052
 2858TIP3   OH2 8516   4.756   0.973   3.740
 2858TIP3    H1 8517   4.770   1.056   3.695
 2858TIP3    H2 8518   4.663   0.972   3.762
 2859TIP3   OH2 8519   5.037   1.186   3.134
 2859TIP3    H1 8520   5.089   1.221   3.061
 2859TIP3    H2 8521   4.979   1.122   3.094
 2860TIP3   OH2 8522   4.210   2.793   1.797
 2860TIP3    H1 8523   4.203   2.775   1.891
 2860TIP3    H2 8524   4.255   2.877   1.792
 2861TIP3   OH2 8525   6.982   4.568   1.869
 2861TIP3    H1 8526   6.898   4.574   1.823
 2861TIP3    H2 8527   6.961   4.589   1.960
 2862TIP3   OH2 8528   0.249   7.080   0.667
 2862TIP3    H1 8529   0.191   7.156   0.670
 2862TIP3    H2 8530   0.234   7.036   0.751
 2863TIP3   OH2 8531   7.267   6.442   3.054
 2863TIP3    H1 8532   7.281   6.537   3.057
 2863TIP3    H2 8533   7.317   6.409   3.128
 2864TIP3   OH2 8534   6.937   3.783   4.391
 2864TIP3    H1 8535   7.004   3.714   4.392
 2864TIP3    H2 8536   6.873   3.753   4.327
 2865TIP3   OH2 8537   0.917   0.563   5.792
 2865TIP3    H1 8538   0.911   0.657   5.806
 2865TIP3    H2 8539   0.995   0.551   5.739
 2866TIP3   OH2 8540   3.173   2.243   3.562
 2866TIP3    H1 8541   3.144   2.300   3.490
 2866TIP3    H2 8542   3.229   2.178   3.519
 2867TIP3   OH2 8543   0.697   4.538   4.303
 2867TIP3    H1 8544   0.729   4.600   4.237
 2867TIP3    H2 8545   0.670   4.593   4.377
 2868TIP3   OH2 8546   7.819   0.534   2.023
 2868TIP3    H1 8547   7.785   0.453   2.061
 2868TIP3    H2 8548   7.782   0.536   1.935
 2869TIP3   OH2 8549   4.879   3.836   5.128
 2869TIP3    H1 8550   4.839   3.909   5.081
 2869TIP3    H2 8551   4.973   3.844   5.110
 2870TIP3   OH2 8552   6.012   4.528   3.086
 2870TIP3    H1 8553   6.063   4.481   3.152
 2870TIP3    H2 8554   5.928   4.483   3.084
 2871TIP3   OH2 8555   2.042   1.795   4.657
 2871TIP3    H1 8556   1.983   1.840   4.597
 2871TIP3    H2 8557   1.984   1.748   4.717
 2872TIP3   OH2 8558   1.823   6.532   0.748
 2872TIP3    H1 8559   1.918   6.523   0.759
 2872TIP3    H2 8560   1.790   6.442   0.750
 2873TIP3   OH2 8561   2.080   3.292   4.722
 2873TIP3    H1 8562   2.021   3.249   4.660
 2873TIP3    H2 8563   2.090   3.229   4.793
 2874TIP3   OH2 8564   3.757   0.896   2.113
 2874TIP3    H1 8565   3.756   0.872   2.020
 2874TIP3    H2 8566   3.684   0.957   2.123
 2875TIP3   OH2 8567   7.434   3.977   5.223
 2875TIP3    H1 8568   7.372   4.042   5.256
 2875TIP3    H2 8569   7.513   4.028   5.203
 2876TIP3   OH2 8570   0.044   5.028   3.008
 2876TIP3    H1 8571  -0.011   5.004   3.083
 2876TIP3    H2 8572  -0.004   5.100   2.966
 2877TIP3   OH2 8573   2.875   5.636   4.667
 2877TIP3    H1 8574   2.786   5.602   4.654
 2877TIP3    H2 8575   2.926   5.599   4.595
 2878TIP3   OH2 8576   0.425   7.373   1.220
 2878TIP3    H1 8577   0.516   7.347   1.209
 2878TIP3    H2 8578   0.421   7.463   1.189
 2879TIP3   OH2 8579   0.599   4.813   1.191
 2879TIP3    H1 8580   0.532   4.881   1.184
 2879TIP3    H2 8581   0.561   4.748   1.251
 2880TIP3   OH2 8582   7.624   7.851   0.040
 2880TIP3    H1 8583   7.612   7.845   0.135
 2880TIP3    H2 8584   7.609   7.761   0.009
 2881TIP3   OH2 8585   5.203   7.248   3.269
 2881TIP3    H1 8586   5.145   7.320   3.243
 2881TIP3    H2 8587   5.152   7.196   3.330
 2882TIP3   OH2 8588   2.259   3.195   1.165
 2882TIP3    H1 8589   2.223   3.117   1.124
 2882TIP3    H2 8590   2.341   3.167   1.206
 2883TIP3   OH2 8591   3.941   2.816   5.744
 2883TIP3    H1 8592   4.029   2.831   5.778
 2883TIP3    H2 8593   3.949   2.829   5.649
 2884TIP3   OH2 8594   2.087   6.001   0.388
 2884TIP3    H1 8595   2.129   6.051   0.458
 2884TIP3    H2 8596   2.160   5.970   0.334
 2885TIP3   OH2 8597   4.570   6.945   0.416
 2885TIP3    H1 8598   4.635   6.903   0.360
 2885TIP3    H2 8599   4.546   6.878   0.480
 2886TIP3   OH2 8600   4.765   0.684   4.733
 2886TIP3    H1 8601   4.787   0.623   4.663
 2886TIP3    H2 8602   4.837   0.676   4.795
 2887TIP3   OH2 8603   4.123   4.338   3.041
 2887TIP3    H1 8604   4.035   4.344   3.079
 2887TIP3    H2 8605   4.108   4.327   2.947
 2888TIP3   OH2 8606   6.570   1.931   6.111
 2888TIP3    H1 8607   6.645   1.904   6.058
 2888TIP3    H2 8608   6.559   1.861   6.176
 2889TIP3   OH2 8609   3.255   2.153   2.361
 2889TIP3    H1 8610   3.289   2.085   2.419
 2889TIP3    H2 8611   3.242   2.229   2.418
 2890TIP3   OH2 8612   0.072   4.636   6.251
 2890TIP3    H1 8613   0.065   4.730   6.234
 2890TIP3    H2 8614  -0.005   4.616   6.304
 2891TIP3   OH2 8615   1.822   5.275   5.188
 2891TIP3    H1 8616   1.769   5.308   5.260
 2891TIP3    H2 8617   1.841   5.184   5.211
 2892TIP3   OH2 8618   6.180   0.187   3.193
 2892TIP3    H1 8619   6.232   0.110   3.216
 2892TIP3    H2 8620   6.124   0.201   3.269
 2893TIP3   OH2 8621   6.131   7.017   0.721
 2893TIP3    H1 8622   6.111   7.095   0.773
 2893TIP3    H2 8623   6.055   6.960   0.733
 2894TIP3   OH2 8624   4.824   6.477   3.273
 2894TIP3    H1 8625   4.797   6.568   3.263
 2894TIP3    H2 8626   4.887   6.478   3.345
 2895TIP3   OH2 8627   4.310   1.614   1.004
 2895TIP3    H1 8628   4.356   1.643   0.926
 2895TIP3    H2 8629   4.234   1.566   0.971
 2896TIP3   OH2 8630   7.945   3.466   3.900
 2896TIP3    H1 8631   7.971   3.544   3.851
 2896TIP3    H2 8632   8.027   3.421   3.918
 2897TIP3   OH2 8633   2.154   4.885   2.543
 2897TIP3    H1 8634   2.228   4.851   2.493
 2897TIP3    H2 8635   2.135   4.817   2.608
 2898TIP3   OH2 8636   6.499   4.689   5.322
 2898TIP3    H1 8637   6.550   4.751   5.376
 2898TIP3    H2 8638   6.563   4.624   5.294
 2899TIP3   OH2 8639   3.761   3.025   5.833
 2899TIP3    H1 8640   3.808   3.016   5.750
 2899TIP3    H2 8641   3.685   2.968   5.823
 2900TIP3   OH2 8642   0.139   7.515   5.710
 2900TIP3    H1 8643   0.167   7.557   5.791
 2900TIP3    H2 8644   0.220   7.478   5.673
 2901TIP3   OH2 8645   5.868   7.552   3.254
 2901TIP3    H1 8646   5.952   7.537   3.296
 2901TIP3    H2 8647   5.813   7.590   3.322
 2902TIP3   OH2 8648   3.729   3.111   1.253
 2902TIP3    H1 8649   3.751   3.156   1.334
 2902TIP3    H2 8650   3.809   3.064   1.229
 2903TIP3   OH2 8651   3.556   3.154   4.718
 2903TIP3    H1 8652   3.586   3.111   4.798
 2903TIP3    H2 8653   3.579   3.094   4.648
 2904TIP3   OH2 8654   6.132   5.422   0.628
 2904TIP3    H1 8655   6.158   5.483   0.696
 2904TIP3    H2 8656   6.100   5.345   0.675
 2905TIP3   OH2 8657   7.640   7.465   1.049
 2905TIP3    H1 8658   7.715   7.467   1.110
 2905TIP3    H2 8659   7.667   7.405   0.980
 2906TIP3   OH2 8660   2.992   5.097   1.852
 2906TIP3    H1 8661   3.068   5.051   1.889
 2906TIP3    H2 8662   3.016   5.190   1.857
 2907TIP3   OH2 8663   0.007   6.232   3.521
 2907TIP3    H1 8664   0.061   6.293   3.471
 2907TIP3    H2 8665  -0.064   6.208   3.462
 2908TIP3   OH2 8666   2.332   4.482   6.044
 2908TIP3    H1 8667   2.366   4.564   6.008
 2908TIP3    H2 8668   2.334   4.420   5.971
 2909TIP3   OH2 8669   0.118   5.501   0.151
 2909TIP3    H1 8670   0.132   5.559   0.225
 2909TIP3    H2 8671   0.024   5.482   0.152
 2910TIP3   OH2 8672   7.981   7.642   1.406
 2910TIP3    H1 8673   7.991   7.561   1.456
 2910TIP3    H2 8674   7.949   7.706   1.471
 2911TIP3   OH2 8675   3.261   0.340   1.899
 2911TIP3    H1 8676   3.351   0.308   1.912
 2911TIP3    H2 8677   3.212   0.261   1.875
 2912TIP3   OH2 8678   7.350   4.112   6.363
 2912TIP3    H1 8679   7.364   4.200   6.399
 2912TIP3    H2 8680   7.302   4.065   6.430
 2913TIP3   OH2 8681   6.586   6.694   2.180
 2913TIP3    H1 8682   6.595   6.748   2.259
 2913TIP3    H2 8683   6.633   6.742   2.112
 2914TIP3   OH2 8684   3.639   6.414   4.014
 2914TIP3    H1 8685   3.580   6.344   3.985
 2914TIP3    H2 8686   3.616   6.427   4.106
 2915TIP3   OH2 8687   1.467   1.671   0.132
 2915TIP3    H1 8688   1.509   1.715   0.206
 2915TIP3    H2 8689   1.403   1.613   0.173
 2916TIP3   OH2 8690   1.568   1.438   6.032
 2916TIP3    H1 8691   1.549   1.515   5.979
 2916TIP3    H2 8692   1.633   1.469   6.096
 2917TIP3   OH2 8693   2.269   4.300   2.838
 2917TIP3    H1 8694   2.208   4.240   2.882
 2917TIP3    H2 8695   2.216   4.340   2.768
 2918TIP3   OH2 8696   0.743   5.632   3.071
 2918TIP3    H1 8697   0.797   5.673   3.004
 2918TIP3    H2 8698   0.789   5.550   3.091
 2919TIP3   OH2 8699   3.116   5.831   4.198
 2919TIP3    H1 8700   3.135   5.887   4.273
 2919TIP3    H2 8701   3.023   5.810   4.205
 2920TIP3   OH2 8702   5.312   3.398   3.570
 2920TIP3    H1 8703   5.247   3.328   3.566
 2920TIP3    H2 8704   5.262   3.476   3.592
 2921TIP3   OH2 8705   5.514   1.145   2.538
 2921TIP3    H1 8706   5.558   1.186   2.463
 2921TIP3    H2 8707   5.533   1.203   2.611
 2922TIP3   OH2 8708   1.509   0.082   0.972
 2922TIP3    H1 8709   1.565   0.089   1.050
 2922TIP3    H2 8710   1.495  -0.012   0.961
 2923TIP3   OH2 8711   1.675   5.083   5.951
 2923TIP3    H1 8712   1.594   5.086   5.901
 2923TIP3    H2 8713   1.694   5.175   5.971
 2924TIP3   OH2 8714   0.322   7.141   0.154
 2924TIP3    H1 8715   0.379   7.104   0.087
 2924TIP3    H2 8716   0.380   7.162   0.227
 2925TIP3   OH2 8717   1.815   0.147   0.658
 2925TIP3    H1 8718   1.744   0.202   0.691
 2925TIP3    H2 8719   1.879   0.210   0.623
 2926TIP3   OH2 8720   1.219   2.058   1.015
 2926TIP3    H1 8721   1.292   2.064   0.953
 2926TIP3    H2 8722   1.259   2.031   1.097
 2927TIP3   OH2 8723   2.918   5.209   4.751
 2927TIP3    H1 8724   2.904   5.121   4.787
 2927TIP3    H2 8725   2.897   5.200   4.658
 2928TIP3   OH2 8726   5.835   6.345   3.148
 2928TIP3    H1 8727   5.837   6.375   3.239
 2928TIP3    H2 8728   5.875   6.417   3.098
 2929TIP3   OH2 8729   1.092   7.206   1.799
 2929TIP3    H1 8730   1.129   7.255   1.726
 2929TIP3    H2 8731   1.016   7.256   1.826
 2930TIP3   OH2 8732   1.271   1.984   0.695
 2930TIP3    H1 8733   1.336   2.025   0.753
 2930TIP3    H2 8734   1.314   1.981   0.610
 2931TIP3   OH2 8735   3.656   7.491   2.743
 2931TIP3    H1 8736   3.741   7.464   2.710
 2931TIP3    H2 8737   3.627   7.559   2.683
 2932TIP3   OH2 8738   4.988   5.083   4.066
 2932TIP3    H1 8739   4.987   5.167   4.021
 2932TIP3    H2 8740   5.038   5.098   4.146
 2933TIP3   OH2 8741   0.525   2.745   0.564
 2933TIP3    H1 8742   0.431   2.744   0.582
 2933TIP3    H2 8743   0.552   2.653   0.574
 2934TIP3   OH2 8744   0.730   5.438   0.721
 2934TIP3    H1 8745   0.681   5.414   0.642
 2934TIP3    H2 8746   0.670   5.421   0.793
 2935TIP3   OH2 8747   4.016   5.096   0.649
 2935TIP3    H1 8748   3.935   5.057   0.616
 2935TIP3    H2 8749   4.047   5.151   0.577
 2936TIP3   OH2 8750   1.629   5.895   2.582
 2936TIP3    H1 8751   1.698   5.829   2.592
 2936TIP3    H2 8752   1.590   5.903   2.669
 2937TIP3   OH2 8753   4.567   4.732   2.810
 2937TIP3    H1 8754   4.530   4.820   2.817
 2937TIP3    H2 8755   4.597   4.726   2.719
 2938TIP3   OH2 8756   7.168   1.985   1.742
 2938TIP3    H1 8757   7.256   1.950   1.755
 2938TIP3    H2 8758   7.110   1.910   1.755
 2939TIP3   OH2 8759   2.444   5.752   6.445
 2939TIP3    H1 8760   2.440   5.836   6.398
 2939TIP3    H2 8761   2.359   5.744   6.487
 2940TIP3   OH2 8762   7.026   3.128   4.012
 2940TIP3    H1 8763   6.972   3.205   4.026
 2940TIP3    H2 8764   7.080   3.122   4.091
 2941TIP3   OH2 8765   7.012   0.046   4.083
 2941TIP3    H1 8766   6.941   0.026   4.022
 2941TIP3    H2 8767   7.003  -0.019   4.153
 2942TIP3   OH2 8768   5.168   7.459   0.899
 2942TIP3    H1 8769   5.131   7.394   0.838
 2942TIP3    H2 8770   5.226   7.408   0.955
 2943TIP3   OH2 8771   8.211   3.427   6.678
 2943TIP3    H1 8772   8.148   3.496   6.660
 2943TIP3    H2 8773   8.271   3.465   6.742
 2944TIP3   OH2 8774   2.287   1.130   2.665
 2944TIP3    H1 8775   2.363   1.076   2.643
 2944TIP3    H2 8776   2.246   1.083   2.738
 2945TIP3   OH2 8777   3.366   7.516   0.165
 2945TIP3    H1 8778   3.367   7.606   0.132
 2945TIP3    H2 8779   3.279   7.507   0.204
 2946TIP3   OH2 8780   3.599   7.677   2.451
 2946TIP3    H1 8781   3.606   7.742   2.521
 2946TIP3    H2 8782   3.536   7.613   2.485
 2947TIP3   OH2 8783   4.100   3.186   2.866
 2947TIP3    H1 8784   4.042   3.261   2.854
 2947TIP3    H2 8785   4.056   3.114   2.820
 2948TIP3   OH2 8786   3.990   5.136   5.331
 2948TIP3    H1 8787   3.970   5.120   5.239
 2948TIP3    H2 8788   3.963   5.055   5.376
 2949TIP3   OH2 8789   1.563   0.086   0.286
 2949TIP3    H1 8790   1.533   0.151   0.350
 2949TIP3    H2 8791   1.509   0.103   0.208
 2950TIP3   OH2 8792   0.035   5.005   3.870
 2950TIP3    H1 8793   0.042   5.015   3.776
 2950TIP3    H2 8794   0.125   4.996   3.901
 2951TIP3   OH2 8795   3.508   1.901   4.395
 2951TIP3    H1 8796   3.484   1.929   4.306
 2951TIP3    H2 8797   3.601   1.879   4.388
 2952TIP3   OH2 8798   1.143   4.500   6.553
 2952TIP3    H1 8799   1.191   4.467   6.478
 2952TIP3    H2 8800   1.209   4.545   6.606
 2953TIP3   OH2 8801   4.285   6.162   4.900
 2953TIP3    H1 8802   4.245   6.110   4.831
 2953TIP3    H2 8803   4.286   6.251   4.865
 2954TIP3   OH2 8804   4.195   4.156   3.601
 2954TIP3    H1 8805   4.199   4.068   3.562
 2954TIP3    H2 8806   4.200   4.216   3.527
 2955TIP3   OH2 8807   7.655   3.109   4.226
 2955TIP3    H1 8808   7.721   3.120   4.157
 2955TIP3    H2 8809   7.673   3.022   4.261
 2956TIP3   OH2 8810   5.483   6.452   4.446
 2956TIP3    H1 8811   5.536   6.397   4.389
 2956TIP3    H2 8812   5.420   6.493   4.388
 2957TIP3   OH2 8813   5.435   2.325   3.966
 2957TIP3    H1 8814   5.488   2.259   4.010
 2957TIP3    H2 8815   5.473   2.409   3.994
 2958TIP3   OH2 8816   4.101   7.013   2.062
 2958TIP3    H1 8817   4.119   7.082   2.126
 2958TIP3    H2 8818   4.009   6.990   2.078
 2959TIP3   OH2 8819   4.507   6.055   2.387
 2959TIP3    H1 8820   4.460   6.098   2.315
 2959TIP3    H2 8821   4.582   6.013   2.345
 2960TIP3   OH2 8822   6.361   3.508   1.194
 2960TIP3    H1 8823   6.442   3.466   1.164
 2960TIP3    H2 8824   6.297   3.437   1.198
 2961TIP3   OH2 8825   4.575   1.495   4.474
 2961TIP3    H1 8826   4.490   1.489   4.430
 2961TIP3    H2 8827   4.639   1.488   4.403
 2962TIP3   OH2 8828   1.963   4.920   4.871
 2962TIP3    H1 8829   1.907   4.901   4.796
 2962TIP3    H2 8830   2.052   4.924   4.834
 2963TIP3   OH2 8831   1.456   4.405   0.182
 2963TIP3    H1 8832   1.507   4.325   0.191
 2963TIP3    H2 8833   1.519   4.475   0.202
 2964TIP3   OH2 8834   5.779   6.641   4.901
 2964TIP3    H1 8835   5.873   6.628   4.897
 2964TIP3    H2 8836   5.742   6.553   4.899
 2965TIP3   OH2 8837   3.570   1.724   0.989
 2965TIP3    H1 8838   3.479   1.743   0.967
 2965TIP3    H2 8839   3.580   1.755   1.079
 2966TIP3   OH2 8840   3.049   6.593   1.974
 2966TIP3    H1 8841   3.022   6.502   1.965
 2966TIP3    H2 8842   3.057   6.606   2.068
 2967TIP3   OH2 8843   5.578   1.026   3.701
 2967TIP3    H1 8844   5.511   0.958   3.710
 2967TIP3    H2 8845   5.535   1.096   3.652
 2968TIP3   OH2 8846   0.625   3.971   5.175
 2968TIP3    H1 8847   0.690   3.907   5.146
 2968TIP3    H2 8848   0.626   3.965   5.270
 2969TIP3   OH2 8849   6.156   1.508   6.088
 2969TIP3    H1 8850   6.085   1.448   6.062
 2969TIP3    H2 8851   6.151   1.579   6.024
 2970TIP3   OH2 8852   3.556   0.710   3.118
 2970TIP3    H1 8853   3.578   0.715   3.025
 2970TIP3    H2 8854   3.516   0.795   3.138
 2971TIP3   OH2 8855   0.923   7.469   5.487
 2971TIP3    H1 8856   0.861   7.540   5.502
 2971TIP3    H2 8857   0.886   7.395   5.536
 2972TIP3   OH2 8858   3.628   3.534   4.148
 2972TIP3    H1 8859   3.713   3.579   4.142
 2972TIP3    H2 8860   3.597   3.554   4.236
 2973TIP3   OH2 8861   1.032   6.432   0.802
 2973TIP3    H1 8862   1.095   6.366   0.833
 2973TIP3    H2 8863   1.071   6.516   0.827
 2974TIP3   OH2 8864   1.512   2.979   6.279
 2974TIP3    H1 8865   1.451   2.905   6.286
 2974TIP3    H2 8866   1.550   2.987   6.367
 2975TIP3   OH2 8867   5.451   4.559   1.064
 2975TIP3    H1 8868   5.359   4.532   1.074
 2975TIP3    H2 8869   5.465   4.622   1.134
 2976TIP3   OH2 8870   7.106   6.653   2.840
 2976TIP3    H1 8871   7.044   6.692   2.901
 2976TIP3    H2 8872   7.160   6.727   2.810
 2977TIP3   OH2 8873   7.456   0.400   1.256
 2977TIP3    H1 8874   7.479   0.460   1.185
 2977TIP3    H2 8875   7.381   0.441   1.299
 2978TIP3   OH2 8876   3.470   2.260   2.669
 2978TIP3    H1 8877   3.534   2.324   2.701
 2978TIP3    H2 8878   3.469   2.273   2.574
 2979TIP3   OH2 8879   1.919   7.282   0.099
 2979TIP3    H1 8880   1.889   7.271   0.009
 2979TIP3    H2 8881   2.000   7.333   0.091
 2980TIP3   OH2 8882   2.193   7.181   1.543
 2980TIP3    H1 8883   2.166   7.142   1.626
 2980TIP3    H2 8884   2.137   7.257   1.532
 2981TIP3   OH2 8885   3.170   3.796   1.988
 2981TIP3    H1 8886   3.109   3.869   1.978
 2981TIP3    H2 8887   3.125   3.736   2.047
 2982TIP3   OH2 8888   0.873   6.900   1.107
 2982TIP3    H1 8889   0.863   6.860   1.020
 2982TIP3    H2 8890   0.850   6.829   1.168
 2983TIP3   OH2 8891   5.080   6.803   3.883
 2983TIP3    H1 8892   5.076   6.856   3.962
 2983TIP3    H2 8893   5.117   6.720   3.912
 2984TIP3   OH2 8894   1.315   1.660   0.544
 2984TIP3    H1 8895   1.234   1.644   0.591
 2984TIP3    H2 8896   1.290   1.710   0.467
 2985TIP3   OH2 8897   7.614   6.268   0.768
 2985TIP3    H1 8898   7.703   6.301   0.784
 2985TIP3    H2 8899   7.567   6.342   0.730
 2986TIP3   OH2 8900   0.970   1.417   0.822
 2986TIP3    H1 8901   1.039   1.403   0.757
 2986TIP3    H2 8902   0.913   1.483   0.784
 2987TIP3   OH2 8903   4.308   6.081   2.169
 2987TIP3    H1 8904   4.319   6.131   2.088
 2987TIP3    H2 8905   4.222   6.106   2.202
 2988TIP3   OH2 8906   0.090   1.973   5.271
 2988TIP3    H1 8907   0.138   1.929   5.200
 2988TIP3    H2 8908   0.151   1.973   5.344
 2989TIP3   OH2 8909   4.517   6.730   1.044
 2989TIP3    H1 8910   4.580   6.759   1.110
 2989TIP3    H2 8911   4.535   6.636   1.034
 2990TIP3   OH2 8912   2.395   6.669   2.010
 2990TIP3    H1 8913   2.423   6.579   1.994
 2990TIP3    H2 8914   2.413   6.684   2.103
 2991TIP3   OH2 8915   1.008   4.137   1.513
 2991TIP3    H1 8916   1.064   4.060   1.504
 2991TIP3    H2 8917   0.923   4.102   1.540
 2992TIP3   OH2 8918   7.511   6.444   1.016
 2992TIP3    H1 8919   7.416   6.435   1.009
 2992TIP3    H2 8920   7.543   6.356   1.035
 2993TIP3   OH2 8921   3.129   6.967   3.368
 2993TIP3    H1 8922   3.049   6.978   3.318
 2993TIP3    H2 8923   3.184   6.909   3.314
 2994TIP3   OH2 8924   2.106   7.462   3.033
 2994TIP3    H1 8925   2.023   7.506   3.015
 2994TIP3    H2 8926   2.143   7.443   2.947
 2995TIP3   OH2 8927   1.311   2.741   4.761
 2995TIP3    H1 8928   1.315   2.658   4.713
 2995TIP3    H2 8929   1.386   2.791   4.730
 2996TIP3   OH2 8930   5.517   0.643   2.165
 2996TIP3    H1 8931   5.575   0.581   2.120
 2996TIP3    H2 8932   5.436   0.594   2.178
 2997TIP3   OH2 8933   1.295   7.396   2.802
 2997TIP3    H1 8934   1.205   7.402   2.769
 2997TIP3    H2 8935   1.341   7.470   2.763
 2998TIP3   OH2 8936   4.652   2.003   1.181
 2998TIP3    H1 8937   4.597   1.934   1.144
 2998TIP3    H2 8938   4.623   2.083   1.138
 2999TIP3   OH2 8939   7.205   0.283   0.843
 2999TIP3    H1 8940   7.181   0.374   0.822
 2999TIP3    H2 8941   7.282   0.265   0.789
 3000TIP3   OH2 8942   0.731   1.515   3.932
 3000TIP3    H1 8943   0.758   1.547   3.846
 3000TIP3    H2 8944   0.744   1.589   3.991
 3001TIP3   OH2 8945   3.704   6.787   1.964
 3001TIP3    H1 8946   3.652   6.770   1.886
 3001TIP3    H2 8947   3.775   6.723   1.961
 3002TIP3   OH2 8948   8.100   4.244   2.094
 3002TIP3    H1 8949   8.135   4.193   2.021
 3002TIP3    H2 8950   8.010   4.264   2.068
 3003TIP3   OH2 8951   0.352   7.397   6.382
 3003TIP3    H1 8952   0.322   7.307   6.395
 3003TIP3    H2 8953   0.442   7.397   6.415
 3004TIP3   OH2 8954   7.006   7.713   2.500
 3004TIP3    H1 8955   7.037   7.725   2.410
 3004TIP3    H2 8956   6.999   7.618   2.510
 3005TIP3   OH2 8957   7.773   1.688   5.623
 3005TIP3    H1 8958   7.759   1.649   5.537
 3005TIP3    H2 8959   7.763   1.782   5.609
 3006TIP3   OH2 8960   2.580   6.742   3.251
 3006TIP3    H1 8961   2.573   6.748   3.346
 3006TIP3    H2 8962   2.490   6.731   3.221
 3007TIP3   OH2 8963   4.488   4.547   5.655
 3007TIP3    H1 8964   4.538   4.485   5.602
 3007TIP3    H2 8965   4.552   4.615   5.678
 3008TIP3   OH2 8966   2.836   3.230   2.060
 3008TIP3    H1 8967   2.882   3.248   2.142
 3008TIP3    H2 8968   2.813   3.316   2.025
 3009TIP3   OH2 8969   8.190   1.604   2.937
 3009TIP3    H1 8970   8.186   1.690   2.977
 3009TIP3    H2 8971   8.119   1.555   2.979
 3010TIP3   OH2 8972   4.731   3.490   6.665
 3010TIP3    H1 8973   4.794   3.555   6.696
 3010TIP3    H2 8974   4.673   3.477   6.740
 3011TIP3   OH2 8975   7.628   2.504   0.944
 3011TIP3    H1 8976   7.601   2.595   0.932
 3011TIP3    H2 8977   7.651   2.475   0.856
 3012TIP3   OH2 8978   5.424   6.986   1.235
 3012TIP3    H1 8979   5.418   7.054   1.303
 3012TIP3    H2 8980   5.333   6.969   1.211
 3013TIP3   OH2 8981   1.076   5.970   0.146
 3013TIP3    H1 8982   1.048   5.922   0.068
 3013TIP3    H2 8983   1.008   6.035   0.160
 3014TIP3   OH2 8984   2.711   3.750   3.758
 3014TIP3    H1 8985   2.684   3.659   3.767
 3014TIP3    H2 8986   2.772   3.749   3.683
 3015TIP3   OH2 8987   5.575   2.973   0.754
 3015TIP3    H1 8988   5.605   2.986   0.843
 3015TIP3    H2 8989   5.559   2.879   0.746
 3016TIP3   OH2 8990   3.818   5.572   2.764
 3016TIP3    H1 8991   3.783   5.597   2.679
 3016TIP3    H2 8992   3.882   5.504   2.745
 3017TIP3   OH2 8993   7.798   7.005   3.844
 3017TIP3    H1 8994   7.892   7.021   3.857
 3017TIP3    H2 8995   7.790   6.977   3.753
 3018TIP3   OH2 8996   0.775   0.079   2.634
 3018TIP3    H1 8997   0.791   0.167   2.601
 3018TIP3    H2 8998   0.859   0.052   2.671
 3019TIP3   OH2 8999   3.490   4.938   3.711
 3019TIP3    H1 9000   3.419   5.002   3.715
 3019TIP3    H2 9001   3.480   4.885   3.790
 3020TIP3   OH2 9002   0.037   4.220   5.075
 3020TIP3    H1 9003   0.072   4.256   4.994
 3020TIP3    H2 9004   0.032   4.295   5.135
 3021TIP3   OH2 9005   4.604   5.481   1.605
 3021TIP3    H1 9006   4.632   5.403   1.558
 3021TIP3    H2 9007   4.636   5.468   1.695
 3022TIP3   OH2 9008   0.676   4.493   2.537
 3022TIP3    H1 9009   0.693   4.467   2.447
 3022TIP3    H2 9010   0.731   4.571   2.550
 3023TIP3   OH2 9011   7.600   3.066   3.782
 3023TIP3    H1 9012   7.562   3.020   3.708
 3023TIP3    H2 9013   7.646   3.141   3.744
 3024TIP3   OH2 9014   7.076   0.810   5.953
 3024TIP3    H1 9015   7.090   0.715   5.955
 3024TIP3    H2 9016   6.991   0.822   5.994
 3025TIP3   OH2 9017   7.098   6.508   5.581
 3025TIP3    H1 9018   7.017   6.508   5.530
 3025TIP3    H2 9019   7.124   6.415   5.585
 3026TIP3   OH2 9020   6.585   7.079   3.183
 3026TIP3    H1 9021   6.563   7.101   3.274
 3026TIP3    H2 9022   6.536   7.143   3.131
 3027TIP3   OH2 9023   7.344   3.712   5.616
 3027TIP3    H1 9024   7.414   3.648   5.630
 3027TIP3    H2 9025   7.389   3.794   5.600
 3028TIP3   OH2 9026   4.976   2.461   1.516
 3028TIP3    H1 9027   4.979   2.397   1.587
 3028TIP3    H2 9028   4.976   2.546   1.561
 3029TIP3   OH2 9029   6.470   4.602   2.986
 3029TIP3    H1 9030   6.427   4.547   3.051
 3029TIP3    H2 9031   6.558   4.566   2.978
 3030TIP3   OH2 9032   6.011   7.273   1.165
 3030TIP3    H1 9033   5.987   7.196   1.113
 3030TIP3    H2 9034   6.031   7.238   1.251
 3031TIP3   OH2 9035   2.688   4.280   1.270
 3031TIP3    H1 9036   2.767   4.227   1.261
 3031TIP3    H2 9037   2.720   4.370   1.271
 3032TIP3   OH2 9038   5.766   1.541   2.416
 3032TIP3    H1 9039   5.853   1.535   2.456
 3032TIP3    H2 9040   5.706   1.551   2.491
 3033TIP3   OH2 9041   5.839   3.131   5.895
 3033TIP3    H1 9042   5.842   3.186   5.974
 3033TIP3    H2 9043   5.746   3.109   5.885
 3034TIP3   OH2 9044   2.805   0.421   2.977
 3034TIP3    H1 9045   2.824   0.425   3.071
 3034TIP3    H2 9046   2.784   0.329   2.961
 3035TIP3   OH2 9047   8.059   1.144   1.477
 3035TIP3    H1 9048   8.105   1.226   1.490
 3035TIP3    H2 9049   8.105   1.101   1.405
 3036TIP3   OH2 9050   3.893   4.211   3.304
 3036TIP3    H1 9051   3.873   4.226   3.397
 3036TIP3    H2 9052   3.934   4.124   3.303
 3037TIP3   OH2 9053   2.849   4.657   1.375
 3037TIP3    H1 9054   2.912   4.586   1.367
 3037TIP3    H2 9055   2.764   4.614   1.378
 3038TIP3   OH2 9056   0.340   0.151   4.694
 3038TIP3    H1 9057   0.348   0.102   4.776
 3038TIP3    H2 9058   0.422   0.134   4.648
 3039TIP3   OH2 9059   5.233   0.049   5.658
 3039TIP3    H1 9060   5.269   0.098   5.732
 3039TIP3    H2 9061   5.183  -0.022   5.699
 3040TIP3   OH2 9062   5.231   1.846   6.293
 3040TIP3    H1 9063   5.261   1.909   6.227
 3040TIP3    H2 9064   5.142   1.873   6.312
 3041TIP3   OH2 9065   1.406   6.672   2.129
 3041TIP3    H1 9066   1.481   6.626   2.090
 3041TIP3    H2 9067   1.336   6.607   2.132
 3042TIP3   OH2 9068   1.333   7.412   2.404
 3042TIP3    H1 9069   1.390   7.377   2.336
 3042TIP3    H2 9070   1.384   7.481   2.446
 3043TIP3   OH2 9071   0.262   2.003   5.497
 3043TIP3    H1 9072   0.224   2.081   5.537
 3043TIP3    H2 9073   0.357   2.014   5.507
 3044TIP3   OH2 9074   2.744   7.130   1.520
 3044TIP3    H1 9075   2.805   7.201   1.538
 3044TIP3    H2 9076   2.719   7.096   1.606
 3045TIP3   OH2 9077   7.530   3.510   5.675
 3045TIP3    H1 9078   7.605   3.523   5.617
 3045TIP3    H2 9079   7.492   3.427   5.647
 3046TIP3   OH2 9080   1.261   0.157   4.904
 3046TIP3    H1 9081   1.220   0.112   4.830
 3046TIP3    H2 9082   1.352   0.169   4.877
 3047TIP3   OH2 9083   8.174   4.817   6.724
 3047TIP3    H1 9084   8.167   4.830   6.818
 3047TIP3    H2 9085   8.084   4.828   6.691
 3048TIP3   OH2 9086   3.628   7.367   5.775
 3048TIP3    H1 9087   3.576   7.442   5.749
 3048TIP3    H2 9088   3.639   7.316   5.694
 3049TIP3   OH2 9089   0.305   6.576   5.065
 3049TIP3    H1 9090   0.335   6.642   5.002
 3049TIP3    H2 9091   0.215   6.602   5.086
 3050TIP3   OH2 9092   4.486   6.095   1.292
 3050TIP3    H1 9093   4.443   6.022   1.247
 3050TIP3    H2 9094   4.506   6.061   1.379
 3051TIP3   OH2 9095   3.476   2.386   2.091
 3051TIP3    H1 9096   3.466   2.360   1.999
 3051TIP3    H2 9097   3.469   2.481   2.090
 3052TIP3   OH2 9098   2.417   0.292   2.743
 3052TIP3    H1 9099   2.322   0.304   2.751
 3052TIP3    H2 9100   2.427   0.208   2.698
 3053TIP3   OH2 9101   4.669   4.870   1.550
 3053TIP3    H1 9102   4.624   4.894   1.470
 3053TIP3    H2 9103   4.622   4.793   1.582
 3054TIP3   OH2 9104   7.904   7.377   2.604
 3054TIP3    H1 9105   7.816   7.345   2.623
 3054TIP3    H2 9106   7.899   7.472   2.619
 3055TIP3   OH2 9107   5.531   3.760   4.886
 3055TIP3    H1 9108   5.523   3.706   4.808
 3055TIP3    H2 9109   5.452   3.814   4.886
 3056TIP3   OH2 9110   3.792   1.359   2.453
 3056TIP3    H1 9111   3.800   1.266   2.428
 3056TIP3    H2 9112   3.777   1.404   2.370
 3057TIP3   OH2 9113   4.542   4.349   6.241
 3057TIP3    H1 9114   4.619   4.375   6.192
 3057TIP3    H2 9115   4.477   4.328   6.174
 3058TIP3   OH2 9116   1.030   5.396   0.721
 3058TIP3    H1 9117   0.939   5.414   0.746
 3058TIP3    H2 9118   1.046   5.455   0.647
 3059TIP3   OH2 9119   1.089   5.661   2.129
 3059TIP3    H1 9120   1.124   5.631   2.045
 3059TIP3    H2 9121   1.030   5.733   2.106
 3060TIP3   OH2 9122   0.514   4.573   3.980
 3060TIP3    H1 9123   0.600   4.538   3.957
 3060TIP3    H2 9124   0.464   4.568   3.899
 3061TIP3   OH2 9125   2.527   0.578   1.678
 3061TIP3    H1 9126   2.619   0.603   1.685
 3061TIP3    H2 9127   2.484   0.653   1.638
 3062TIP3   OH2 9128   4.387   4.410   5.880
 3062TIP3    H1 9129   4.397   4.482   5.942
 3062TIP3    H2 9130   4.409   4.449   5.795
 3063TIP3   OH2 9131   1.106   1.231   6.610
 3063TIP3    H1 9132   1.197   1.216   6.638
 3063TIP3    H2 9133   1.113   1.297   6.541
 3064TIP3   OH2 9134   3.570   2.398   6.089
 3064TIP3    H1 9135   3.665   2.409   6.097
 3064TIP3    H2 9136   3.558   2.304   6.075
 3065TIP3   OH2 9137   5.127   6.499   5.548
 3065TIP3    H1 9138   5.124   6.591   5.576
 3065TIP3    H2 9139   5.189   6.458   5.609
 3066TIP3   OH2 9140   5.580   2.137   3.463
 3066TIP3    H1 9141   5.664   2.172   3.434
 3066TIP3    H2 9142   5.573   2.163   3.554
 3067TIP3   OH2 9143   2.615   1.113   4.936
 3067TIP3    H1 9144   2.655   1.125   5.022
 3067TIP3    H2 9145   2.613   1.201   4.898
 3068TIP3   OH2 9146   4.615   2.355   4.151
 3068TIP3    H1 9147   4.579   2.267   4.151
 3068TIP3    H2 9148   4.709   2.342   4.165
 3069TIP3   OH2 9149   0.563   3.170   1.860
 3069TIP3    H1 9150   0.510   3.170   1.940
 3069TIP3    H2 9151   0.526   3.099   1.807
 3070TIP3   OH2 9152   0.517   0.866   0.796
 3070TIP3    H1 9153   0.483   0.813   0.724
 3070TIP3    H2 9154   0.557   0.942   0.753
 3071TIP3   OH2 9155   1.213   0.416   3.151
 3071TIP3    H1 9156   1.242   0.492   3.202
 3071TIP3    H2 9157   1.268   0.344   3.182
 3072TIP3   OH2 9158   1.146   3.420   5.515
 3072TIP3    H1 9159   1.187   3.451   5.596
 3072TIP3    H2 9160   1.064   3.379   5.544
 3073TIP3   OH2 9161   7.277   7.772   3.884
 3073TIP3    H1 9162   7.247   7.772   3.794
 3073TIP3    H2 9163   7.197   7.773   3.936
 3074TIP3   OH2 9164   3.072   6.494   3.763
 3074TIP3    H1 9165   3.036   6.431   3.826
 3074TIP3    H2 9166   3.164   6.471   3.756
 3075TIP3   OH2 9167   1.557   3.626   5.019
 3075TIP3    H1 9168   1.646   3.656   4.997
 3075TIP3    H2 9169   1.519   3.601   4.935
 3076TIP3   OH2 9170   3.640   3.981   3.529
 3076TIP3    H1 9171   3.656   4.018   3.616
 3076TIP3    H2 9172   3.590   4.049   3.483
 3077TIP3   OH2 9173   5.227   7.740   4.699
 3077TIP3    H1 9174   5.135   7.726   4.675
 3077TIP3    H2 9175   5.224   7.811   4.763
 3078TIP3   OH2 9176   7.811   0.188   3.292
 3078TIP3    H1 9177   7.728   0.145   3.271
 3078TIP3    H2 9178   7.809   0.199   3.387
 3079TIP3   OH2 9179   4.839   5.805   2.374
 3079TIP3    H1 9180   4.862   5.896   2.392
 3079TIP3    H2 9181   4.909   5.753   2.413
 3080TIP3   OH2 9182   0.260   2.955   4.029
 3080TIP3    H1 9183   0.235   2.884   4.088
 3080TIP3    H2 9184   0.355   2.962   4.038
 3081TIP3   OH2 9185   2.666   2.466   2.127
 3081TIP3    H1 9186   2.615   2.531   2.078
 3081TIP3    H2 9187   2.658   2.494   2.219
 3082TIP3   OH2 9188   1.735   0.883   1.502
 3082TIP3    H1 9189   1.754   0.960   1.556
 3082TIP3    H2 9190   1.640   0.870   1.511
 3083TIP3   OH2 9191   1.345   3.377   4.053
 3083TIP3    H1 9192   1.295   3.451   4.088
 3083TIP3    H2 9193   1.313   3.301   4.101
 3084TIP3   OH2 9194   1.661   2.053   2.290
 3084TIP3    H1 9195   1.662   1.990   2.362
 3084TIP3    H2 9196   1.598   2.017   2.228
 3085TIP3   OH2 9197   7.224   5.602   1.828
 3085TIP3    H1 9198   7.189   5.527   1.876
 3085TIP3    H2 9199   7.149   5.660   1.816
 3086TIP3   OH2 9200   2.767   6.398   5.872
 3086TIP3    H1 9201   2.823   6.384   5.948
 3086TIP3    H2 9202   2.773   6.492   5.855
 3087TIP3   OH2 9203   5.229   2.459   1.370
 3087TIP3    H1 9204   5.156   2.459   1.431
 3087TIP3    H2 9205   5.298   2.508   1.416
 3088TIP3   OH2 9206   3.538  -0.016   3.847
 3088TIP3    H1 9207   3.595  -0.087   3.819
 3088TIP3    H2 9208   3.564   0.059   3.794
 3089TIP3   OH2 9209   0.191   3.936   1.065
 3089TIP3    H1 9210   0.243   3.952   1.143
 3089TIP3    H2 9211   0.227   3.857   1.027
 3090TIP3   OH2 9212   4.741   5.979   3.874
 3090TIP3    H1 9213   4.837   5.981   3.875
 3090TIP3    H2 9214   4.718   5.985   3.781
 3091TIP3   OH2 9215   7.795   7.478   1.713
 3091TIP3    H1 9216   7.782   7.547   1.778
 3091TIP3    H2 9217   7.711   7.431   1.710
 3092TIP3   OH2 9218   2.587   7.015   4.334
 3092TIP3    H1 9219   2.510   6.963   4.309
 3092TIP3    H2 9220   2.587   7.013   4.430
 3093TIP3   OH2 9221   7.943   5.111   0.013
 3093TIP3    H1 9222   7.861   5.130   0.058
 3093TIP3    H2 9223   7.923   5.034  -0.041
 3094TIP3   OH2 9224   6.999   3.712   0.557
 3094TIP3    H1 9225   6.948   3.719   0.477
 3094TIP3    H2 9226   7.088   3.692   0.528
 3095TIP3   OH2 9227   3.710   3.498   5.758
 3095TIP3    H1 9228   3.685   3.425   5.814
 3095TIP3    H2 9229   3.696   3.466   5.669
 3096TIP3   OH2 9230   1.619   5.815   1.133
 3096TIP3    H1 9231   1.700   5.771   1.161
 3096TIP3    H2 9232   1.645   5.867   1.057
 3097TIP3   OH2 9233   8.208   4.816   4.845
 3097TIP3    H1 9234   8.235   4.876   4.775
 3097TIP3    H2 9235   8.121   4.847   4.870
 3098TIP3   OH2 9236   0.795   1.963   1.303
 3098TIP3    H1 9237   0.889   1.970   1.321
 3098TIP3    H2 9238   0.785   1.999   1.215
 3099TIP3   OH2 9239   6.134   1.894   0.786
 3099TIP3    H1 9240   6.039   1.899   0.793
 3099TIP3    H2 9241   6.161   1.984   0.764
 3100TIP3   OH2 9242   7.638   6.849   1.999
 3100TIP3    H1 9243   7.609   6.917   1.940
 3100TIP3    H2 9244   7.656   6.774   1.943
 3101TIP3   OH2 9245   0.720   1.852   0.276
 3101TIP3    H1 9246   0.722   1.942   0.244
 3101TIP3    H2 9247   0.628   1.827   0.272
 3102TIP3   OH2 9248   0.462   1.984   2.239
 3102TIP3    H1 9249   0.408   2.059   2.211
 3102TIP3    H2 9250   0.401   1.926   2.283
 3103TIP3   OH2 9251   7.103   3.865   1.362
 3103TIP3    H1 9252   7.190   3.881   1.326
 3103TIP3    H2 9253   7.087   3.772   1.344
 3104TIP3   OH2 9254   4.788   4.328   2.173
 3104TIP3    H1 9255   4.846   4.399   2.146
 3104TIP3    H2 9256   4.750   4.296   2.092
 3105TIP3   OH2 9257   6.779   3.915   5.552
 3105TIP3    H1 9258   6.850   3.871   5.600
 3105TIP3    H2 9259   6.820   3.946   5.472
 3106TIP3   OH2 9260   7.666   5.575   4.035
 3106TIP3    H1 9261   7.685   5.581   3.942
 3106TIP3    H2 9262   7.649   5.483   4.050
 3107TIP3   OH2 9263   7.300   1.269   6.254
 3107TIP3    H1 9264   7.210   1.297   6.269
 3107TIP3    H2 9265   7.346   1.290   6.335
 3108TIP3   OH2 9266   5.574   5.138   0.901
 3108TIP3    H1 9267   5.663   5.105   0.891
 3108TIP3    H2 9268   5.585   5.228   0.933
 3109TIP3   OH2 9269   5.814   4.766   4.343
 3109TIP3    H1 9270   5.807   4.830   4.415
 3109TIP3    H2 9271   5.908   4.754   4.331
 3110TIP3   OH2 9272   3.812   2.856   2.997
 3110TIP3    H1 9273   3.829   2.768   2.964
 3110TIP3    H2 9274   3.719   2.871   2.981
 3111TIP3   OH2 9275   8.094   2.608   1.670
 3111TIP3    H1 9276   8.098   2.529   1.618
 3111TIP3    H2 9277   8.184   2.624   1.698
 3112TIP3   OH2 9278   3.169   7.762   4.092
 3112TIP3    H1 9279   3.228   7.838   4.087
 3112TIP3    H2 9280   3.117   7.776   4.171
 3113TIP3   OH2 9281   0.018   0.823   4.294
 3113TIP3    H1 9282   0.064   0.742   4.272
 3113TIP3    H2 9283  -0.027   0.847   4.213
 3114TIP3   OH2 9284   3.842   7.497   4.656
 3114TIP3    H1 9285   3.807   7.410   4.676
 3114TIP3    H2 9286   3.919   7.505   4.711
 3115TIP3   OH2 9287   6.455   5.181   0.978
 3115TIP3    H1 9288   6.437   5.152   0.889
 3115TIP3    H2 9289   6.542   5.220   0.973
 3116TIP3   OH2 9290   7.930   7.021   1.941
 3116TIP3    H1 9291   8.012   7.057   1.907
 3116TIP3    H2 9292   7.874   7.011   1.863
 3117TIP3   OH2 9293   6.585   7.106   4.039
 3117TIP3    H1 9294   6.646   7.125   4.110
 3117TIP3    H2 9295   6.514   7.058   4.081
 3118TIP3   OH2 9296   5.204   4.669   3.241
 3118TIP3    H1 9297   5.269   4.640   3.177
 3118TIP3    H2 9298   5.178   4.756   3.211
 3119TIP3   OH2 9299   1.903   1.838   0.698
 3119TIP3    H1 9300   1.969   1.868   0.761
 3119TIP3    H2 9301   1.916   1.895   0.622
 3120TIP3   OH2 9302   4.396   3.790   5.670
 3120TIP3    H1 9303   4.384   3.774   5.764
 3120TIP3    H2 9304   4.367   3.709   5.628
 3121TIP3   OH2 9305   4.781   2.111   1.414
 3121TIP3    H1 9306   4.718   2.060   1.363
 3121TIP3    H2 9307   4.726   2.170   1.467
 3122TIP3   OH2 9308   0.283   2.682   1.007
 3122TIP3    H1 9309   0.334   2.641   0.937
 3122TIP3    H2 9310   0.205   2.628   1.016
 3123TIP3   OH2 9311   5.126   1.542   1.058
 3123TIP3    H1 9312   5.039   1.577   1.079
 3123TIP3    H2 9313   5.132   1.549   0.963
 3124TIP3   OH2 9314   3.940   1.092   1.854
 3124TIP3    H1 9315   3.960   1.182   1.880
 3124TIP3    H2 9316   3.849   1.095   1.825
 3125TIP3   OH2 9317   6.684   4.067   1.261
 3125TIP3    H1 9318   6.737   4.102   1.332
 3125TIP3    H2 9319   6.737   4.081   1.182
 3126TIP3   OH2 9320   1.585   4.496   4.826
 3126TIP3    H1 9321   1.564   4.412   4.786
 3126TIP3    H2 9322   1.506   4.549   4.815
 3127TIP3   OH2 9323   0.222   0.472   5.111
 3127TIP3    H1 9324   0.194   0.401   5.054
 3127TIP3    H2 9325   0.289   0.434   5.168
 3128TIP3   OH2 9326   2.515   7.127   3.634
 3128TIP3    H1 9327   2.455   7.201   3.625
 3128TIP3    H2 9328   2.460   7.053   3.659
 3129TIP3   OH2 9329   1.683   1.533   0.317
 3129TIP3    H1 9330   1.639   1.520   0.401
 3129TIP3    H2 9331   1.701   1.444   0.285
 3130TIP3   OH2 9332   3.135   7.454   5.085
 3130TIP3    H1 9333   3.197   7.394   5.042
 3130TIP3    H2 9334   3.058   7.453   5.030
 3131TIP3   OH2 9335   5.541   1.613   4.932
 3131TIP3    H1 9336   5.618   1.669   4.949
 3131TIP3    H2 9337   5.475   1.674   4.898
 3132TIP3   OH2 9338   3.107   5.614   2.747
 3132TIP3    H1 9339   3.100   5.636   2.654
 3132TIP3    H2 9340   3.057   5.682   2.792
 3133TIP3   OH2 9341   5.506   0.625   5.267
 3133TIP3    H1 9342   5.415   0.623   5.239
 3133TIP3    H2 9343   5.556   0.600   5.188
 3134TIP3   OH2 9344   7.990   2.540   2.026
 3134TIP3    H1 9345   7.984   2.448   2.051
 3134TIP3    H2 9346   7.981   2.588   2.109
 3135TIP3   OH2 9347   4.029   7.110   0.315
 3135TIP3    H1 9348   4.074   7.055   0.379
 3135TIP3    H2 9349   4.016   7.054   0.239
 3136TIP3   OH2 9350   1.070   1.099   1.592
 3136TIP3    H1 9351   0.984   1.114   1.554
 3136TIP3    H2 9352   1.131   1.141   1.531
 3137TIP3   OH2 9353   6.754   3.241   0.401
 3137TIP3    H1 9354   6.660   3.224   0.393
 3137TIP3    H2 9355   6.759   3.327   0.441
 3138TIP3   OH2 9356   5.675   5.826   3.461
 3138TIP3    H1 9357   5.715   5.755   3.411
 3138TIP3    H2 9358   5.589   5.839   3.419
 3139TIP3   OH2 9359   1.170   3.535   6.654
 3139TIP3    H1 9360   1.133   3.447   6.666
 3139TIP3    H2 9361   1.184   3.567   6.743
 3140TIP3   OH2 9362   2.307   7.293   6.732
 3140TIP3    H1 9363   2.219   7.328   6.728
 3140TIP3    H2 9364   2.364   7.367   6.708
 3141TIP3   OH2 9365   3.609   4.782   3.213
 3141TIP3    H1 9366   3.677   4.733   3.167
 3141TIP3    H2 9367   3.643   4.792   3.302
 3142TIP3   OH2 9368   1.824   0.202   2.241
 3142TIP3    H1 9369   1.897   0.263   2.247
 3142TIP3    H2 9370   1.765   0.228   2.312
 3143TIP3   OH2 9371   8.020   5.997   6.551
 3143TIP3    H1 9372   7.958   6.019   6.621
 3143TIP3    H2 9373   8.008   6.066   6.486
 3144TIP3   OH2 9374   7.398   5.128   2.592
 3144TIP3    H1 9375   7.469   5.183   2.558
 3144TIP3    H2 9376   7.325   5.189   2.606
 3145TIP3   OH2 9377   6.934   1.987   3.064
 3145TIP3    H1 9378   7.008   2.003   3.123
 3145TIP3    H2 9379   6.902   1.900   3.089
 3146TIP3   OH2 9380   1.851   7.231   2.167
 3146TIP3    H1 9381   1.768   7.251   2.211
 3146TIP3    H2 9382   1.827   7.172   2.096
 3147TIP3   OH2 9383   6.866   3.093   2.720
 3147TIP3    H1 9384   6.889   3.070   2.630
 3147TIP3    H2 9385   6.891   3.185   2.729
 3148TIP3   OH2 9386   4.668   5.909   5.084
 3148TIP3    H1 9387   4.698   5.921   4.993
 3148TIP3    H2 9388   4.598   5.974   5.094
 3149TIP3   OH2 9389   5.400   0.826   2.590
 3149TIP3    H1 9390   5.478   0.779   2.561
 3149TIP3    H2 9391   5.355   0.765   2.648
 3150TIP3   OH2 9392   8.255   5.965   2.920
 3150TIP3    H1 9393   8.328   5.990   2.976
 3150TIP3    H2 9394   8.193   6.038   2.926
 3151TIP3   OH2 9395   8.187   5.478   0.853
 3151TIP3    H1 9396   8.112   5.419   0.847
 3151TIP3    H2 9397   8.259   5.423   0.884
 3152TIP3   OH2 9398   0.170   3.861   3.422
 3152TIP3    H1 9399   0.112   3.802   3.469
 3152TIP3    H2 9400   0.140   3.858   3.332
 3153TIP3   OH2 9401   6.534   0.959   4.405
 3153TIP3    H1 9402   6.522   0.869   4.377
 3153TIP3    H2 9403   6.446   0.989   4.427
 3154TIP3   OH2 9404   2.818   5.691   2.484
 3154TIP3    H1 9405   2.793   5.666   2.573
 3154TIP3    H2 9406   2.796   5.784   2.479
 3155TIP3   OH2 9407   2.146   1.062   2.425
 3155TIP3    H1 9408   2.068   1.099   2.384
 3155TIP3    H2 9409   2.156   1.110   2.507
 3156TIP3   OH2 9410   4.343   6.760   3.094
 3156TIP3    H1 9411   4.391   6.842   3.086
 3156TIP3    H2 9412   4.340   6.725   3.005
 3157TIP3   OH2 9413   2.455   1.268   3.469
 3157TIP3    H1 9414   2.531   1.322   3.493
 3157TIP3    H2 9415   2.382   1.330   3.465
 3158TIP3   OH2 9416   3.182   4.353   6.478
 3158TIP3    H1 9417   3.199   4.284   6.542
 3158TIP3    H2 9418   3.246   4.421   6.498
 3159TIP3   OH2 9419   7.171   2.015   2.826
 3159TIP3    H1 9420   7.267   2.011   2.825
 3159TIP3    H2 9421   7.144   1.926   2.850
 3160TIP3   OH2 9422   6.503   1.743   6.300
 3160TIP3    H1 9423   6.515   1.656   6.262
 3160TIP3    H2 9424   6.536   1.735   6.389
 3161TIP3   OH2 9425   1.500   6.241   5.857
 3161TIP3    H1 9426   1.441   6.314   5.875
 3161TIP3    H2 9427   1.511   6.197   5.941
 3162TIP3   OH2 9428   4.757   2.132   2.471
 3162TIP3    H1 9429   4.808   2.051   2.475
 3162TIP3    H2 9430   4.676   2.107   2.428
 3163TIP3   OH2 9431   5.482   5.109   0.045
 3163TIP3    H1 9432   5.500   5.173   0.114
 3163TIP3    H2 9433   5.517   5.150  -0.035
 3164TIP3   OH2 9434   7.601   1.216   2.626
 3164TIP3    H1 9435   7.646   1.224   2.542
 3164TIP3    H2 9436   7.614   1.124   2.651
 3165TIP3   OH2 9437   6.467   1.138   5.707
 3165TIP3    H1 9438   6.450   1.069   5.642
 3165TIP3    H2 9439   6.516   1.094   5.776
 3166TIP3   OH2 9440   3.987   5.620   2.043
 3166TIP3    H1 9441   3.921   5.554   2.066
 3166TIP3    H2 9442   4.003   5.667   2.125
 3167TIP3   OH2 9443   5.109   7.806   4.194
 3167TIP3    H1 9444   5.185   7.764   4.233
 3167TIP3    H2 9445   5.144   7.882   4.146
 3168TIP3   OH2 9446   0.847   1.559   4.462
 3168TIP3    H1 9447   0.937   1.527   4.458
 3168TIP3    H2 9448   0.806   1.528   4.381
 3169TIP3   OH2 9449   7.057   3.696   3.607
 3169TIP3    H1 9450   7.097   3.636   3.669
 3169TIP3    H2 9451   7.129   3.751   3.576
 3170TIP3   OH2 9452   7.435   0.011   6.516
 3170TIP3    H1 9453   7.523  -0.023   6.533
 3170TIP3    H2 9454   7.396   0.021   6.603
 3171TIP3   OH2 9455   7.451   6.750   0.798
 3171TIP3    H1 9456   7.370   6.739   0.847
 3171TIP3    H2 9457   7.510   6.795   0.858
 3172TIP3   OH2 9458   5.024   6.956   2.572
 3172TIP3    H1 9459   5.018   6.959   2.667
 3172TIP3    H2 9460   5.113   6.985   2.553
 3173TIP3   OH2 9461   5.735   2.908   3.355
 3173TIP3    H1 9462   5.717   2.954   3.272
 3173TIP3    H2 9463   5.651   2.869   3.379
 3174TIP3   OH2 9464   4.695   1.191   2.530
 3174TIP3    H1 9465   4.707   1.266   2.588
 3174TIP3    H2 9466   4.771   1.192   2.472
 3175TIP3   OH2 9467   1.786   6.551   0.458
 3175TIP3    H1 9468   1.786   6.507   0.544
 3175TIP3    H2 9469   1.878   6.572   0.442
 3176TIP3   OH2 9470   4.851   0.986   3.436
 3176TIP3    H1 9471   4.829   1.065   3.486
 3176TIP3    H2 9472   4.946   0.992   3.425
 3177TIP3   OH2 9473   7.185   1.730   4.003
 3177TIP3    H1 9474   7.167   1.824   4.000
 3177TIP3    H2 9475   7.113   1.691   3.953
 3178TIP3   OH2 9476   3.731   3.169   0.538
 3178TIP3    H1 9477   3.663   3.178   0.605
 3178TIP3    H2 9478   3.686   3.185   0.455
 3179TIP3   OH2 9479   2.836   6.324   1.550
 3179TIP3    H1 9480   2.817   6.388   1.482
 3179TIP3    H2 9481   2.930   6.307   1.543
 3180TIP3   OH2 9482   7.956   0.097   5.848
 3180TIP3    H1 9483   8.018   0.064   5.913
 3180TIP3    H2 9484   7.870   0.077   5.885
 3181TIP3   OH2 9485   1.447   4.263   1.784
 3181TIP3    H1 9486   1.466   4.290   1.874
 3181TIP3    H2 9487   1.355   4.237   1.785
 3182TIP3   OH2 9488   7.257   2.982   5.636
 3182TIP3    H1 9489   7.254   3.017   5.726
 3182TIP3    H2 9490   7.218   3.051   5.583
 3183TIP3   OH2 9491   1.284   7.070   0.948
 3183TIP3    H1 9492   1.240   6.988   0.927
 3183TIP3    H2 9493   1.375   7.055   0.923
 3184TIP3   OH2 9494   5.756   0.359   0.400
 3184TIP3    H1 9495   5.726   0.351   0.490
 3184TIP3    H2 9496   5.793   0.273   0.378
 3185TIP3   OH2 9497   4.741   2.961   6.559
 3185TIP3    H1 9498   4.817   2.954   6.616
 3185TIP3    H2 9499   4.762   2.907   6.483
 3186TIP3   OH2 9500   6.380   5.974   4.850
 3186TIP3    H1 9501   6.455   5.914   4.844
 3186TIP3    H2 9502   6.411   6.045   4.906
 3187TIP3   OH2 9503   2.263   5.878   0.720
 3187TIP3    H1 9504   2.170   5.863   0.737
 3187TIP3    H2 9505   2.298   5.792   0.697
 3188TIP3   OH2 9506   1.571   0.870   6.503
 3188TIP3    H1 9507   1.563   0.779   6.530
 3188TIP3    H2 9508   1.539   0.921   6.577
 3189TIP3   OH2 9509   7.202   6.712   6.142
 3189TIP3    H1 9510   7.278   6.657   6.157
 3189TIP3    H2 9511   7.238   6.798   6.119
 3190TIP3   OH2 9512   1.610   4.994   3.268
 3190TIP3    H1 9513   1.538   4.992   3.205
 3190TIP3    H2 9514   1.567   5.004   3.353
 3191TIP3   OH2 9515   3.457   4.345   4.514
 3191TIP3    H1 9516   3.462   4.253   4.539
 3191TIP3    H2 9517   3.515   4.354   4.439
 3192TIP3   OH2 9518   1.020   5.785   0.361
 3192TIP3    H1 9519   0.954   5.853   0.373
 3192TIP3    H2 9520   1.096   5.830   0.326
 3193TIP3   OH2 9521   7.577   1.516   1.409
 3193TIP3    H1 9522   7.627   1.593   1.382
 3193TIP3    H2 9523   7.642   1.446   1.414
 3194TIP3   OH2 9524   6.946   5.144   4.758
 3194TIP3    H1 9525   6.939   5.145   4.853
 3194TIP3    H2 9526   7.028   5.098   4.740
 3195TIP3   OH2 9527   7.126   1.299   3.718
 3195TIP3    H1 9528   7.094   1.307   3.628
 3195TIP3    H2 9529   7.054   1.333   3.772
 3196TIP3   OH2 9530   5.093   1.983   5.291
 3196TIP3    H1 9531   5.127   2.016   5.374
 3196TIP3    H2 9532   5.052   1.899   5.314
 3197TIP3   OH2 9533   1.312   0.068   0.708
 3197TIP3    H1 9534   1.343  -0.018   0.734
 3197TIP3    H2 9535   1.315   0.067   0.612
 3198TIP3   OH2 9536   6.991   6.076   3.001
 3198TIP3    H1 9537   6.966   6.110   3.086
 3198TIP3    H2 9538   7.072   6.121   2.979
 3199TIP3   OH2 9539   6.913   2.387   3.078
 3199TIP3    H1 9540   6.973   2.405   3.006
 3199TIP3    H2 9541   6.834   2.438   3.057
 3200TIP3   OH2 9542   2.661   4.103   5.016
 3200TIP3    H1 9543   2.730   4.167   5.004
 3200TIP3    H2 9544   2.706   4.024   5.045
 3201TIP3   OH2 9545   3.824   3.740   3.714
 3201TIP3    H1 9546   3.774   3.811   3.755
 3201TIP3    H2 9547   3.758   3.682   3.677
 3202TIP3   OH2 9548   3.950   4.329   3.624
 3202TIP3    H1 9549   3.919   4.380   3.699
 3202TIP3    H2 9550   3.968   4.242   3.659
 3203TIP3   OH2 9551   7.026   3.326   0.484
 3203TIP3    H1 9552   6.933   3.308   0.492
 3203TIP3    H2 9553   7.037   3.357   0.394
 3204TIP3   OH2 9554   4.867   1.023   4.781
 3204TIP3    H1 9555   4.902   1.107   4.752
 3204TIP3    H2 9556   4.902   0.959   4.719
 3205TIP3   OH2 9557   4.022   1.848   4.443
 3205TIP3    H1 9558   3.949   1.829   4.384
 3205TIP3    H2 9559   4.100   1.832   4.390
 3206TIP3   OH2 9560   3.668   7.474   1.273
 3206TIP3    H1 9561   3.579   7.461   1.240
 3206TIP3    H2 9562   3.693   7.561   1.242
 3207TIP3   OH2 9563   8.149   0.248   6.637
 3207TIP3    H1 9564   8.237   0.285   6.647
 3207TIP3    H2 9565   8.163   0.165   6.591
 3208TIP3   OH2 9566   2.668   5.598   6.380
 3208TIP3    H1 9567   2.591   5.641   6.416
 3208TIP3    H2 9568   2.741   5.635   6.430
 3209TIP3   OH2 9569   0.020   2.508   6.194
 3209TIP3    H1 9570  -0.056   2.566   6.180
 3209TIP3    H2 9571   0.087   2.566   6.230
 3210TIP3   OH2 9572   7.520   1.106   2.315
 3210TIP3    H1 9573   7.572   1.185   2.328
 3210TIP3    H2 9574   7.583   1.034   2.317
 3211TIP3   OH2 9575   6.333   6.525   0.872
 3211TIP3    H1 9576   6.299   6.467   0.803
 3211TIP3    H2 9577   6.257   6.577   0.898
 3212TIP3   OH2 9578   0.655   0.692   1.260
 3212TIP3    H1 9579   0.684   0.781   1.279
 3212TIP3    H2 9580   0.598   0.701   1.184
 3213TIP3   OH2 9581   8.141   1.178   6.415
 3213TIP3    H1 9582   8.065   1.187   6.357
 3213TIP3    H2 9583   8.213   1.154   6.357
 3214TIP3   OH2 9584   7.308   7.680   0.088
 3214TIP3    H1 9585   7.363   7.689   0.011
 3214TIP3    H2 9586   7.222   7.655   0.054
 3215TIP3   OH2 9587   0.626   7.416   3.621
 3215TIP3    H1 9588   0.681   7.341   3.639
 3215TIP3    H2 9589   0.602   7.450   3.708
 3216TIP3   OH2 9590   6.393   7.583   5.174
 3216TIP3    H1 9591   6.478   7.607   5.137
 3216TIP3    H2 9592   6.385   7.489   5.158
 3217TIP3   OH2 9593   6.096   2.550   0.949
 3217TIP3    H1 9594   6.189   2.534   0.934
 3217TIP3    H2 9595   6.074   2.494   1.023
 3218TIP3   OH2 9596   3.779   0.799   1.830
 3218TIP3    H1 9597   3.816   0.768   1.748
 3218TIP3    H2 9598   3.688   0.821   1.809
 3219TIP3   OH2 9599   7.434   3.100   3.213
 3219TIP3    H1 9600   7.339   3.093   3.214
 3219TIP3    H2 9601   7.455   3.149   3.293
 3220TIP3   OH2 9602   1.790   7.583   2.173
 3220TIP3    H1 9603   1.821   7.663   2.214
 3220TIP3    H2 9604   1.851   7.567   2.101
 3221TIP3   OH2 9605   6.597   2.029   5.492
 3221TIP3    H1 9606   6.576   2.072   5.575
 3221TIP3    H2 9607   6.606   2.101   5.430
 3222TIP3   OH2 9608   5.392   1.846   3.831
 3222TIP3    H1 9609   5.333   1.906   3.877
 3222TIP3    H2 9610   5.391   1.876   3.740
 3223TIP3   OH2 9611   7.455   2.198   4.530
 3223TIP3    H1 9612   7.371   2.219   4.570
 3223TIP3    H2 9613   7.515   2.264   4.565
 3224TIP3   OH2 9614   0.750   5.813   2.443
 3224TIP3    H1 9615   0.687   5.747   2.414
 3224TIP3    H2 9616   0.709   5.897   2.420
 3225TIP3   OH2 9617   7.620   4.337   4.661
 3225TIP3    H1 9618   7.534   4.354   4.623
 3225TIP3    H2 9619   7.663   4.423   4.662
 3226TIP3   OH2 9620   4.221   2.805   4.279
 3226TIP3    H1 9621   4.253   2.731   4.331
 3226TIP3    H2 9622   4.143   2.836   4.326
 3227TIP3   OH2 9623   6.515   3.595   4.339
 3227TIP3    H1 9624   6.490   3.676   4.297
 3227TIP3    H2 9625   6.574   3.621   4.410
 3228TIP3   OH2 9626   4.281   3.138   6.228
 3228TIP3    H1 9627   4.209   3.178   6.181
 3228TIP3    H2 9628   4.360   3.175   6.189
 3229TIP3   OH2 9629   7.369   6.961   1.659
 3229TIP3    H1 9630   7.314   6.955   1.737
 3229TIP3    H2 9631   7.404   6.873   1.647
 3230TIP3   OH2 9632   0.848   5.577   1.770
 3230TIP3    H1 9633   0.778   5.589   1.834
 3230TIP3    H2 9634   0.809   5.522   1.702
 3231TIP3   OH2 9635   4.274   0.127   5.930
 3231TIP3    H1 9636   4.203   0.102   5.871
 3231TIP3    H2 9637   4.324   0.046   5.944
 3232TIP3   OH2 9638   0.209   4.737   0.763
 3232TIP3    H1 9639   0.235   4.828   0.752
 3232TIP3    H2 9640   0.288   4.693   0.795
 3233TIP3   OH2 9641   3.198   4.979   1.981
 3233TIP3    H1 9642   3.282   4.976   1.935
 3233TIP3    H2 9643   3.216   4.942   2.067
 3234TIP3   OH2 9644   3.099   2.902   0.708
 3234TIP3    H1 9645   3.101   2.962   0.633
 3234TIP3    H2 9646   3.158   2.942   0.772
 3235TIP3   OH2 9647   7.790   3.820   4.120
 3235TIP3    H1 9648   7.721   3.872   4.080
 3235TIP3    H2 9649   7.866   3.832   4.064
 3236TIP3   OH2 9650   0.830   4.669   2.204
 3236TIP3    H1 9651   0.755   4.699   2.153
 3236TIP3    H2 9652   0.808   4.579   2.228
 3237TIP3   OH2 9653   6.014   4.143   4.153
 3237TIP3    H1 9654   5.997   4.071   4.213
 3237TIP3    H2 9655   5.927   4.168   4.121
 3238TIP3   OH2 9656   1.512   5.724   2.378
 3238TIP3    H1 9657   1.555   5.806   2.403
 3238TIP3    H2 9658   1.429   5.751   2.339
 3239TIP3   OH2 9659   6.754   0.738   1.200
 3239TIP3    H1 9660   6.663   0.740   1.229
 3239TIP3    H2 9661   6.799   0.687   1.267
 3240TIP3   OH2 9662   3.319   7.152   0.710
 3240TIP3    H1 9663   3.343   7.233   0.754
 3240TIP3    H2 9664   3.399   7.124   0.666
 3241TIP3   OH2 9665   6.075   4.233   0.625
 3241TIP3    H1 9666   6.118   4.153   0.654
 3241TIP3    H2 9667   6.125   4.303   0.668
 3242TIP3   OH2 9668   2.858   3.634   5.638
 3242TIP3    H1 9669   2.795   3.707   5.635
 3242TIP3    H2 9670   2.808   3.558   5.610
 3243TIP3   OH2 9671   7.049   5.241   1.105
 3243TIP3    H1 9672   7.117   5.294   1.064
 3243TIP3    H2 9673   7.011   5.191   1.032
 3244TIP3   OH2 9674   1.635   7.087   4.815
 3244TIP3    H1 9675   1.672   7.174   4.802
 3244TIP3    H2 9676   1.666   7.037   4.739
 3245TIP3   OH2 9677   6.122   5.602   1.155
 3245TIP3    H1 9678   6.182   5.536   1.189
 3245TIP3    H2 9679   6.041   5.590   1.206
 3246TIP3   OH2 9680   7.570   6.764   0.529
 3246TIP3    H1 9681   7.507   6.744   0.461
 3246TIP3    H2 9682   7.519   6.766   0.610
 3247TIP3   OH2 9683   0.669   6.954   3.709
 3247TIP3    H1 9684   0.582   6.940   3.673
 3247TIP3    H2 9685   0.662   6.930   3.801
 3248TIP3   OH2 9686   3.268   7.146   5.264
 3248TIP3    H1 9687   3.178   7.126   5.238
 3248TIP3    H2 9688   3.311   7.060   5.265
 3249TIP3   OH2 9689   7.253   7.175   4.514
 3249TIP3    H1 9690   7.238   7.217   4.599
 3249TIP3    H2 9691   7.307   7.237   4.465
 3250TIP3   OH2 9692   2.536   1.396   5.146
 3250TIP3    H1 9693   2.573   1.421   5.062
 3250TIP3    H2 9694   2.455   1.447   5.153
 3251TIP3   OH2 9695   7.827   4.213   2.204
 3251TIP3    H1 9696   7.822   4.238   2.112
 3251TIP3    H2 9697   7.781   4.282   2.251
 3252TIP3   OH2 9698   5.795   5.631   4.898
 3252TIP3    H1 9699   5.800   5.536   4.908
 3252TIP3    H2 9700   5.746   5.644   4.816
 3253TIP3   OH2 9701   8.106   1.231   5.290
 3253TIP3    H1 9702   8.110   1.248   5.384
 3253TIP3    H2 9703   8.014   1.213   5.272
 3254TIP3   OH2 9704   7.752   2.901   3.954
 3254TIP3    H1 9705   7.833   2.951   3.945
 3254TIP3    H2 9706   7.694   2.937   3.886
 3255TIP3   OH2 9707   1.600   6.821   3.234
 3255TIP3    H1 9708   1.597   6.815   3.329
 3255TIP3    H2 9709   1.607   6.914   3.215
 3256TIP3   OH2 9710   3.546   6.124   0.559
 3256TIP3    H1 9711   3.585   6.066   0.494
 3256TIP3    H2 9712   3.482   6.069   0.605
 3257TIP3   OH2 9713   3.397   5.934   5.154
 3257TIP3    H1 9714   3.353   5.874   5.094
 3257TIP3    H2 9715   3.470   5.883   5.190
 3258TIP3   OH2 9716   1.767   0.074   4.625
 3258TIP3    H1 9717   1.847   0.040   4.587
 3258TIP3    H2 9718   1.764   0.037   4.713
 3259TIP3   OH2 9719   3.649   7.516   3.025
 3259TIP3    H1 9720   3.721   7.457   3.048
 3259TIP3    H2 9721   3.666   7.540   2.934
 3260TIP3   OH2 9722   7.144   0.266   3.772
 3260TIP3    H1 9723   7.107   0.265   3.684
 3260TIP3    H2 9724   7.149   0.358   3.795
 3261TIP3   OH2 9725   3.131   3.948   5.503
 3261TIP3    H1 9726   3.182   3.953   5.423
 3261TIP3    H2 9727   3.106   4.039   5.523
 3262TIP3   OH2 9728   7.576   4.503   5.235
 3262TIP3    H1 9729   7.628   4.424   5.228
 3262TIP3    H2 9730   7.508   4.482   5.299
 3263TIP3   OH2 9731   7.614   4.232   4.922
 3263TIP3    H1 9732   7.652   4.258   4.838
 3263TIP3    H2 9733   7.552   4.301   4.943
 3264TIP3   OH2 9734   3.084   5.383   3.998
 3264TIP3    H1 9735   3.065   5.408   3.907
 3264TIP3    H2 9736   3.119   5.294   3.991
 3265TIP3   OH2 9737   3.919   3.274   1.971
 3265TIP3    H1 9738   3.986   3.213   1.940
 3265TIP3    H2 9739   3.909   3.253   2.064
 3266TIP3   OH2 9740   0.559   7.299   4.862
 3266TIP3    H1 9741   0.533   7.322   4.951
 3266TIP3    H2 9742   0.477   7.302   4.812
 3267TIP3   OH2 9743   6.806   5.596   4.866
 3267TIP3    H1 9744   6.868   5.590   4.793
 3267TIP3    H2 9745   6.861   5.607   4.943
 3268TIP3   OH2 9746   4.077   0.927   0.026
 3268TIP3    H1 9747   3.996   0.901   0.070
 3268TIP3    H2 9748   4.111   0.845  -0.011
 3269TIP3   OH2 9749   7.300   3.233   0.770
 3269TIP3    H1 9750   7.223   3.266   0.818
 3269TIP3    H2 9751   7.344   3.176   0.833
 3270TIP3   OH2 9752   7.485   3.842   1.153
 3270TIP3    H1 9753   7.534   3.828   1.071
 3270TIP3    H2 9754   7.416   3.904   1.129
 3271TIP3   OH2 9755   1.869   6.006   0.593
 3271TIP3    H1 9756   1.926   6.033   0.520
 3271TIP3    H2 9757   1.788   5.979   0.551
 3272TIP3   OH2 9758   4.350   3.992   0.420
 3272TIP3    H1 9759   4.287   3.946   0.475
 3272TIP3    H2 9760   4.314   3.986   0.332
 3273TIP3   OH2 9761   6.493   7.372   2.051
 3273TIP3    H1 9762   6.439   7.327   2.117
 3273TIP3    H2 9763   6.440   7.369   1.971
 3274TIP3   OH2 9764   7.915   4.110   2.905
 3274TIP3    H1 9765   7.882   4.085   2.818
 3274TIP3    H2 9766   7.968   4.188   2.889
 3275TIP3   OH2 9767   2.579   3.726   2.198
 3275TIP3    H1 9768   2.527   3.761   2.270
 3275TIP3    H2 9769   2.604   3.803   2.147
 3276TIP3   OH2 9770   7.158   5.472   6.639
 3276TIP3    H1 9771   7.122   5.384   6.627
 3276TIP3    H2 9772   7.235   5.474   6.582
 3277TIP3   OH2 9773   3.036   3.974   1.156
 3277TIP3    H1 9774   3.034   3.924   1.075
 3277TIP3    H2 9775   2.976   3.929   1.215
 3278TIP3   OH2 9776   0.821   5.928   5.394
 3278TIP3    H1 9777   0.775   5.857   5.438
 3278TIP3    H2 9778   0.831   5.897   5.304
 3279TIP3   OH2 9779   1.443   1.827   4.297
 3279TIP3    H1 9780   1.352   1.852   4.311
 3279TIP3    H2 9781   1.442   1.731   4.292
 3280TIP3   OH2 9782   0.081   4.995   0.829
 3280TIP3    H1 9783   0.072   4.904   0.858
 3280TIP3    H2 9784   0.131   4.989   0.747
 3281TIP3   OH2 9785   6.336   1.346   0.496
 3281TIP3    H1 9786   6.412   1.312   0.543
 3281TIP3    H2 9787   6.261   1.299   0.532
 3282TIP3   OH2 9788   4.843   6.126   6.074
 3282TIP3    H1 9789   4.800   6.106   6.158
 3282TIP3    H2 9790   4.813   6.057   6.015
 3283TIP3   OH2 9791   7.812   0.315   4.980
 3283TIP3    H1 9792   7.745   0.363   4.932
 3283TIP3    H2 9793   7.789   0.326   5.072
 3284TIP3   OH2 9794   7.286   2.598   6.686
 3284TIP3    H1 9795   7.370   2.552   6.693
 3284TIP3    H2 9796   7.273   2.610   6.592
 3285TIP3   OH2 9797   5.751   7.593   3.499
 3285TIP3    H1 9798   5.689   7.533   3.541
 3285TIP3    H2 9799   5.822   7.602   3.562
 3286TIP3   OH2 9800   1.264   4.389   5.325
 3286TIP3    H1 9801   1.213   4.469   5.339
 3286TIP3    H2 9802   1.349   4.419   5.293
 3287TIP3   OH2 9803   3.389   3.919   0.135
 3287TIP3    H1 9804   3.341   3.864   0.074
 3287TIP3    H2 9805   3.322   3.954   0.194
 3288TIP3   OH2 9806   3.304   6.736   0.152
 3288TIP3    H1 9807   3.328   6.650   0.185
 3288TIP3    H2 9808   3.306   6.793   0.229
 3289TIP3   OH2 9809   4.816   2.002   3.223
 3289TIP3    H1 9810   4.858   1.927   3.182
 3289TIP3    H2 9811   4.887   2.051   3.264
 3290TIP3   OH2 9812   3.232   5.587   2.972
 3290TIP3    H1 9813   3.197   5.592   2.883
 3290TIP3    H2 9814   3.323   5.558   2.960
 3291TIP3   OH2 9815   4.391   2.363   1.348
 3291TIP3    H1 9816   4.317   2.362   1.288
 3291TIP3    H2 9817   4.461   2.407   1.299
 3292TIP3   OH2 9818   1.816   7.811   5.259
 3292TIP3    H1 9819   1.807   7.750   5.186
 3292TIP3    H2 9820   1.860   7.761   5.327
 3293TIP3   OH2 9821   6.725   6.489   4.507
 3293TIP3    H1 9822   6.711   6.550   4.434
 3293TIP3    H2 9823   6.640   6.485   4.551
 3294TIP3   OH2 9824   6.263   1.165   5.043
 3294TIP3    H1 9825   6.332   1.221   5.009
 3294TIP3    H2 9826   6.182   1.216   5.031
 3295TIP3   OH2 9827   7.461   6.391   3.344
 3295TIP3    H1 9828   7.371   6.416   3.364
 3295TIP3    H2 9829   7.462   6.296   3.354
 3296TIP3   OH2 9830   4.417   0.122   6.395
 3296TIP3    H1 9831   4.442   0.042   6.349
 3296TIP3    H2 9832   4.492   0.180   6.384
 3297TIP3   OH2 9833   1.062   0.621   3.381
 3297TIP3    H1 9834   1.154   0.593   3.387
 3297TIP3    H2 9835   1.063   0.697   3.324
 3298TIP3   OH2 9836   5.633   0.194   3.703
 3298TIP3    H1 9837   5.624   0.225   3.793
 3298TIP3    H2 9838   5.543   0.185   3.672
 3299TIP3   OH2 9839   6.296   2.383   5.199
 3299TIP3    H1 9840   6.202   2.370   5.215
 3299TIP3    H2 9841   6.323   2.445   5.266
 3300TIP3   OH2 9842   2.207   5.417   6.702
 3300TIP3    H1 9843   2.207   5.377   6.789
 3300TIP3    H2 9844   2.157   5.356   6.648
 3301TIP3   OH2 9845   6.688   6.789   2.547
 3301TIP3    H1 9846   6.681   6.865   2.489
 3301TIP3    H2 9847   6.710   6.717   2.489
 3302TIP3   OH2 9848   0.403   0.181   0.494
 3302TIP3    H1 9849   0.493   0.161   0.471
 3302TIP3    H2 9850   0.351   0.110   0.455
 3303TIP3   OH2 9851   6.950   2.404   0.326
 3303TIP3    H1 9852   6.918   2.387   0.238
 3303TIP3    H2 9853   7.043   2.382   0.323
 3304TIP3   OH2 9854   2.288   4.697   1.270
 3304TIP3    H1 9855   2.372   4.734   1.296
 3304TIP3    H2 9856   2.232   4.707   1.347
 3305TIP3   OH2 9857   0.559   6.479   5.077
 3305TIP3    H1 9858   0.568   6.518   4.990
 3305TIP3    H2 9859   0.469   6.500   5.103
 3306TIP3   OH2 9860   7.547   3.017   6.030
 3306TIP3    H1 9861   7.536   3.094   5.975
 3306TIP3    H2 9862   7.490   2.951   5.991
 3307TIP3   OH2 9863   2.718   3.519   4.346
 3307TIP3    H1 9864   2.753   3.502   4.258
 3307TIP3    H2 9865   2.773   3.465   4.404
 3308TIP3   OH2 9866   1.717   7.412   5.271
 3308TIP3    H1 9867   1.741   7.358   5.346
 3308TIP3    H2 9868   1.794   7.466   5.255
 3309TIP3   OH2 9869   2.679   2.567   2.377
 3309TIP3    H1 9870   2.748   2.620   2.418
 3309TIP3    H2 9871   2.599   2.619   2.390
 3310TIP3   OH2 9872   1.359   4.616   4.740
 3310TIP3    H1 9873   1.330   4.706   4.756
 3310TIP3    H2 9874   1.347   4.604   4.646
 3311TIP3   OH2 9875   2.121   0.263   6.629
 3311TIP3    H1 9876   2.185   0.332   6.609
 3311TIP3    H2 9877   2.085   0.239   6.543
 3312TIP3   OH2 9878   1.922   1.130   2.254
 3312TIP3    H1 9879   1.925   1.116   2.159
 3312TIP3    H2 9880   1.860   1.203   2.265
 3313TIP3   OH2 9881   2.484   6.013   0.338
 3313TIP3    H1 9882   2.546   5.964   0.284
 3313TIP3    H2 9883   2.398   5.983   0.309
 3314TIP3   OH2 9884   3.274   4.807   5.567
 3314TIP3    H1 9885   3.293   4.790   5.660
 3314TIP3    H2 9886   3.184   4.776   5.555
 3315TIP3   OH2 9887   1.258   1.298   5.172
 3315TIP3    H1 9888   1.201   1.223   5.155
 3315TIP3    H2 9889   1.326   1.293   5.105
 3316TIP3   OH2 9890   5.600   3.232   4.155
 3316TIP3    H1 9891   5.674   3.286   4.125
 3316TIP3    H2 9892   5.541   3.229   4.079
 3317TIP3   OH2 9893   4.308   2.546   3.530
 3317TIP3    H1 9894   4.300   2.461   3.573
 3317TIP3    H2 9895   4.372   2.532   3.460
 3318TIP3   OH2 9896   6.698   4.516   3.090
 3318TIP3    H1 9897   6.790   4.541   3.082
 3318TIP3    H2 9898   6.700   4.424   3.116
 3319TIP3   OH2 9899   8.015   6.654   6.540
 3319TIP3    H1 9900   8.054   6.701   6.614
 3319TIP3    H2 9901   7.929   6.694   6.530
 3320TIP3   OH2 9902   0.180   2.138   3.775
 3320TIP3    H1 9903   0.239   2.095   3.837
 3320TIP3    H2 9904   0.135   2.066   3.731
 3321TIP3   OH2 9905   1.676   5.675   2.778
 3321TIP3    H1 9906   1.771   5.660   2.782
 3321TIP3    H2 9907   1.656   5.721   2.859
 3322TIP3   OH2 9908   6.959   3.067   3.087
 3322TIP3    H1 9909   6.900   3.140   3.068
 3322TIP3    H2 9910   6.999   3.045   3.003
 3323TIP3   OH2 9911   2.308   2.097   1.587
 3323TIP3    H1 9912   2.257   2.021   1.615
 3323TIP3    H2 9913   2.363   2.065   1.516
 3324TIP3   OH2 9914   2.085   6.735   5.301
 3324TIP3    H1 9915   2.125   6.677   5.365
 3324TIP3    H2 9916   2.076   6.682   5.222
 3325TIP3   OH2 9917   5.462   6.839   5.800
 3325TIP3    H1 9918   5.476   6.796   5.716
 3325TIP3    H2 9919   5.367   6.839   5.811
 3326TIP3   OH2 9920   2.549   4.902   3.128
 3326TIP3    H1 9921   2.563   4.808   3.141
 3326TIP3    H2 9922   2.628   4.943   3.163
 3327TIP3   OH2 9923   1.417   4.233   4.455
 3327TIP3    H1 9924   1.401   4.218   4.548
 3327TIP3    H2 9925   1.392   4.151   4.412
 3328TIP3   OH2 9926   5.019   5.053   3.451
 3328TIP3    H1 9927   5.065   5.114   3.394
 3328TIP3    H2 9928   5.001   4.977   3.396
 3329TIP3   OH2 9929   6.267   5.650   3.167
 3329TIP3    H1 9930   6.208   5.577   3.150
 3329TIP3    H2 9931   6.353   5.619   3.140
 3330TIP3   OH2 9932   2.270   1.372   3.226
 3330TIP3    H1 9933   2.291   1.465   3.236
 3330TIP3    H2 9934   2.179   1.370   3.197
 3331TIP3   OH2 9935   7.959   4.366   2.525
 3331TIP3    H1 9936   7.962   4.285   2.577
 3331TIP3    H2 9937   7.868   4.396   2.535
 3332TIP3   OH2 9938   4.353   4.309   4.866
 3332TIP3    H1 9939   4.274   4.259   4.886
 3332TIP3    H2 9940   4.322   4.398   4.849
 3333TIP3   OH2 9941   0.952   7.507   6.219
 3333TIP3    H1 9942   0.896   7.543   6.288
 3333TIP3    H2 9943   0.981   7.583   6.169
 3334TIP3   OH2 9944   1.630   2.024   1.155
 3334TIP3    H1 9945   1.705   2.077   1.182
 3334TIP3    H2 9946   1.668   1.956   1.099
 3335TIP3   OH2 9947   5.190   1.489   5.709
 3335TIP3    H1 9948   5.156   1.404   5.736
 3335TIP3    H2 9949   5.186   1.543   5.788
 3336TIP3   OH2 9950   5.523   7.041   0.166
 3336TIP3    H1 9951   5.465   6.966   0.158
 3336TIP3    H2 9952   5.531   7.075   0.076
 3337TIP3   OH2 9953   0.848   6.568   0.319
 3337TIP3    H1 9954   0.902   6.645   0.303
 3337TIP3    H2 9955   0.910   6.500   0.345
 3338TIP3   OH2 9956   6.428   5.783   3.696
 3338TIP3    H1 9957   6.429   5.690   3.675
 3338TIP3    H2 9958   6.335   5.804   3.705
 3339TIP3   OH2 9959   4.587   2.198   5.468
 3339TIP3    H1 9960   4.554   2.194   5.378
 3339TIP3    H2 9961   4.557   2.117   5.509
 3340TIP3   OH2 9962   2.459   5.640   1.572
 3340TIP3    H1 9963   2.468   5.620   1.665
 3340TIP3    H2 9964   2.447   5.735   1.568
 3341TIP3   OH2 9965   6.544   4.075   3.172
 3341TIP3    H1 9966   6.534   4.050   3.080
 3341TIP3    H2 9967   6.467   4.039   3.216
 3342TIP3   OH2 9968   4.272   0.776   4.495
 3342TIP3    H1 9969   4.296   0.703   4.438
 3342TIP3    H2 9970   4.324   0.763   4.574
 3343TIP3   OH2 9971   5.495   0.930   6.537
 3343TIP3    H1 9972   5.503   1.001   6.473
 3343TIP3    H2 9973   5.580   0.928   6.581
 3344TIP3   OH2 9974   3.802   1.844   2.896
 3344TIP3    H1 9975   3.792   1.765   2.842
 3344TIP3    H2 9976   3.809   1.915   2.832
 3345TIP3   OH2 9977   5.897   1.830   3.631
 3345TIP3    H1 9978   5.858   1.818   3.545
 3345TIP3    H2 9979   5.937   1.917   3.628
 3346TIP3   OH2 9980   6.651   3.878   2.459
 3346TIP3    H1 9981   6.644   3.973   2.465
 3346TIP3    H2 9982   6.640   3.858   2.366
 3347TIP3   OH2 9983   7.378   3.964   3.722
 3347TIP3    H1 9984   7.300   3.986   3.772
 3347TIP3    H2 9985   7.345   3.923   3.642
 3348TIP3   OH2 9986   4.240   1.048   6.606
 3348TIP3    H1 9987   4.291   1.059   6.526
 3348TIP3    H2 9988   4.173   1.117   6.602
 3349TIP3   OH2 9989   4.648   3.251   3.816
 3349TIP3    H1 9990   4.595   3.171   3.823
 3349TIP3    H2 9991   4.585   3.322   3.816
 3350TIP3   OH2 9992   0.463   2.950   1.728
 3350TIP3    H1 9993   0.401   2.993   1.669
 3350TIP3    H2 9994   0.510   2.888   1.672
 3351TIP3   OH2 9995   4.686   7.536   5.258
 3351TIP3    H1 9996   4.702   7.482   5.336
 3351TIP3    H2 9997   4.625   7.485   5.205
 3352TIP3   OH2 9998   0.083   3.100   1.162
 3352TIP3    H1 9999   0.057   3.183   1.201
 3352TIP3    H210000   0.085   3.117   1.068
 3353TIP3   OH210001   3.193   7.559   2.893
 3353TIP3    H110002   3.271   7.517   2.857
 3353TIP3    H210003   3.224   7.606   2.970
 3354TIP3   OH210004   0.955   7.264   6.444
 3354TIP3    H110005   0.970   7.271   6.349
 3354TIP3    H210006   0.996   7.342   6.481
 3355TIP3   OH210007   3.900   4.819   1.523
 3355TIP3    H110008   3.862   4.814   1.436
 3355TIP3    H210009   3.831   4.856   1.577
 3356TIP3   OH210010   2.798   2.969   5.621
 3356TIP3    H110011   2.862   2.947   5.688
 3356TIP3    H210012   2.848   3.016   5.554
 3357TIP3   OH210013   6.065   6.144   6.474
 3357TIP3    H110014   6.153   6.145   6.510
 3357TIP3    H210015   6.072   6.191   6.391
 3358TIP3   OH210016   1.146   0.456   5.688
 3358TIP3    H110017   1.179   0.446   5.599
 3358TIP3    H210018   1.214   0.506   5.734
 3359TIP3   OH210019   0.623   7.076   2.947
 3359TIP3    H110020   0.619   6.991   2.993
 3359TIP3    H210021   0.704   7.071   2.896
 3360TIP3   OH210022   4.325   6.756   5.560
 3360TIP3    H110023   4.393   6.823   5.556
 3360TIP3    H210024   4.253   6.792   5.508
 3361TIP3   OH210025   2.957   6.597   0.955
 3361TIP3    H110026   2.879   6.551   0.923
 3361TIP3    H210027   3.020   6.589   0.883
 3362TIP3   OH210028   4.498   7.529   2.106
 3362TIP3    H110029   4.413   7.496   2.134
 3362TIP3    H210030   4.561   7.478   2.156
 3363TIP3   OH210031   2.251   1.819   0.096
 3363TIP3    H110032   2.288   1.737   0.127
 3363TIP3    H210033   2.323   1.860   0.048
 3364TIP3   OH210034   3.045   2.541   4.531
 3364TIP3    H110035   3.081   2.508   4.613
 3364TIP3    H210036   2.999   2.466   4.493
 3365TIP3   OH210037   5.099   6.338   2.739
 3365TIP3    H110038   5.041   6.345   2.815
 3365TIP3    H210039   5.160   6.411   2.749
 3366TIP3   OH210040   5.577   7.447   1.256
 3366TIP3    H110041   5.578   7.542   1.253
 3366TIP3    H210042   5.531   7.426   1.337
 3367TIP3   OH210043   6.666   7.551   0.584
 3367TIP3    H110044   6.625   7.628   0.543
 3367TIP3    H210045   6.743   7.586   0.629
 3368TIP3   OH210046   0.302   7.612   4.859
 3368TIP3    H110047   0.254   7.662   4.793
 3368TIP3    H210048   0.394   7.632   4.842
 3369TIP3   OH210049   4.998   4.143   5.269
 3369TIP3    H110050   5.008   4.049   5.251
 3369TIP3    H210051   5.044   4.186   5.197
 3370TIP3   OH210052   6.211   2.220   5.477
 3370TIP3    H110053   6.248   2.162   5.544
 3370TIP3    H210054   6.226   2.172   5.395
 3371TIP3   OH210055   1.383   6.705   3.867
 3371TIP3    H110056   1.336   6.743   3.794
 3371TIP3    H210057   1.458   6.763   3.880
 3372TIP3   OH210058   1.593   3.135   1.449
 3372TIP3    H110059   1.637   3.157   1.366
 3372TIP3    H210060   1.627   3.199   1.511
 3373TIP3   OH210061   4.036   3.367   3.613
 3373TIP3    H110062   4.125   3.367   3.577
 3373TIP3    H210063   4.026   3.279   3.649
 3374TIP3   OH210064   6.385   0.106   4.416
 3374TIP3    H110065   6.411   0.027   4.464
 3374TIP3    H210066   6.411   0.089   4.326
 3375TIP3   OH210067   0.693   4.738   1.497
 3375TIP3    H110068   0.636   4.802   1.539
 3375TIP3    H210069   0.777   4.784   1.485
 3376TIP3   OH210070   2.520   5.735   2.072
 3376TIP3    H110071   2.531   5.780   2.157
 3376TIP3    H210072   2.560   5.795   2.009
 3377TIP3   OH210073   5.086   7.161   2.284
 3377TIP3    H110074   5.126   7.120   2.360
 3377TIP3    H210075   5.073   7.090   2.221
 3378TIP3   OH210076   5.978   4.182   5.423
 3378TIP3    H110077   6.012   4.264   5.385
 3378TIP3    H210078   5.996   4.116   5.356
 3379TIP3   OH210079   5.338   4.242   5.632
 3379TIP3    H110080   5.371   4.184   5.700
 3379TIP3    H210081   5.258   4.200   5.600
 3380TIP3   OH210082   7.780   0.157   3.565
 3380TIP3    H110083   7.865   0.150   3.608
 3380TIP3    H210084   7.721   0.190   3.633
 3381TIP3   OH210085   4.629   1.167   6.288
 3381TIP3    H110086   4.617   1.244   6.343
 3381TIP3    H210087   4.611   1.199   6.199
 3382TIP3   OH210088   2.216   2.860   5.672
 3382TIP3    H110089   2.174   2.785   5.632
 3382TIP3    H210090   2.298   2.871   5.625
 3383TIP3   OH210091   0.914   2.392   1.023
 3383TIP3    H110092   0.949   2.447   1.093
 3383TIP3    H210093   0.854   2.449   0.976
 3384TIP3   OH210094   2.274   0.208   1.028
 3384TIP3    H110095   2.285   0.273   1.098
 3384TIP3    H210096   2.226   0.136   1.069
 3385TIP3   OH210097   0.571   1.244   6.592
 3385TIP3    H110098   0.547   1.240   6.500
 3385TIP3    H210099   0.659   1.281   6.593
 3386TIP3   OH210100   0.177   5.204   5.722
 3386TIP3    H110101   0.252   5.249   5.682
 3386TIP3    H210102   0.140   5.268   5.782
 3387TIP3   OH210103   7.202   4.831   4.056
 3387TIP3    H110104   7.229   4.761   4.117
 3387TIP3    H210105   7.221   4.912   4.103
 3388TIP3   OH210106   4.615   0.261   2.031
 3388TIP3    H110107   4.680   0.231   1.968
 3388TIP3    H210108   4.658   0.253   2.116
 3389TIP3   OH210109   7.207   7.416   2.208
 3389TIP3    H110110   7.177   7.332   2.242
 3389TIP3    H210111   7.291   7.430   2.252
 3390TIP3   OH210112   3.705   6.934   4.556
 3390TIP3    H110113   3.731   6.850   4.592
 3390TIP3    H210114   3.786   6.985   4.553
 3391TIP3   OH210115   4.257   0.208   4.384
 3391TIP3    H110116   4.225   0.290   4.421
 3391TIP3    H210117   4.181   0.150   4.384
 3392TIP3   OH210118   2.790   4.644   2.601
 3392TIP3    H110119   2.854   4.573   2.592
 3392TIP3    H210120   2.811   4.704   2.529
 3393TIP3   OH210121   4.881   3.208   6.712
 3393TIP3    H110122   4.839   3.223   6.797
 3393TIP3    H210123   4.904   3.115   6.713
 3394TIP3   OH210124   4.548   0.317   4.727
 3394TIP3    H110125   4.636   0.282   4.720
 3394TIP3    H210126   4.511   0.307   4.639
 3395TIP3   OH210127   7.120   7.504   5.084
 3395TIP3    H110128   7.055   7.515   5.014
 3395TIP3    H210129   7.185   7.573   5.067
 3396TIP3   OH210130   6.927   4.373   6.498
 3396TIP3    H110131   7.013   4.353   6.462
 3396TIP3    H210132   6.878   4.411   6.425
 3397TIP3   OH210133   5.338   1.050   0.843
 3397TIP3    H110134   5.397   1.001   0.785
 3397TIP3    H210135   5.321   0.990   0.916
 3398TIP3   OH210136   1.030   3.748   1.721
 3398TIP3    H110137   0.990   3.833   1.703
 3398TIP3    H210138   1.000   3.726   1.810
 3399TIP3   OH210139   6.683   2.872   1.967
 3399TIP3    H110140   6.677   2.777   1.982
 3399TIP3    H210141   6.740   2.903   2.037
 3400TIP3   OH210142   2.212   0.071   0.669
 3400TIP3    H110143   2.299   0.087   0.632
 3400TIP3    H210144   2.192   0.150   0.719
 3401TIP3   OH210145   8.014   1.490   5.584
 3401TIP3    H110146   8.092   1.461   5.632
 3401TIP3    H210147   8.042   1.570   5.540
 3402TIP3   OH210148   4.842   3.024   2.635
 3402TIP3    H110149   4.750   3.035   2.612
 3402TIP3    H210150   4.853   2.930   2.645
 3403TIP3   OH210151   7.165   1.251   5.335
 3403TIP3    H110152   7.255   1.218   5.335
 3403TIP3    H210153   7.140   1.253   5.243
 3404TIP3   OH210154   5.295   3.352   6.549
 3404TIP3    H110155   5.291   3.355   6.645
 3404TIP3    H210156   5.333   3.436   6.524
 3405TIP3   OH210157   2.392   4.707   2.467
 3405TIP3    H110158   2.358   4.646   2.402
 3405TIP3    H210159   2.451   4.654   2.521
 3406TIP3   OH210160   2.081   1.885   3.872
 3406TIP3    H110161   2.167   1.862   3.908
 3406TIP3    H210162   2.090   1.869   3.778
 3407TIP3   OH210163   2.698   0.156   2.840
 3407TIP3    H110164   2.690   0.096   2.914
 3407TIP3    H210165   2.790   0.152   2.815
 3408TIP3   OH210166   5.226   3.733   0.819
 3408TIP3    H110167   5.283   3.719   0.895
 3408TIP3    H210168   5.138   3.740   0.856
 3409TIP3   OH210169   6.826   0.170   1.935
 3409TIP3    H110170   6.865   0.160   2.022
 3409TIP3    H210171   6.755   0.233   1.948
 3410TIP3   OH210172   5.338   3.174   1.224
 3410TIP3    H110173   5.297   3.251   1.264
 3410TIP3    H210174   5.370   3.205   1.139
 3411TIP3   OH210175   6.830   7.652   2.719
 3411TIP3    H110176   6.842   7.687   2.630
 3411TIP3    H210177   6.758   7.703   2.755
 3412TIP3   OH210178   4.126   6.193   5.848
 3412TIP3    H110179   4.167   6.191   5.935
 3412TIP3    H210180   4.040   6.154   5.862
 3413TIP3   OH210181   7.168   0.513   3.891
 3413TIP3    H110182   7.182   0.606   3.910
 3413TIP3    H210183   7.169   0.471   3.977
 3414TIP3   OH210184   7.754   5.747   2.570
 3414TIP3    H110185   7.848   5.755   2.555
 3414TIP3    H210186   7.745   5.730   2.664
 3415TIP3   OH210187   4.020   0.901   4.502
 3415TIP3    H110188   4.087   0.834   4.491
 3415TIP3    H210189   3.985   0.886   4.590
 3416TIP3   OH210190   6.250   2.517   0.633
 3416TIP3    H110191   6.306   2.594   0.631
 3416TIP3    H210192   6.307   2.447   0.667
 3417TIP3   OH210193   6.042   6.178   3.036
 3417TIP3    H110194   5.970   6.227   3.076
 3417TIP3    H210195   6.119   6.203   3.086
 3418TIP3   OH210196   5.210   2.271   3.791
 3418TIP3    H110197   5.291   2.276   3.842
 3418TIP3    H210198   5.201   2.358   3.751
 3419TIP3   OH210199   7.872   2.618   2.622
 3419TIP3    H110200   7.966   2.612   2.604
 3419TIP3    H210201   7.834   2.541   2.578
 3420TIP3   OH210202   5.496   2.421   0.957
 3420TIP3    H110203   5.471   2.409   1.049
 3420TIP3    H210204   5.445   2.497   0.928
 3421TIP3   OH210205   3.235   5.485   5.734
 3421TIP3    H110206   3.211   5.542   5.661
 3421TIP3    H210207   3.205   5.398   5.708
 3422TIP3   OH210208   7.614   0.198   6.162
 3422TIP3    H110209   7.603   0.255   6.086
 3422TIP3    H210210   7.525   0.176   6.188
 3423TIP3   OH210211   7.934   6.195   6.380
 3423TIP3    H110212   7.981   6.246   6.315
 3423TIP3    H210213   7.948   6.241   6.463
 3424TIP3   OH210214   6.611   4.838   3.034
 3424TIP3    H110215   6.701   4.819   3.059
 3424TIP3    H210216   6.569   4.753   3.026
 3425TIP3   OH210217   5.427   2.012   4.791
 3425TIP3    H110218   5.464   2.025   4.703
 3425TIP3    H210219   5.380   2.094   4.810
 3426TIP3   OH210220   7.750   6.021   3.291
 3426TIP3    H110221   7.736   6.009   3.197
 3426TIP3    H210222   7.681   5.970   3.333
 3427TIP3   OH210223   1.921   7.134   5.878
 3427TIP3    H110224   1.983   7.194   5.837
 3427TIP3    H210225   1.973   7.055   5.896
 3428TIP3   OH210226   6.990   3.405   3.520
 3428TIP3    H110227   7.031   3.406   3.433
 3428TIP3    H210228   7.003   3.493   3.554
 3429TIP3   OH210229   4.630   6.182   0.605
 3429TIP3    H110230   4.699   6.185   0.671
 3429TIP3    H210231   4.645   6.260   0.551
 3430TIP3   OH210232   3.137   3.784   4.883
 3430TIP3    H110233   3.142   3.805   4.790
 3430TIP3    H210234   3.212   3.727   4.899
 3431TIP3   OH210235   2.089   1.440   1.963
 3431TIP3    H110236   2.126   1.528   1.960
 3431TIP3    H210237   2.057   1.424   1.874
 3432TIP3   OH210238   0.875   2.509   1.432
 3432TIP3    H110239   0.953   2.520   1.379
 3432TIP3    H210240   0.883   2.574   1.502
 3433TIP3   OH210241   1.526   2.200   6.193
 3433TIP3    H110242   1.589   2.249   6.140
 3433TIP3    H210243   1.577   2.127   6.229
 3434TIP3   OH210244   4.469   4.607   0.161
 3434TIP3    H110245   4.547   4.561   0.132
 3434TIP3    H210246   4.397   4.560   0.120
 3435TIP3   OH210247   7.785   4.824   0.767
 3435TIP3    H110248   7.724   4.755   0.743
 3435TIP3    H210249   7.829   4.847   0.685
 3436TIP3   OH210250   7.983   4.261   0.186
 3436TIP3    H110251   7.928   4.223   0.117
 3436TIP3    H210252   8.062   4.208   0.184
 3437TIP3   OH210253   6.162   3.761   3.961
 3437TIP3    H110254   6.218   3.834   3.989
 3437TIP3    H210255   6.076   3.782   3.999
 3438TIP3   OH210256   2.235   3.726   0.741
 3438TIP3    H110257   2.165   3.675   0.700
 3438TIP3    H210258   2.315   3.679   0.718
 3439TIP3   OH210259   8.241   2.906   4.398
 3439TIP3    H110260   8.322   2.913   4.448
 3439TIP3    H210261   8.267   2.864   4.316
 3440TIP3   OH210262   5.392   0.514   3.448
 3440TIP3    H110263   5.362   0.441   3.393
 3440TIP3    H210264   5.330   0.585   3.428
 3441TIP3   OH210265   4.307   4.368   5.290
 3441TIP3    H110266   4.273   4.422   5.219
 3441TIP3    H210267   4.253   4.289   5.289
 3442TIP3   OH210268   7.567   0.014   3.264
 3442TIP3    H110269   7.578  -0.009   3.172
 3442TIP3    H210270   7.497   0.078   3.264
 3443TIP3   OH210271   2.510   5.856   6.054
 3443TIP3    H110272   2.467   5.906   6.123
 3443TIP3    H210273   2.593   5.828   6.093
 3444TIP3   OH210274   6.178   2.600   1.479
 3444TIP3    H110275   6.202   2.530   1.541
 3444TIP3    H210276   6.202   2.681   1.524
 3445TIP3   OH210277   1.507   6.770   1.087
 3445TIP3    H110278   1.585   6.749   1.137
 3445TIP3    H210279   1.535   6.841   1.028
 3446TIP3   OH210280   0.326   5.384   0.787
 3446TIP3    H110281   0.252   5.355   0.841
 3446TIP3    H210282   0.285   5.415   0.706
 3447TIP3   OH210283   5.603   7.016   0.444
 3447TIP3    H110284   5.674   6.955   0.425
 3447TIP3    H210285   5.558   7.026   0.360
 3448TIP3   OH210286   1.949   3.583   0.702
 3448TIP3    H110287   1.892   3.621   0.769
 3448TIP3    H210288   1.968   3.656   0.642
 3449TIP3   OH210289   4.097   1.646   2.942
 3449TIP3    H110290   4.176   1.593   2.929
 3449TIP3    H210291   4.120   1.706   3.013
 3450TIP3   OH210292   0.043   4.596   4.904
 3450TIP3    H110293   0.096   4.639   4.971
 3450TIP3    H210294   0.001   4.669   4.858
 3451TIP3   OH210295   0.836   3.664   3.871
 3451TIP3    H110296   0.904   3.601   3.845
 3451TIP3    H210297   0.813   3.639   3.960
 3452TIP3   OH210298   6.480   2.805   5.199
 3452TIP3    H110299   6.440   2.729   5.243
 3452TIP3    H210300   6.467   2.788   5.106
 3453TIP3   OH210301   4.476   0.605   4.001
 3453TIP3    H110302   4.476   0.548   3.924
 3453TIP3    H210303   4.432   0.685   3.972
 3454TIP3   OH210304   2.132   6.730   5.801
 3454TIP3    H110305   2.054   6.683   5.770
 3454TIP3    H210306   2.178   6.755   5.721
 3455TIP3   OH210307   3.757   3.300   6.576
 3455TIP3    H110308   3.680   3.330   6.528
 3455TIP3    H210309   3.738   3.208   6.596
 3456TIP3   OH210310   1.176   0.501   4.765
 3456TIP3    H110311   1.127   0.575   4.800
 3456TIP3    H210312   1.254   0.497   4.820
 3457TIP3   OH210313   1.422   0.364   3.550
 3457TIP3    H110314   1.328   0.345   3.558
 3457TIP3    H210315   1.451   0.380   3.640
 3458TIP3   OH210316   6.857   1.835   6.374
 3458TIP3    H110317   6.792   1.816   6.307
 3458TIP3    H210318   6.940   1.807   6.335
 3459TIP3   OH210319   2.906   2.109   3.128
 3459TIP3    H110320   2.946   2.150   3.052
 3459TIP3    H210321   2.898   2.017   3.105
 3460TIP3   OH210322   6.138   6.004   4.385
 3460TIP3    H110323   6.159   5.992   4.478
 3460TIP3    H210324   6.223   6.009   4.341
 3461TIP3   OH210325   4.219   6.201   0.093
 3461TIP3    H110326   4.271   6.121   0.091
 3461TIP3    H210327   4.128   6.170   0.093
 3462TIP3   OH210328   7.209   6.058   6.075
 3462TIP3    H110329   7.280   6.090   6.020
 3462TIP3    H210330   7.162   5.995   6.020
 3463TIP3   OH210331   4.883   3.966   5.874
 3463TIP3    H110332   4.861   4.015   5.953
 3463TIP3    H210333   4.975   3.943   5.884
 3464TIP3   OH210334   3.145   6.987   3.028
 3464TIP3    H110335   3.061   6.961   2.990
 3464TIP3    H210336   3.156   7.079   3.003
 3465TIP3   OH210337   2.910   1.475   0.106
 3465TIP3    H110338   2.886   1.562   0.139
 3465TIP3    H210339   3.004   1.482   0.088
 3466TIP3   OH210340   7.008   6.950   2.125
 3466TIP3    H110341   7.063   7.022   2.156
 3466TIP3    H210342   7.007   6.888   2.198
 3467TIP3   OH210343   1.648   2.565   4.493
 3467TIP3    H110344   1.677   2.480   4.460
 3467TIP3    H210345   1.664   2.626   4.420
 3468TIP3   OH210346   3.396   3.319   5.872
 3468TIP3    H110347   3.353   3.355   5.950
 3468TIP3    H210348   3.416   3.396   5.819
 3469TIP3   OH210349   7.784   5.418   6.257
 3469TIP3    H110350   7.723   5.480   6.296
 3469TIP3    H210351   7.820   5.464   6.181
 3470TIP3   OH210352   6.288   1.945   4.462
 3470TIP3    H110353   6.340   1.872   4.494
 3470TIP3    H210354   6.218   1.955   4.527
 3471TIP3   OH210355   2.288   6.406   4.727
 3471TIP3    H110356   2.347   6.390   4.800
 3471TIP3    H210357   2.217   6.344   4.739
 3472TIP3   OH210358   7.928   5.584   5.770
 3472TIP3    H110359   7.976   5.663   5.744
 3472TIP3    H210360   7.994   5.516   5.776
 3473TIP3   OH210361   1.282   3.774   5.362
 3473TIP3    H110362   1.192   3.745   5.348
 3473TIP3    H210363   1.289   3.855   5.311
 3474TIP3   OH210364   4.363   6.059   0.308
 3474TIP3    H110365   4.329   6.141   0.272
 3474TIP3    H210366   4.286   6.017   0.347
 3475TIP3   OH210367   6.296   7.632   1.311
 3475TIP3    H110368   6.365   7.693   1.339
 3475TIP3    H210369   6.269   7.587   1.392
 3476TIP3   OH210370   4.723   3.687   3.734
 3476TIP3    H110371   4.773   3.761   3.770
 3476TIP3    H210372   4.790   3.628   3.698
 3477TIP3   OH210373   7.261   2.019   3.858
 3477TIP3    H110374   7.218   2.067   3.929
 3477TIP3    H210375   7.203   2.030   3.783
 3478TIP3   OH210376   4.803   6.044   4.845
 3478TIP3    H110377   4.873   6.104   4.872
 3478TIP3    H210378   4.848   5.974   4.798
 3479TIP3   OH210379   5.964   5.525   0.406
 3479TIP3    H110380   6.021   5.473   0.463
 3479TIP3    H210381   5.892   5.552   0.463
 3480TIP3   OH210382   8.086   0.784   0.388
 3480TIP3    H110383   8.091   0.786   0.293
 3480TIP3    H210384   8.089   0.691   0.410
 3481TIP3   OH210385   8.200   0.476   1.736
 3481TIP3    H110386   8.293   0.463   1.756
 3481TIP3    H210387   8.184   0.568   1.755
 3482TIP3   OH210388   2.268   2.907   4.002
 3482TIP3    H110389   2.179   2.870   4.003
 3482TIP3    H210390   2.317   2.849   3.944
 3483TIP3   OH210391   3.984   2.708   4.103
 3483TIP3    H110392   3.937   2.743   4.026
 3483TIP3    H210393   4.058   2.767   4.114
 3484TIP3   OH210394   4.808   5.147   5.558
 3484TIP3    H110395   4.792   5.114   5.469
 3484TIP3    H210396   4.786   5.073   5.615
 3485TIP3   OH210397   0.914   4.163   2.290
 3485TIP3    H110398   0.928   4.110   2.368
 3485TIP3    H210399   0.916   4.101   2.217
 3486TIP3   OH210400   5.407   6.764   1.567
 3486TIP3    H110401   5.360   6.826   1.623
 3486TIP3    H210402   5.473   6.726   1.625
 3487TIP3   OH210403   2.368   6.884   4.228
 3487TIP3    H110404   2.294   6.889   4.167
 3487TIP3    H210405   2.433   6.829   4.183
 3488TIP3   OH210406   4.972   2.063   6.691
 3488TIP3    H110407   4.967   2.030   6.781
 3488TIP3    H210408   5.021   1.995   6.644
 3489TIP3   OH210409   2.945   3.685   4.571
 3489TIP3    H110410   2.877   3.728   4.518
 3489TIP3    H210411   2.903   3.670   4.655
 3490TIP3   OH210412   7.157   2.492   2.334
 3490TIP3    H110413   7.117   2.539   2.262
 3490TIP3    H210414   7.244   2.468   2.302
 3491TIP3   OH210415   4.012   1.640   1.216
 3491TIP3    H110416   4.097   1.674   1.247
 3491TIP3    H210417   4.008   1.667   1.124
 3492TIP3   OH210418   6.749   6.521   4.987
 3492TIP3    H110419   6.747   6.598   4.929
 3492TIP3    H210420   6.798   6.455   4.938
 3493TIP3   OH210421   2.227   4.058   0.366
 3493TIP3    H110422   2.219   3.963   0.361
 3493TIP3    H210423   2.273   4.083   0.286
 3494TIP3   OH210424   0.967   3.549   4.961
 3494TIP3    H110425   1.045   3.497   4.981
 3494TIP3    H210426   0.956   3.606   5.037
 3495TIP3   OH210427   2.550   2.314   3.078
 3495TIP3    H110428   2.566   2.223   3.104
 3495TIP3    H210429   2.490   2.307   3.004
 3496TIP3   OH210430   6.846   4.264   2.445
 3496TIP3    H110431   6.912   4.250   2.513
 3496TIP3    H210432   6.768   4.219   2.479
 3497TIP3   OH210433   0.431   5.465   2.661
 3497TIP3    H110434   0.502   5.466   2.725
 3497TIP3    H210435   0.396   5.376   2.666
 3498TIP3   OH210436   6.773   2.315   1.163
 3498TIP3    H110437   6.851   2.269   1.194
 3498TIP3    H210438   6.701   2.256   1.182
 3499TIP3   OH210439   2.603   5.793   0.680
 3499TIP3    H110440   2.599   5.889   0.679
 3499TIP3    H210441   2.546   5.768   0.752
 3500TIP3   OH210442   1.950   2.035   2.975
 3500TIP3    H110443   1.913   2.108   2.924
 3500TIP3    H210444   2.041   2.060   2.990
 3501TIP3   OH210445   5.227   4.426   4.699
 3501TIP3    H110446   5.269   4.347   4.663
 3501TIP3    H210447   5.241   4.420   4.793
 3502TIP3   OH210448   6.273   5.959   5.987
 3502TIP3    H110449   6.235   5.874   5.964
 3502TIP3    H210450   6.213   6.023   5.949
 3503TIP3   OH210451   3.893   4.693   4.724
 3503TIP3    H110452   3.861   4.618   4.775
 3503TIP3    H210453   3.882   4.666   4.633
 3504TIP3   OH210454   3.738   6.410   2.474
 3504TIP3    H110455   3.648   6.442   2.475
 3504TIP3    H210456   3.771   6.432   2.387
 3505TIP3   OH210457   4.135   6.776   4.794
 3505TIP3    H110458   4.094   6.706   4.743
 3505TIP3    H210459   4.160   6.842   4.728
 3506TIP3   OH210460   4.494   2.215   1.028
 3506TIP3    H110461   4.533   2.301   1.015
 3506TIP3    H210462   4.408   2.220   0.986
 3507TIP3   OH210463   5.656   3.378   5.151
 3507TIP3    H110464   5.685   3.469   5.160
 3507TIP3    H210465   5.640   3.367   5.057
 3508TIP3   OH210466   2.210   0.552   2.333
 3508TIP3    H110467   2.227   0.537   2.426
 3508TIP3    H210468   2.191   0.646   2.327
 3509TIP3   OH210469   1.594   2.627   1.111
 3509TIP3    H110470   1.539   2.682   1.167
 3509TIP3    H210471   1.561   2.539   1.125
 3510TIP3   OH210472   7.319   0.209   2.757
 3510TIP3    H110473   7.326   0.283   2.817
 3510TIP3    H210474   7.280   0.139   2.810
 3511TIP3   OH210475   1.428   4.973   3.841
 3511TIP3    H110476   1.356   4.959   3.902
 3511TIP3    H210477   1.411   5.059   3.803
 3512TIP3   OH210478   3.873   3.597   2.315
 3512TIP3    H110479   3.967   3.577   2.311
 3512TIP3    H210480   3.863   3.652   2.392
 3513TIP3   OH210481   6.069   7.164   5.983
 3513TIP3    H110482   6.127   7.202   5.917
 3513TIP3    H210483   6.125   7.106   6.035
 3514TIP3   OH210484   6.212   3.443   4.762
 3514TIP3    H110485   6.164   3.415   4.684
 3514TIP3    H210486   6.199   3.373   4.825
 3515TIP3   OH210487   1.078   2.403   5.686
 3515TIP3    H110488   1.001   2.347   5.692
 3515TIP3    H210489   1.062   2.458   5.609
 3516TIP3   OH210490   6.302   5.297   5.776
 3516TIP3    H110491   6.241   5.371   5.776
 3516TIP3    H210492   6.245   5.220   5.773
 3517TIP3   OH210493   2.595   3.629   2.793
 3517TIP3    H110494   2.579   3.630   2.887
 3517TIP3    H210495   2.509   3.613   2.754
 3518TIP3   OH210496   2.989   4.782   3.255
 3518TIP3    H110497   2.961   4.696   3.287
 3518TIP3    H210498   3.041   4.764   3.177
 3519TIP3   OH210499   4.645   0.262   5.199
 3519TIP3    H110500   4.712   0.287   5.135
 3519TIP3    H210501   4.659   0.168   5.213
 3520TIP3   OH210502   5.196   5.524   1.134
 3520TIP3    H110503   5.211   5.494   1.224
 3520TIP3    H210504   5.188   5.619   1.142
 3521TIP3   OH210505   6.303   3.414   3.657
 3521TIP3    H110506   6.228   3.463   3.621
 3521TIP3    H210507   6.321   3.456   3.740
 3522TIP3   OH210508   6.249   5.175   6.375
 3522TIP3    H110509   6.340   5.177   6.346
 3522TIP3    H210510   6.255   5.171   6.471
 3523TIP3   OH210511   0.690   5.783   0.921
 3523TIP3    H110512   0.755   5.791   0.991
 3523TIP3    H210513   0.606   5.800   0.963
 3524TIP3   OH210514   0.071   6.465   6.759
 3524TIP3    H110515   0.141   6.494   6.700
 3524TIP3    H210516   0.067   6.370   6.746
 3525TIP3   OH210517   1.534   6.776   4.953
 3525TIP3    H110518   1.572   6.728   4.880
 3525TIP3    H210519   1.600   6.842   4.975
 3526TIP3   OH210520   3.982   3.320   2.528
 3526TIP3    H110521   3.945   3.407   2.514
 3526TIP3    H210522   3.905   3.263   2.540
 3527TIP3   OH210523   4.411   6.520   6.069
 3527TIP3    H110524   4.336   6.564   6.109
 3527TIP3    H210525   4.389   6.516   5.975
 3528TIP3   OH210526   5.095   3.223   3.050
 3528TIP3    H110527   5.100   3.309   3.007
 3528TIP3    H210528   5.085   3.161   2.978
 3529TIP3   OH210529   3.731   0.852   5.711
 3529TIP3    H110530   3.688   0.931   5.743
 3529TIP3    H210531   3.804   0.838   5.771
 3530TIP3   OH210532   0.853   0.837   2.764
 3530TIP3    H110533   0.778   0.875   2.718
 3530TIP3    H210534   0.922   0.903   2.756
 3531TIP3   OH210535   6.954   4.409   1.538
 3531TIP3    H110536   6.893   4.412   1.465
 3531TIP3    H210537   7.023   4.470   1.515
 3532TIP3   OH210538   6.787   2.212   0.508
 3532TIP3    H110539   6.744   2.267   0.443
 3532TIP3    H210540   6.842   2.273   0.558
 3533TIP3   OH210541   3.621   3.559   3.357
 3533TIP3    H110542   3.563   3.545   3.282
 3533TIP3    H210543   3.687   3.490   3.350
 3534TIP3   OH210544   5.288   4.225   0.689
 3534TIP3    H110545   5.268   4.168   0.763
 3534TIP3    H210546   5.205   4.233   0.642
 3535TIP3   OH210547   2.307   5.383   5.752
 3535TIP3    H110548   2.383   5.394   5.809
 3535TIP3    H210549   2.321   5.298   5.710
 3536TIP3   OH210550   4.709   3.803   6.605
 3536TIP3    H110551   4.785   3.833   6.555
 3536TIP3    H210552   4.634   3.828   6.551
 3537TIP3   OH210553   0.638   5.493   2.821
 3537TIP3    H110554   0.732   5.473   2.819
 3537TIP3    H210555   0.626   5.537   2.906
 3538TIP3   OH210556   3.871   1.601   2.768
 3538TIP3    H110557   3.946   1.621   2.824
 3538TIP3    H210558   3.890   1.643   2.685
 3539TIP3   OH210559   3.937   7.012   2.695
 3539TIP3    H110560   3.947   6.918   2.676
 3539TIP3    H210561   3.986   7.025   2.776
 3540TIP3   OH210562   3.305   3.754   3.444
 3540TIP3    H110563   3.363   3.816   3.400
 3540TIP3    H210564   3.297   3.789   3.533
 3541TIP3   OH210565   0.759   0.809   2.322
 3541TIP3    H110566   0.795   0.778   2.239
 3541TIP3    H210567   0.724   0.730   2.363
 3542TIP3   OH210568   1.117   3.165   0.620
 3542TIP3    H110569   1.031   3.124   0.612
 3542TIP3    H210570   1.132   3.205   0.534
 3543TIP3   OH210571   0.072   6.866   4.042
 3543TIP3    H110572   0.070   6.869   3.946
 3543TIP3    H210573   0.075   6.772   4.063
 3544TIP3   OH210574   4.883   5.029   4.435
 3544TIP3    H110575   4.977   5.032   4.418
 3544TIP3    H210576   4.853   4.949   4.392
 3545TIP3   OH210577   7.108   1.564   3.250
 3545TIP3    H110578   7.063   1.647   3.263
 3545TIP3    H210579   7.201   1.585   3.258
 3546TIP3   OH210580   4.845   5.548   1.256
 3546TIP3    H110581   4.915   5.612   1.264
 3546TIP3    H210582   4.784   5.586   1.193
 3547TIP3   OH210583   5.643   2.348   5.331
 3547TIP3    H110584   5.676   2.263   5.360
 3547TIP3    H210585   5.665   2.408   5.402
 3548TIP3   OH210586   5.167   7.426   6.221
 3548TIP3    H110587   5.135   7.501   6.272
 3548TIP3    H210588   5.129   7.439   6.134
 3549TIP3   OH210589   1.006   6.990   6.608
 3549TIP3    H110590   0.999   7.077   6.569
 3549TIP3    H210591   1.100   6.980   6.627
 3550TIP3   OH210592   2.351   5.895   3.077
 3550TIP3    H110593   2.407   5.871   3.151
 3550TIP3    H210594   2.315   5.981   3.101
 3551TIP3   OH210595   0.578   6.921   3.404
 3551TIP3    H110596   0.658   6.872   3.423
 3551TIP3    H210597   0.509   6.876   3.454
 3552TIP3   OH210598   0.318   4.515   5.380
 3552TIP3    H110599   0.388   4.507   5.444
 3552TIP3    H210600   0.317   4.608   5.356
 3553TIP3   OH210601   2.914   3.196   2.581
 3553TIP3    H110602   2.947   3.224   2.666
 3553TIP3    H210603   2.983   3.140   2.545
 3554TIP3   OH210604   4.750   4.420   6.083
 3554TIP3    H110605   4.719   4.416   5.993
 3554TIP3    H210606   4.817   4.352   6.089
 3555TIP3   OH210607   0.328   5.430   5.980
 3555TIP3    H110608   0.347   5.411   6.072
 3555TIP3    H210609   0.240   5.395   5.966
 3556TIP3   OH210610   6.158   1.607   6.659
 3556TIP3    H110611   6.146   1.543   6.730
 3556TIP3    H210612   6.119   1.566   6.583
 3557TIP3   OH210613   0.648   3.667   2.793
 3557TIP3    H110614   0.706   3.664   2.868
 3557TIP3    H210615   0.613   3.578   2.785
 3558TIP3   OH210616   7.996   3.206   4.783
 3558TIP3    H110617   8.048   3.257   4.845
 3558TIP3    H210618   8.059   3.146   4.743
 3559TIP3   OH210619   7.957   7.218   0.933
 3559TIP3    H110620   8.005   7.256   1.007
 3559TIP3    H210621   7.941   7.291   0.874
 3560TIP3   OH210622   5.006   5.884   5.056
 3560TIP3    H110623   4.995   5.790   5.039
 3560TIP3    H210624   4.978   5.896   5.146
 3561TIP3   OH210625   2.924   6.931   0.559
 3561TIP3    H110626   2.877   6.936   0.476
 3561TIP3    H210627   2.921   7.020   0.593
 3562TIP3   OH210628   4.148   6.205   3.997
 3562TIP3    H110629   4.066   6.253   4.005
 3562TIP3    H210630   4.155   6.184   3.904
 3563TIP3   OH210631   3.621   0.443   3.153
 3563TIP3    H110632   3.614   0.539   3.150
 3563TIP3    H210633   3.714   0.427   3.169
 3564TIP3   OH210634   0.722   1.023   2.096
 3564TIP3    H110635   0.753   1.049   2.009
 3564TIP3    H210636   0.796   1.043   2.154
 3565TIP3   OH210637   7.511   4.697   6.072
 3565TIP3    H110638   7.474   4.755   6.138
 3565TIP3    H210639   7.564   4.755   6.017
 3566TIP3   OH210640   2.329   7.721   6.087
 3566TIP3    H110641   2.257   7.730   6.026
 3566TIP3    H210642   2.292   7.672   6.161
 3567TIP3   OH210643   4.370   1.899   5.283
 3567TIP3    H110644   4.427   1.823   5.298
 3567TIP3    H210645   4.381   1.919   5.190
 3568TIP3   OH210646   3.140   3.357   1.791
 3568TIP3    H110647   3.231   3.346   1.818
 3568TIP3    H210648   3.094   3.380   1.872
 3569TIP3   OH210649   4.342   3.420   5.018
 3569TIP3    H110650   4.304   3.500   4.982
 3569TIP3    H210651   4.355   3.440   5.111
 3570TIP3   OH210652   8.278   5.962   2.053
 3570TIP3    H110653   8.212   6.031   2.052
 3570TIP3    H210654   8.295   5.943   1.961
 3571TIP3   OH210655   1.416   6.414   4.017
 3571TIP3    H110656   1.409   6.506   3.992
 3571TIP3    H210657   1.388   6.411   4.108
 3572TIP3   OH210658   1.417   5.901   3.238
 3572TIP3    H110659   1.355   5.868   3.173
 3572TIP3    H210660   1.419   5.995   3.225
 3573TIP3   OH210661   0.294   1.098   2.887
 3573TIP3    H110662   0.281   1.088   2.792
 3573TIP3    H210663   0.205   1.098   2.923
 3574TIP3   OH210664   0.261   2.259   5.583
 3574TIP3    H110665   0.201   2.304   5.643
 3574TIP3    H210666   0.222   2.272   5.496
 3575TIP3   OH210667   6.278   5.210   4.229
 3575TIP3    H110668   6.363   5.184   4.196
 3575TIP3    H210669   6.279   5.185   4.322
 3576TIP3   OH210670   1.366   2.620   1.711
 3576TIP3    H110671   1.420   2.695   1.736
 3576TIP3    H210672   1.375   2.559   1.784
 3577TIP3   OH210673   7.607   4.018   1.824
 3577TIP3    H110674   7.634   3.962   1.897
 3577TIP3    H210675   7.669   3.998   1.754
 3578TIP3   OH210676   1.508   5.478   1.656
 3578TIP3    H110677   1.567   5.432   1.596
 3578TIP3    H210678   1.489   5.561   1.611
 3579TIP3   OH210679   1.800   2.871   5.521
 3579TIP3    H110680   1.737   2.798   5.520
 3579TIP3    H210681   1.751   2.945   5.556
 3580TIP3   OH210682   0.294   2.239   3.304
 3580TIP3    H110683   0.322   2.230   3.395
 3580TIP3    H210684   0.211   2.191   3.300
 3581TIP3   OH210685   8.269   3.472   0.484
 3581TIP3    H110686   8.226   3.417   0.418
 3581TIP3    H210687   8.196   3.513   0.531
 3582TIP3   OH210688   5.618   2.153   6.155
 3582TIP3    H110689   5.651   2.128   6.241
 3582TIP3    H210690   5.592   2.244   6.165
 3583TIP3   OH210691   3.881   5.658   3.463
 3583TIP3    H110692   3.805   5.648   3.405
 3583TIP3    H210693   3.946   5.597   3.428
 3584TIP3   OH210694   7.051   1.316   6.001
 3584TIP3    H110695   7.085   1.356   6.081
 3584TIP3    H210696   7.098   1.359   5.930
 3585TIP3   OH210697   7.291   3.825   3.500
 3585TIP3    H110698   7.248   3.905   3.470
 3585TIP3    H210699   7.338   3.792   3.424
 3586TIP3   OH210700   2.628   1.258   2.607
 3586TIP3    H110701   2.603   1.210   2.686
 3586TIP3    H210702   2.704   1.211   2.573
 3587TIP3   OH210703   4.782   5.069   1.143
 3587TIP3    H110704   4.850   5.104   1.085
 3587TIP3    H210705   4.826   5.053   1.226
 3588TIP3   OH210706   7.889   7.837   4.333
 3588TIP3    H110707   7.974   7.793   4.327
 3588TIP3    H210708   7.826   7.765   4.333
 3589TIP3   OH210709   0.043   2.708   6.487
 3589TIP3    H110710  -0.034   2.699   6.430
 3589TIP3    H210711   0.118   2.697   6.429
 3590TIP3   OH210712   2.251   7.752   3.281
 3590TIP3    H110713   2.303   7.716   3.210
 3590TIP3    H210714   2.182   7.802   3.238
 3591TIP3   OH210715   0.543   4.160   6.500
 3591TIP3    H110716   0.618   4.111   6.465
 3591TIP3    H210717   0.521   4.114   6.581
 3592TIP3   OH210718   6.161   7.570   5.431
 3592TIP3    H110719   6.195   7.654   5.463
 3592TIP3    H210720   6.221   7.505   5.468
 3593TIP3   OH210721   4.695   6.778   6.571
 3593TIP3    H110722   4.652   6.709   6.521
 3593TIP3    H210723   4.670   6.859   6.526
 3594TIP3   OH210724   7.356   4.360   0.952
 3594TIP3    H110725   7.417   4.288   0.938
 3594TIP3    H210726   7.412   4.436   0.969
 3595TIP3   OH210727   4.934   0.006   2.197
 3595TIP3    H110728   5.018  -0.004   2.153
 3595TIP3    H210729   4.923   0.100   2.208
 3596TIP3   OH210730   4.303   0.312   2.272
 3596TIP3    H110731   4.289   0.355   2.356
 3596TIP3    H210732   4.226   0.336   2.220
 3597TIP3   OH210733   6.993   3.314   2.630
 3597TIP3    H110734   7.085   3.288   2.630
 3597TIP3    H210735   6.975   3.340   2.540
 3598TIP3   OH210736   0.701   5.129   0.200
 3598TIP3    H110737   0.687   5.189   0.273
 3598TIP3    H210738   0.786   5.088   0.218
 3599TIP3   OH210739   7.214   2.550   6.423
 3599TIP3    H110740   7.213   2.470   6.369
 3599TIP3    H210741   7.213   2.621   6.359
 3600TIP3   OH210742   6.063   7.182   0.360
 3600TIP3    H110743   5.977   7.190   0.402
 3600TIP3    H210744   6.123   7.225   0.421
 3601TIP3   OH210745   4.674   5.497   0.186
 3601TIP3    H110746   4.650   5.572   0.240
 3601TIP3    H210747   4.590   5.453   0.168
 3602TIP3   OH210748   4.006   1.731   5.333
 3602TIP3    H110749   4.008   1.636   5.335
 3602TIP3    H210750   4.067   1.756   5.264
 3603TIP3   OH210751   3.899   1.430   3.004
 3603TIP3    H110752   3.968   1.377   2.965
 3603TIP3    H210753   3.936   1.518   3.011
 3604TIP3   OH210754   2.433   0.858   1.528
 3604TIP3    H110755   2.518   0.891   1.500
 3604TIP3    H210756   2.413   0.908   1.607
 3605TIP3   OH210757   5.015   4.612   5.374
 3605TIP3    H110758   4.987   4.561   5.298
 3605TIP3    H210759   5.107   4.631   5.357
 3606TIP3   OH210760   3.914   1.626   0.377
 3606TIP3    H110761   3.872   1.690   0.434
 3606TIP3    H210762   4.002   1.616   0.413
 3607TIP3   OH210763   5.041   3.388   1.573
 3607TIP3    H110764   5.046   3.412   1.666
 3607TIP3    H210765   4.951   3.407   1.548
 3608TIP3   OH210766   6.368   0.450   0.999
 3608TIP3    H110767   6.275   0.434   1.009
 3608TIP3    H210768   6.410   0.368   1.025
 3609TIP3   OH210769   3.837   0.186   1.773
 3609TIP3    H110770   3.822   0.279   1.791
 3609TIP3    H210771   3.902   0.185   1.703
 3610TIP3   OH210772   3.427   5.232   4.049
 3610TIP3    H110773   3.477   5.245   3.969
 3610TIP3    H210774   3.404   5.139   4.048
 3611TIP3   OH210775   2.642   4.004   4.318
 3611TIP3    H110776   2.610   3.976   4.232
 3611TIP3    H210777   2.683   4.089   4.302
 3612TIP3   OH210778   7.881   4.648   5.244
 3612TIP3    H110779   7.946   4.687   5.185
 3612TIP3    H210780   7.874   4.557   5.215
 3613TIP3   OH210781   2.242   6.125   0.585
 3613TIP3    H110782   2.245   6.039   0.626
 3613TIP3    H210783   2.308   6.176   0.633
 3614TIP3   OH210784   3.803   5.059   1.825
 3614TIP3    H110785   3.794   5.074   1.919
 3614TIP3    H210786   3.714   5.044   1.793
 3615TIP3   OH210787   1.602   5.473   2.350
 3615TIP3    H110788   1.588   5.439   2.438
 3615TIP3    H210789   1.557   5.557   2.348
 3616TIP3   OH210790   5.420   7.365   1.018
 3616TIP3    H110791   5.460   7.366   1.105
 3616TIP3    H210792   5.493   7.379   0.958
 3617TIP3   OH210793   0.526   7.418   2.393
 3617TIP3    H110794   0.556   7.354   2.329
 3617TIP3    H210795   0.501   7.366   2.469
 3618TIP3   OH210796   7.829   1.415   5.392
 3618TIP3    H110797   7.832   1.324   5.361
 3618TIP3    H210798   7.887   1.417   5.468
 3619TIP3   OH210799   6.710   1.363   0.062
 3619TIP3    H110800   6.769   1.362   0.138
 3619TIP3    H210801   6.762   1.325  -0.009
 3620TIP3   OH210802   7.873   3.072   0.235
 3620TIP3    H110803   7.966   3.050   0.233
 3620TIP3    H210804   7.870   3.167   0.247
 3621TIP3   OH210805   4.708   1.539   3.807
 3621TIP3    H110806   4.688   1.589   3.727
 3621TIP3    H210807   4.802   1.519   3.800
 3622TIP3   OH210808   1.375   0.744   2.001
 3622TIP3    H110809   1.388   0.663   2.050
 3622TIP3    H210810   1.290   0.777   2.032
 3623TIP3   OH210811   2.451   7.740   4.455
 3623TIP3    H110812   2.504   7.661   4.458
 3623TIP3    H210813   2.376   7.717   4.400
 3624TIP3   OH210814   7.325   3.437   4.539
 3624TIP3    H110815   7.334   3.510   4.477
 3624TIP3    H210816   7.244   3.454   4.586
 3625TIP3   OH210817   7.391   3.254   2.096
 3625TIP3    H110818   7.445   3.176   2.083
 3625TIP3    H210819   7.441   3.325   2.057
 3626TIP3   OH210820   6.346   2.636   2.939
 3626TIP3    H110821   6.439   2.659   2.934
 3626TIP3    H210822   6.334   2.572   2.869
 3627TIP3   OH210823   6.221   6.646   2.357
 3627TIP3    H110824   6.247   6.556   2.376
 3627TIP3    H210825   6.265   6.666   2.274
 3628TIP3   OH210826   6.218   7.108   3.625
 3628TIP3    H110827   6.137   7.063   3.600
 3628TIP3    H210828   6.282   7.038   3.636
 3629TIP3   OH210829   1.343   2.019   1.331
 3629TIP3    H110830   1.426   2.058   1.359
 3629TIP3    H210831   1.363   1.927   1.315
 3630TIP3   OH210832   1.844   5.056   2.046
 3630TIP3    H110833   1.758   5.064   2.005
 3630TIP3    H210834   1.834   4.987   2.111
 3631TIP3   OH210835   6.782   1.675   3.480
 3631TIP3    H110836   6.770   1.587   3.515
 3631TIP3    H210837   6.828   1.722   3.549
 3632TIP3   OH210838   4.234   7.564   3.566
 3632TIP3    H110839   4.154   7.590   3.612
 3632TIP3    H210840   4.270   7.493   3.620
 3633TIP3   OH210841   4.322   5.211   3.279
 3633TIP3    H110842   4.372   5.293   3.289
 3633TIP3    H210843   4.301   5.185   3.368
 3634TIP3   OH210844   0.072   3.865   1.701
 3634TIP3    H110845   0.164   3.856   1.676
 3634TIP3    H210846   0.062   3.957   1.725
 3635TIP3   OH210847   6.353   1.031   2.232
 3635TIP3    H110848   6.325   0.943   2.258
 3635TIP3    H210849   6.394   1.067   2.310
 3636TIP3   OH210850   2.666   2.519   3.554
 3636TIP3    H110851   2.661   2.583   3.483
 3636TIP3    H210852   2.656   2.570   3.634
 3637TIP3   OH210853   5.654   3.725   2.718
 3637TIP3    H110854   5.600   3.789   2.671
 3637TIP3    H210855   5.653   3.648   2.662
 3638TIP3   OH210856   5.051   3.281   5.948
 3638TIP3    H110857   5.041   3.376   5.955
 3638TIP3    H210858   4.976   3.253   5.895
 3639TIP3   OH210859   3.913   3.632   0.382
 3639TIP3    H110860   3.981   3.614   0.447
 3639TIP3    H210861   3.931   3.722   0.354
 3640TIP3   OH210862   3.967   5.162   2.918
 3640TIP3    H110863   3.980   5.168   3.012
 3640TIP3    H210864   3.872   5.160   2.906
 3641TIP3   OH210865   5.779   6.819   6.332
 3641TIP3    H110866   5.815   6.731   6.326
 3641TIP3    H210867   5.691   6.812   6.295
 3642TIP3   OH210868   3.896   5.348   2.039
 3642TIP3    H110869   3.846   5.269   2.059
 3642TIP3    H210870   3.919   5.338   1.946
 3643TIP3   OH210871   5.999   2.072   6.405
 3643TIP3    H110872   5.947   2.123   6.467
 3643TIP3    H210873   5.935   2.037   6.343
 3644TIP3   OH210874   4.323   1.479   5.365
 3644TIP3    H110875   4.404   1.513   5.404
 3644TIP3    H210876   4.349   1.451   5.277
 3645TIP3   OH210877   5.542   2.822   4.847
 3645TIP3    H110878   5.511   2.884   4.780
 3645TIP3    H210879   5.566   2.744   4.798
 3646TIP3   OH210880   2.800   3.200   4.939
 3646TIP3    H110881   2.835   3.167   5.022
 3646TIP3    H210882   2.705   3.200   4.951
 3647TIP3   OH210883   6.623   4.197   2.230
 3647TIP3    H110884   6.591   4.159   2.148
 3647TIP3    H210885   6.544   4.212   2.282
 3648TIP3   OH210886   2.104   5.441   5.259
 3648TIP3    H110887   2.029   5.427   5.201
 3648TIP3    H210888   2.136   5.353   5.279
 3649TIP3   OH210889   7.912   3.388   4.336
 3649TIP3    H110890   7.972   3.420   4.269
 3649TIP3    H210891   7.962   3.320   4.382
 3650TIP3   OH210892   7.313  -0.022   5.823
 3650TIP3    H110893   7.378   0.013   5.762
 3650TIP3    H210894   7.232   0.024   5.801
 3651TIP3   OH210895   6.094   1.297   2.355
 3651TIP3    H110896   6.035   1.234   2.398
 3651TIP3    H210897   6.075   1.288   2.262
 3652TIP3   OH210898   3.130   1.940   3.292
 3652TIP3    H110899   3.117   2.026   3.252
 3652TIP3    H210900   3.210   1.950   3.344
 3653TIP3   OH210901   7.612   3.375   0.967
 3653TIP3    H110902   7.611   3.284   0.936
 3653TIP3    H210903   7.580   3.370   1.056
 3654TIP3   OH210904   3.844   0.930   3.504
 3654TIP3    H110905   3.883   0.907   3.420
 3654TIP3    H210906   3.769   0.871   3.513
 3655TIP3   OH210907   4.853   1.111   5.433
 3655TIP3    H110908   4.885   1.151   5.514
 3655TIP3    H210909   4.810   1.030   5.462
 3656TIP3   OH210910   2.235   4.904   0.390
 3656TIP3    H110911   2.320   4.947   0.379
 3656TIP3    H210912   2.179   4.969   0.433
 3657TIP3   OH210913   0.388   5.141   1.693
 3657TIP3    H110914   0.413   5.048   1.700
 3657TIP3    H210915   0.296   5.139   1.669
 3658TIP3   OH210916   0.163   5.889   1.782
 3658TIP3    H110917   0.138   5.951   1.714
 3658TIP3    H210918   0.193   5.812   1.734
 3659TIP3   OH210919   5.775   6.878   1.302
 3659TIP3    H110920   5.757   6.972   1.312
 3659TIP3    H210921   5.693   6.836   1.329
 3660TIP3   OH210922   4.653   2.499   0.330
 3660TIP3    H110923   4.687   2.459   0.410
 3660TIP3    H210924   4.668   2.593   0.342
 3661TIP3   OH210925   5.784   5.668   5.373
 3661TIP3    H110926   5.711   5.698   5.319
 3661TIP3    H210927   5.823   5.748   5.409
 3662TIP3   OH210928   4.941   3.513   1.243
 3662TIP3    H110929   4.893   3.525   1.325
 3662TIP3    H210930   4.975   3.600   1.222
 3663TIP3   OH210931   4.873   3.499   6.010
 3663TIP3    H110932   4.884   3.557   5.935
 3663TIP3    H210933   4.849   3.557   6.082
 3664TIP3   OH210934   2.836   6.005   2.491
 3664TIP3    H110935   2.763   6.037   2.544
 3664TIP3    H210936   2.892   6.081   2.480
 3665TIP3   OH210937   5.781   0.870   4.675
 3665TIP3    H110938   5.828   0.839   4.753
 3665TIP3    H210939   5.711   0.925   4.710
 3666TIP3   OH210940   0.216   4.435   2.323
 3666TIP3    H110941   0.171   4.393   2.397
 3666TIP3    H210942   0.208   4.529   2.342
 3667TIP3   OH210943   4.078   6.814   3.089
 3667TIP3    H110944   4.067   6.742   3.028
 3667TIP3    H210945   4.170   6.810   3.114
 3668TIP3   OH210946   8.003   7.249   6.733
 3668TIP3    H110947   7.941   7.313   6.699
 3668TIP3    H210948   8.005   7.180   6.666
 3669TIP3   OH210949   4.411   1.260   4.133
 3669TIP3    H110950   4.328   1.232   4.094
 3669TIP3    H210951   4.464   1.289   4.058
 3670TIP3   OH210952   5.369   5.341   1.737
 3670TIP3    H110953   5.450   5.339   1.789
 3670TIP3    H210954   5.366   5.429   1.700
 3671TIP3   OH210955   6.771   4.450   0.808
 3671TIP3    H110956   6.696   4.478   0.755
 3671TIP3    H210957   6.751   4.360   0.832
 3672TIP3   OH210958   3.823   0.856   5.451
 3672TIP3    H110959   3.749   0.844   5.510
 3672TIP3    H210960   3.901   0.846   5.507
 3673TIP3   OH210961   4.672   1.267   4.247
 3673TIP3    H110962   4.691   1.240   4.337
 3673TIP3    H210963   4.577   1.262   4.240
 3674TIP3   OH210964   2.346   1.663   2.608
 3674TIP3    H110965   2.335   1.679   2.514
 3674TIP3    H210966   2.310   1.742   2.650
 3675TIP3   OH210967   4.042   5.382   5.703
 3675TIP3    H110968   3.966   5.435   5.727
 3675TIP3    H210969   4.088   5.367   5.786
 3676TIP3   OH210970   8.255   3.521   0.895
 3676TIP3    H110971   8.288   3.555   0.812
 3676TIP3    H210972   8.268   3.593   0.957
 3677TIP3   OH210973   0.959   5.641   4.762
 3677TIP3    H110974   0.943   5.631   4.668
 3677TIP3    H210975   0.937   5.555   4.799
 3678TIP3   OH210976   2.794   2.621   4.224
 3678TIP3    H110977   2.831   2.688   4.281
 3678TIP3    H210978   2.700   2.624   4.242
 3679TIP3   OH210979   7.962   0.880   0.678
 3679TIP3    H110980   8.042   0.876   0.624
 3679TIP3    H210981   7.975   0.813   0.745
 3680TIP3   OH210982   4.290   4.591   4.829
 3680TIP3    H110983   4.323   4.574   4.741
 3680TIP3    H210984   4.292   4.686   4.838
 3681TIP3   OH210985   0.206   0.527   3.607
 3681TIP3    H110986   0.246   0.444   3.632
 3681TIP3    H210987   0.216   0.532   3.512
 3682TIP3   OH210988   0.923   3.412   2.068
 3682TIP3    H110989   0.918   3.390   2.161
 3682TIP3    H210990   0.853   3.360   2.028
 3683TIP3   OH210991   3.966   7.609   3.657
 3683TIP3    H110992   3.926   7.669   3.720
 3683TIP3    H210993   3.893   7.569   3.611
 3684TIP3   OH210994   1.951   6.992   1.562
 3684TIP3    H110995   1.973   6.980   1.655
 3684TIP3    H210996   2.020   6.945   1.515
 3685TIP3   OH210997   6.528   6.962   1.708
 3685TIP3    H110998   6.606   6.998   1.752
 3685TIP3    H210999   6.467   6.943   1.778
 3686TIP3   OH211000   5.949   3.518   0.256
 3686TIP3    H111001   5.955   3.427   0.226
 3686TIP3    H211002   5.856   3.531   0.274
 3687TIP3   OH211003   0.721   1.702   6.418
 3687TIP3    H111004   0.717   1.663   6.330
 3687TIP3    H211005   0.642   1.757   6.422
 3688TIP3   OH211006   2.693   5.246   1.041
 3688TIP3    H111007   2.779   5.203   1.037
 3688TIP3    H211008   2.636   5.182   1.084
 3689TIP3   OH211009   4.101   4.247   3.879
 3689TIP3    H111010   4.023   4.192   3.878
 3689TIP3    H211011   4.163   4.202   3.821
 3690TIP3   OH211012   4.900   5.338   1.396
 3690TIP3    H111013   4.831   5.273   1.382
 3690TIP3    H211014   4.865   5.419   1.360
 3691TIP3   OH211015   2.966   1.671   4.587
 3691TIP3    H111016   3.039   1.620   4.551
 3691TIP3    H211017   2.951   1.634   4.674
 3692TIP3   OH211018   4.189   4.555   3.741
 3692TIP3    H111019   4.158   4.611   3.812
 3692TIP3    H211020   4.113   4.501   3.718
 3693TIP3   OH211021   0.043   3.118   2.741
 3693TIP3    H111022   0.032   3.026   2.716
 3693TIP3    H211023  -0.035   3.138   2.792
 3694TIP3   OH211024   6.114   2.581   2.744
 3694TIP3    H111025   6.064   2.500   2.743
 3694TIP3    H211026   6.201   2.555   2.774
 3695TIP3   OH211027   0.564   5.810   3.351
 3695TIP3    H111028   0.650   5.809   3.308
 3695TIP3    H211029   0.502   5.794   3.279
 3696TIP3   OH211030   5.473   5.324   4.597
 3696TIP3    H111031   5.562   5.313   4.631
 3696TIP3    H211032   5.485   5.360   4.509
 3697TIP3   OH211033   4.246   2.955   3.128
 3697TIP3    H111034   4.326   2.988   3.087
 3697TIP3    H211035   4.271   2.940   3.220
 3698TIP3   OH211036   4.273   2.992   2.034
 3698TIP3    H111037   4.258   2.971   2.126
 3698TIP3    H211038   4.340   2.929   2.006
 3699TIP3   OH211039   4.193   4.118   1.756
 3699TIP3    H111040   4.161   4.162   1.676
 3699TIP3    H211041   4.211   4.028   1.728
 3700TIP3   OH211042   0.264   3.990   4.980
 3700TIP3    H111043   0.269   4.074   5.026
 3700TIP3    H211044   0.325   3.999   4.907
 3701TIP3   OH211045   4.282   1.080   1.000
 3701TIP3    H111046   4.203   1.078   1.054
 3701TIP3    H211047   4.256   1.040   0.917
 3702TIP3   OH211048   3.534   4.992   5.095
 3702TIP3    H111049   3.446   5.013   5.126
 3702TIP3    H211050   3.520   4.934   5.020
 3703TIP3   OH211051   4.632   7.818   5.499
 3703TIP3    H111052   4.576   7.744   5.474
 3703TIP3    H211053   4.572   7.882   5.537
 3704TIP3   OH211054   4.121   5.104   2.477
 3704TIP3    H111055   4.099   5.177   2.535
 3704TIP3    H211056   4.205   5.072   2.509
 3705TIP3   OH211057   6.773   4.532   2.541
 3705TIP3    H111058   6.769   4.484   2.458
 3705TIP3    H211059   6.856   4.505   2.579
 3706TIP3   OH211060   1.602   5.430   2.650
 3706TIP3    H111061   1.695   5.407   2.648
 3706TIP3    H211062   1.601   5.524   2.669
 3707TIP3   OH211063   3.751   3.239   5.509
 3707TIP3    H111064   3.740   3.253   5.415
 3707TIP3    H211065   3.663   3.248   5.545
 3708TIP3   OH211066   8.276   1.918   4.209
 3708TIP3    H111067   8.330   1.992   4.237
 3708TIP3    H211068   8.250   1.939   4.120
 3709TIP3   OH211069   7.622   0.121   2.751
 3709TIP3    H111070   7.708   0.160   2.768
 3709TIP3    H211071   7.572   0.139   2.830
 3710TIP3   OH211072   0.935   0.227   5.989
 3710TIP3    H111073   0.964   0.139   6.013
 3710TIP3    H211074   1.005   0.284   6.020
 3711TIP3   OH211075   6.463   1.352   4.955
 3711TIP3    H111076   6.529   1.321   5.017
 3711TIP3    H211077   6.499   1.332   4.869
 3712TIP3   OH211078   0.389   3.970   4.247
 3712TIP3    H111079   0.331   4.034   4.288
 3712TIP3    H211080   0.451   3.946   4.316
 3713TIP3   OH211081   5.273   7.580   4.263
 3713TIP3    H111082   5.238   7.523   4.194
 3713TIP3    H211083   5.200   7.592   4.324
 3714TIP3   OH211084   1.978   2.379   5.401
 3714TIP3    H111085   1.988   2.285   5.393
 3714TIP3    H211086   2.065   2.412   5.423
 3715TIP3   OH211087   6.771   5.338   6.035
 3715TIP3    H111088   6.857   5.304   6.010
 3715TIP3    H211089   6.790   5.407   6.099
 3716TIP3   OH211090   2.450   6.256   0.743
 3716TIP3    H111091   2.431   6.211   0.826
 3716TIP3    H211092   2.521   6.205   0.704
 3717TIP3   OH211093   0.396   2.967   2.812
 3717TIP3    H111094   0.325   2.921   2.857
 3717TIP3    H211095   0.377   2.956   2.719
 3718TIP3   OH211096   7.397   7.751   6.068
 3718TIP3    H111097   7.367   7.679   6.122
 3718TIP3    H211098   7.388   7.719   5.978
 3719TIP3   OH211099   7.314   4.981   0.743
 3719TIP3    H111100   7.262   5.006   0.819
 3719TIP3    H211101   7.305   4.886   0.738
 3720TIP3   OH211102   2.555   7.163   3.270
 3720TIP3    H111103   2.481   7.200   3.318
 3720TIP3    H211104   2.612   7.125   3.337
 3721TIP3   OH211105   8.233   5.118   2.668
 3721TIP3    H111106   8.194   5.192   2.714
 3721TIP3    H211107   8.301   5.157   2.613
 3722TIP3   OH211108   2.028   6.589   2.187
 3722TIP3    H111109   2.055   6.514   2.134
 3722TIP3    H211110   1.939   6.567   2.215
 3723TIP3   OH211111   2.058   2.098   0.752
 3723TIP3    H111112   2.096   2.011   0.764
 3723TIP3    H211113   2.019   2.119   0.837
 3724TIP3   OH211114   6.395   0.550   5.071
 3724TIP3    H111115   6.406   0.460   5.040
 3724TIP3    H211116   6.471   0.597   5.037
 3725TIP3   OH211117   1.533   6.363   0.737
 3725TIP3    H111118   1.447   6.321   0.742
 3725TIP3    H211119   1.520   6.437   0.678
 3726TIP3   OH211120   4.298   5.860   3.011
 3726TIP3    H111121   4.213   5.817   3.006
 3726TIP3    H211122   4.297   5.904   3.096
 3727TIP3   OH211123   2.450   1.200   5.953
 3727TIP3    H111124   2.392   1.217   6.028
 3727TIP3    H211125   2.391   1.182   5.880
 3728TIP3   OH211126   7.365   4.449   5.400
 3728TIP3    H111127   7.291   4.494   5.359
 3728TIP3    H211128   7.355   4.467   5.493
 3729TIP3   OH211129   3.744   5.805   3.969
 3729TIP3    H111130   3.840   5.807   3.966
 3729TIP3    H211131   3.720   5.760   3.887
 3730TIP3   OH211132   0.783   4.530   5.467
 3730TIP3    H111133   0.724   4.518   5.541
 3730TIP3    H211134   0.728   4.518   5.390
 3731TIP3   OH211135   2.919   1.774   4.294
 3731TIP3    H111136   2.830   1.744   4.310
 3731TIP3    H211137   2.968   1.744   4.370
 3732TIP3   OH211138   6.701   7.262   0.615
 3732TIP3    H111139   6.698   7.218   0.700
 3732TIP3    H211140   6.675   7.352   0.635
 3733TIP3   OH211141   4.900   7.014   2.855
 3733TIP3    H111142   4.880   6.923   2.877
 3733TIP3    H211143   4.838   7.065   2.907
 3734TIP3   OH211144   4.885   0.702   2.428
 3734TIP3    H111145   4.937   0.757   2.369
 3734TIP3    H211146   4.799   0.743   2.429
 3735TIP3   OH211147   2.414   1.616   5.282
 3735TIP3    H111148   2.389   1.695   5.331
 3735TIP3    H211149   2.398   1.639   5.191
 3736TIP3   OH211150   6.717   0.185   0.422
 3736TIP3    H111151   6.791   0.125   0.416
 3736TIP3    H211152   6.708   0.219   0.333
 3737TIP3   OH211153   6.589   1.574   2.547
 3737TIP3    H111154   6.671   1.536   2.579
 3737TIP3    H211155   6.533   1.580   2.625
 3738TIP3   OH211156   5.332   0.430   2.277
 3738TIP3    H111157   5.306   0.338   2.285
 3738TIP3    H211158   5.262   0.469   2.224
 3739TIP3   OH211159   4.618   0.397   2.337
 3739TIP3    H111160   4.704   0.426   2.307
 3739TIP3    H211161   4.635   0.315   2.383
 3740TIP3   OH211162   3.763   2.671   1.879
 3740TIP3    H111163   3.814   2.704   1.805
 3740TIP3    H211164   3.819   2.604   1.918
 3741TIP3   OH211165   0.473   3.439   2.884
 3741TIP3    H111166   0.400   3.378   2.881
 3741TIP3    H211167   0.546   3.387   2.916
 3742TIP3   OH211168   0.888   4.405   0.664
 3742TIP3    H111169   0.937   4.465   0.608
 3742TIP3    H211170   0.920   4.318   0.639
 3743TIP3   OH211171   3.188   6.743   2.661
 3743TIP3    H111172   3.258   6.786   2.711
 3743TIP3    H211173   3.128   6.710   2.727
 3744TIP3   OH211174   3.622   4.439   2.186
 3744TIP3    H111175   3.618   4.453   2.281
 3744TIP3    H211176   3.593   4.349   2.174
 3745TIP3   OH211177   8.245   1.403   2.771
 3745TIP3    H111178   8.176   1.463   2.801
 3745TIP3    H211179   8.326   1.447   2.795
 3746TIP3   OH211180   7.059   7.036   1.231
 3746TIP3    H111181   7.116   7.005   1.161
 3746TIP3    H211182   7.102   7.007   1.312
 3747TIP3   OH211183   8.277   5.736   4.370
 3747TIP3    H111184   8.297   5.721   4.277
 3747TIP3    H211185   8.181   5.738   4.374
 3748TIP3   OH211186   4.205   4.656   6.581
 3748TIP3    H111187   4.229   4.684   6.670
 3748TIP3    H211188   4.276   4.599   6.553
 3749TIP3   OH211189   4.355   7.429   3.760
 3749TIP3    H111190   4.377   7.454   3.850
 3749TIP3    H211191   4.340   7.334   3.765
 3750TIP3   OH211192   1.058   1.665   5.922
 3750TIP3    H111193   0.984   1.626   5.876
 3750TIP3    H211194   1.028   1.753   5.945
 3751TIP3   OH211195   6.044   4.980   0.115
 3751TIP3    H111196   6.089   4.910   0.068
 3751TIP3    H211197   5.961   4.991   0.069
 3752TIP3   OH211198   5.921   3.844   1.436
 3752TIP3    H111199   5.837   3.798   1.436
 3752TIP3    H211200   5.904   3.926   1.390
 3753TIP3   OH211201   7.156   1.194   0.261
 3753TIP3    H111202   7.173   1.259   0.329
 3753TIP3    H211203   7.114   1.121   0.307
 3754TIP3   OH211204   2.391   3.483   3.574
 3754TIP3    H111205   2.342   3.406   3.543
 3754TIP3    H211206   2.446   3.508   3.500
 3755TIP3   OH211207   1.269   3.713   3.929
 3755TIP3    H111208   1.212   3.786   3.906
 3755TIP3    H211209   1.221   3.665   3.997
 3756TIP3   OH211210   2.677   1.897   6.067
 3756TIP3    H111211   2.758   1.924   6.024
 3756TIP3    H211212   2.617   1.970   6.054
 3757TIP3   OH211213   2.657   3.397   0.546
 3757TIP3    H111214   2.711   3.423   0.621
 3757TIP3    H211215   2.697   3.316   0.514
 3758TIP3   OH211216   7.681   6.864   5.516
 3758TIP3    H111217   7.680   6.815   5.598
 3758TIP3    H211218   7.590   6.889   5.502
 3759TIP3   OH211219   6.929   7.015   4.155
 3759TIP3    H111220   6.853   7.027   4.211
 3759TIP3    H211221   6.932   7.093   4.100
 3760TIP3   OH211222   5.738   7.247   6.675
 3760TIP3    H111223   5.760   7.160   6.642
 3760TIP3    H211224   5.643   7.248   6.680
 3761TIP3   OH211225   3.411   3.880   0.459
 3761TIP3    H111226   3.335   3.931   0.432
 3761TIP3    H211227   3.479   3.945   0.477
 3762TIP3   OH211228   1.529   5.488   4.474
 3762TIP3    H111229   1.564   5.457   4.390
 3762TIP3    H211230   1.591   5.455   4.539
 3763TIP3   OH211231   3.354   6.322   6.472
 3763TIP3    H111232   3.431   6.315   6.416
 3763TIP3    H211233   3.371   6.398   6.527
 3764TIP3   OH211234   0.604   6.679   2.519
 3764TIP3    H111235   0.541   6.614   2.547
 3764TIP3    H211236   0.551   6.754   2.492
 3765TIP3   OH211237   5.736   4.629   3.767
 3765TIP3    H111238   5.756   4.609   3.859
 3765TIP3    H211239   5.640   4.629   3.763
 3766TIP3   OH211240   4.086   6.145   5.324
 3766TIP3    H111241   4.095   6.058   5.361
 3766TIP3    H211242   4.012   6.184   5.370
 3767TIP3   OH211243   4.354   4.200   1.097
 3767TIP3    H111244   4.374   4.230   1.186
 3767TIP3    H211245   4.417   4.130   1.080
 3768TIP3   OH211246   6.336   5.625   2.586
 3768TIP3    H111247   6.370   5.605   2.673
 3768TIP3    H211248   6.358   5.548   2.533
 3769TIP3   OH211249   5.752   2.850   3.747
 3769TIP3    H111250   5.816   2.837   3.816
 3769TIP3    H211251   5.793   2.913   3.687
 3770TIP3   OH211252   8.076   6.703   0.346
 3770TIP3    H111253   8.051   6.667   0.261
 3770TIP3    H211254   8.005   6.677   0.405
 3771TIP3   OH211255   2.516   0.519   2.479
 3771TIP3    H111256   2.491   0.435   2.442
 3771TIP3    H211257   2.436   0.554   2.518
 3772TIP3   OH211258   4.848   5.437  -0.035
 3772TIP3    H111259   4.801   5.454   0.047
 3772TIP3    H211260   4.928   5.489  -0.028
 3773TIP3   OH211261   1.099   5.212   4.768
 3773TIP3    H111262   1.145   5.276   4.714
 3773TIP3    H211263   1.161   5.190   4.837
 3774TIP3   OH211264   2.253   4.884   0.068
 3774TIP3    H111265   2.273   4.845  -0.017
 3774TIP3    H211266   2.168   4.848   0.091
 3775TIP3   OH211267   3.711   5.799   6.779
 3775TIP3    H111268   3.722   5.724   6.719
 3775TIP3    H211269   3.791   5.850   6.768
 3776TIP3   OH211270   6.474   7.687   0.028
 3776TIP3    H111271   6.492   7.772   0.068
 3776TIP3    H211272   6.560   7.652   0.006
 3777TIP3   OH211273   2.419   6.230   2.885
 3777TIP3    H111274   2.337   6.224   2.837
 3777TIP3    H211275   2.394   6.223   2.977
 3778TIP3   OH211276   0.595   4.762   3.720
 3778TIP3    H111277   0.675   4.730   3.761
 3778TIP3    H211278   0.533   4.689   3.726
 3779TIP3   OH211279   7.850   0.346   4.388
 3779TIP3    H111280   7.912   0.282   4.353
 3779TIP3    H211281   7.898   0.390   4.458
 3780TIP3   OH211282   6.364   6.630   4.102
 3780TIP3    H111283   6.355   6.657   4.193
 3780TIP3    H211284   6.446   6.579   4.099
 3781TIP3   OH211285   5.967   4.534   6.562
 3781TIP3    H111286   5.948   4.627   6.550
 3781TIP3    H211287   5.881   4.491   6.556
 3782TIP3   OH211288   7.005   7.842   6.050
 3782TIP3    H111289   7.033   7.791   5.974
 3782TIP3    H211290   6.971   7.776   6.111
 3783TIP3   OH211291   5.891   7.384   6.501
 3783TIP3    H111292   5.832   7.343   6.564
 3783TIP3    H211293   5.838   7.396   6.422
 3784TIP3   OH211294   6.706   6.034   2.162
 3784TIP3    H111295   6.728   5.942   2.153
 3784TIP3    H211296   6.702   6.049   2.256
 3785TIP3   OH211297   4.725   7.365   3.933
 3785TIP3    H111298   4.797   7.322   3.887
 3785TIP3    H211299   4.768   7.422   3.997
 3786TIP3   OH211300   5.088   0.968   5.951
 3786TIP3    H111301   5.148   1.030   5.909
 3786TIP3    H211302   5.053   1.015   6.027
 3787TIP3   OH211303   3.152   5.989   4.477
 3787TIP3    H111304   3.200   6.021   4.553
 3787TIP3    H211305   3.108   5.909   4.508
 3788TIP3   OH211306   8.081   7.694   3.337
 3788TIP3    H111307   8.134   7.706   3.258
 3788TIP3    H211308   8.105   7.767   3.394
 3789TIP3   OH211309   3.065   1.886   5.073
 3789TIP3    H111310   3.049   1.792   5.083
 3789TIP3    H211311   3.104   1.912   5.156
 3790TIP3   OH211312   7.966   3.474   1.725
 3790TIP3    H111313   7.877   3.489   1.758
 3790TIP3    H211314   8.010   3.558   1.737
 3791TIP3   OH211315   7.205   2.738   5.493
 3791TIP3    H111316   7.227   2.804   5.559
 3791TIP3    H211317   7.279   2.742   5.431
 3792TIP3   OH211318   1.696   5.828   6.086
 3792TIP3    H111319   1.750   5.843   6.164
 3792TIP3    H211320   1.660   5.915   6.065
 3793TIP3   OH211321   3.362   1.700   6.572
 3793TIP3    H111322   3.347   1.774   6.513
 3793TIP3    H211323   3.276   1.661   6.585
 3794TIP3   OH211324   2.261   6.336   6.102
 3794TIP3    H111325   2.340   6.333   6.048
 3794TIP3    H211326   2.236   6.245   6.112
 3795TIP3   OH211327   2.171   7.368   4.937
 3795TIP3    H111328   2.164   7.441   4.874
 3795TIP3    H211329   2.171   7.290   4.882
 3796TIP3   OH211330   4.382   2.292   6.695
 3796TIP3    H111331   4.476   2.300   6.683
 3796TIP3    H211332   4.365   2.198   6.689
 3797TIP3   OH211333   5.052   2.508   4.957
 3797TIP3    H111334   5.090   2.482   5.041
 3797TIP3    H211335   4.993   2.437   4.934
 3798TIP3   OH211336   0.087   1.484   5.376
 3798TIP3    H111337   0.172   1.440   5.370
 3798TIP3    H211338   0.054   1.484   5.286
 3799TIP3   OH211339   7.875   4.897   0.513
 3799TIP3    H111340   7.940   4.912   0.444
 3799TIP3    H211341   7.819   4.974   0.510
 3800TIP3   OH211342   4.914   6.235   0.286
 3800TIP3    H111343   4.920   6.186   0.367
 3800TIP3    H211344   4.875   6.174   0.224
 3801TIP3   OH211345   4.537   0.192   2.685
 3801TIP3    H111346   4.454   0.204   2.639
 3801TIP3    H211347   4.513   0.189   2.778
 3802TIP3   OH211348   6.853   7.035   6.492
 3802TIP3    H111349   6.887   7.076   6.572
 3802TIP3    H211350   6.930   6.996   6.451
 3803TIP3   OH211351   1.048   6.377   0.258
 3803TIP3    H111352   1.116   6.317   0.288
 3803TIP3    H211353   1.087   6.464   0.266
 3804TIP3   OH211354   7.209   4.107   5.875
 3804TIP3    H111355   7.204   4.134   5.967
 3804TIP3    H211356   7.241   4.017   5.879
 3805TIP3   OH211357   6.710   6.548   3.150
 3805TIP3    H111358   6.707   6.641   3.169
 3805TIP3    H211359   6.639   6.533   3.088
 3806TIP3   OH211360   7.173   0.795   4.709
 3806TIP3    H111361   7.161   0.712   4.663
 3806TIP3    H211362   7.206   0.855   4.643
 3807TIP3   OH211363   1.293   4.683   3.294
 3807TIP3    H111364   1.332   4.758   3.337
 3807TIP3    H211365   1.245   4.720   3.219
 3808TIP3   OH211366   8.160   3.195   0.084
 3808TIP3    H111367   8.183   3.125   0.145
 3808TIP3    H211368   8.157   3.274   0.138
 3809TIP3   OH211369   8.252   1.717   3.501
 3809TIP3    H111370   8.208   1.646   3.455
 3809TIP3    H211371   8.281   1.776   3.431
 3810TIP3   OH211372   0.174   6.321   0.060
 3810TIP3    H111373   0.195   6.365   0.142
 3810TIP3    H211374   0.220   6.371  -0.007
 3811TIP3   OH211375   3.897   5.517   2.484
 3811TIP3    H111376   3.993   5.520   2.487
 3811TIP3    H211377   3.875   5.440   2.537
 3812TIP3   OH211378   1.233   1.077   1.830
 3812TIP3    H111379   1.192   1.073   1.744
 3812TIP3    H211380   1.313   1.025   1.821
 3813TIP3   OH211381   2.637   0.934   5.414
 3813TIP3    H111382   2.653   0.840   5.404
 3813TIP3    H211383   2.634   0.948   5.508
 3814TIP3   OH211384   0.286   7.017   2.946
 3814TIP3    H111385   0.283   7.073   2.868
 3814TIP3    H211386   0.327   7.071   3.013
 3815TIP3   OH211387   1.362   7.558   5.471
 3815TIP3    H111388   1.438   7.561   5.413
 3815TIP3    H211389   1.312   7.482   5.441
 3816TIP3   OH211390   6.483   1.872   4.966
 3816TIP3    H111391   6.518   1.956   4.936
 3816TIP3    H211392   6.487   1.877   5.062
 3817TIP3   OH211393   2.185   0.192   4.559
 3817TIP3    H111394   2.103   0.148   4.539
 3817TIP3    H211395   2.251   0.123   4.557
 3818TIP3   OH211396   8.214   4.183   1.785
 3818TIP3    H111397   8.259   4.141   1.858
 3818TIP3    H211398   8.218   4.277   1.805
 3819TIP3   OH211399   5.072   0.953   2.864
 3819TIP3    H111400   5.052   1.039   2.827
 3819TIP3    H211401   5.030   0.891   2.804
 3820TIP3   OH211402   0.489   6.080   6.144
 3820TIP3    H111403   0.511   6.032   6.224
 3820TIP3    H211404   0.400   6.051   6.123
 3821TIP3   OH211405   6.540   0.888   3.314
 3821TIP3    H111406   6.616   0.832   3.300
 3821TIP3    H211407   6.577   0.975   3.329
 3822TIP3   OH211408   3.776   4.320   3.081
 3822TIP3    H111409   3.735   4.243   3.042
 3822TIP3    H211410   3.815   4.287   3.163
 3823TIP3   OH211411   3.113   1.026   5.731
 3823TIP3    H111412   3.084   1.009   5.820
 3823TIP3    H211413   3.044   0.991   5.675
 3824TIP3   OH211414   0.067   2.660   6.758
 3824TIP3    H111415   0.047   2.681   6.667
 3824TIP3    H211416   0.075   2.745   6.801
 3825TIP3   OH211417   7.846   1.609   0.251
 3825TIP3    H111418   7.765   1.561   0.237
 3825TIP3    H211419   7.833   1.692   0.205
 3826TIP3   OH211420   5.361   6.823   6.791
 3826TIP3    H111421   5.395   6.878   6.720
 3826TIP3    H211422   5.357   6.735   6.753
 3827TIP3   OH211423   4.129   6.029   4.697
 3827TIP3    H111424   4.034   6.024   4.710
 3827TIP3    H211425   4.158   5.938   4.700
 3828TIP3   OH211426   6.362   5.459   6.442
 3828TIP3    H111427   6.386   5.539   6.395
 3828TIP3    H211428   6.378   5.388   6.379
 3829TIP3   OH211429   5.955   1.232   4.503
 3829TIP3    H111430   5.959   1.154   4.447
 3829TIP3    H211431   5.862   1.247   4.517
 3830TIP3   OH211432   4.198   3.501   2.888
 3830TIP3    H111433   4.244   3.509   2.804
 3830TIP3    H211434   4.108   3.525   2.869
 3831TIP3   OH211435   3.630   3.828   0.206
 3831TIP3    H111436   3.543   3.852   0.175
 3831TIP3    H211437   3.615   3.797   0.295
 3832TIP3   OH211438   7.843   1.843   1.160
 3832TIP3    H111439   7.756   1.867   1.130
 3832TIP3    H211440   7.880   1.791   1.088
 3833TIP3   OH211441   4.903   6.192   3.691
 3833TIP3    H111442   4.975   6.244   3.728
 3833TIP3    H211443   4.944   6.139   3.623
 3834TIP3   OH211444   0.068   7.274   0.784
 3834TIP3    H111445   0.144   7.330   0.772
 3834TIP3    H211446   0.029   7.304   0.866
 3835TIP3   OH211447   6.435   1.105   5.356
 3835TIP3    H111448   6.529   1.099   5.342
 3835TIP3    H211449   6.412   1.024   5.401
 3836TIP3   OH211450   1.660   2.367   0.324
 3836TIP3    H111451   1.584   2.355   0.266
 3836TIP3    H211452   1.627   2.344   0.411
 3837TIP3   OH211453   4.372   6.362   0.441
 3837TIP3    H111454   4.302   6.422   0.412
 3837TIP3    H211455   4.328   6.301   0.500
 3838TIP3   OH211456   0.690   4.616   3.333
 3838TIP3    H111457   0.723   4.706   3.334
 3838TIP3    H211458   0.596   4.625   3.316
 3839TIP3   OH211459   2.078   4.651   2.723
 3839TIP3    H111460   1.985   4.639   2.740
 3839TIP3    H211461   2.100   4.580   2.662
 3840TIP3   OH211462   4.267   4.358   0.426
 3840TIP3    H111463   4.307   4.337   0.511
 3840TIP3    H211464   4.227   4.444   0.439
 3841TIP3   OH211465   5.928   2.418   5.127
 3841TIP3    H111466   5.909   2.342   5.182
 3841TIP3    H211467   5.844   2.440   5.086
 3842TIP3   OH211468   4.717   7.105   5.719
 3842TIP3    H111469   4.786   7.167   5.696
 3842TIP3    H211470   4.738   7.026   5.669
 3843TIP3   OH211471   1.153   4.987   2.001
 3843TIP3    H111472   1.112   4.986   2.087
 3843TIP3    H211473   1.085   5.018   1.942
 3844TIP3   OH211474   4.359   0.312   5.176
 3844TIP3    H111475   4.446   0.273   5.187
 3844TIP3    H211476   4.330   0.282   5.090
 3845TIP3   OH211477   2.519   6.924   2.011
 3845TIP3    H111478   2.568   6.864   2.067
 3845TIP3    H211479   2.448   6.956   2.066
 3846TIP3   OH211480   3.166   6.238   3.613
 3846TIP3    H111481   3.203   6.158   3.649
 3846TIP3    H211482   3.150   6.293   3.690
 3847TIP3   OH211483   2.003   7.675   0.352
 3847TIP3    H111484   1.917   7.636   0.337
 3847TIP3    H211485   1.992   7.728   0.430
 3848TIP3   OH211486   4.259   1.114   2.465
 3848TIP3    H111487   4.337   1.143   2.511
 3848TIP3    H211488   4.272   1.020   2.452
 3849TIP3   OH211489   4.916   3.818   1.267
 3849TIP3    H111490   4.973   3.853   1.335
 3849TIP3    H211491   4.833   3.865   1.278
 3850TIP3   OH211492   4.572   5.972   1.842
 3850TIP3    H111493   4.587   6.051   1.894
 3850TIP3    H211494   4.657   5.951   1.804
 3851TIP3   OH211495   2.017   3.660   5.239
 3851TIP3    H111496   2.016   3.641   5.333
 3851TIP3    H211497   2.016   3.574   5.197
 3852TIP3   OH211498   3.498   4.466   3.099
 3852TIP3    H111499   3.510   4.541   3.040
 3852TIP3    H211500   3.582   4.421   3.099
 3853TIP3   OH211501   2.384   3.314   1.935
 3853TIP3    H111502   2.472   3.352   1.928
 3853TIP3    H211503   2.399   3.221   1.952
 3854TIP3   OH211504   0.787   0.912   3.031
 3854TIP3    H111505   0.699   0.875   3.039
 3854TIP3    H211506   0.817   0.883   2.945
 3855TIP3   OH211507   0.918   3.282   5.286
 3855TIP3    H111508   0.956   3.245   5.366
 3855TIP3    H211509   0.938   3.217   5.218
 3856TIP3   OH211510   1.729   6.294   5.364
 3856TIP3    H111511   1.741   6.202   5.387
 3856TIP3    H211512   1.679   6.330   5.437
 3857TIP3   OH211513   3.491   3.379   1.085
 3857TIP3    H111514   3.441   3.380   1.004
 3857TIP3    H211515   3.478   3.465   1.123
 3858TIP3   OH211516   5.969   5.243   2.177
 3858TIP3    H111517   6.043   5.183   2.164
 3858TIP3    H211518   5.999   5.326   2.141
 3859TIP3   OH211519   0.550   4.621   6.726
 3859TIP3    H111520   0.474   4.594   6.675
 3859TIP3    H211521   0.540   4.576   6.809
 3860TIP3   OH211522   7.492   1.549   5.794
 3860TIP3    H111523   7.525   1.565   5.882
 3860TIP3    H211524   7.539   1.471   5.764
 3861TIP3   OH211525   0.324   3.724   0.971
 3861TIP3    H111526   0.272   3.645   0.954
 3861TIP3    H211527   0.411   3.690   0.994
 3862TIP3   OH211528   3.556   4.022   4.909
 3862TIP3    H111529   3.598   4.092   4.859
 3862TIP3    H211530   3.467   4.017   4.874
 3863TIP3   OH211531   4.592   4.678   3.799
 3863TIP3    H111532   4.574   4.587   3.775
 3863TIP3    H211533   4.681   4.694   3.767
 3864TIP3   OH211534   6.343   0.892   1.037
 3864TIP3    H111535   6.280   0.869   0.968
 3864TIP3    H211536   6.387   0.810   1.058
 3865TIP3   OH211537   2.496   6.528   0.257
 3865TIP3    H111538   2.492   6.433   0.257
 3865TIP3    H211539   2.445   6.554   0.180
 3866TIP3   OH211540   2.760   4.373   2.913
 3866TIP3    H111541   2.778   4.462   2.884
 3866TIP3    H211542   2.843   4.327   2.903
 3867TIP3   OH211543   1.130   4.220   3.070
 3867TIP3    H111544   1.195   4.199   3.137
 3867TIP3    H211545   1.180   4.256   2.998
 3868TIP3   OH211546   6.574   4.072   5.352
 3868TIP3    H111547   6.487   4.041   5.326
 3868TIP3    H211548   6.614   3.995   5.393
 3869TIP3   OH211549   8.051   1.115   4.673
 3869TIP3    H111550   7.995   1.162   4.610
 3869TIP3    H211551   8.086   1.041   4.623
 3870TIP3   OH211552   3.206   1.400   0.475
 3870TIP3    H111553   3.222   1.371   0.564
 3870TIP3    H211554   3.139   1.468   0.484
 3871TIP3   OH211555   4.224   6.448   4.399
 3871TIP3    H111556   4.209   6.515   4.333
 3871TIP3    H211557   4.247   6.370   4.349
 3872TIP3   OH211558   1.371   7.189   6.330
 3872TIP3    H111559   1.351   7.205   6.422
 3872TIP3    H211560   1.293   7.220   6.283
 3873TIP3   OH211561   0.509   2.196   5.684
 3873TIP3    H111562   0.570   2.269   5.681
 3873TIP3    H211563   0.441   2.219   5.620
 3874TIP3   OH211564   4.199   7.346   2.657
 3874TIP3    H111565   4.264   7.279   2.637
 3874TIP3    H211566   4.220   7.374   2.746
 3875TIP3   OH211567   7.241   7.431   5.595
 3875TIP3    H111568   7.224   7.524   5.608
 3875TIP3    H211569   7.222   7.416   5.502
 3876TIP3   OH211570   0.276   4.895   3.966
 3876TIP3    H111571   0.334   4.840   4.021
 3876TIP3    H211572   0.334   4.929   3.898
 3877TIP3   OH211573   0.030   6.775   6.682
 3877TIP3    H111574   0.090   6.753   6.611
 3877TIP3    H211575   0.044   6.708   6.748
 3878TIP3   OH211576   8.278   6.578   0.845
 3878TIP3    H111577   8.300   6.632   0.920
 3878TIP3    H211578   8.256   6.640   0.775
 3879TIP3   OH211579   4.605   0.333   6.392
 3879TIP3    H111580   4.607   0.426   6.371
 3879TIP3    H211581   4.608   0.330   6.488
 3880TIP3   OH211582   2.956   0.174   2.732
 3880TIP3    H111583   3.019   0.238   2.766
 3880TIP3    H211584   2.998   0.137   2.655
 3881TIP3   OH211585   2.556   5.193   4.622
 3881TIP3    H111586   2.584   5.279   4.589
 3881TIP3    H211587   2.502   5.213   4.698
 3882TIP3   OH211588   1.498   1.891   2.932
 3882TIP3    H111589   1.579   1.882   2.982
 3882TIP3    H211590   1.518   1.852   2.847
 3883TIP3   OH211591   4.448   6.802   6.156
 3883TIP3    H111592   4.371   6.821   6.102
 3883TIP3    H211593   4.479   6.717   6.123
 3884TIP3   OH211594   4.343   2.035   1.847
 3884TIP3    H111595   4.249   2.025   1.856
 3884TIP3    H211596   4.360   2.028   1.753
 3885TIP3   OH211597   1.294   2.062   4.704
 3885TIP3    H111598   1.317   2.089   4.616
 3885TIP3    H211599   1.198   2.054   4.703
 3886TIP3   OH211600   3.268   7.135   5.901
 3886TIP3    H111601   3.179   7.100   5.897
 3886TIP3    H211602   3.271   7.183   5.983
 3887TIP3   OH211603   7.650   3.367   4.332
 3887TIP3    H111604   7.741   3.394   4.336
 3887TIP3    H211605   7.653   3.272   4.317
 3888TIP3   OH211606   1.272   5.114   6.594
 3888TIP3    H111607   1.180   5.089   6.597
 3888TIP3    H211608   1.319   5.033   6.615
 3889TIP3   OH211609   2.966   2.451   2.431
 3889TIP3    H111610   2.880   2.410   2.436
 3889TIP3    H211611   2.949   2.545   2.439
 3890TIP3   OH211612   2.246   5.414   2.299
 3890TIP3    H111613   2.254   5.334   2.248
 3890TIP3    H211614   2.330   5.459   2.286
 3891TIP3   OH211615   2.553   5.052   4.281
 3891TIP3    H111616   2.624   4.998   4.316
 3891TIP3    H211617   2.539   5.018   4.192
 3892TIP3   OH211618   6.701   0.330   5.828
 3892TIP3    H111619   6.622   0.369   5.791
 3892TIP3    H211620   6.724   0.260   5.767
 3893TIP3   OH211621   2.413   1.376   2.804
 3893TIP3    H111622   2.486   1.368   2.743
 3893TIP3    H211623   2.342   1.325   2.765
 3894TIP3   OH211624   3.292   7.696   6.460
 3894TIP3    H111625   3.341   7.761   6.510
 3894TIP3    H211626   3.266   7.743   6.380
 3895TIP3   OH211627   0.196   1.184   6.472
 3895TIP3    H111628   0.210   1.268   6.515
 3895TIP3    H211629   0.220   1.200   6.381
 3896TIP3   OH211630   3.707   6.886   6.452
 3896TIP3    H111631   3.749   6.969   6.472
 3896TIP3    H211632   3.780   6.825   6.439
 3897TIP3   OH211633   0.539   3.300   5.126
 3897TIP3    H111634   0.592   3.252   5.189
 3897TIP3    H211635   0.597   3.316   5.052
 3898TIP3   OH211636   6.692   1.212   2.804
 3898TIP3    H111637   6.759   1.199   2.872
 3898TIP3    H211638   6.740   1.247   2.729
 3899TIP3   OH211639   2.333   6.643   0.433
 3899TIP3    H111640   2.383   6.724   0.423
 3899TIP3    H211641   2.378   6.579   0.378
 3900TIP3   OH211642   6.482   5.911   1.219
 3900TIP3    H111643   6.519   5.835   1.173
 3900TIP3    H211644   6.395   5.883   1.245
 3901TIP3   OH211645   0.924   3.354   5.705
 3901TIP3    H111646   0.960   3.274   5.745
 3901TIP3    H211647   0.931   3.419   5.775
 3902TIP3   OH211648   7.027   0.307   2.839
 3902TIP3    H111649   7.028   0.254   2.760
 3902TIP3    H211650   7.006   0.395   2.808
 3903TIP3   OH211651   1.393   7.168   4.597
 3903TIP3    H111652   1.369   7.160   4.689
 3903TIP3    H211653   1.470   7.225   4.598
 3904TIP3   OH211654   5.711   5.294   5.838
 3904TIP3    H111655   5.632   5.268   5.791
 3904TIP3    H211656   5.742   5.372   5.792
 3905TIP3   OH211657   6.671   6.583   5.953
 3905TIP3    H111658   6.740   6.535   6.000
 3905TIP3    H211659   6.597   6.584   6.014
 3906TIP3   OH211660   0.262   2.689   0.620
 3906TIP3    H111661   0.191   2.719   0.563
 3906TIP3    H211662   0.223   2.620   0.674
 3907TIP3   OH211663   5.237   3.443   5.289
 3907TIP3    H111664   5.232   3.398   5.204
 3907TIP3    H211665   5.159   3.498   5.292
 3908TIP3   OH211666   5.037   0.872   0.152
 3908TIP3    H111667   5.119   0.845   0.110
 3908TIP3    H211668   5.021   0.960   0.119
 3909TIP3   OH211669   5.859   3.660   6.029
 3909TIP3    H111670   5.859   3.609   6.110
 3909TIP3    H211671   5.809   3.739   6.050
 3910TIP3   OH211672   1.904   1.462   3.539
 3910TIP3    H111673   1.847   1.482   3.465
 3910TIP3    H211674   1.849   1.415   3.601
 3911TIP3   OH211675   3.781   0.187   2.870
 3911TIP3    H111676   3.727   0.111   2.851
 3911TIP3    H211677   3.840   0.159   2.939
 3912TIP3   OH211678   5.019   0.174   1.400
 3912TIP3    H111679   5.056   0.262   1.411
 3912TIP3    H211680   5.056   0.143   1.318
 3913TIP3   OH211681   2.543   3.680   6.693
 3913TIP3    H111682   2.467   3.641   6.734
 3913TIP3    H211683   2.582   3.609   6.642
 3914TIP3   OH211684   5.726   7.540   1.776
 3914TIP3    H111685   5.715   7.612   1.714
 3914TIP3    H211686   5.716   7.580   1.862
 3915TIP3   OH211687   5.754   2.086   0.250
 3915TIP3    H111688   5.690   2.034   0.297
 3915TIP3    H211689   5.704   2.134   0.185
 3916TIP3   OH211690   6.501   5.055   6.588
 3916TIP3    H111691   6.410   5.075   6.607
 3916TIP3    H211692   6.497   4.979   6.530
 3917TIP3   OH211693   7.948   2.366   2.312
 3917TIP3    H111694   7.953   2.310   2.235
 3917TIP3    H211695   8.011   2.329   2.374
 3918TIP3   OH211696   1.689   3.916   0.312
 3918TIP3    H111697   1.680   3.961   0.396
 3918TIP3    H211698   1.694   3.824   0.334
 3919TIP3   OH211699   6.712   2.105   3.208
 3919TIP3    H111700   6.724   2.042   3.138
 3919TIP3    H211701   6.655   2.173   3.172
 3920TIP3   OH211702   6.976   2.360   1.447
 3920TIP3    H111703   6.950   2.300   1.377
 3920TIP3    H211704   6.931   2.328   1.524
 3921TIP3   OH211705   0.487   3.556   5.801
 3921TIP3    H111706   0.466   3.628   5.861
 3921TIP3    H211707   0.449   3.479   5.843
 3922TIP3   OH211708   6.212   7.320   2.779
 3922TIP3    H111709   6.191   7.244   2.834
 3922TIP3    H211710   6.307   7.315   2.767
 3923TIP3   OH211711   3.601   0.224   3.725
 3923TIP3    H111712   3.595   0.301   3.782
 3923TIP3    H211713   3.685   0.234   3.680
 3924TIP3   OH211714   3.166   6.334   1.360
 3924TIP3    H111715   3.235   6.401   1.358
 3924TIP3    H211716   3.122   6.342   1.275
 3925TIP3   OH211717   6.149   0.231   6.309
 3925TIP3    H111718   6.197   0.172   6.367
 3925TIP3    H211719   6.065   0.188   6.295
 3926TIP3   OH211720   1.110   4.764   5.196
 3926TIP3    H111721   1.200   4.795   5.198
 3926TIP3    H211722   1.092   4.737   5.287
 3927TIP3   OH211723   5.236   5.509   0.368
 3927TIP3    H111724   5.233   5.461   0.450
 3927TIP3    H211725   5.329   5.524   0.352
 3928TIP3   OH211726   5.862   1.749   2.250
 3928TIP3    H111727   5.787   1.691   2.263
 3928TIP3    H211728   5.938   1.690   2.245
 3929TIP3   OH211729   7.442   5.118   6.423
 3929TIP3    H111730   7.438   5.083   6.334
 3929TIP3    H211731   7.405   5.206   6.415
 3930TIP3   OH211732   7.831   3.235   4.057
 3930TIP3    H111733   7.791   3.308   4.010
 3930TIP3    H211734   7.924   3.258   4.063
 3931TIP3   OH211735   5.128   0.317   1.928
 3931TIP3    H111736   5.223   0.305   1.921
 3931TIP3    H211737   5.118   0.390   1.989
 3932TIP3   OH211738   5.601   6.504   5.171
 3932TIP3    H111739   5.667   6.488   5.238
 3932TIP3    H211740   5.633   6.457   5.094
 3933TIP3   OH211741   0.367   3.328   1.708
 3933TIP3    H111742   0.306   3.335   1.782
 3933TIP3    H211743   0.453   3.336   1.747
 3934TIP3   OH211744   5.442   6.716   4.722
 3934TIP3    H111745   5.529   6.754   4.708
 3934TIP3    H211746   5.391   6.743   4.645
 3935TIP3   OH211747   2.652   7.071   2.374
 3935TIP3    H111748   2.677   7.164   2.369
 3935TIP3    H211749   2.567   7.072   2.419
 3936TIP3   OH211750   7.236   0.782   0.414
 3936TIP3    H111751   7.256   0.866   0.372
 3936TIP3    H211752   7.264   0.717   0.350
 3937TIP3   OH211753   7.207   3.768   3.023
 3937TIP3    H111754   7.249   3.784   2.939
 3937TIP3    H211755   7.115   3.752   3.001
 3938TIP3   OH211756   4.903   0.770   6.264
 3938TIP3    H111757   4.995   0.753   6.244
 3938TIP3    H211758   4.855   0.728   6.192
 3939TIP3   OH211759   4.751   4.113   3.180
 3939TIP3    H111760   4.680   4.123   3.244
 3939TIP3    H211761   4.811   4.050   3.220
 3940TIP3   OH211762   3.948   0.104   4.207
 3940TIP3    H111763   3.968   0.189   4.167
 3940TIP3    H211764   3.877   0.123   4.268
 3941TIP3   OH211765   1.056   4.393   2.219
 3941TIP3    H111766   1.149   4.406   2.239
 3941TIP3    H211767   1.042   4.299   2.234
 3942TIP3   OH211768   3.670   7.805   0.211
 3942TIP3    H111769   3.731   7.871   0.179
 3942TIP3    H211770   3.707   7.777   0.295
 3943TIP3   OH211771   0.137   4.700   5.993
 3943TIP3    H111772   0.233   4.694   5.991
 3943TIP3    H211773   0.114   4.671   6.081
 3944TIP3   OH211774   7.097   5.627   2.602
 3944TIP3    H111775   7.046   5.577   2.666
 3944TIP3    H211776   7.056   5.713   2.600
 3945TIP3   OH211777   4.502   5.179   0.244
 3945TIP3    H111778   4.559   5.227   0.184
 3945TIP3    H211779   4.533   5.089   0.240
 3946TIP3   OH211780   4.023   0.066   5.747
 3946TIP3    H111781   4.017   0.161   5.750
 3946TIP3    H211782   3.945   0.036   5.794
 3947TIP3   OH211783   7.766   1.615   2.405
 3947TIP3    H111784   7.791   1.582   2.491
 3947TIP3    H211785   7.737   1.538   2.357
 3948TIP3   OH211786   5.637   0.496   6.419
 3948TIP3    H111787   5.581   0.419   6.427
 3948TIP3    H211788   5.618   0.530   6.331
 3949TIP3   OH211789   2.243   6.270   3.387
 3949TIP3    H111790   2.234   6.294   3.295
 3949TIP3    H211791   2.295   6.341   3.425
 3950TIP3   OH211792   1.571   1.652   5.881
 3950TIP3    H111793   1.658   1.690   5.896
 3950TIP3    H211794   1.572   1.627   5.788
 3951TIP3   OH211795   8.095   4.804   1.801
 3951TIP3    H111796   8.020   4.800   1.742
 3951TIP3    H211797   8.171   4.792   1.744
 3952TIP3   OH211798   8.244   3.969   4.619
 3952TIP3    H111799   8.216   3.884   4.585
 3952TIP3    H211800   8.195   3.980   4.701
 3953TIP3   OH211801   1.151   2.253   2.892
 3953TIP3    H111802   1.110   2.178   2.848
 3953TIP3    H211803   1.225   2.215   2.940
 3954TIP3   OH211804   1.748   6.338   4.611
 3954TIP3    H111805   1.792   6.255   4.628
 3954TIP3    H211806   1.679   6.343   4.677
 3955TIP3   OH211807   3.740   6.305   1.831
 3955TIP3    H111808   3.686   6.375   1.868
 3955TIP3    H211809   3.751   6.243   1.903
 3956TIP3   OH211810   0.799   4.772   5.026
 3956TIP3    H111811   0.783   4.823   5.105
 3956TIP3    H211812   0.713   4.743   4.997
 3957TIP3   OH211813   7.174   1.072   5.879
 3957TIP3    H111814   7.118   1.145   5.906
 3957TIP3    H211815   7.118   0.995   5.886
 3958TIP3   OH211816   4.303   6.248   4.236
 3958TIP3    H111817   4.262   6.235   4.150
 3958TIP3    H211818   4.291   6.165   4.282
 3959TIP3   OH211819   6.377   5.139   0.734
 3959TIP3    H111820   6.364   5.150   0.640
 3959TIP3    H211821   6.291   5.114   0.767
 3960TIP3   OH211822   0.386   0.056   5.042
 3960TIP3    H111823   0.472   0.023   5.067
 3960TIP3    H211824   0.329   0.030   5.115
 3961TIP3   OH211825   8.085   2.377  -0.012
 3961TIP3    H111826   8.148   2.305  -0.013
 3961TIP3    H211827   8.071   2.395   0.081
 3962TIP3   OH211828   4.763   4.278   1.658
 3962TIP3    H111829   4.818   4.200   1.652
 3962TIP3    H211830   4.691   4.262   1.597
 3963TIP3   OH211831   2.985   4.131   6.437
 3963TIP3    H111832   2.991   4.090   6.351
 3963TIP3    H211833   2.974   4.224   6.418
 3964TIP3   OH211834   7.888   5.044   3.968
 3964TIP3    H111835   7.807   4.994   3.955
 3964TIP3    H211836   7.935   5.035   3.885
 3965TIP3   OH211837   8.258   0.841   4.001
 3965TIP3    H111838   8.173   0.838   3.956
 3965TIP3    H211839   8.314   0.782   3.950
 3966TIP3   OH211840   8.242   0.137   1.294
 3966TIP3    H111841   8.241   0.205   1.362
 3966TIP3    H211842   8.271   0.183   1.215
 3967TIP3   OH211843   1.534   3.436   3.157
 3967TIP3    H111844   1.493   3.370   3.212
 3967TIP3    H211845   1.626   3.436   3.185
 3968TIP3   OH211846   8.121   4.818   3.949
 3968TIP3    H111847   8.153   4.905   3.926
 3968TIP3    H211848   8.194   4.759   3.927
 3969TIP3   OH211849   4.542   5.924   5.562
 3969TIP3    H111850   4.500   5.957   5.641
 3969TIP3    H211851   4.622   5.881   5.593
 3970TIP3   OH211852   6.621   6.367   3.632
 3970TIP3    H111853   6.710   6.339   3.611
 3970TIP3    H211854   6.593   6.308   3.702
 3971TIP3   OH211855   6.317   3.627   5.742
 3971TIP3    H111856   6.361   3.707   5.771
 3971TIP3    H211857   6.335   3.622   5.648
 3972TIP3   OH211858   0.559   3.506   1.269
 3972TIP3    H111859   0.558   3.596   1.236
 3972TIP3    H211860   0.650   3.477   1.255
 3973TIP3   OH211861   4.526   2.536   3.337
 3973TIP3    H111862   4.527   2.620   3.291
 3973TIP3    H211863   4.597   2.486   3.297
 3974TIP3   OH211864   0.170   7.369   4.911
 3974TIP3    H111865   0.199   7.459   4.896
 3974TIP3    H211866   0.178   7.357   5.006
 3975TIP3   OH211867   1.855   1.148   1.616
 3975TIP3    H111868   1.946   1.171   1.632
 3975TIP3    H211869   1.805   1.202   1.677
 3976TIP3   OH211870   4.867   4.146   2.903
 3976TIP3    H111871   4.876   4.066   2.954
 3976TIP3    H211872   4.817   4.205   2.959
 3977TIP3   OH211873   4.805   1.060   5.908
 3977TIP3    H111874   4.757   0.979   5.928
 3977TIP3    H211875   4.894   1.043   5.940
 3978TIP3   OH211876   3.028   6.236   4.469
 3978TIP3    H111877   3.058   6.146   4.459
 3978TIP3    H211878   2.942   6.228   4.509
 3979TIP3   OH211879   1.247   0.308   3.893
 3979TIP3    H111880   1.325   0.350   3.858
 3979TIP3    H211881   1.196   0.284   3.816
 3980TIP3   OH211882   1.207   5.804   0.741
 3980TIP3    H111883   1.246   5.753   0.812
 3980TIP3    H211884   1.159   5.874   0.785
 3981TIP3   OH211885   1.793   1.282   2.821
 3981TIP3    H111886   1.875   1.232   2.821
 3981TIP3    H211887   1.807   1.349   2.754
 3982TIP3   OH211888   1.440   3.081   0.508
 3982TIP3    H111889   1.475   3.083   0.419
 3982TIP3    H211890   1.353   3.042   0.499
 3983TIP3   OH211891   1.458   1.508   4.754
 3983TIP3    H111892   1.505   1.475   4.831
 3983TIP3    H211893   1.451   1.432   4.696
 3984TIP3   OH211894   0.562   1.649   5.776
 3984TIP3    H111895   0.614   1.683   5.849
 3984TIP3    H211896   0.560   1.720   5.713
 3985TIP3   OH211897   5.905   7.535   4.708
 3985TIP3    H111898   5.868   7.607   4.760
 3985TIP3    H211899   5.828   7.490   4.672
 3986TIP3   OH211900   2.766   4.236   3.171
 3986TIP3    H111901   2.776   4.286   3.090
 3986TIP3    H211902   2.678   4.259   3.202
 3987TIP3   OH211903   6.134   2.871   6.688
 3987TIP3    H111904   6.086   2.829   6.759
 3987TIP3    H211905   6.180   2.799   6.644
 3988TIP3   OH211906   0.991   2.218   1.836
 3988TIP3    H111907   1.032   2.265   1.909
 3988TIP3    H211908   1.015   2.268   1.758
 3989TIP3   OH211909   1.964   6.913   1.835
 3989TIP3    H111910   1.973   6.828   1.877
 3989TIP3    H211911   1.902   6.961   1.890
 3990TIP3   OH211912   5.439   5.489   4.363
 3990TIP3    H111913   5.456   5.577   4.396
 3990TIP3    H211914   5.516   5.467   4.310
 3991TIP3   OH211915   5.092   1.969   6.023
 3991TIP3    H111916   5.151   1.962   6.098
 3991TIP3    H211917   5.104   2.058   5.991
 3992TIP3   OH211918   4.142   3.318   6.036
 3992TIP3    H111919   4.179   3.360   5.958
 3992TIP3    H211920   4.099   3.389   6.083
 3993TIP3   OH211921   6.548   4.881   6.361
 3993TIP3    H111922   6.635   4.846   6.344
 3993TIP3    H211923   6.513   4.902   6.275
 3994TIP3   OH211924   7.917   3.804   5.876
 3994TIP3    H111925   7.845   3.830   5.819
 3994TIP3    H211926   7.995   3.812   5.821
 3995TIP3   OH211927   3.075   5.150   2.583
 3995TIP3    H111928   3.040   5.205   2.653
 3995TIP3    H211929   3.163   5.185   2.568
 3996TIP3   OH211930   2.201   2.572   1.718
 3996TIP3    H111931   2.178   2.515   1.792
 3996TIP3    H211932   2.116   2.601   1.683
 3997TIP3   OH211933   2.557   2.475   0.092
 3997TIP3    H111934   2.471   2.442   0.119
 3997TIP3    H211935   2.595   2.403   0.041
 3998TIP3   OH211936   1.847   0.854   0.390
 3998TIP3    H111937   1.793   0.818   0.460
 3998TIP3    H211938   1.785   0.885   0.325
 3999TIP3   OH211939   5.249   4.873   4.972
 3999TIP3    H111940   5.175   4.821   4.942
 3999TIP3    H211941   5.240   4.957   4.927
 4000TIP3   OH211942   0.687   7.277   5.306
 4000TIP3    H111943   0.682   7.199   5.362
 4000TIP3    H211944   0.607   7.274   5.253
 4001TIP3   OH211945   2.549   6.718   4.079
 4001TIP3    H111946   2.644   6.726   4.069
 4001TIP3    H211947   2.537   6.645   4.139
 4002TIP3   OH211948   0.977   3.088   6.462
 4002TIP3    H111949   1.052   3.104   6.406
 4002TIP3    H211950   0.927   3.020   6.417
 4003TIP3   OH211951   3.530   0.893   4.152
 4003TIP3    H111952   3.622   0.873   4.169
 4003TIP3    H211953   3.490   0.899   4.239
 4004TIP3   OH211954   0.284   4.179   5.914
 4004TIP3    H111955   0.232   4.132   5.980
 4004TIP3    H211956   0.222   4.200   5.845
 4005TIP3   OH211957   6.118   5.795   2.148
 4005TIP3    H111958   6.079   5.835   2.070
 4005TIP3    H211959   6.076   5.841   2.221
 4006TIP3   OH211960   1.370   5.582   2.117
 4006TIP3    H111961   1.317   5.661   2.132
 4006TIP3    H211962   1.457   5.616   2.095
 4007TIP3   OH211963   4.149   6.503   0.398
 4007TIP3    H111964   4.062   6.470   0.375
 4007TIP3    H211965   4.134   6.556   0.476
 4008TIP3   OH211966   4.658   2.222   1.803
 4008TIP3    H111967   4.608   2.151   1.762
 4008TIP3    H211968   4.691   2.274   1.730
 4009TIP3   OH211969   1.067   6.751   4.967
 4009TIP3    H111970   1.141   6.803   4.999
 4009TIP3    H211971   1.098   6.660   4.974
 4010TIP3   OH211972   4.574   6.475   1.894
 4010TIP3    H111973   4.508   6.545   1.896
 4010TIP3    H211974   4.619   6.487   1.811
 4011TIP3   OH211975   1.516   1.641   0.743
 4011TIP3    H111976   1.452   1.623   0.674
 4011TIP3    H211977   1.464   1.648   0.823
 4012TIP3   OH211978   4.714   1.739   5.592
 4012TIP3    H111979   4.645   1.677   5.568
 4012TIP3    H211980   4.753   1.766   5.509
 4013TIP3   OH211981   7.404   1.215   3.031
 4013TIP3    H111982   7.347   1.186   3.102
 4013TIP3    H211983   7.351   1.208   2.952
 4014TIP3   OH211984   1.443   2.880   0.927
 4014TIP3    H111985   1.428   2.840   1.013
 4014TIP3    H211986   1.537   2.896   0.924
 4015TIP3   OH211987   7.336   5.053   5.931
 4015TIP3    H111988   7.277   5.001   5.878
 4015TIP3    H211989   7.300   5.142   5.929
 4016TIP3   OH211990   6.869   3.604   2.269
 4016TIP3    H111991   6.951   3.647   2.291
 4016TIP3    H211992   6.831   3.659   2.200
 4017TIP3   OH211993   0.896   3.025   3.828
 4017TIP3    H111994   0.808   3.045   3.861
 4017TIP3    H211995   0.932   2.964   3.893
 4018TIP3   OH211996   3.473   2.709   0.498
 4018TIP3    H111997   3.381   2.692   0.518
 4018TIP3    H211998   3.519   2.693   0.581
 4019TIP3   OH211999   1.888   7.632   5.495
 4019TIP3    H112000   1.832   7.560   5.524
 4019TIP3    H212001   1.976   7.605   5.520
 4020TIP3   OH212002   0.981   0.912   4.169
 4020TIP3    H112003   1.047   0.861   4.217
 4020TIP3    H212004   0.947   0.852   4.104
 4021TIP3   OH212005   5.021   0.864   3.719
 4021TIP3    H112006   5.083   0.907   3.660
 4021TIP3    H212007   4.936   0.901   3.696
 4022TIP3   OH212008   1.817   5.753   3.478
 4022TIP3    H112009   1.839   5.845   3.465
 4022TIP3    H212010   1.721   5.753   3.487
 4023TIP3   OH212011   0.305   0.173   6.297
 4023TIP3    H112012   0.307   0.083   6.265
 4023TIP3    H212013   0.391   0.187   6.336
 4024TIP3   OH212014   6.504   6.447   3.388
 4024TIP3    H112015   6.555   6.431   3.467
 4024TIP3    H212016   6.460   6.531   3.404
 4025TIP3   OH212017   6.656   0.658   0.496
 4025TIP3    H112018   6.564   0.634   0.481
 4025TIP3    H212019   6.664   0.665   0.592
 4026TIP3   OH212020   7.116   7.052   3.611
 4026TIP3    H112021   7.162   6.969   3.596
 4026TIP3    H212022   7.051   7.030   3.679
 4027TIP3   OH212023   5.374   0.579   1.544
 4027TIP3    H112024   5.417   0.494   1.552
 4027TIP3    H212025   5.383   0.618   1.631
 4028TIP3   OH212026   1.414   4.914   6.740
 4028TIP3    H112027   1.388   4.851   6.807
 4028TIP3    H212028   1.379   4.879   6.659
 4029TIP3   OH212029   5.686   6.864   4.723
 4029TIP3    H112030   5.738   6.791   4.756
 4029TIP3    H212031   5.745   6.910   4.663
 4030TIP3   OH212032   7.341   1.298   6.523
 4030TIP3    H112033   7.408   1.335   6.580
 4030TIP3    H212034   7.264   1.287   6.580
 4031TIP3   OH212035   0.373   6.054   0.621
 4031TIP3    H112036   0.449   6.111   0.621
 4031TIP3    H212037   0.332   6.067   0.535
 4032TIP3   OH212038   1.385   3.536   3.754
 4032TIP3    H112039   1.336   3.578   3.826
 4032TIP3    H212040   1.471   3.518   3.791
 4033TIP3   OH212041   6.142   5.775   6.566
 4033TIP3    H112042   6.087   5.731   6.631
 4033TIP3    H212043   6.217   5.716   6.554
 4034TIP3   OH212044   3.562   0.069   4.655
 4034TIP3    H112045   3.632   0.022   4.701
 4034TIP3    H212046   3.602   0.099   4.574
 4035TIP3   OH212047   1.154   5.544   0.114
 4035TIP3    H112048   1.170   5.561   0.021
 4035TIP3    H212049   1.136   5.450   0.118
 4036TIP3   OH212050   7.142   3.690   6.255
 4036TIP3    H112051   7.166   3.662   6.167
 4036TIP3    H212052   7.092   3.617   6.291
 4037TIP3   OH212053   5.116   6.515   2.389
 4037TIP3    H112054   5.115   6.600   2.345
 4037TIP3    H212055   5.047   6.522   2.456
 4038TIP3   OH212056   7.354   0.065   5.021
 4038TIP3    H112057   7.375   0.152   5.055
 4038TIP3    H212058   7.434   0.036   4.977
 4039TIP3   OH212059   0.667   0.027   5.509
 4039TIP3    H112060   0.661   0.090   5.437
 4039TIP3    H212061   0.583   0.033   5.553
 4040TIP3   OH212062   0.325   5.125   2.352
 4040TIP3    H112063   0.349   5.218   2.357
 4040TIP3    H212064   0.364   5.086   2.430
 4041TIP3   OH212065   7.849   6.769   6.100
 4041TIP3    H112066   7.898   6.693   6.131
 4041TIP3    H212067   7.909   6.843   6.113
 4042TIP3   OH212068   1.698   3.122   1.861
 4042TIP3    H112069   1.729   3.204   1.821
 4042TIP3    H212070   1.617   3.102   1.814
 4043TIP3   OH212071   4.531   6.644   2.614
 4043TIP3    H112072   4.496   6.647   2.525
 4043TIP3    H212073   4.607   6.702   2.612
 4044TIP3   OH212074   3.007   2.321   1.151
 4044TIP3    H112075   2.994   2.388   1.083
 4044TIP3    H212076   3.034   2.370   1.228
 4045TIP3   OH212077   7.351   5.581   1.216
 4045TIP3    H112078   7.303   5.527   1.153
 4045TIP3    H212079   7.297   5.578   1.295
 4046TIP3   OH212080   5.057   0.822   2.260
 4046TIP3    H112081   5.044   0.825   2.165
 4046TIP3    H212082   5.139   0.870   2.274
 4047TIP3   OH212083   0.038   2.141   3.272
 4047TIP3    H112084   0.011   2.129   3.181
 4047TIP3    H212085   0.002   2.226   3.297
 4048TIP3   OH212086   4.151   0.574   0.980
 4048TIP3    H112087   4.238   0.535   0.981
 4048TIP3    H212088   4.161   0.657   1.027
 4049TIP3   OH212089   0.226   2.784   2.934
 4049TIP3    H112090   0.181   2.700   2.921
 4049TIP3    H212091   0.161   2.840   2.975
 4050TIP3   OH212092   1.382   3.775   3.313
 4050TIP3    H112093   1.386   3.684   3.342
 4050TIP3    H212094   1.294   3.783   3.275
 4051TIP3   OH212095   4.520   7.441   4.949
 4051TIP3    H112096   4.535   7.409   4.860
 4051TIP3    H212097   4.511   7.361   5.001
 4052TIP3   OH212098   7.340   4.855   2.059
 4052TIP3    H112099   7.389   4.911   1.998
 4052TIP3    H212100   7.338   4.769   2.016
 4053TIP3   OH212101   4.533   5.113   0.566
 4053TIP3    H112102   4.494   5.134   0.481
 4053TIP3    H212103   4.509   5.187   0.622
 4054TIP3   OH212104   4.593   0.574   6.255
 4054TIP3    H112105   4.596   0.535   6.168
 4054TIP3    H212106   4.507   0.615   6.261
 4055TIP3   OH212107   5.216   1.365   1.973
 4055TIP3    H112108   5.284   1.315   1.928
 4055TIP3    H212109   5.228   1.344   2.066
 4056TIP3   OH212110   3.595   3.741   5.937
 4056TIP3    H112111   3.639   3.675   5.883
 4056TIP3    H212112   3.535   3.785   5.876
 4057TIP3   OH212113   3.037   5.005   5.654
 4057TIP3    H112114   3.005   4.945   5.721
 4057TIP3    H212115   2.974   4.996   5.582
 4058TIP3   OH212116   7.333   7.009   0.798
 4058TIP3    H112117   7.326   7.068   0.723
 4058TIP3    H212118   7.427   7.005   0.816
 4059TIP3   OH212119   2.827   3.762   5.041
 4059TIP3    H112120   2.748   3.749   5.093
 4059TIP3    H212121   2.883   3.816   5.097
 4060TIP3   OH212122   4.214   4.636   1.767
 4060TIP3    H112123   4.166   4.660   1.687
 4060TIP3    H212124   4.175   4.690   1.835
 4061TIP3   OH212125   1.358   0.426   4.490
 4061TIP3    H112126   1.271   0.463   4.506
 4061TIP3    H212127   1.380   0.380   4.571
 4062TIP3   OH212128   3.695   6.000   4.147
 4062TIP3    H112129   3.787   6.022   4.156
 4062TIP3    H212130   3.694   5.922   4.092
 4063TIP3   OH212131   1.276   1.512   0.227
 4063TIP3    H112132   1.277   1.417   0.216
 4063TIP3    H212133   1.212   1.527   0.297
 4064TIP3   OH212134   4.721   1.271   0.538
 4064TIP3    H112135   4.811   1.258   0.567
 4064TIP3    H212136   4.721   1.242   0.446
 4065TIP3   OH212137   1.293   2.074   5.042
 4065TIP3    H112138   1.329   2.010   4.981
 4065TIP3    H212139   1.330   2.158   5.015
 4066TIP3   OH212140   6.316   1.134   1.824
 4066TIP3    H112141   6.232   1.168   1.792
 4066TIP3    H212142   6.295   1.095   1.909
 4067TIP3   OH212143   0.917   5.517   4.040
 4067TIP3    H112144   0.822   5.529   4.042
 4067TIP3    H212145   0.953   5.604   4.056
 4068TIP3   OH212146   5.833   5.533   5.755
 4068TIP3    H112147   5.870   5.621   5.745
 4068TIP3    H212148   5.778   5.520   5.679
 4069TIP3   OH212149   3.470   1.374   1.506
 4069TIP3    H112150   3.414   1.331   1.571
 4069TIP3    H212151   3.547   1.402   1.556
 4070TIP3   OH212152   7.777   5.125   4.521
 4070TIP3    H112153   7.720   5.060   4.480
 4070TIP3    H212154   7.756   5.207   4.475
 4071TIP3   OH212155   7.094   4.256   0.991
 4071TIP3    H112156   7.059   4.220   0.910
 4071TIP3    H212157   7.181   4.289   0.967
 4072TIP3   OH212158   8.102   3.387   3.578
 4072TIP3    H112159   8.125   3.358   3.666
 4072TIP3    H212160   8.066   3.475   3.590
 4073TIP3   OH212161   4.999   4.412   4.555
 4073TIP3    H112162   4.957   4.342   4.604
 4073TIP3    H212163   5.084   4.423   4.596
 4074TIP3   OH212164   1.032   7.039   4.499
 4074TIP3    H112165   1.035   7.117   4.554
 4074TIP3    H212166   1.050   6.967   4.559
 4075TIP3   OH212167   4.727   0.610   5.103
 4075TIP3    H112168   4.697   0.584   5.190
 4075TIP3    H212169   4.669   0.564   5.042
 4076TIP3   OH212170   5.555   1.251   5.520
 4076TIP3    H112171   5.535   1.157   5.524
 4076TIP3    H212172   5.650   1.255   5.534
 4077TIP3   OH212173   5.065   7.649   6.326
 4077TIP3    H112174   4.982   7.659   6.279
 4077TIP3    H212175   5.039   7.644   6.418
 4078TIP3   OH212176   5.800   4.140   6.095
 4078TIP3    H112177   5.743   4.216   6.088
 4078TIP3    H212178   5.834   4.127   6.006
 4079TIP3   OH212179   5.292   5.022   3.926
 4079TIP3    H112180   5.198   5.002   3.922
 4079TIP3    H212181   5.298   5.091   3.992
 4080TIP3   OH212182   2.100   3.626   3.119
 4080TIP3    H112183   2.145   3.624   3.204
 4080TIP3    H212184   2.015   3.586   3.136
 4081TIP3   OH212185   0.069   1.770   1.079
 4081TIP3    H112186   0.092   1.682   1.048
 4081TIP3    H212187   0.042   1.818   1.001
 4082TIP3   OH212188   2.122   3.839   4.427
 4082TIP3    H112189   2.105   3.830   4.333
 4082TIP3    H212190   2.193   3.777   4.444
 4083TIP3   OH212191   4.491   1.071   5.814
 4083TIP3    H112192   4.566   1.078   5.754
 4083TIP3    H212193   4.415   1.091   5.760
 4084TIP3   OH212194   0.425   2.287   0.643
 4084TIP3    H112195   0.444   2.381   0.642
 4084TIP3    H212196   0.510   2.245   0.639
 4085TIP3   OH212197   6.330   0.033   0.604
 4085TIP3    H112198   6.280   0.049   0.684
 4085TIP3    H212199   6.414   0.077   0.619
 4086TIP3   OH212200   7.484   1.302   2.064
 4086TIP3    H112201   7.434   1.221   2.069
 4086TIP3    H212202   7.503   1.312   1.971
 4087TIP3   OH212203   2.551   1.745   1.518
 4087TIP3    H112204   2.557   1.650   1.514
 4087TIP3    H212205   2.638   1.773   1.547
 4088TIP3   OH212206   7.581   1.872   1.697
 4088TIP3    H112207   7.598   1.962   1.669
 4088TIP3    H212208   7.490   1.872   1.725
 4089TIP3   OH212209   4.304   4.679   6.257
 4089TIP3    H112210   4.339   4.629   6.330
 4089TIP3    H212211   4.320   4.625   6.180
 4090TIP3   OH212212   0.077   2.735   5.022
 4090TIP3    H112213   0.162   2.764   5.056
 4090TIP3    H212214   0.100   2.665   4.960
 4091TIP3   OH212215   6.287   7.108   4.722
 4091TIP3    H112216   6.382   7.106   4.729
 4091TIP3    H212217   6.257   7.059   4.798
 4092TIP3   OH212218   5.029   0.222   3.914
 4092TIP3    H112219   4.973   0.293   3.884
 4092TIP3    H212220   5.009   0.212   4.007
 4093TIP3   OH212221   4.178   2.422   6.381
 4093TIP3    H112222   4.253   2.379   6.339
 4093TIP3    H212223   4.108   2.357   6.378
 4094TIP3   OH212224   3.842   1.799   2.521
 4094TIP3    H112225   3.889   1.718   2.501
 4094TIP3    H212226   3.852   1.853   2.443
 4095TIP3   OH212227   5.814   4.428   0.110
 4095TIP3    H112228   5.729   4.396   0.140
 4095TIP3    H212229   5.872   4.416   0.185
 4096TIP3   OH212230   4.986   0.978   1.509
 4096TIP3    H112231   4.906   0.927   1.516
 4096TIP3    H212232   4.961   1.066   1.536
 4097TIP3   OH212233   6.036   2.414   6.406
 4097TIP3    H112234   6.093   2.490   6.395
 4097TIP3    H212235   5.953   2.440   6.365
 4098TIP3   OH212236   1.170   5.320   2.818
 4098TIP3    H112237   1.104   5.330   2.750
 4098TIP3    H212238   1.240   5.269   2.777
 4099TIP3   OH212239   5.952   4.941   4.963
 4099TIP3    H112240   6.008   4.991   4.904
 4099TIP3    H212241   6.000   4.859   4.978
 4100TIP3   OH212242   0.226   5.389   2.097
 4100TIP3    H112243   0.155   5.338   2.135
 4100TIP3    H212244   0.286   5.405   2.170
 4101TIP3   OH212245   6.404   6.312   6.032
 4101TIP3    H112246   6.371   6.399   6.011
 4101TIP3    H212247   6.384   6.300   6.125
 4102TIP3   OH212248   2.778   7.061   5.105
 4102TIP3    H112249   2.723   7.086   5.030
 4102TIP3    H212250   2.802   6.970   5.088
 4103TIP3   OH212251   3.813   5.623   4.248
 4103TIP3    H112252   3.727   5.582   4.238
 4103TIP3    H212253   3.801   5.688   4.317
 4104TIP3   OH212254   6.549   2.180   1.233
 4104TIP3    H112255   6.517   2.106   1.180
 4104TIP3    H212256   6.470   2.231   1.251
 4105TIP3   OH212257   3.464   1.952   0.536
 4105TIP3    H112258   3.424   2.000   0.463
 4105TIP3    H212259   3.547   1.921   0.500
 4106TIP3   OH212260   2.464   0.172   3.119
 4106TIP3    H112261   2.488   0.262   3.099
 4106TIP3    H212262   2.547   0.128   3.135
 4107TIP3   OH212263   6.691   6.010   3.741
 4107TIP3    H112264   6.727   6.091   3.705
 4107TIP3    H212265   6.694   5.949   3.667
 4108TIP3   OH212266   7.159   4.090   3.434
 4108TIP3    H112267   7.106   4.131   3.502
 4108TIP3    H212268   7.097   4.069   3.364
 4109TIP3   OH212269   7.915   4.476   1.016
 4109TIP3    H112270   7.859   4.399   1.002
 4109TIP3    H212271   8.003   4.446   0.996
 4110TIP3   OH212272   3.120   6.607   1.174
 4110TIP3    H112273   3.185   6.661   1.129
 4110TIP3    H212274   3.043   6.611   1.117
 4111TIP3   OH212275   8.012   2.990   1.668
 4111TIP3    H112276   7.957   2.926   1.622
 4111TIP3    H212277   7.983   3.075   1.634
 4112TIP3   OH212278   1.927   4.358   4.955
 4112TIP3    H112279   1.980   4.315   4.888
 4112TIP3    H212280   1.919   4.448   4.925
 4113TIP3   OH212281   1.346   6.111   1.395
 4113TIP3    H112282   1.342   6.184   1.333
 4113TIP3    H212283   1.257   6.076   1.396
 4114TIP3   OH212284   6.721   0.662   4.998
 4114TIP3    H112285   6.769   0.703   4.926
 4114TIP3    H212286   6.754   0.573   5.002
 4115TIP3   OH212287   3.090   1.658   2.010
 4115TIP3    H112288   3.055   1.635   1.923
 4115TIP3    H212289   3.180   1.684   1.993
 4116TIP3   OH212290   5.970   6.041   6.731
 4116TIP3    H112291   6.014   6.069   6.650
 4116TIP3    H212292   5.980   6.115   6.790
 4117TIP3   OH212293   6.869   1.434   0.355
 4117TIP3    H112294   6.856   1.343   0.329
 4117TIP3    H212295   6.936   1.430   0.423
 4118TIP3   OH212296   4.805   2.115   4.642
 4118TIP3    H112297   4.797   2.060   4.564
 4118TIP3    H212298   4.791   2.204   4.611
 4119TIP3   OH212299   1.204   6.324   5.776
 4119TIP3    H112300   1.152   6.372   5.840
 4119TIP3    H212301   1.165   6.345   5.691
 4120TIP3   OH212302   3.825   2.026   3.258
 4120TIP3    H112303   3.787   2.081   3.189
 4120TIP3    H212304   3.893   2.081   3.297
 4121TIP3   OH212305   4.059   3.950   3.095
 4121TIP3    H112306   4.120   3.877   3.087
 4121TIP3    H212307   3.973   3.912   3.076
 4122TIP3   OH212308   8.093   7.255   3.170
 4122TIP3    H112309   8.030   7.207   3.224
 4122TIP3    H212310   8.135   7.316   3.230
 4123TIP3   OH212311   2.487   7.209   5.747
 4123TIP3    H112312   2.421   7.205   5.817
 4123TIP3    H212313   2.543   7.133   5.763
 4124TIP3   OH212314   3.759   1.534   1.215
 4124TIP3    H112315   3.851   1.561   1.214
 4124TIP3    H212316   3.710   1.615   1.202
 4125TIP3   OH212317   1.003   0.048   5.528
 4125TIP3    H112318   1.061   0.031   5.454
 4125TIP3    H212319   0.918   0.013   5.501
 4126TIP3   OH212320   0.434   6.056   0.218
 4126TIP3    H112321   0.370   6.022   0.280
 4126TIP3    H212322   0.500   5.987   0.211
 4127TIP3   OH212323   3.146   3.627   3.271
 4127TIP3    H112324   3.148   3.652   3.179
 4127TIP3    H212325   3.204   3.689   3.314
 4128TIP3   OH212326   5.144   2.677   5.220
 4128TIP3    H112327   5.142   2.582   5.217
 4128TIP3    H212328   5.227   2.702   5.180
 4129TIP3   OH212329   6.853   6.719   0.103
 4129TIP3    H112330   6.836   6.776   0.177
 4129TIP3    H212331   6.802   6.755   0.031
 4130TIP3   OH212332   6.510   6.843   6.267
 4130TIP3    H112333   6.571   6.866   6.197
 4130TIP3    H212334   6.499   6.748   6.260
 4131TIP3   OH212335   6.764   4.795   6.223
 4131TIP3    H112336   6.849   4.752   6.213
 4131TIP3    H212337   6.715   4.770   6.144
 4132TIP3   OH212338   1.001   7.641   1.041
 4132TIP3    H112339   1.085   7.671   1.008
 4132TIP3    H212340   0.979   7.565   0.987
 4133TIP3   OH212341   6.111   5.356   6.206
 4133TIP3    H112342   6.078   5.423   6.267
 4133TIP3    H212343   6.156   5.293   6.262
 4134TIP3   OH212344   1.166   0.341   5.406
 4134TIP3    H112345   1.075   0.349   5.434
 4134TIP3    H212346   1.160   0.326   5.311
 4135TIP3   OH212347   8.260   6.610   2.134
 4135TIP3    H112348   8.178   6.572   2.166
 4135TIP3    H212349   8.284   6.555   2.060
 4136TIP3   OH212350   6.165   7.662   4.613
 4136TIP3    H112351   6.165   7.734   4.676
 4136TIP3    H212352   6.081   7.619   4.626
 4137TIP3   OH212353   1.106   3.283   2.396
 4137TIP3    H112354   1.095   3.238   2.480
 4137TIP3    H212355   1.017   3.301   2.367
 4138TIP3   OH212356   7.417   7.343   4.342
 4138TIP3    H112357   7.374   7.302   4.267
 4138TIP3    H212358   7.499   7.377   4.308
 4139TIP3   OH212359   8.081   7.415   1.831
 4139TIP3    H112360   8.126   7.382   1.753
 4139TIP3    H212361   7.992   7.432   1.801
 4140TIP3   OH212362   6.936   1.656   4.571
 4140TIP3    H112363   6.965   1.743   4.543
 4140TIP3    H212364   6.991   1.595   4.522
 4141TIP3   OH212365   4.153   4.606   0.405
 4141TIP3    H112366   4.178   4.693   0.372
 4141TIP3    H212367   4.057   4.608   0.408
 4142TIP3   OH212368   7.739   5.687   1.633
 4142TIP3    H112369   7.779   5.774   1.640
 4142TIP3    H212370   7.777   5.638   1.706
 4143TIP3   OH212371   2.445   1.556   0.883
 4143TIP3    H112372   2.354   1.575   0.860
 4143TIP3    H212373   2.456   1.595   0.969
 4144TIP3   OH212374   3.423   0.443   4.933
 4144TIP3    H112375   3.436   0.348   4.931
 4144TIP3    H212376   3.452   0.473   4.847
 4145TIP3   OH212377   7.725   2.930   0.427
 4145TIP3    H112378   7.637   2.951   0.396
 4145TIP3    H212379   7.784   2.965   0.360
 4146TIP3   OH212380   5.135   1.133   6.438
 4146TIP3    H112381   5.230   1.130   6.439
 4146TIP3    H212382   5.108   1.072   6.507
 4147TIP3   OH212383   8.058   6.455   2.277
 4147TIP3    H112384   8.114   6.382   2.304
 4147TIP3    H212385   7.987   6.413   2.228
 4148TIP3   OH212386   2.487   6.337   5.957
 4148TIP3    H112387   2.571   6.362   5.917
 4148TIP3    H212388   2.476   6.246   5.932
 4149TIP3   OH212389   4.567   4.994   1.320
 4149TIP3    H112390   4.479   5.021   1.292
 4149TIP3    H212391   4.621   5.008   1.243
 4150TIP3   OH212392   4.552   4.009   5.786
 4150TIP3    H112393   4.524   3.920   5.806
 4150TIP3    H212394   4.564   4.009   5.691
 4151TIP3   OH212395   7.814   4.034   6.186
 4151TIP3    H112396   7.860   3.957   6.153
 4151TIP3    H212397   7.727   4.003   6.209
 4152TIP3   OH212398   2.584   1.483   0.206
 4152TIP3    H112399   2.656   1.501   0.267
 4152TIP3    H212400   2.577   1.388   0.203
 4153TIP3   OH212401   0.340   0.042   1.784
 4153TIP3    H112402   0.337   0.073   1.694
 4153TIP3    H212403   0.411   0.092   1.824
 4154TIP3   OH212404   5.550   6.751   6.170
 4154TIP3    H112405   5.459   6.767   6.145
 4154TIP3    H212406   5.593   6.724   6.089
 4155TIP3   OH212407   7.668   2.595   4.916
 4155TIP3    H112408   7.730   2.530   4.883
 4155TIP3    H212409   7.649   2.650   4.840
 4156TIP3   OH212410   3.055   0.256   2.147
 4156TIP3    H112411   3.072   0.346   2.174
 4156TIP3    H212412   2.964   0.256   2.118
 4157TIP3   OH212413   0.985   7.348   4.266
 4157TIP3    H112414   1.022   7.313   4.186
 4157TIP3    H212415   1.030   7.301   4.336
 4158TIP3   OH212416   3.598   4.202   1.262
 4158TIP3    H112417   3.520   4.148   1.270
 4158TIP3    H212418   3.605   4.247   1.346
 4159TIP3   OH212419   7.671   1.042   6.076
 4159TIP3    H112420   7.600   1.034   6.139
 4159TIP3    H212421   7.722   0.961   6.088
 4160TIP3   OH212422   7.150   0.623   4.491
 4160TIP3    H112423   7.061   0.600   4.464
 4160TIP3    H212424   7.205   0.553   4.454
 4161TIP3   OH212425   5.137   4.977   4.496
 4161TIP3    H112426   5.130   4.889   4.534
 4161TIP3    H212427   5.212   4.971   4.437
 4162TIP3   OH212428   4.568   1.350   3.111
 4162TIP3    H112429   4.531   1.429   3.149
 4162TIP3    H212430   4.661   1.353   3.133
 4163TIP3   OH212431   5.557   7.653   6.254
 4163TIP3    H112432   5.557   7.667   6.349
 4163TIP3    H212433   5.512   7.569   6.243
 4164TIP3   OH212434   8.275   4.203   3.881
 4164TIP3    H112435   8.185   4.176   3.897
 4164TIP3    H212436   8.317   4.199   3.967
 4165TIP3   OH212437   5.328   1.216   6.133
 4165TIP3    H112438   5.354   1.219   6.225
 4165TIP3    H212439   5.325   1.123   6.112
 4166TIP3   OH212440   3.846   2.702   5.977
 4166TIP3    H112441   3.937   2.693   6.006
 4166TIP3    H212442   3.845   2.784   5.927
 4167TIP3   OH212443   0.841   1.576   3.160
 4167TIP3    H112444   0.900   1.637   3.206
 4167TIP3    H212445   0.772   1.632   3.125
 4168TIP3   OH212446   0.087   1.047   6.691
 4168TIP3    H112447  -0.006   1.064   6.677
 4168TIP3    H212448   0.126   1.056   6.605
 4169TIP3   OH212449   2.184   5.553   4.806
 4169TIP3    H112450   2.242   5.538   4.731
 4169TIP3    H212451   2.208   5.640   4.838
 4170TIP3   OH212452   6.965   4.056   2.217
 4170TIP3    H112453   6.957   4.016   2.303
 4170TIP3    H212454   7.054   4.036   2.189
 4171TIP3   OH212455   6.085   1.083   3.769
 4171TIP3    H112456   6.161   1.130   3.737
 4171TIP3    H212457   6.010   1.128   3.729
 4172TIP3   OH212458   0.130   3.660   4.643
 4172TIP3    H112459   0.063   3.683   4.579
 4172TIP3    H212460   0.084   3.608   4.709
 4173TIP3   OH212461   0.635   2.087   5.273
 4173TIP3    H112462   0.625   2.007   5.323
 4173TIP3    H212463   0.716   2.075   5.225
 4174TIP3   OH212464   1.402   4.747   5.107
 4174TIP3    H112465   1.498   4.738   5.111
 4174TIP3    H212466   1.380   4.729   5.016
 4175TIP3   OH212467   8.021   6.179   2.542
 4175TIP3    H112468   7.966   6.222   2.607
 4175TIP3    H212469   7.970   6.104   2.512
 4176TIP3   OH212470   0.938   7.416   0.185
 4176TIP3    H112471   0.871   7.411   0.253
 4176TIP3    H212472   0.942   7.328   0.148
 4177TIP3   OH212473   2.186   5.872   3.649
 4177TIP3    H112474   2.271   5.884   3.692
 4177TIP3    H212475   2.202   5.895   3.558
 4178TIP3   OH212476   2.180   5.318   2.849
 4178TIP3    H112477   2.242   5.383   2.816
 4178TIP3    H212478   2.113   5.369   2.895
 4179TIP3   OH212479   1.026   2.816   2.107
 4179TIP3    H112480   1.115   2.829   2.140
 4179TIP3    H212481   0.981   2.898   2.126
 4180TIP3   OH212482   0.525   5.331   1.289
 4180TIP3    H112483   0.558   5.286   1.367
 4180TIP3    H212484   0.456   5.274   1.255
 4181TIP3   OH212485   7.950   7.265   2.893
 4181TIP3    H112486   8.006   7.250   2.969
 4181TIP3    H212487   7.991   7.339   2.847
 4182TIP3   OH212488   4.342   6.598   3.339
 4182TIP3    H112489   4.340   6.662   3.268
 4182TIP3    H212490   4.425   6.552   3.328
 4183TIP3   OH212491   6.463   6.254   4.890
 4183TIP3    H112492   6.530   6.209   4.838
 4183TIP3    H212493   6.474   6.218   4.979
 4184TIP3   OH212494   7.607   3.344   1.713
 4184TIP3    H112495   7.529   3.354   1.659
 4184TIP3    H212496   7.643   3.432   1.721
 4185TIP3   OH212497   0.423   5.223   1.950
 4185TIP3    H112498   0.365   5.166   2.002
 4185TIP3    H212499   0.388   5.217   1.861
 4186TIP3   OH212500   0.518   3.330   0.683
 4186TIP3    H112501   0.536   3.260   0.746
 4186TIP3    H212502   0.439   3.301   0.637
 4187TIP3   OH212503   3.301   6.754   3.263
 4187TIP3    H112504   3.262   6.720   3.183
 4187TIP3    H212505   3.395   6.756   3.245
 4188TIP3   OH212506   5.348   3.806   3.539
 4188TIP3    H112507   5.297   3.867   3.487
 4188TIP3    H212508   5.439   3.834   3.528
 4189TIP3   OH212509   2.961   3.272   4.377
 4189TIP3    H112510   2.905   3.241   4.449
 4189TIP3    H212511   2.920   3.239   4.298
 4190TIP3   OH212512   3.959   6.618   1.060
 4190TIP3    H112513   4.036   6.667   1.088
 4190TIP3    H212514   3.980   6.527   1.079
 4191TIP3   OH212515   7.381   4.854   2.390
 4191TIP3    H112516   7.322   4.839   2.464
 4191TIP3    H212517   7.405   4.766   2.360
 4192TIP3   OH212518   4.585   3.265   2.394
 4192TIP3    H112519   4.604   3.198   2.460
 4192TIP3    H212520   4.669   3.307   2.379
 4193TIP3   OH212521   1.053   0.946   6.097
 4193TIP3    H112522   1.095   0.932   6.013
 4193TIP3    H212523   1.107   0.897   6.159
 4194TIP3   OH212524   2.158   1.403   5.024
 4194TIP3    H112525   2.227   1.469   5.038
 4194TIP3    H212526   2.200   1.320   5.044
 4195TIP3   OH212527   5.802   4.992   5.734
 4195TIP3    H112528   5.775   4.910   5.691
 4195TIP3    H212529   5.741   5.057   5.699
 4196TIP3   OH212530   3.981   3.904   6.081
 4196TIP3    H112531   4.033   3.982   6.062
 4196TIP3    H212532   3.985   3.895   6.176
 4197TIP3   OH212533   2.438   7.811   5.379
 4197TIP3    H112534   2.440   7.834   5.472
 4197TIP3    H212535   2.354   7.765   5.367
 4198TIP3   OH212536   3.388   3.304   3.356
 4198TIP3    H112537   3.446   3.233   3.385
 4198TIP3    H212538   3.320   3.260   3.306
 4199TIP3   OH212539   2.865   1.158   2.514
 4199TIP3    H112540   2.895   1.176   2.603
 4199TIP3    H212541   2.934   1.194   2.458
 4200TIP3   OH212542   1.434   4.020   6.734
 4200TIP3    H112543   1.496   4.082   6.772
 4200TIP3    H212544   1.378   4.073   6.677
 4201TIP3   OH212545   6.073   1.786   5.261
 4201TIP3    H112546   6.059   1.775   5.167
 4201TIP3    H212547   6.106   1.702   5.291
 4202TIP3   OH212548   0.888   0.690   0.097
 4202TIP3    H112549   0.961   0.709   0.156
 4202TIP3    H212550   0.890   0.595   0.086
 4203TIP3   OH212551   3.796   6.693   1.306
 4203TIP3    H112552   3.775   6.786   1.311
 4203TIP3    H212553   3.727   6.655   1.252
 4204TIP3   OH212554   0.670   2.630   2.326
 4204TIP3    H112555   0.618   2.687   2.382
 4204TIP3    H212556   0.612   2.609   2.252
 4205TIP3   OH212557   3.948   4.701   0.146
 4205TIP3    H112558   3.871   4.757   0.144
 4205TIP3    H212559   3.936   4.640   0.073
 4206TIP3   OH212560   6.911   5.720   4.598
 4206TIP3    H112561   6.841   5.663   4.566
 4206TIP3    H212562   6.909   5.796   4.540
 4207TIP3   OH212563   7.461   5.529   1.578
 4207TIP3    H112564   7.522   5.603   1.586
 4207TIP3    H212565   7.378   5.569   1.553
 4208TIP3   OH212566   2.642   3.973   0.161
 4208TIP3    H112567   2.652   3.933   0.248
 4208TIP3    H212568   2.702   3.924   0.105
 4209TIP3   OH212569   6.048   1.782   6.409
 4209TIP3    H112570   6.118   1.838   6.442
 4209TIP3    H212571   5.990   1.841   6.363
 4210TIP3   OH212572   6.848   4.842   0.892
 4210TIP3    H112573   6.872   4.759   0.934
 4210TIP3    H212574   6.773   4.820   0.837
 4211TIP3   OH212575   8.068   4.570   5.042
 4211TIP3    H112576   8.145   4.615   5.009
 4211TIP3    H212577   8.100   4.517   5.115
 4212TIP3   OH212578   0.995   6.864   5.539
 4212TIP3    H112579   1.079   6.849   5.496
 4212TIP3    H212580   0.983   6.787   5.595
 4213TIP3   OH212581   5.461   6.403   1.699
 4213TIP3    H112582   5.525   6.474   1.690
 4213TIP3    H212583   5.434   6.407   1.790
 4214TIP3   OH212584   3.913   5.896   0.192
 4214TIP3    H112585   3.958   5.903   0.108
 4214TIP3    H212586   3.857   5.820   0.183
 4215TIP3   OH212587   8.260   0.255   0.399
 4215TIP3    H112588   8.227   0.268   0.311
 4215TIP3    H212589   8.201   0.306   0.455
 4216TIP3   OH212590   7.938   3.288   1.245
 4216TIP3    H112591   7.844   3.269   1.237
 4216TIP3    H212592   7.945   3.340   1.325
 4217TIP3   OH212593   1.963   3.061   4.889
 4217TIP3    H112594   1.920   3.131   4.937
 4217TIP3    H212595   1.894   2.997   4.873
 4218TIP3   OH212596   4.929   3.801   3.855
 4218TIP3    H112597   4.899   3.761   3.937
 4218TIP3    H212598   5.002   3.746   3.827
 4219TIP3   OH212599   6.754   1.365   1.476
 4219TIP3    H112600   6.689   1.405   1.533
 4219TIP3    H212601   6.709   1.293   1.434
 4220TIP3   OH212602   6.347   4.069   0.120
 4220TIP3    H112603   6.302   4.012   0.182
 4220TIP3    H212604   6.426   4.097   0.166
 4221TIP3   OH212605   3.909   6.374   3.992
 4221TIP3    H112606   3.932   6.464   3.968
 4221TIP3    H212607   3.814   6.373   3.990
 4222TIP3   OH212608   0.335   7.476   6.662
 4222TIP3    H112609   0.369   7.499   6.576
 4222TIP3    H212610   0.379   7.536   6.722
 4223TIP3   OH212611   6.636   7.615   1.500
 4223TIP3    H112612   6.730   7.630   1.512
 4223TIP3    H212613   6.631   7.547   1.432
 4224TIP3   OH212614   0.538   1.425   0.323
 4224TIP3    H112615   0.444   1.427   0.305
 4224TIP3    H212616   0.576   1.385   0.244
 4225TIP3   OH212617   8.183   3.592   0.083
 4225TIP3    H112618   8.202   3.683   0.058
 4225TIP3    H212619   8.269   3.550   0.084
 4226TIP3   OH212620   1.493   4.013   5.888
 4226TIP3    H112621   1.466   3.975   5.805
 4226TIP3    H212622   1.432   4.085   5.903
 4227TIP3   OH212623   4.550   3.277   6.273
 4227TIP3    H112624   4.585   3.304   6.357
 4227TIP3    H212625   4.619   3.224   6.234
 4228TIP3   OH212626   5.998   7.021   3.542
 4228TIP3    H112627   5.905   7.024   3.566
 4228TIP3    H212628   5.999   6.981   3.455
 4229TIP3   OH212629   3.248   0.982   0.447
 4229TIP3    H112630   3.210   0.975   0.360
 4229TIP3    H212631   3.341   0.965   0.434
 4230TIP3   OH212632   4.016   2.921   4.435
 4230TIP3    H112633   4.071   2.995   4.460
 4230TIP3    H212634   3.959   2.955   4.366
 4231TIP3   OH212635   7.440   0.555   5.029
 4231TIP3    H112636   7.352   0.580   5.056
 4231TIP3    H212637   7.496   0.624   5.063
 4232TIP3   OH212638   0.833   1.089   3.708
 4232TIP3    H112639   0.834   1.011   3.763
 4232TIP3    H212640   0.808   1.160   3.767
 4233TIP3   OH212641   0.004   4.603   0.887
 4233TIP3    H112642   0.067   4.651   0.834
 4233TIP3    H212643  -0.079   4.651   0.875
 4234TIP3   OH212644   0.299   0.289   5.414
 4234TIP3    H112645   0.357   0.222   5.450
 4234TIP3    H212646   0.357   0.358   5.384
 4235TIP3   OH212647   5.186   3.269   5.062
 4235TIP3    H112648   5.220   3.212   4.993
 4235TIP3    H212649   5.106   3.227   5.092
 4236TIP3   OH212650   4.587   5.884   6.590
 4236TIP3    H112651   4.631   5.829   6.655
 4236TIP3    H212652   4.624   5.857   6.506
 4237TIP3   OH212653   6.135   3.076   4.633
 4237TIP3    H112654   6.088   3.075   4.717
 4237TIP3    H212655   6.125   3.165   4.601
 4238TIP3   OH212656   5.950   2.856   1.544
 4238TIP3    H112657   5.871   2.895   1.505
 4238TIP3    H212658   5.930   2.851   1.638
 4239TIP3   OH212659   5.297   0.237   6.135
 4239TIP3    H112660   5.287   0.143   6.121
 4239TIP3    H212661   5.304   0.274   6.046
 4240TIP3   OH212662   0.063   6.611   4.132
 4240TIP3    H112663   0.043   6.545   4.198
 4240TIP3    H212664   0.039   6.569   4.049
 4241TIP3   OH212665   5.683   6.171   5.631
 4241TIP3    H112666   5.643   6.123   5.558
 4241TIP3    H212667   5.679   6.263   5.603
 4242TIP3   OH212668   6.292   3.416   2.492
 4242TIP3    H112669   6.242   3.486   2.449
 4242TIP3    H212670   6.341   3.375   2.421
 4243TIP3   OH212671   2.725   3.811   0.375
 4243TIP3    H112672   2.672   3.740   0.337
 4243TIP3    H212673   2.752   3.778   0.461
 4244TIP3   OH212674   8.040   5.242   0.447
 4244TIP3    H112675   8.044   5.150   0.473
 4244TIP3    H212676   8.127   5.276   0.467
 4245TIP3   OH212677   4.087   0.159   3.415
 4245TIP3    H112678   4.015   0.132   3.358
 4245TIP3    H212679   4.051   0.231   3.467
 4246TIP3   OH212680   2.798   6.331   0.567
 4246TIP3    H112681   2.815   6.339   0.473
 4246TIP3    H212682   2.706   6.354   0.577
 4247TIP3   OH212683   8.152   0.751   1.801
 4247TIP3    H112684   8.206   0.769   1.878
 4247TIP3    H212685   8.200   0.791   1.729
 4248TIP3   OH212686   4.118   3.542   1.461
 4248TIP3    H112687   4.038   3.592   1.475
 4248TIP3    H212688   4.173   3.563   1.537
 4249TIP3   OH212689   5.089   0.841   0.447
 4249TIP3    H112690   5.023   0.783   0.484
 4249TIP3    H212691   5.066   0.847   0.354
 4250TIP3   OH212692   1.397   5.490   1.273
 4250TIP3    H112693   1.372   5.453   1.357
 4250TIP3    H212694   1.392   5.585   1.286
 4251TIP3   OH212695   6.199   0.225   1.266
 4251TIP3    H112696   6.260   0.206   1.195
 4251TIP3    H212697   6.137   0.152   1.264
 4252TIP3   OH212698   0.857   4.846   4.355
 4252TIP3    H112699   0.869   4.851   4.260
 4252TIP3    H212700   0.883   4.932   4.387
 4253TIP3   OH212701   3.825   4.193   2.116
 4253TIP3    H112702   3.856   4.215   2.204
 4253TIP3    H212703   3.760   4.124   2.131
 4254TIP3   OH212704   5.598   7.725   1.279
 4254TIP3    H112705   5.674   7.783   1.283
 4254TIP3    H212706   5.523   7.785   1.280
 4255TIP3   OH212707   2.908   1.014   0.306
 4255TIP3    H112708   2.864   0.965   0.236
 4255TIP3    H212709   2.974   1.066   0.261
 4256TIP3   OH212710   0.346   1.740   2.348
 4256TIP3    H112711   0.265   1.790   2.357
 4256TIP3    H212712   0.322   1.650   2.372
 4257TIP3   OH212713   3.937   0.899   3.226
 4257TIP3    H112714   3.928   0.804   3.224
 4257TIP3    H212715   3.999   0.918   3.155
 4258TIP3   OH212716   7.289   1.569   0.036
 4258TIP3    H112717   7.302   1.477   0.013
 4258TIP3    H212718   7.198   1.588   0.012
 4259TIP3   OH212719   3.232   4.477   5.427
 4259TIP3    H112720   3.189   4.527   5.496
 4259TIP3    H212721   3.204   4.387   5.442
 4260TIP3   OH212722   0.914   0.598   2.240
 4260TIP3    H112723   0.859   0.524   2.215
 4260TIP3    H212724   0.939   0.580   2.331
 4261TIP3   OH212725   0.995   4.925   2.224
 4261TIP3    H112726   1.043   4.906   2.305
 4261TIP3    H212727   0.937   4.850   2.212
 4262TIP3   OH212728   0.322   6.371   2.363
 4262TIP3    H112729   0.384   6.373   2.436
 4262TIP3    H212730   0.295   6.462   2.351
 4263TIP3   OH212731   3.429   0.885   6.712
 4263TIP3    H112732   3.503   0.872   6.652
 4263TIP3    H212733   3.401   0.796   6.735
 4264TIP3   OH212734   7.031   5.593   5.701
 4264TIP3    H112735   7.124   5.577   5.714
 4264TIP3    H212736   6.993   5.507   5.688
 4265TIP3   OH212737   2.777   5.468   3.928
 4265TIP3    H112738   2.761   5.544   3.984
 4265TIP3    H212739   2.860   5.486   3.885
 4266TIP3   OH212740   1.570   3.694   5.890
 4266TIP3    H112741   1.609   3.705   5.803
 4266TIP3    H212742   1.534   3.605   5.889
 4267TIP3   OH212743   7.892   5.614   3.053
 4267TIP3    H112744   7.980   5.651   3.055
 4267TIP3    H212745   7.903   5.523   3.081
 4268TIP3   OH212746   4.369   1.677   4.948
 4268TIP3    H112747   4.409   1.634   4.873
 4268TIP3    H212748   4.431   1.745   4.973
 4269TIP3   OH212749   1.443   0.225   4.319
 4269TIP3    H112750   1.417   0.253   4.231
 4269TIP3    H212751   1.414   0.295   4.377
 4270TIP3   OH212752   1.160   3.581   4.134
 4270TIP3    H112753   1.125   3.669   4.148
 4270TIP3    H212754   1.131   3.531   4.210
 4271TIP3   OH212755   0.828   7.069   5.491
 4271TIP3    H112756   0.854   7.102   5.405
 4271TIP3    H212757   0.883   6.991   5.504
 4272TIP3   OH212758   4.823   4.302   3.877
 4272TIP3    H112759   4.889   4.360   3.839
 4272TIP3    H212760   4.836   4.218   3.833
 4273TIP3   OH212761   5.506   0.151   1.728
 4273TIP3    H112762   5.491   0.209   1.803
 4273TIP3    H212763   5.466   0.068   1.753
 4274TIP3   OH212764   4.854   4.411   6.477
 4274TIP3    H112765   4.875   4.327   6.438
 4274TIP3    H212766   4.858   4.473   6.404
 4275TIP3   OH212767   3.005   3.147   3.238
 4275TIP3    H112768   2.919   3.144   3.194
 4275TIP3    H212769   2.996   3.216   3.303
 4276TIP3   OH212770   2.924   3.756   4.179
 4276TIP3    H112771   2.940   3.810   4.256
 4276TIP3    H212772   2.975   3.677   4.193
 4277TIP3   OH212773   0.751   6.040   6.425
 4277TIP3    H112774   0.805   6.115   6.402
 4277TIP3    H212775   0.800   5.964   6.392
 4278TIP3   OH212776   6.718   3.777   6.677
 4278TIP3    H112777   6.701   3.768   6.770
 4278TIP3    H212778   6.772   3.856   6.670
 4279TIP3   OH212779   4.111   3.689   6.612
 4279TIP3    H112780   4.028   3.659   6.575
 4279TIP3    H212781   4.095   3.696   6.706
 4280TIP3   OH212782   0.663   4.472   3.606
 4280TIP3    H112783   0.653   4.533   3.533
 4280TIP3    H212784   0.599   4.403   3.589
 4281TIP3   OH212785   0.123   3.464   3.367
 4281TIP3    H112786   0.215   3.486   3.353
 4281TIP3    H212787   0.093   3.525   3.435
 4282TIP3   OH212788   1.911   6.150   5.761
 4282TIP3    H112789   1.920   6.217   5.693
 4282TIP3    H212790   1.868   6.077   5.717
 4283TIP3   OH212791   7.208   6.439   1.138
 4283TIP3    H112792   7.183   6.397   1.220
 4283TIP3    H212793   7.145   6.406   1.074
 4284TIP3   OH212794   2.034   6.760   4.227
 4284TIP3    H112795   2.019   6.795   4.139
 4284TIP3    H212796   2.051   6.837   4.281
 4285TIP3   OH212797   7.781   0.790   4.207
 4285TIP3    H112798   7.721   0.725   4.243
 4285TIP3    H212799   7.799   0.849   4.280
 4286TIP3   OH212800   5.726   4.094   1.746
 4286TIP3    H112801   5.740   4.168   1.805
 4286TIP3    H212802   5.703   4.021   1.803
 4287TIP3   OH212803   5.048   0.565   2.880
 4287TIP3    H112804   4.953   0.561   2.893
 4287TIP3    H212805   5.084   0.574   2.968
 4288TIP3   OH212806   1.299   1.217   5.840
 4288TIP3    H112807   1.387   1.233   5.805
 4288TIP3    H212808   1.269   1.303   5.870
 4289TIP3   OH212809   0.921   1.996   3.077
 4289TIP3    H112810   0.932   1.915   3.128
 4289TIP3    H212811   0.942   2.066   3.139
 4290TIP3   OH212812   6.980   1.739   1.804
 4290TIP3    H112813   6.951   1.794   1.876
 4290TIP3    H212814   6.899   1.705   1.765
 4291TIP3   OH212815   5.726   5.740   6.716
 4291TIP3    H112816   5.687   5.706   6.796
 4291TIP3    H212817   5.699   5.832   6.713
 4292TIP3   OH212818   1.237   2.910   6.184
 4292TIP3    H112819   1.240   2.889   6.091
 4292TIP3    H212820   1.221   2.825   6.227
 4293TIP3   OH212821   4.593   7.752   0.211
 4293TIP3    H112822   4.571   7.766   0.119
 4293TIP3    H212823   4.587   7.838   0.252
 4294TIP3   OH212824   1.909   2.322   0.716
 4294TIP3    H112825   1.988   2.270   0.729
 4294TIP3    H212826   1.941   2.412   0.711
 4295TIP3   OH212827   3.672   6.087   1.694
 4295TIP3    H112828   3.579   6.066   1.687
 4295TIP3    H212829   3.674   6.179   1.719
 4296TIP3   OH212830   7.201   7.120   2.275
 4296TIP3    H112831   7.244   7.101   2.192
 4296TIP3    H212832   7.266   7.096   2.341
 4297TIP3   OH212833   0.534   2.101   2.483
 4297TIP3    H112834   0.529   2.053   2.400
 4297TIP3    H212835   0.524   2.193   2.458
 4298TIP3   OH212836   0.612   0.367   2.830
 4298TIP3    H112837   0.580   0.290   2.877
 4298TIP3    H212838   0.688   0.396   2.881
 4299TIP3   OH212839   7.361   0.239   3.401
 4299TIP3    H112840   7.268   0.223   3.384
 4299TIP3    H212841   7.377   0.199   3.486
 4300TIP3   OH212842   2.257   5.379   6.366
 4300TIP3    H112843   2.332   5.387   6.425
 4300TIP3    H212844   2.189   5.338   6.419
 4301TIP3   OH212845   1.826   1.940   4.537
 4301TIP3    H112846   1.767   1.869   4.563
 4301TIP3    H212847   1.797   2.015   4.589
 4302TIP3   OH212848   7.401   3.799   6.576
 4302TIP3    H112849   7.441   3.804   6.663
 4302TIP3    H212850   7.348   3.878   6.569
 4303TIP3   OH212851   3.664   4.529   6.289
 4303TIP3    H112852   3.743   4.541   6.343
 4303TIP3    H212853   3.690   4.464   6.224
 4304TIP3   OH212854   4.666   3.568   5.181
 4304TIP3    H112855   4.715   3.496   5.142
 4304TIP3    H212856   4.669   3.637   5.116
 4305TIP3   OH212857   4.373   1.804   6.574
 4305TIP3    H112858   4.306   1.768   6.515
 4305TIP3    H212859   4.448   1.746   6.563
 4306TIP3   OH212860   3.552   4.912   3.447
 4306TIP3    H112861   3.460   4.898   3.425
 4306TIP3    H212862   3.552   4.924   3.542
 4307TIP3   OH212863   2.086   5.419   4.511
 4307TIP3    H112864   2.139   5.496   4.530
 4307TIP3    H212865   2.101   5.360   4.585
 4308TIP3   OH212866   6.090   6.630   0.271
 4308TIP3    H112867   6.133   6.584   0.200
 4308TIP3    H212868   6.052   6.708   0.230
 4309TIP3   OH212869   4.184   2.380   4.740
 4309TIP3    H112870   4.207   2.332   4.660
 4309TIP3    H212871   4.089   2.380   4.741
 4310TIP3   OH212872   2.833   3.119   4.140
 4310TIP3    H112873   2.794   3.090   4.057
 4310TIP3    H212874   2.795   3.060   4.206
 4311TIP3   OH212875   4.039   6.384   1.226
 4311TIP3    H112876   4.082   6.305   1.195
 4311TIP3    H212877   3.946   6.360   1.231
 4312TIP3   OH212878   2.004   1.945   1.670
 4312TIP3    H112879   2.061   1.877   1.634
 4312TIP3    H212880   1.953   1.901   1.737
 4313TIP3   OH212881   2.207   7.009   3.237
 4313TIP3    H112882   2.251   7.080   3.283
 4313TIP3    H212883   2.238   6.930   3.281
 4314TIP3   OH212884   1.096   5.383   4.180
 4314TIP3    H112885   1.036   5.444   4.137
 4314TIP3    H212886   1.180   5.400   4.139
 4315TIP3   OH212887   7.195   5.579   3.600
 4315TIP3    H112888   7.223   5.530   3.522
 4315TIP3    H212889   7.127   5.639   3.567
 4316TIP3   OH212890   4.680   1.642   4.122
 4316TIP3    H112891   4.746   1.656   4.054
 4316TIP3    H212892   4.608   1.598   4.076
 4317TIP3   OH212893   2.690   3.270   1.020
 4317TIP3    H112894   2.772   3.252   0.974
 4317TIP3    H212895   2.628   3.206   0.985
 4318TIP3   OH212896   0.783   2.591   4.334
 4318TIP3    H112897   0.834   2.511   4.320
 4318TIP3    H212898   0.793   2.611   4.427
 4319TIP3   OH212899   0.938   0.913   0.304
 4319TIP3    H112900   0.882   0.882   0.375
 4319TIP3    H212901   0.880   0.966   0.249
 4320TIP3   OH212902   5.712   7.774   5.201
 4320TIP3    H112903   5.665   7.691   5.203
 4320TIP3    H212904   5.673   7.825   5.272
 4321TIP3   OH212905   7.669   3.567   5.384
 4321TIP3    H112906   7.662   3.662   5.373
 4321TIP3    H212907   7.609   3.531   5.319
 4322TIP3   OH212908   2.520   1.711   1.140
 4322TIP3    H112909   2.459   1.784   1.130
 4322TIP3    H212910   2.595   1.748   1.186
 4323TIP3   OH212911   3.884   5.140   4.337
 4323TIP3    H112912   3.888   5.082   4.412
 4323TIP3    H212913   3.830   5.213   4.365
 4324TIP3   OH212914   5.296   4.640   5.375
 4324TIP3    H112915   5.361   4.709   5.363
 4324TIP3    H212916   5.332   4.586   5.446
 4325TIP3   OH212917   1.453   5.031   1.150
 4325TIP3    H112918   1.378   4.979   1.122
 4325TIP3    H212919   1.426   5.122   1.135
 4326TIP3   OH212920   1.715   7.104   3.246
 4326TIP3    H112921   1.785   7.052   3.285
 4326TIP3    H212922   1.753   7.140   3.166
 4327TIP3   OH212923   7.443   7.213   3.474
 4327TIP3    H112924   7.371   7.266   3.506
 4327TIP3    H212925   7.521   7.252   3.512
 4328TIP3   OH212926   0.507   3.140   5.680
 4328TIP3    H112927   0.518   3.230   5.649
 4328TIP3    H212928   0.413   3.130   5.689
 4329TIP3   OH212929   3.848   3.588   2.602
 4329TIP3    H112930   3.861   3.560   2.692
 4329TIP3    H212931   3.924   3.642   2.581
 4330TIP3   OH212932   4.193   2.376   0.066
 4330TIP3    H112933   4.178   2.312   0.135
 4330TIP3    H212934   4.288   2.387   0.063
 4331TIP3   OH212935   4.097   4.352   6.208
 4331TIP3    H112936   4.017   4.356   6.259
 4331TIP3    H212937   4.108   4.440   6.173
 4332TIP3   OH212938   2.668   3.901   1.441
 4332TIP3    H112939   2.592   3.858   1.481
 4332TIP3    H212940   2.712   3.945   1.514
 4333TIP3   OH212941   5.843   6.998   2.226
 4333TIP3    H112942   5.923   6.948   2.240
 4333TIP3    H212943   5.849   7.028   2.135
 4334TIP3   OH212944   2.301   7.484   1.600
 4334TIP3    H112945   2.214   7.481   1.641
 4334TIP3    H212946   2.286   7.525   1.515
 4335TIP3   OH212947   3.719   0.438   5.770
 4335TIP3    H112948   3.688   0.402   5.854
 4335TIP3    H212949   3.657   0.508   5.749
 4336TIP3   OH212950   1.591   2.338  -0.007
 4336TIP3    H112951   1.533   2.359   0.066
 4336TIP3    H212952   1.641   2.418  -0.022
 4337TIP3   OH212953   4.032   0.004   3.062
 4337TIP3    H112954   4.052   0.097   3.069
 4337TIP3    H212955   3.949  -0.007   3.108
 4338TIP3   OH212956   7.322   4.274   3.978
 4338TIP3    H112957   7.359   4.334   3.913
 4338TIP3    H212958   7.233   4.256   3.947
 4339TIP3   OH212959   2.564   1.141   1.964
 4339TIP3    H112960   2.495   1.132   2.030
 4339TIP3    H212961   2.645   1.124   2.013
 4340TIP3   OH212962   5.739   7.451   2.360
 4340TIP3    H112963   5.796   7.503   2.305
 4340TIP3    H212964   5.676   7.514   2.396
 4341TIP3   OH212965   4.299   4.561   3.068
 4341TIP3    H112966   4.207   4.533   3.071
 4341TIP3    H212967   4.334   4.516   2.990
 4342TIP3   OH212968   1.854   5.749   2.200
 4342TIP3    H112969   1.894   5.813   2.258
 4342TIP3    H212970   1.897   5.666   2.222
 4343TIP3   OH212971   0.747   2.050   3.982
 4343TIP3    H112972   0.728   2.132   4.028
 4343TIP3    H212973   0.843   2.047   3.978
 4344TIP3   OH212974   3.673   5.094   5.919
 4344TIP3    H112975   3.754   5.096   5.867
 4344TIP3    H212976   3.672   5.179   5.964
 4345TIP3   OH212977   4.815   3.705   5.818
 4345TIP3    H112978   4.859   3.788   5.836
 4345TIP3    H212979   4.721   3.727   5.820
 4346TIP3   OH212980   1.648   5.074   6.414
 4346TIP3    H112981   1.678   5.003   6.470
 4346TIP3    H212982   1.571   5.038   6.369
 4347TIP3   OH212983   1.529   0.518   0.858
 4347TIP3    H112984   1.571   0.600   0.886
 4347TIP3    H212985   1.466   0.498   0.927
 4348TIP3   OH212986   6.413   3.743   5.477
 4348TIP3    H112987   6.362   3.802   5.531
 4348TIP3    H212988   6.375   3.752   5.389
 4349TIP3   OH212989   4.956   7.146   5.513
 4349TIP3    H112990   4.994   7.100   5.587
 4349TIP3    H212991   5.030   7.165   5.456
 4350TIP3   OH212992   5.506   3.112   2.364
 4350TIP3    H112993   5.565   3.040   2.384
 4350TIP3    H212994   5.517   3.127   2.270
 4351TIP3   OH212995   1.867   6.725   6.049
 4351TIP3    H112996   1.926   6.651   6.038
 4351TIP3    H212997   1.918   6.790   6.097
 4352TIP3   OH212998   0.461   0.942   2.207
 4352TIP3    H112999   0.550   0.973   2.186
 4352TIP3    H213000   0.426   1.009   2.267
 4353TIP3   OH213001   6.966   4.802   0.285
 4353TIP3    H113002   7.035   4.861   0.314
 4353TIP3    H213003   6.895   4.813   0.349
 4354TIP3   OH213004   1.532   6.450   1.993
 4354TIP3    H113005   1.556   6.365   1.956
 4354TIP3    H213006   1.611   6.480   2.037
 4355TIP3   OH213007   0.334   0.542   0.953
 4355TIP3    H113008   0.343   0.465   1.009
 4355TIP3    H213009   0.360   0.512   0.866
 4356TIP3   OH213010   4.910   3.602   3.207
 4356TIP3    H113011   4.920   3.608   3.112
 4356TIP3    H213012   4.816   3.610   3.222
 4357TIP3   OH213013   1.474   0.883   1.532
 4357TIP3    H113014   1.409   0.927   1.479
 4357TIP3    H213015   1.423   0.822   1.586
 4358TIP3   OH213016   6.845   6.938   1.474
 4358TIP3    H113017   6.780   7.008   1.479
 4358TIP3    H213018   6.871   6.935   1.382
 4359TIP3   OH213019   3.147   6.071   1.263
 4359TIP3    H113020   3.061   6.060   1.303
 4359TIP3    H213021   3.155   6.166   1.249
 4360TIP3   OH213022   3.573   4.905   1.104
 4360TIP3    H113023   3.490   4.863   1.081
 4360TIP3    H213024   3.612   4.930   1.020
 4361TIP3   OH213025   1.005   5.369   4.462
 4361TIP3    H113026   1.045   5.369   4.375
 4361TIP3    H213027   0.962   5.455   4.468
 4362TIP3   OH213028   1.383   3.800   0.259
 4362TIP3    H113029   1.395   3.748   0.339
 4362TIP3    H213030   1.400   3.740   0.187
 4363TIP3   OH213031   2.044   7.550   4.758
 4363TIP3    H113032   2.054   7.580   4.667
 4363TIP3    H213033   2.065   7.627   4.811
 4364TIP3   OH213034   7.119   6.742   3.672
 4364TIP3    H113035   7.198   6.736   3.617
 4364TIP3    H213036   7.152   6.745   3.761
 4365TIP3   OH213037   0.151   1.040   5.003
 4365TIP3    H113038   0.158   0.953   5.042
 4365TIP3    H213039   0.060   1.065   5.017
 4366TIP3   OH213040   0.714   3.275   0.504
 4366TIP3    H113041   0.637   3.294   0.557
 4366TIP3    H213042   0.755   3.200   0.547
 4367TIP3   OH213043   2.279   1.314   1.229
 4367TIP3    H113044   2.210   1.258   1.267
 4367TIP3    H213045   2.257   1.318   1.136
 4368TIP3   OH213046   6.492   2.849   5.976
 4368TIP3    H113047   6.559   2.783   5.961
 4368TIP3    H213048   6.465   2.877   5.889
 4369TIP3   OH213049   5.406   0.436   0.716
 4369TIP3    H113050   5.392   0.354   0.669
 4369TIP3    H213051   5.358   0.501   0.665
 4370TIP3   OH213052   5.604   2.563   5.131
 4370TIP3    H113053   5.545   2.539   5.060
 4370TIP3    H213054   5.604   2.487   5.189
 4371TIP3   OH213055   7.292   4.787   4.830
 4371TIP3    H113056   7.260   4.877   4.824
 4371TIP3    H213057   7.214   4.733   4.818
 4372TIP3   OH213058   3.750   2.605   5.468
 4372TIP3    H113059   3.725   2.603   5.561
 4372TIP3    H213060   3.842   2.633   5.469
 4373TIP3   OH213061   8.076   3.063   2.157
 4373TIP3    H113062   8.055   3.113   2.078
 4373TIP3    H213063   8.056   2.972   2.134
 4374TIP3   OH213064   1.099   1.666   2.410
 4374TIP3    H113065   1.146   1.749   2.404
 4374TIP3    H213066   1.121   1.620   2.329
 4375TIP3   OH213067   6.258   2.000   5.957
 4375TIP3    H113068   6.289   2.074   6.009
 4375TIP3    H213069   6.163   2.008   5.958
 4376TIP3   OH213070   7.391   6.958   4.458
 4376TIP3    H113071   7.330   7.028   4.483
 4376TIP3    H213072   7.342   6.906   4.394
 4377TIP3   OH213073   1.952   1.172   3.317
 4377TIP3    H113074   2.006   1.094   3.327
 4377TIP3    H213075   1.906   1.179   3.401
 4378TIP3   OH213076   4.269   0.800   1.068
 4378TIP3    H113077   4.331   0.823   1.137
 4378TIP3    H213078   4.270   0.876   1.009
 4379TIP3   OH213079   5.040   5.757   3.757
 4379TIP3    H113080   5.034   5.715   3.671
 4379TIP3    H213081   5.120   5.722   3.795
 4380TIP3   OH213082   4.262   0.928   5.386
 4380TIP3    H113083   4.223   0.885   5.310
 4380TIP3    H213084   4.351   0.891   5.391
 4381TIP3   OH213085   3.800   1.781   0.554
 4381TIP3    H113086   3.749   1.739   0.624
 4381TIP3    H213087   3.889   1.784   0.589
 4382TIP3   OH213088   4.926   3.907   3.117
 4382TIP3    H113089   4.990   3.905   3.045
 4382TIP3    H213090   4.907   3.814   3.133
 4383TIP3   OH213091   8.026   4.443   0.668
 4383TIP3    H113092   8.049   4.403   0.752
 4383TIP3    H213093   8.088   4.407   0.605
 4384TIP3   OH213094   8.215   0.365   4.381
 4384TIP3    H113095   8.180   0.281   4.411
 4384TIP3    H213096   8.297   0.374   4.430
 4385TIP3   OH213097   1.099   2.727   4.998
 4385TIP3    H113098   1.107   2.796   4.931
 4385TIP3    H213099   1.158   2.658   4.967
 4386TIP3   OH213100   4.199   2.520   5.151
 4386TIP3    H113101   4.151   2.602   5.139
 4386TIP3    H213102   4.254   2.534   5.227
 4387TIP3   OH213103   1.885   7.113   4.567
 4387TIP3    H113104   1.808   7.123   4.510
 4387TIP3    H213105   1.873   7.181   4.634
 4388TIP3   OH213106   7.208   7.823   3.629
 4388TIP3    H113107   7.139   7.889   3.617
 4388TIP3    H213108   7.186   7.754   3.565
 4389TIP3   OH213109   3.712   5.138   2.832
 4389TIP3    H113110   3.662   5.071   2.879
 4389TIP3    H213111   3.671   5.141   2.745
 4390TIP3   OH213112   2.505   5.417   5.926
 4390TIP3    H113113   2.589   5.412   5.881
 4390TIP3    H213114   2.522   5.474   6.002
 4391TIP3   OH213115   1.518   5.171   5.144
 4391TIP3    H113116   1.521   5.134   5.232
 4391TIP3    H213117   1.547   5.099   5.087
 4392TIP3   OH213118   4.252   2.749   0.157
 4392TIP3    H113119   4.230   2.738   0.064
 4392TIP3    H213120   4.204   2.828   0.183
 4393TIP3   OH213121   7.223   6.415   3.890
 4393TIP3    H113122   7.266   6.428   3.806
 4393TIP3    H213123   7.274   6.469   3.951
 4394TIP3   OH213124   0.654   7.136   3.952
 4394TIP3    H113125   0.643   7.054   3.999
 4394TIP3    H213126   0.747   7.140   3.930
 4395TIP3   OH213127   7.861   5.533   1.851
 4395TIP3    H113128   7.856   5.437   1.845
 4395TIP3    H213129   7.835   5.552   1.941
 4396TIP3   OH213130   3.570   3.817   5.348
 4396TIP3    H113131   3.498   3.873   5.377
 4396TIP3    H213132   3.587   3.846   5.258
 4397TIP3   OH213133   3.714   7.662   5.332
 4397TIP3    H113134   3.645   7.636   5.271
 4397TIP3    H213135   3.718   7.589   5.395
 4398TIP3   OH213136   2.669   2.333   1.516
 4398TIP3    H113137   2.637   2.332   1.426
 4398TIP3    H213138   2.590   2.327   1.570
 4399TIP3   OH213139   3.532   4.862   5.494
 4399TIP3    H113140   3.446   4.828   5.521
 4399TIP3    H213141   3.581   4.870   5.576
 4400TIP3   OH213142   0.590   6.869   3.122
 4400TIP3    H113143   0.595   6.773   3.120
 4400TIP3    H213144   0.627   6.894   3.206
 4401TIP3   OH213145   6.285   1.806   4.766
 4401TIP3    H113146   6.356   1.780   4.707
 4401TIP3    H213147   6.328   1.864   4.830
 4402TIP3   OH213148   1.691   4.207   4.109
 4402TIP3    H113149   1.665   4.260   4.034
 4402TIP3    H213150   1.778   4.240   4.133
 4403TIP3   OH213151   8.093   6.171   3.358
 4403TIP3    H113152   8.073   6.196   3.267
 4403TIP3    H213153   8.007   6.164   3.400
 4404TIP3   OH213154   8.092   6.054   1.735
 4404TIP3    H113155   8.133   6.094   1.812
 4404TIP3    H213156   8.075   6.128   1.676
 4405TIP3   OH213157   2.260   3.988   6.151
 4405TIP3    H113158   2.235   3.898   6.174
 4405TIP3    H213159   2.334   3.978   6.090
 4406TIP3   OH213160   5.556   3.575   2.493
 4406TIP3    H113161   5.488   3.548   2.554
 4406TIP3    H213162   5.512   3.575   2.407
 4407TIP3   OH213163   6.628   2.092   4.861
 4407TIP3    H113164   6.723   2.085   4.862
 4407TIP3    H213165   6.609   2.177   4.899
 4408TIP3   OH213166   4.331   4.025   3.967
 4408TIP3    H113167   4.244   3.998   3.936
 4408TIP3    H213168   4.374   4.062   3.890
 4409TIP3   OH213169   5.064   4.024   1.977
 4409TIP3    H113170   5.139   3.965   1.986
 4409TIP3    H213171   4.990   3.967   1.955
 4410TIP3   OH213172   1.759   2.954   3.966
 4410TIP3    H113173   1.697   3.026   3.977
 4410TIP3    H213174   1.778   2.953   3.872
 4411TIP3   OH213175   3.268   6.748   4.211
 4411TIP3    H113176   3.246   6.707   4.127
 4411TIP3    H213177   3.356   6.715   4.231
 4412TIP3   OH213178   8.237   6.348   5.910
 4412TIP3    H113179   8.155   6.361   5.862
 4412TIP3    H213180   8.286   6.428   5.895
 4413TIP3   OH213181   5.253   7.498   3.532
 4413TIP3    H113182   5.200   7.427   3.567
 4413TIP3    H213183   5.326   7.454   3.488
 4414TIP3   OH213184   0.373   3.848   0.135
 4414TIP3    H113185   0.311   3.907   0.177
 4414TIP3    H213186   0.319   3.797   0.074
 4415TIP3   OH213187   3.573   5.101   6.410
 4415TIP3    H113188   3.527   5.089   6.327
 4415TIP3    H213189   3.542   5.185   6.443
 4416TIP3   OH213190   5.261   7.318   6.727
 4416TIP3    H113191   5.339   7.268   6.750
 4416TIP3    H213192   5.190   7.275   6.773
 4417TIP3   OH213193   7.225   3.575   6.670
 4417TIP3    H113194   7.297   3.637   6.663
 4417TIP3    H213195   7.251   3.502   6.612
 4418TIP3   OH213196   1.616   5.058   0.935
 4418TIP3    H113197   1.566   5.039   1.014
 4418TIP3    H213198   1.624   5.153   0.934
 4419TIP3   OH213199   1.176   6.488   4.940
 4419TIP3    H113200   1.141   6.463   4.855
 4419TIP3    H213201   1.201   6.406   4.982
 4420TIP3   OH213202   8.259   6.164   6.740
 4420TIP3    H113203   8.249   6.073   6.770
 4420TIP3    H213204   8.188   6.211   6.784
 4421TIP3   OH213205   7.205   1.461   5.821
 4421TIP3    H113206   7.158   1.511   5.754
 4421TIP3    H213207   7.295   1.492   5.816
 4422TIP3   OH213208   2.883   0.866   3.803
 4422TIP3    H113209   2.811   0.884   3.864
 4422TIP3    H213210   2.959   0.908   3.843
 4423TIP3   OH213211   7.860   0.893   4.449
 4423TIP3    H113212   7.872   0.892   4.543
 4423TIP3    H213213   7.792   0.959   4.434
 4424TIP3   OH213214   2.025   2.716   5.371
 4424TIP3    H113215   2.057   2.666   5.446
 4424TIP3    H213216   1.934   2.735   5.391
 4425TIP3   OH213217   4.995   1.988   6.314
 4425TIP3    H113218   4.909   1.950   6.333
 4425TIP3    H213219   4.996   2.071   6.362
 4426TIP3   OH213220   7.942   3.980   1.461
 4426TIP3    H113221   7.881   3.927   1.512
 4426TIP3    H213222   7.954   4.059   1.513
 4427TIP3   OH213223   3.624   4.635   6.018
 4427TIP3    H113224   3.641   4.708   6.077
 4427TIP3    H213225   3.547   4.592   6.056
 4428TIP3   OH213226   3.598   5.276   4.418
 4428TIP3    H113227   3.580   5.217   4.492
 4428TIP3    H213228   3.518   5.328   4.409
 4429TIP3   OH213229   8.247   2.206   5.182
 4429TIP3    H113230   8.281   2.119   5.201
 4429TIP3    H213231   8.317   2.249   5.133
 4430TIP3   OH213232   2.667   7.192   3.889
 4430TIP3    H113233   2.720   7.252   3.837
 4430TIP3    H213234   2.641   7.124   3.828
 4431TIP3   OH213235   3.799   0.338   6.585
 4431TIP3    H113236   3.772   0.403   6.651
 4431TIP3    H213237   3.718   0.315   6.540
 4432TIP3   OH213238   6.805   6.679   4.746
 4432TIP3    H113239   6.768   6.639   4.667
 4432TIP3    H213240   6.791   6.773   4.734
 4433TIP3   OH213241   3.455   6.483   1.006
 4433TIP3    H113242   3.449   6.402   1.056
 4433TIP3    H213243   3.484   6.456   0.919
 4434TIP3   OH213244   3.844   1.709   5.839
 4434TIP3    H113245   3.821   1.618   5.817
 4434TIP3    H213246   3.899   1.738   5.766
 4435TIP3   OH213247   6.309   4.159   6.354
 4435TIP3    H113248   6.237   4.110   6.393
 4435TIP3    H213249   6.327   4.228   6.417
 4436TIP3   OH213250   2.503   4.832   1.365
 4436TIP3    H113251   2.508   4.872   1.452
 4436TIP3    H213252   2.527   4.903   1.305
 4437TIP3   OH213253   0.762   0.843   6.185
 4437TIP3    H113254   0.715   0.809   6.260
 4437TIP3    H213255   0.855   0.826   6.204
 4438TIP3   OH213256   6.733   7.479   3.752
 4438TIP3    H113257   6.726   7.544   3.822
 4438TIP3    H213258   6.652   7.487   3.703
 4439TIP3   OH213259   5.517   1.296   4.996
 4439TIP3    H113260   5.436   1.273   4.950
 4439TIP3    H213261   5.563   1.212   5.005
 4440TIP3   OH213262   2.256   3.810   6.618
 4440TIP3    H113263   2.300   3.793   6.702
 4440TIP3    H213264   2.236   3.722   6.584
 4441TIP3   OH213265   6.075   6.338   1.513
 4441TIP3    H113266   6.159   6.346   1.468
 4441TIP3    H213267   6.022   6.283   1.455
 4442TIP3   OH213268   4.086   0.569   0.728
 4442TIP3    H113269   4.105   0.538   0.817
 4442TIP3    H213270   4.158   0.536   0.675
 4443TIP3   OH213271   3.440   7.497   3.378
 4443TIP3    H113272   3.430   7.517   3.471
 4443TIP3    H213273   3.359   7.528   3.338
 4444TIP3   OH213274   0.394   2.544   4.316
 4444TIP3    H113275   0.334   2.578   4.250
 4444TIP3    H213276   0.472   2.599   4.308
 4445TIP3   OH213277   0.982   3.618   2.596
 4445TIP3    H113278   1.038   3.540   2.586
 4445TIP3    H213279   0.979   3.633   2.691
 4446TIP3   OH213280   5.865   2.531   1.550
 4446TIP3    H113281   5.943   2.574   1.514
 4446TIP3    H213282   5.892   2.440   1.562
 4447TIP3   OH213283   6.418   5.669   6.731
 4447TIP3    H113284   6.511   5.688   6.738
 4447TIP3    H213285   6.375   5.751   6.756
 4448TIP3   OH213286   3.239   4.511   4.561
 4448TIP3    H113287   3.313   4.460   4.528
 4448TIP3    H213288   3.162   4.474   4.517
 4449TIP3   OH213289   6.628   6.312   5.893
 4449TIP3    H113290   6.553   6.301   5.951
 4449TIP3    H213291   6.642   6.407   5.891
 4450TIP3   OH213292   0.602   7.229   1.677
 4450TIP3    H113293   0.579   7.278   1.598
 4450TIP3    H213294   0.614   7.139   1.647
 4451TIP3   OH213295   5.604   3.870   1.872
 4451TIP3    H113296   5.626   3.867   1.965
 4451TIP3    H213297   5.525   3.818   1.863
 4452TIP3   OH213298   2.485   4.325   5.757
 4452TIP3    H113299   2.418   4.270   5.797
 4452TIP3    H213300   2.566   4.299   5.800
 4453TIP3   OH213301   1.305   5.115   2.731
 4453TIP3    H113302   1.396   5.125   2.703
 4453TIP3    H213303   1.290   5.021   2.732
 4454TIP3   OH213304   6.496   2.448   6.194
 4454TIP3    H113305   6.580   2.482   6.226
 4454TIP3    H213306   6.434   2.468   6.264
 4455TIP3   OH213307   1.493   3.133   0.241
 4455TIP3    H113308   1.454   3.082   0.169
 4455TIP3    H213309   1.586   3.112   0.236
 4456TIP3   OH213310   4.260   2.666   4.798
 4456TIP3    H113311   4.231   2.577   4.781
 4456TIP3    H213312   4.188   2.721   4.766
 4457TIP3   OH213313   2.732   7.275   5.285
 4457TIP3    H113314   2.770   7.200   5.331
 4457TIP3    H213315   2.701   7.239   5.201
 4458TIP3   OH213316   3.117   0.554   4.121
 4458TIP3    H113317   3.172   0.554   4.200
 4458TIP3    H213318   3.034   0.590   4.151
 4459TIP3   OH213319   6.257   6.682   3.106
 4459TIP3    H113320   6.241   6.640   3.022
 4459TIP3    H213321   6.200   6.636   3.168
 4460TIP3   OH213322   3.400   7.267   1.739
 4460TIP3    H113323   3.383   7.173   1.736
 4460TIP3    H213324   3.494   7.274   1.754
 4461TIP3   OH213325   1.226   3.942   4.326
 4461TIP3    H113326   1.255   3.900   4.245
 4461TIP3    H213327   1.140   3.978   4.305
 4462TIP3   OH213328   6.941   5.678   1.468
 4462TIP3    H113329   6.852   5.710   1.480
 4462TIP3    H213330   6.930   5.586   1.442
 4463TIP3   OH213331   7.790   3.810   3.661
 4463TIP3    H113332   7.709   3.759   3.654
 4463TIP3    H213333   7.771   3.892   3.617
 4464TIP3   OH213334   2.466   2.663   0.444
 4464TIP3    H113335   2.430   2.576   0.461
 4464TIP3    H213336   2.390   2.719   0.430
 4465TIP3   OH213337   2.958   3.982   1.897
 4465TIP3    H113338   2.905   4.008   1.973
 4465TIP3    H213339   2.978   4.065   1.853
 4466TIP3   OH213340   7.622   0.747   5.082
 4466TIP3    H113341   7.641   0.705   5.166
 4466TIP3    H213342   7.682   0.822   5.079
 4467TIP3   OH213343   1.865   1.913   5.822
 4467TIP3    H113344   1.787   1.958   5.855
 4467TIP3    H213345   1.919   1.984   5.786
 4468TIP3   OH213346   6.968   1.271   2.893
 4468TIP3    H113347   6.991   1.344   2.837
 4468TIP3    H213348   6.961   1.309   2.981
 4469TIP3   OH213349   0.913   1.762   3.785
 4469TIP3    H113350   0.864   1.843   3.797
 4469TIP3    H213351   1.003   1.790   3.767
 4470TIP3   OH213352   6.660   6.119   2.474
 4470TIP3    H113353   6.705   6.063   2.537
 4470TIP3    H213354   6.573   6.132   2.511
 4471TIP3   OH213355   0.238   2.953   1.927
 4471TIP3    H113356   0.157   2.951   1.876
 4471TIP3    H213357   0.308   2.953   1.862
 4472TIP3   OH213358   1.484   6.716   6.518
 4472TIP3    H113359   1.571   6.684   6.492
 4472TIP3    H213360   1.482   6.807   6.488
 4473TIP3   OH213361   2.770   6.905   0.331
 4473TIP3    H113362   2.791   6.893   0.239
 4473TIP3    H213363   2.741   6.818   0.361
 4474TIP3   OH213364   6.947   1.449   6.739
 4474TIP3    H113365   6.945   1.538   6.703
 4474TIP3    H213366   6.916   1.460   6.829
 4475TIP3   OH213367   3.524   2.657   5.088
 4475TIP3    H113368   3.562   2.598   5.024
 4475TIP3    H213369   3.430   2.658   5.067
 4476TIP3   OH213370   0.407   6.194   5.579
 4476TIP3    H113371   0.375   6.237   5.500
 4476TIP3    H213372   0.444   6.111   5.548
 4477TIP3   OH213373   2.466   6.119   2.096
 4477TIP3    H113374   2.540   6.075   2.055
 4477TIP3    H213375   2.491   6.129   2.188
 4478TIP3   OH213376   7.668   6.339   3.089
 4478TIP3    H113377   7.661   6.335   2.993
 4478TIP3    H213378   7.585   6.302   3.120
 4479TIP3   OH213379   5.188   7.551   1.270
 4479TIP3    H113380   5.174   7.645   1.262
 4479TIP3    H213381   5.159   7.515   1.187
 4480TIP3   OH213382   2.337   1.339   0.733
 4480TIP3    H113383   2.346   1.328   0.638
 4480TIP3    H213384   2.396   1.412   0.754
 4481TIP3   OH213385   5.983   3.864   3.674
 4481TIP3    H113386   6.044   3.858   3.601
 4481TIP3    H213387   5.923   3.935   3.649
 4482TIP3   OH213388   4.017   6.189   2.624
 4482TIP3    H113389   3.928   6.169   2.594
 4482TIP3    H213390   4.005   6.218   2.715
 4483TIP3   OH213391   5.969   2.175   4.431
 4483TIP3    H113392   5.891   2.228   4.413
 4483TIP3    H213393   5.937   2.103   4.485
 4484TIP3   OH213394   4.062   2.905   0.913
 4484TIP3    H113395   4.053   2.818   0.873
 4484TIP3    H213396   4.125   2.951   0.857
 4485TIP3   OH213397   6.548   2.276   5.357
 4485TIP3    H113398   6.537   2.306   5.448
 4485TIP3    H213399   6.482   2.325   5.308
 4486TIP3   OH213400   5.803   0.472   5.718
 4486TIP3    H113401   5.739   0.455   5.649
 4486TIP3    H213402   5.751   0.471   5.799
 4487TIP3   OH213403   5.323   4.029   5.309
 4487TIP3    H113404   5.327   4.003   5.217
 4487TIP3    H213405   5.308   4.124   5.306
 4488TIP3   OH213406   2.319   7.684   4.900
 4488TIP3    H113407   2.242   7.742   4.905
 4488TIP3    H213408   2.365   7.697   4.982
 4489TIP3   OH213409   5.069   7.392   5.123
 4489TIP3    H113410   5.067   7.441   5.205
 4489TIP3    H213411   4.988   7.416   5.079
 4490TIP3   OH213412   2.141   7.307   2.784
 4490TIP3    H113413   2.183   7.244   2.843
 4490TIP3    H213414   2.047   7.294   2.798
 4491TIP3   OH213415   8.202   0.435   6.329
 4491TIP3    H113416   8.112   0.416   6.356
 4491TIP3    H213417   8.215   0.381   6.251
 4492TIP3   OH213418   4.059   7.101   5.278
 4492TIP3    H113419   3.977   7.130   5.237
 4492TIP3    H213420   4.126   7.159   5.242
 4493TIP3   OH213421   5.294   3.717   4.179
 4493TIP3    H113422   5.200   3.733   4.183
 4493TIP3    H213423   5.305   3.628   4.214
 4494TIP3   OH213424   4.159   6.407   4.808
 4494TIP3    H113425   4.132   6.469   4.740
 4494TIP3    H213426   4.079   6.385   4.854
 4495TIP3   OH213427   3.804   0.606   2.560
 4495TIP3    H113428   3.801   0.634   2.469
 4495TIP3    H213429   3.896   0.617   2.585
 4496TIP3   OH213430   1.577   0.277   0.755
 4496TIP3    H113431   1.519   0.222   0.807
 4496TIP3    H213432   1.563   0.365   0.790
 4497TIP3   OH213433   7.241   2.120   1.375
 4497TIP3    H113434   7.317   2.125   1.317
 4497TIP3    H213435   7.278   2.121   1.463
 4498TIP3   OH213436   0.289   6.033   2.273
 4498TIP3    H113437   0.376   6.014   2.307
 4498TIP3    H213438   0.270   6.122   2.304
 4499TIP3   OH213439   3.346   1.337   4.556
 4499TIP3    H113440   3.406   1.402   4.593
 4499TIP3    H213441   3.395   1.255   4.561
 4500TIP3   OH213442   1.195   0.064   5.978
 4500TIP3    H113443   1.289   0.053   5.968
 4500TIP3    H213444   1.164   0.090   5.892
 4501TIP3   OH213445   4.215   0.910   0.421
 4501TIP3    H113446   4.150   0.910   0.351
 4501TIP3    H213447   4.176   0.857   0.491
 4502TIP3   OH213448   5.826   3.357   4.480
 4502TIP3    H113449   5.854   3.272   4.447
 4502TIP3    H213450   5.876   3.420   4.428
 4503TIP3   OH213451   0.918   0.934   5.248
 4503TIP3    H113452   0.824   0.935   5.228
 4503TIP3    H213453   0.942   0.841   5.247
 4504TIP3   OH213454   0.859   4.221   5.055
 4504TIP3    H113455   0.827   4.184   4.973
 4504TIP3    H213456   0.817   4.169   5.123
 4505TIP3   OH213457   0.879   1.529   4.741
 4505TIP3    H113458   0.869   1.525   4.646
 4505TIP3    H213459   0.967   1.495   4.757
 4506TIP3   OH213460   6.204   1.334   5.274
 4506TIP3    H113461   6.160   1.298   5.351
 4506TIP3    H213462   6.233   1.256   5.226
 4507TIP3   OH213463   7.057   0.569   2.691
 4507TIP3    H113464   7.054   0.658   2.657
 4507TIP3    H213465   7.149   0.542   2.681
 4508TIP3   OH213466   4.393   7.141   4.613
 4508TIP3    H113467   4.433   7.108   4.532
 4508TIP3    H213468   4.456   7.204   4.647
 4509TIP3   OH213469   4.898   6.415   2.911
 4509TIP3    H113470   4.860   6.374   2.988
 4509TIP3    H213471   4.823   6.433   2.854
 4510TIP3   OH213472   7.201   2.409   1.595
 4510TIP3    H113473   7.129   2.371   1.543
 4510TIP3    H213474   7.267   2.339   1.598
 4511TIP3   OH213475   2.759   0.604   6.048
 4511TIP3    H113476   2.806   0.552   6.113
 4511TIP3    H213477   2.799   0.581   5.965
 4512TIP3   OH213478   6.928   0.503   5.183
 4512TIP3    H113479   7.021   0.511   5.164
 4512TIP3    H213480   6.914   0.409   5.197
 4513TIP3   OH213481   3.512   5.585   3.160
 4513TIP3    H113482   3.547   5.544   3.081
 4513TIP3    H213483   3.548   5.674   3.159
 4514TIP3   OH213484   6.509   6.806   0.607
 4514TIP3    H113485   6.519   6.746   0.681
 4514TIP3    H213486   6.520   6.750   0.530
 4515TIP3   OH213487   5.326   5.556   5.594
 4515TIP3    H113488   5.354   5.621   5.530
 4515TIP3    H213489   5.243   5.523   5.559
 4516TIP3   OH213490   5.559   7.141   2.950
 4516TIP3    H113491   5.608   7.077   3.001
 4516TIP3    H213492   5.608   7.150   2.869
 4517TIP3   OH213493   0.047   3.183   6.619
 4517TIP3    H113494   0.131   3.219   6.592
 4517TIP3    H213495  -0.011   3.260   6.625
 4518TIP3   OH213496   2.106   0.883   6.059
 4518TIP3    H113497   2.078   0.972   6.080
 4518TIP3    H213498   2.043   0.853   5.993
 4519TIP3   OH213499   0.085   4.695   3.928
 4519TIP3    H113500   0.145   4.768   3.943
 4519TIP3    H213501   0.107   4.631   3.995
 4520TIP3   OH213502   7.731   1.962   0.787
 4520TIP3    H113503   7.762   2.053   0.779
 4520TIP3    H213504   7.810   1.911   0.799
 4521TIP3   OH213505   1.933   7.140   0.526
 4521TIP3    H113506   1.998   7.194   0.572
 4521TIP3    H213507   1.966   7.136   0.436
 4522TIP3   OH213508   5.043   1.666   2.899
 4522TIP3    H113509   4.999   1.583   2.879
 4522TIP3    H213510   5.125   1.662   2.850
 4523TIP3   OH213511   0.639   3.518   2.152
 4523TIP3    H113512   0.575   3.476   2.210
 4523TIP3    H213513   0.710   3.545   2.210
 4524TIP3   OH213514   4.099   0.758   2.223
 4524TIP3    H113515   4.132   0.670   2.208
 4524TIP3    H213516   4.102   0.800   2.137
 4525TIP3   OH213517   6.555   1.762   0.469
 4525TIP3    H113518   6.484   1.787   0.529
 4525TIP3    H213519   6.539   1.670   0.450
 4526TIP3   OH213520   2.043   5.398   3.075
 4526TIP3    H113521   1.961   5.375   3.033
 4526TIP3    H213522   2.051   5.336   3.147
 4527TIP3   OH213523   3.607   5.811   3.428
 4527TIP3    H113524   3.524   5.764   3.434
 4527TIP3    H213525   3.623   5.820   3.334
 4528TIP3   OH213526   6.478   1.559   0.730
 4528TIP3    H113527   6.389   1.552   0.695
 4528TIP3    H213528   6.529   1.597   0.659
 4529TIP3   OH213529   0.030   3.880   0.758
 4529TIP3    H113530   0.092   3.937   0.804
 4529TIP3    H213531  -0.055   3.920   0.774
 4530TIP3   OH213532   7.611   6.763   1.427
 4530TIP3    H113533   7.529   6.797   1.390
 4530TIP3    H213534   7.584   6.716   1.506
 4531TIP3   OH213535   1.741   3.849   6.185
 4531TIP3    H113536   1.829   3.886   6.174
 4531TIP3    H213537   1.755   3.755   6.185
 4532TIP3   OH213538   8.156   0.333   4.730
 4532TIP3    H113539   8.185   0.402   4.790
 4532TIP3    H213540   8.121   0.264   4.786
 4533TIP3   OH213541   7.689   2.751   5.437
 4533TIP3    H113542   7.780   2.750   5.467
 4533TIP3    H213543   7.694   2.736   5.343
 4534TIP3   OH213544   1.476   0.620   4.742
 4534TIP3    H113545   1.506   0.632   4.832
 4534TIP3    H213546   1.534   0.554   4.705
 4535TIP3   OH213547   1.938   2.108   5.490
 4535TIP3    H113548   1.918   2.166   5.564
 4535TIP3    H213549   1.853   2.074   5.463
 4536TIP3   OH213550   6.043   3.991   5.254
 4536TIP3    H113551   6.075   4.026   5.171
 4536TIP3    H213552   6.054   3.897   5.246
 4537TIP3   OH213553   3.762   0.228   0.113
 4537TIP3    H113554   3.775   0.238   0.207
 4537TIP3    H213555   3.818   0.295   0.074
 4538TIP3   OH213556   6.443   1.623   2.771
 4538TIP3    H113557   6.362   1.667   2.745
 4538TIP3    H213558   6.433   1.608   2.865
 4539TIP3   OH213559   7.347   4.008   4.293
 4539TIP3    H113560   7.385   4.082   4.246
 4539TIP3    H213561   7.396   3.932   4.261
 4540TIP3   OH213562   3.646   7.221   1.202
 4540TIP3    H113563   3.668   7.202   1.111
 4540TIP3    H213564   3.673   7.312   1.215
 4541TIP3   OH213565   4.812   4.103   1.275
 4541TIP3    H113566   4.844   4.081   1.363
 4541TIP3    H213567   4.721   4.127   1.288
 4542TIP3   OH213568   8.000   0.127   1.872
 4542TIP3    H113569   8.050   0.191   1.923
 4542TIP3    H213570   8.067   0.068   1.837
 4543TIP3   OH213571   2.367   4.563   3.714
 4543TIP3    H113572   2.307   4.599   3.779
 4543TIP3    H213573   2.314   4.552   3.635
 4544TIP3   OH213574   8.098   2.038   3.424
 4544TIP3    H113575   8.183   2.048   3.382
 4544TIP3    H213576   8.035   2.045   3.353
 4545TIP3   OH213577   6.193   1.038   0.697
 4545TIP3    H113578   6.145   1.028   0.615
 4545TIP3    H213579   6.190   0.951   0.737
 4546TIP3   OH213580   6.337   2.206   0.176
 4546TIP3    H113581   6.297   2.187   0.091
 4546TIP3    H213582   6.337   2.122   0.222
 4547TIP3   OH213583   2.549   3.863   3.563
 4547TIP3    H113584   2.476   3.877   3.623
 4547TIP3    H213585   2.627   3.869   3.619
 4548TIP3   OH213586   6.253   4.920   0.346
 4548TIP3    H113587   6.269   4.998   0.399
 4548TIP3    H213588   6.165   4.932   0.311
 4549TIP3   OH213589   1.305   5.587   2.892
 4549TIP3    H113590   1.318   5.627   2.805
 4549TIP3    H213591   1.243   5.515   2.876
 4550TIP3   OH213592   0.364   2.638   6.627
 4550TIP3    H113593   0.353   2.727   6.593
 4550TIP3    H213594   0.291   2.627   6.688
 4551TIP3   OH213595   3.860   3.795   0.651
 4551TIP3    H113596   3.931   3.811   0.714
 4551TIP3    H213597   3.903   3.795   0.566
 4552TIP3   OH213598   4.600   3.085   5.340
 4552TIP3    H113599   4.664   3.151   5.368
 4552TIP3    H213600   4.605   3.017   5.407
 4553TIP3   OH213601   4.184   0.625   3.553
 4553TIP3    H113602   4.237   0.566   3.606
 4553TIP3    H213603   4.120   0.661   3.614
 4554TIP3   OH213604   0.021   5.736   5.842
 4554TIP3    H113605   0.082   5.726   5.770
 4554TIP3    H213606  -0.048   5.793   5.808
 4555TIP3   OH213607   1.315   6.523   6.459
 4555TIP3    H113608   1.387   6.578   6.490
 4555TIP3    H213609   1.311   6.451   6.521
 4556TIP3   OH213610   0.136   3.611   0.688
 4556TIP3    H113611   0.075   3.571   0.626
 4556TIP3    H213612   0.110   3.703   0.691
 4557TIP3   OH213613   0.561   5.310   4.064
 4557TIP3    H113614   0.630   5.318   4.130
 4557TIP3    H213615   0.485   5.353   4.103
 4558TIP3   OH213616   5.128   2.804   2.691
 4558TIP3    H113617   5.113   2.795   2.597
 4558TIP3    H213618   5.122   2.715   2.725
 4559TIP3   OH213619   4.887   1.542   0.303
 4559TIP3    H113620   4.792   1.549   0.305
 4559TIP3    H213621   4.904   1.450   0.282
 4560TIP3   OH213622   0.199   0.100   3.991
 4560TIP3    H113623   0.241   0.016   3.973
 4560TIP3    H213624   0.260   0.146   4.049
 4561TIP3   OH213625   2.014   1.403   5.391
 4561TIP3    H113626   1.967   1.323   5.414
 4561TIP3    H213627   1.947   1.463   5.359
 4562TIP3   OH213628   6.946   5.689   3.504
 4562TIP3    H113629   6.925   5.604   3.467
 4562TIP3    H213630   6.864   5.720   3.543
 4563TIP3   OH213631   2.159   0.301   0.124
 4563TIP3    H113632   2.151   0.208   0.106
 4563TIP3    H213633   2.180   0.307   0.217
 4564TIP3   OH213634   1.974   1.565   1.708
 4564TIP3    H113635   1.933   1.622   1.773
 4564TIP3    H213636   2.047   1.616   1.674
 4565TIP3   OH213637   7.188   1.630   3.668
 4565TIP3    H113638   7.164   1.707   3.617
 4565TIP3    H213639   7.104   1.588   3.688
 4566TIP3   OH213640   7.355   3.673   1.309
 4566TIP3    H113641   7.397   3.676   1.395
 4566TIP3    H213642   7.406   3.733   1.255
 4567TIP3   OH213643   1.418   5.743   4.171
 4567TIP3    H113644   1.510   5.733   4.193
 4567TIP3    H213645   1.373   5.751   4.255
 4568TIP3   OH213646   0.207   7.366   2.340
 4568TIP3    H113647   0.272   7.333   2.403
 4568TIP3    H213648   0.135   7.397   2.394
 4569TIP3   OH213649   5.829   0.873   3.615
 4569TIP3    H113650   5.884   0.794   3.619
 4569TIP3    H213651   5.773   0.860   3.539
 4570TIP3   OH213652   4.465   1.833   4.144
 4570TIP3    H113653   4.412   1.853   4.222
 4570TIP3    H213654   4.526   1.765   4.173
 4571TIP3   OH213655   3.966   2.512   4.293
 4571TIP3    H113656   3.931   2.444   4.235
 4571TIP3    H213657   3.985   2.586   4.236
 4572TIP3   OH213658   2.154   4.401   5.428
 4572TIP3    H113659   2.161   4.435   5.339
 4572TIP3    H213660   2.233   4.432   5.472
 4573TIP3   OH213661   6.685   1.571   4.521
 4573TIP3    H113662   6.773   1.604   4.542
 4573TIP3    H213663   6.701   1.490   4.472
 4574TIP3   OH213664   6.186   0.661   6.048
 4574TIP3    H113665   6.269   0.672   6.001
 4574TIP3    H213666   6.209   0.669   6.140
 4575TIP3   OH213667   7.158   0.677   5.700
 4575TIP3    H113668   7.101   0.690   5.624
 4575TIP3    H213669   7.123   0.736   5.767
 4576TIP3   OH213670   1.127   0.931   0.922
 4576TIP3    H113671   1.096   0.845   0.894
 4576TIP3    H213672   1.150   0.920   1.014
 4577TIP3   OH213673   2.807   7.815   0.824
 4577TIP3    H113674   2.825   7.755   0.896
 4577TIP3    H213675   2.765   7.760   0.758
 4578TIP3   OH213676   1.503   0.521   5.333
 4578TIP3    H113677   1.592   0.489   5.348
 4578TIP3    H213678   1.462   0.515   5.419
 4579TIP3   OH213679   1.598   0.700   2.834
 4579TIP3    H113680   1.619   0.766   2.900
 4579TIP3    H213681   1.658   0.718   2.762
 4580TIP3   OH213682   4.485   3.660   0.945
 4580TIP3    H113683   4.542   3.611   1.005
 4580TIP3    H213684   4.400   3.662   0.989
 4581TIP3   OH213685   0.740   3.872   2.624
 4581TIP3    H113686   0.737   3.804   2.691
 4581TIP3    H213687   0.660   3.859   2.572
 4582TIP3   OH213688   0.931   0.050   2.271
 4582TIP3    H113689   0.957   0.097   2.192
 4582TIP3    H213690   0.959  -0.040   2.256
 4583TIP3   OH213691   5.178   3.357   5.532
 4583TIP3    H113692   5.246   3.413   5.571
 4583TIP3    H213693   5.202   3.352   5.440
 4584TIP3   OH213694   0.551   3.045   0.344
 4584TIP3    H113695   0.561   3.037   0.439
 4584TIP3    H213696   0.482   2.982   0.322
 4585TIP3   OH213697   0.406   4.915   6.136
 4585TIP3    H113698   0.414   4.830   6.180
 4585TIP3    H213699   0.322   4.910   6.090
 4586TIP3   OH213700   2.405   1.088   2.322
 4586TIP3    H113701   2.314   1.083   2.351
 4586TIP3    H213702   2.405   1.045   2.237
 4587TIP3   OH213703   2.435   3.007   0.211
 4587TIP3    H113704   2.486   3.044   0.283
 4587TIP3    H213705   2.498   2.993   0.141
 4588TIP3   OH213706   4.792   4.282   4.149
 4588TIP3    H113707   4.873   4.322   4.180
 4588TIP3    H213708   4.798   4.287   4.053
 4589TIP3   OH213709   4.479   4.641   5.296
 4589TIP3    H113710   4.493   4.550   5.325
 4589TIP3    H213711   4.401   4.636   5.241
 4590TIP3   OH213712   0.265   7.624   3.795
 4590TIP3    H113713   0.326   7.615   3.722
 4590TIP3    H213714   0.179   7.606   3.757
 4591TIP3   OH213715   4.194   1.733   1.834
 4591TIP3    H113716   4.181   1.712   1.926
 4591TIP3    H213717   4.162   1.823   1.824
 4592TIP3   OH213718   8.245   1.103   1.861
 4592TIP3    H113719   8.311   1.148   1.914
 4592TIP3    H213720   8.294   1.047   1.801
 4593TIP3   OH213721   6.838   1.786   4.080
 4593TIP3    H113722   6.891   1.816   4.154
 4593TIP3    H213723   6.759   1.840   4.084
 4594TIP3   OH213724   2.719   2.131   4.701
 4594TIP3    H113725   2.741   2.222   4.723
 4594TIP3    H213726   2.747   2.080   4.777
 4595TIP3   OH213727   6.774   1.668   6.610
 4595TIP3    H113728   6.829   1.728   6.560
 4595TIP3    H213729   6.782   1.584   6.565
 4596TIP3   OH213730   6.370   7.183   0.764
 4596TIP3    H113731   6.292   7.204   0.815
 4596TIP3    H213732   6.412   7.267   0.749
 4597TIP3   OH213733   7.122   1.246   6.703
 4597TIP3    H113734   7.078   1.185   6.645
 4597TIP3    H213735   7.054   1.306   6.733
 4598TIP3   OH213736   1.451   3.769   6.629
 4598TIP3    H113737   1.469   3.850   6.676
 4598TIP3    H213738   1.533   3.750   6.582
 4599TIP3   OH213739   0.484   1.612   1.443
 4599TIP3    H113740   0.461   1.590   1.533
 4599TIP3    H213741   0.496   1.707   1.444
 4600TIP3   OH213742   4.631   1.792   5.285
 4600TIP3    H113743   4.642   1.735   5.209
 4600TIP3    H213744   4.704   1.854   5.280
 4601TIP3   OH213745   7.201   0.854   3.160
 4601TIP3    H113746   7.171   0.938   3.195
 4601TIP3    H213747   7.244   0.811   3.234
 4602TIP3   OH213748   3.033   2.140   3.774
 4602TIP3    H113749   3.066   2.172   3.690
 4602TIP3    H213750   3.040   2.215   3.833
 4603TIP3   OH213751   4.405   1.192   5.270
 4603TIP3    H113752   4.461   1.255   5.315
 4603TIP3    H213753   4.459   1.114   5.259
 4604TIP3   OH213754   4.637   2.333   1.539
 4604TIP3    H113755   4.619   2.366   1.451
 4604TIP3    H213756   4.673   2.408   1.586
 4605TIP3   OH213757   3.729   7.157   6.565
 4605TIP3    H113758   3.691   7.225   6.620
 4605TIP3    H213759   3.783   7.205   6.501
 4606TIP3   OH213760   4.306   4.904   5.912
 4606TIP3    H113761   4.323   4.899   5.818
 4606TIP3    H213762   4.225   4.955   5.919
 4607TIP3   OH213763   7.138   6.261   5.260
 4607TIP3    H113764   7.144   6.258   5.356
 4607TIP3    H213765   7.115   6.352   5.240
 4608TIP3   OH213766   5.287   4.698   4.578
 4608TIP3    H113767   5.282   4.625   4.640
 4608TIP3    H213768   5.379   4.723   4.578
 4609TIP3   OH213769   3.828   1.114   0.436
 4609TIP3    H113770   3.809   1.207   0.425
 4609TIP3    H213771   3.913   1.112   0.479
 4610TIP3   OH213772   5.247   4.063   1.664
 4610TIP3    H113773   5.276   4.040   1.576
 4610TIP3    H213774   5.252   3.981   1.713
 4611TIP3   OH213775   1.826   5.817   5.608
 4611TIP3    H113776   1.856   5.805   5.698
 4611TIP3    H213777   1.898   5.783   5.554
 4612TIP3   OH213778   3.997   6.963   6.404
 4612TIP3    H113779   4.047   6.954   6.485
 4612TIP3    H213780   3.999   7.057   6.385
 4613TIP3   OH213781   3.242   0.360   5.806
 4613TIP3    H113782   3.194   0.283   5.835
 4613TIP3    H213783   3.277   0.398   5.886
 4614TIP3   OH213784   5.729   5.902   2.244
 4614TIP3    H113785   5.803   5.957   2.218
 4614TIP3    H213786   5.761   5.855   2.322
 4615TIP3   OH213787   1.283   6.901   5.038
 4615TIP3    H113788   1.291   6.973   5.101
 4615TIP3    H213789   1.374   6.882   5.013
 4616TIP3   OH213790   0.374   2.897   4.388
 4616TIP3    H113791   0.462   2.926   4.361
 4616TIP3    H213792   0.345   2.842   4.315
 4617TIP3   OH213793   1.757   2.685   4.730
 4617TIP3    H113794   1.722   2.614   4.784
 4617TIP3    H213795   1.725   2.667   4.642
 4618TIP3   OH213796   0.467   2.832   3.093
 4618TIP3    H113797   0.460   2.853   3.186
 4618TIP3    H213798   0.377   2.836   3.061
 4619TIP3   OH213799   3.015   3.706   5.423
 4619TIP3    H113800   2.953   3.655   5.475
 4619TIP3    H213801   3.052   3.768   5.486
 4620TIP3   OH213802   8.027   6.647   1.717
 4620TIP3    H113803   7.969   6.694   1.657
 4620TIP3    H213804   8.079   6.716   1.759
 4621TIP3   OH213805   5.675   4.492   5.829
 4621TIP3    H113806   5.634   4.448   5.904
 4621TIP3    H213807   5.652   4.437   5.754
 4622TIP3   OH213808   7.202   2.300   2.512
 4622TIP3    H113809   7.192   2.386   2.471
 4622TIP3    H213810   7.139   2.300   2.584
 4623TIP3   OH213811   0.418   2.598   4.781
 4623TIP3    H113812   0.463   2.676   4.814
 4623TIP3    H213813   0.436   2.597   4.687
 4624TIP3   OH213814   4.195   7.223   4.880
 4624TIP3    H113815   4.236   7.284   4.817
 4624TIP3    H213816   4.266   7.165   4.906
 4625TIP3   OH213817   3.549   0.483   4.677
 4625TIP3    H113818   3.641   0.476   4.702
 4625TIP3    H213819   3.527   0.398   4.640
 4626TIP3   OH213820   4.314   4.869   0.038
 4626TIP3    H113821   4.359   4.786   0.051
 4626TIP3    H213822   4.375   4.935   0.070
 4627TIP3   OH213823   6.226   0.622   3.174
 4627TIP3    H113824   6.268   0.707   3.164
 4627TIP3    H213825   6.133   0.642   3.185
 4628TIP3   OH213826   5.564   4.813   1.945
 4628TIP3    H113827   5.540   4.830   1.854
 4628TIP3    H213828   5.660   4.812   1.945
 4629TIP3   OH213829   0.693   6.318   3.471
 4629TIP3    H113830   0.716   6.242   3.418
 4629TIP3    H213831   0.770   6.334   3.526
 4630TIP3   OH213832   6.484   2.055   6.351
 4630TIP3    H113833   6.507   2.011   6.269
 4630TIP3    H213834   6.420   2.121   6.324
 4631TIP3   OH213835   3.079   1.248   1.301
 4631TIP3    H113836   3.018   1.181   1.332
 4631TIP3    H213837   3.149   1.198   1.257
 4632TIP3   OH213838   4.199   0.228   0.907
 4632TIP3    H113839   4.144   0.242   0.984
 4632TIP3    H213840   4.268   0.293   0.915
 4633TIP3   OH213841   3.854   7.713   1.684
 4633TIP3    H113842   3.875   7.710   1.591
 4633TIP3    H213843   3.880   7.800   1.712
 4634TIP3   OH213844   2.342   0.768   6.452
 4634TIP3    H113845   2.424   0.812   6.473
 4634TIP3    H213846   2.281   0.799   6.519
 4635TIP3   OH213847   2.058   5.540   2.602
 4635TIP3    H113848   2.099   5.454   2.614
 4635TIP3    H213849   2.128   5.594   2.565
 4636TIP3   OH213850   0.385   5.008   3.001
 4636TIP3    H113851   0.417   4.947   3.068
 4636TIP3    H213852   0.464   5.044   2.961
 4637TIP3   OH213853   6.424   1.199   1.550
 4637TIP3    H113854   6.337   1.201   1.589
 4637TIP3    H213855   6.419   1.262   1.478
 4638TIP3   OH213856   8.193   4.415   6.071
 4638TIP3    H113857   8.211   4.448   5.983
 4638TIP3    H213858   8.276   4.378   6.100
 4639TIP3   OH213859   5.280   6.759   4.505
 4639TIP3    H113860   5.280   6.670   4.469
 4639TIP3    H213861   5.229   6.810   4.442
 4640TIP3   OH213862   5.404   0.837   0.678
 4640TIP3    H113863   5.428   0.765   0.621
 4640TIP3    H213864   5.380   0.908   0.618
 4641TIP3   OH213865   7.473   6.319   2.736
 4641TIP3    H113866   7.454   6.392   2.795
 4641TIP3    H213867   7.387   6.282   2.715
 4642TIP3   OH213868   4.635   4.329   4.943
 4642TIP3    H113869   4.541   4.346   4.935
 4642TIP3    H213870   4.661   4.301   4.855
 4643TIP3   OH213871   7.049   1.234   2.112
 4643TIP3    H113872   7.060   1.257   2.020
 4643TIP3    H213873   6.959   1.259   2.133
 4644TIP3   OH213874   6.222   3.785   3.486
 4644TIP3    H113875   6.249   3.873   3.461
 4644TIP3    H213876   6.247   3.730   3.411
 4645TIP3   OH213877   7.617   1.318   0.925
 4645TIP3    H113878   7.635   1.404   0.965
 4645TIP3    H213879   7.696   1.299   0.875
 4646TIP3   OH213880   8.046   5.209   5.025
 4646TIP3    H113881   8.019   5.233   4.936
 4646TIP3    H213882   8.136   5.180   5.015
 4647TIP3   OH213883   0.135   6.181   5.993
 4647TIP3    H113884   0.063   6.243   5.981
 4647TIP3    H213885   0.091   6.095   5.997
 4648TIP3   OH213886   1.699   2.017   6.274
 4648TIP3    H113887   1.731   2.002   6.185
 4648TIP3    H213888   1.753   1.961   6.329
 4649TIP3   OH213889   2.433   7.435   6.145
 4649TIP3    H113890   2.372   7.464   6.077
 4649TIP3    H213891   2.515   7.417   6.098
 4650TIP3   OH213892   0.699   4.946   1.913
 4650TIP3    H113893   0.659   4.992   1.987
 4650TIP3    H213894   0.763   4.888   1.954
 4651TIP3   OH213895   0.252   7.486   0.748
 4651TIP3    H113896   0.288   7.554   0.805
 4651TIP3    H213897   0.326   7.459   0.692
 4652TIP3   OH213898   7.423   3.376   6.567
 4652TIP3    H113899   7.428   3.438   6.494
 4652TIP3    H213900   7.497   3.317   6.554
 4653TIP3   OH213901   7.145   7.415   0.430
 4653TIP3    H113902   7.205   7.470   0.480
 4653TIP3    H213903   7.107   7.474   0.365
 4654TIP3   OH213904   3.044   0.044   4.578
 4654TIP3    H113905   3.019   0.010   4.492
 4654TIP3    H213906   3.139   0.056   4.573
 4655TIP3   OH213907   5.640   7.755   1.935
 4655TIP3    H113908   5.627   7.793   2.022
 4655TIP3    H213909   5.712   7.806   1.898
 4656TIP3   OH213910   4.111   2.018   5.604
 4656TIP3    H113911   4.054   2.092   5.626
 4656TIP3    H213912   4.191   2.058   5.571
 4657TIP3   OH213913   1.436   3.161   4.753
 4657TIP3    H113914   1.379   3.218   4.702
 4657TIP3    H213915   1.451   3.209   4.835
 4658TIP3   OH213916   4.590   3.323   4.980
 4658TIP3    H113917   4.569   3.233   5.003
 4658TIP3    H213918   4.508   3.371   4.995
 4659TIP3   OH213919   4.808   0.538   6.003
 4659TIP3    H113920   4.872   0.526   5.933
 4659TIP3    H213921   4.855   0.515   6.083
 4660TIP3   OH213922   2.641   3.539   0.314
 4660TIP3    H113923   2.642   3.502   0.402
 4660TIP3    H213924   2.725   3.513   0.277
 4661TIP3   OH213925   2.277   3.634   1.935
 4661TIP3    H113926   2.262   3.566   2.001
 4661TIP3    H213927   2.253   3.716   1.978
 4662TIP3   OH213928   1.973   2.871   2.000
 4662TIP3    H113929   1.980   2.906   1.911
 4662TIP3    H213930   1.924   2.790   1.990
 4663TIP3   OH213931   0.110   4.183   0.974
 4663TIP3    H113932   0.139   4.100   1.011
 4663TIP3    H213933   0.151   4.186   0.887
 4664TIP3   OH213934   4.952   2.285   1.297
 4664TIP3    H113935   4.900   2.209   1.324
 4664TIP3    H213936   4.950   2.343   1.373
 4665TIP3   OH213937   2.522   4.964   2.431
 4665TIP3    H113938   2.579   4.944   2.357
 4665TIP3    H213939   2.490   4.878   2.460
 4666TIP3   OH213940   0.304   6.788   2.082
 4666TIP3    H113941   0.261   6.863   2.122
 4666TIP3    H213942   0.304   6.721   2.150
 4667TIP3   OH213943   0.062   6.936   3.757
 4667TIP3    H113944   0.123   6.975   3.694
 4667TIP3    H213945  -0.025   6.953   3.720
 4668TIP3   OH213946   3.928   3.513   2.882
 4668TIP3    H113947   3.927   3.556   2.968
 4668TIP3    H213948   3.906   3.421   2.901
 4669TIP3   OH213949   0.874   1.460   0.255
 4669TIP3    H113950   0.781   1.449   0.271
 4669TIP3    H213951   0.880   1.514   0.177
 4670TIP3   OH213952   3.194   2.374   0.777
 4670TIP3    H113953   3.135   2.447   0.792
 4670TIP3    H213954   3.138   2.297   0.779
 4671TIP3   OH213955   2.096   2.888   4.310
 4671TIP3    H113956   2.157   2.816   4.293
 4671TIP3    H213957   2.046   2.859   4.386
 4672TIP3   OH213958   1.913   5.856   3.762
 4672TIP3    H113959   1.905   5.931   3.821
 4672TIP3    H213960   2.007   5.849   3.744
 4673TIP3   OH213961   5.235   2.122   4.168
 4673TIP3    H113962   5.329   2.105   4.177
 4673TIP3    H213963   5.197   2.091   4.250
 4674TIP3   OH213964   5.471   2.401   1.219
 4674TIP3    H113965   5.403   2.394   1.287
 4674TIP3    H213966   5.542   2.448   1.262
 4675TIP3   OH213967   0.786   2.862   6.392
 4675TIP3    H113968   0.800   2.793   6.457
 4675TIP3    H213969   0.691   2.873   6.388
 4676TIP3   OH213970   5.935   6.735   4.419
 4676TIP3    H113971   5.955   6.757   4.328
 4676TIP3    H213972   5.843   6.759   4.429
 4677TIP3   OH213973   3.164   0.540   3.195
 4677TIP3    H113974   3.200   0.477   3.257
 4677TIP3    H213975   3.218   0.530   3.117
 4678TIP3   OH213976   1.360   2.616   4.051
 4678TIP3    H113977   1.278   2.568   4.045
 4678TIP3    H213978   1.426   2.549   4.065
 4679TIP3   OH213979   0.269   6.196   6.728
 4679TIP3    H113980   0.318   6.187   6.646
 4679TIP3    H213981   0.177   6.188   6.702
 4680TIP3   OH213982   6.262   2.667   3.306
 4680TIP3    H113983   6.282   2.759   3.323
 4680TIP3    H213984   6.345   2.621   3.321
 4681TIP3   OH213985   4.816   2.055   6.102
 4681TIP3    H113986   4.791   1.967   6.075
 4681TIP3    H213987   4.912   2.053   6.104
 4682TIP3   OH213988   1.832   0.425   6.360
 4682TIP3    H113989   1.800   0.435   6.270
 4682TIP3    H213990   1.872   0.338   6.361
 4683TIP3   OH213991   1.859   5.742   1.912
 4683TIP3    H113992   1.882   5.650   1.900
 4683TIP3    H213993   1.865   5.755   2.007
 4684TIP3   OH213994   3.004   4.543   5.934
 4684TIP3    H113995   2.929   4.510   5.885
 4684TIP3    H213996   3.060   4.466   5.946
 4685TIP3   OH213997   6.989   7.592   6.189
 4685TIP3    H113998   6.902   7.603   6.151
 4685TIP3    H213999   6.976   7.604   6.283
 4686TIP3   OH214000   2.293   7.722   3.561
 4686TIP3    H114001   2.264   7.705   3.472
 4686TIP3    H214002   2.376   7.675   3.569
 4687TIP3   OH214003   1.243   2.670   0.214
 4687TIP3    H114004   1.232   2.639   0.304
 4687TIP3    H214005   1.195   2.606   0.161
 4688TIP3   OH214006   0.451   2.341   0.166
 4688TIP3    H114007   0.513   2.320   0.097
 4688TIP3    H214008   0.398   2.262   0.176
 4689TIP3   OH214009   1.462   0.532   2.188
 4689TIP3    H114010   1.542   0.528   2.136
 4689TIP3    H214011   1.486   0.583   2.265
 4690TIP3   OH214012   0.246   7.596   6.248
 4690TIP3    H114013   0.294   7.525   6.289
 4690TIP3    H214014   0.162   7.598   6.294
 4691TIP3   OH214015   4.453   1.410   2.182
 4691TIP3    H114016   4.362   1.398   2.154
 4691TIP3    H214017   4.453   1.383   2.274
 4692TIP3   OH214018   3.444   3.415   3.679
 4692TIP3    H114019   3.397   3.446   3.602
 4692TIP3    H214020   3.398   3.454   3.753
 4693TIP3   OH214021   2.824   1.325   5.967
 4693TIP3    H114022   2.746   1.358   5.922
 4693TIP3    H214023   2.882   1.297   5.897
 4694TIP3   OH214024   7.345   4.700   1.253
 4694TIP3    H114025   7.430   4.672   1.288
 4694TIP3    H214026   7.322   4.777   1.305
 4695TIP3   OH214027   0.352   2.255   1.137
 4695TIP3    H114028   0.300   2.307   1.199
 4695TIP3    H214029   0.305   2.172   1.130
 4696TIP3   OH214030   4.497   4.771   0.884
 4696TIP3    H114031   4.404   4.775   0.906
 4696TIP3    H214032   4.523   4.681   0.906
 4697TIP3   OH214033   7.780   3.036   1.434
 4697TIP3    H114034   7.705   2.980   1.455
 4697TIP3    H214035   7.780   3.103   1.503
 4698TIP3   OH214036   6.975   5.056   3.071
 4698TIP3    H114037   6.941   4.966   3.064
 4698TIP3    H214038   7.030   5.067   2.993
 4699TIP3   OH214039   0.627   4.815   4.713
 4699TIP3    H114040   0.538   4.788   4.734
 4699TIP3    H214041   0.630   4.813   4.617
 4700TIP3   OH214042   8.131   3.493   2.246
 4700TIP3    H114043   8.044   3.469   2.216
 4700TIP3    H214044   8.184   3.414   2.233
 4701TIP3   OH214045   6.168   1.247   0.882
 4701TIP3    H114046   6.096   1.311   0.886
 4701TIP3    H214047   6.135   1.177   0.825
 4702TIP3   OH214048   7.013   6.820   3.284
 4702TIP3    H114049   7.037   6.875   3.210
 4702TIP3    H214050   7.096   6.797   3.326
 4703TIP3   OH214051   5.772   7.210   2.791
 4703TIP3    H114052   5.818   7.287   2.760
 4703TIP3    H214053   5.802   7.139   2.735
 4704TIP3   OH214054   1.822   4.557   0.585
 4704TIP3    H114055   1.870   4.619   0.640
 4704TIP3    H214056   1.820   4.597   0.498
 4705TIP3   OH214057   7.443   3.429   3.196
 4705TIP3    H114058   7.364   3.386   3.163
 4705TIP3    H214059   7.471   3.375   3.269
 4706TIP3   OH214060   5.883   7.318   3.851
 4706TIP3    H114061   5.965   7.340   3.896
 4706TIP3    H214062   5.867   7.227   3.875
 4707TIP3   OH214063   6.027   1.178   6.046
 4707TIP3    H114064   6.051   1.143   6.132
 4707TIP3    H214065   5.985   1.261   6.065
 4708TIP3   OH214066   0.784   3.334   0.018
 4708TIP3    H114067   0.789   3.274   0.093
 4708TIP3    H214068   0.718   3.398   0.043
 4709TIP3   OH214069   3.049   5.335   2.797
 4709TIP3    H114070   3.071   5.424   2.825
 4709TIP3    H214071   2.982   5.307   2.858
 4710TIP3   OH214072   7.415   0.309   5.186
 4710TIP3    H114073   7.431   0.391   5.139
 4710TIP3    H214074   7.494   0.294   5.237
 4711TIP3   OH214075   7.508   4.975   6.160
 4711TIP3    H114076   7.435   4.978   6.098
 4711TIP3    H214077   7.578   5.023   6.117
 4712TIP3   OH214078   4.696   6.568   1.646
 4712TIP3    H114079   4.648   6.650   1.637
 4712TIP3    H214080   4.764   6.586   1.711
 4713TIP3   OH214081   6.218   0.671   1.226
 4713TIP3    H114082   6.160   0.616   1.278
 4713TIP3    H214083   6.220   0.628   1.140
 4714TIP3   OH214084   2.681   6.338   2.840
 4714TIP3    H114085   2.593   6.323   2.874
 4714TIP3    H214086   2.668   6.385   2.758
 4715TIP3   OH214087   4.531   6.334   5.044
 4715TIP3    H114088   4.556   6.346   4.953
 4715TIP3    H214089   4.487   6.249   5.046
 4716TIP3   OH214090   7.070   4.669   5.806
 4716TIP3    H114091   7.033   4.639   5.723
 4716TIP3    H214092   7.049   4.598   5.868
 4717TIP3   OH214093   6.215   7.492   2.502
 4717TIP3    H114094   6.141   7.475   2.560
 4717TIP3    H214095   6.177   7.537   2.427
 4718TIP3   OH214096   8.020   4.447   1.557
 4718TIP3    H114097   7.985   4.497   1.631
 4718TIP3    H214098   8.104   4.489   1.538
 4719TIP3   OH214099   4.423   0.607   5.110
 4719TIP3    H114100   4.423   0.511   5.111
 4719TIP3    H214101   4.474   0.630   5.033
 4720TIP3   OH214102   3.264   1.984   3.717
 4720TIP3    H114103   3.169   1.992   3.725
 4720TIP3    H214104   3.287   1.913   3.778
 4721TIP3   OH214105   4.557   4.193   0.470
 4721TIP3    H114106   4.477   4.154   0.433
 4721TIP3    H214107   4.551   4.176   0.564
 4722TIP3   OH214108   7.030   0.462   1.934
 4722TIP3    H114109   7.007   0.554   1.923
 4722TIP3    H214110   6.983   0.417   1.864
 4723TIP3   OH214111   1.938   7.797   4.002
 4723TIP3    H114112   1.897   7.711   3.992
 4723TIP3    H214113   2.000   7.802   3.929
 4724TIP3   OH214114   2.327   4.336   4.702
 4724TIP3    H114115   2.406   4.320   4.754
 4724TIP3    H214116   2.312   4.256   4.653
 4725TIP3   OH214117   6.854   5.642   2.980
 4725TIP3    H114118   6.846   5.724   3.029
 4725TIP3    H214119   6.807   5.659   2.899
 4726TIP3   OH214120   7.393   1.560   1.624
 4726TIP3    H114121   7.325   1.492   1.619
 4726TIP3    H214122   7.451   1.540   1.551
 4727TIP3   OH214123   0.310   4.074   0.818
 4727TIP3    H114124   0.371   4.003   0.840
 4727TIP3    H214125   0.365   4.145   0.786
 4728TIP3   OH214126   2.511   3.109   2.909
 4728TIP3    H114127   2.550   3.190   2.941
 4728TIP3    H214128   2.448   3.084   2.977
 4729TIP3   OH214129   1.743   4.193   6.302
 4729TIP3    H114130   1.655   4.169   6.332
 4729TIP3    H214131   1.737   4.286   6.280
 4730TIP3   OH214132   5.693   1.911   4.283
 4730TIP3    H114133   5.747   1.892   4.360
 4730TIP3    H214134   5.677   1.825   4.243
 4731TIP3   OH214135   6.495   6.960   2.741
 4731TIP3    H114136   6.524   6.881   2.786
 4731TIP3    H214137   6.576   6.999   2.706
 4732TIP3   OH214138   7.810   6.517   4.034
 4732TIP3    H114139   7.806   6.609   4.058
 4732TIP3    H214140   7.741   6.475   4.086
 4733TIP3   OH214141   8.140   5.598   0.453
 4733TIP3    H114142   8.112   5.521   0.404
 4733TIP3    H214143   8.230   5.613   0.424
 4734TIP3   OH214144   5.880   4.621   4.747
 4734TIP3    H114145   5.918   4.571   4.674
 4734TIP3    H214146   5.955   4.638   4.805
 4735TIP3   OH214147   5.681   1.191   6.618
 4735TIP3    H114148   5.719   1.171   6.704
 4735TIP3    H214149   5.589   1.213   6.637
 4736TIP3   OH214150   4.958   1.339   6.520
 4736TIP3    H114151   4.939   1.370   6.431
 4736TIP3    H214152   5.006   1.257   6.506
 4737TIP3   OH214153   5.928   2.219   0.436
 4737TIP3    H114154   5.983   2.148   0.402
 4737TIP3    H214155   5.848   2.176   0.464
 4738TIP3   OH214156   6.015   5.577   6.334
 4738TIP3    H114157   5.982   5.644   6.274
 4738TIP3    H214158   5.945   5.568   6.399
 4739TIP3   OH214159   4.237   4.377   4.116
 4739TIP3    H114160   4.191   4.313   4.062
 4739TIP3    H214161   4.317   4.397   4.067
 4740TIP3   OH214162   7.159   7.158   0.951
 4740TIP3    H114163   7.132   7.087   0.893
 4740TIP3    H214164   7.077   7.193   0.986
 4741TIP3   OH214165   3.822   0.428   4.708
 4741TIP3    H114166   3.872   0.479   4.772
 4741TIP3    H214167   3.828   0.479   4.628
 4742TIP3   OH214168   4.595   6.595   5.253
 4742TIP3    H114169   4.671   6.584   5.311
 4742TIP3    H214170   4.591   6.689   5.236
 4743TIP3   OH214171   7.857   3.612   0.380
 4743TIP3    H114172   7.789   3.655   0.329
 4743TIP3    H214173   7.938   3.655   0.353
 4744TIP3   OH214174   5.747   7.317   1.930
 4744TIP3    H114175   5.765   7.390   1.871
 4744TIP3    H214176   5.690   7.259   1.880
 4745TIP3   OH214177   3.640   4.690   5.286
 4745TIP3    H114178   3.568   4.676   5.224
 4745TIP3    H214179   3.622   4.777   5.323
 4746TIP3   OH214180   7.503   6.732   1.688
 4746TIP3    H114181   7.445   6.656   1.695
 4746TIP3    H214182   7.583   6.706   1.733
 4747TIP3   OH214183   4.062   1.925   2.628
 4747TIP3    H114184   3.985   1.890   2.582
 4747TIP3    H214185   4.026   1.975   2.701
 4748TIP3   OH214186   1.801   0.552   6.079
 4748TIP3    H114187   1.759   0.614   6.138
 4748TIP3    H214188   1.744   0.550   6.002
 4749TIP3   OH214189   3.251   5.158   6.590
 4749TIP3    H114190   3.247   5.106   6.510
 4749TIP3    H214191   3.162   5.156   6.625
 4750TIP3   OH214192   6.731   5.023   4.625
 4750TIP3    H114193   6.740   4.971   4.705
 4750TIP3    H214194   6.785   5.101   4.641
 4751TIP3   OH214195   0.681   5.396   5.760
 4751TIP3    H114196   0.660   5.489   5.751
 4751TIP3    H214197   0.650   5.373   5.848
 4752TIP3   OH214198   3.194   5.868   2.488
 4752TIP3    H114199   3.270   5.854   2.431
 4752TIP3    H214200   3.144   5.786   2.481
 4753TIP3   OH214201   2.903   2.687   2.966
 4753TIP3    H114202   2.932   2.678   2.875
 4753TIP3    H214203   2.827   2.744   2.962
 4754TIP3   OH214204   5.408   4.475   1.700
 4754TIP3    H114205   5.367   4.513   1.778
 4754TIP3    H214206   5.398   4.381   1.712
 4755TIP3   OH214207   0.522   0.508   3.650
 4755TIP3    H114208   0.539   0.549   3.565
 4755TIP3    H214209   0.445   0.554   3.684
 4756TIP3   OH214210   7.568   4.653   0.167
 4756TIP3    H114211   7.574   4.738   0.210
 4756TIP3    H214212   7.657   4.617   0.171
 4757TIP3   OH214213   1.016   6.731   1.841
 4757TIP3    H114214   0.957   6.710   1.769
 4757TIP3    H214215   1.068   6.804   1.810
 4758TIP3   OH214216   2.822   2.763   5.994
 4758TIP3    H114217   2.824   2.847   6.040
 4758TIP3    H214218   2.813   2.698   6.063
 4759TIP3   OH214219   4.440   4.987   2.860
 4759TIP3    H114220   4.517   5.025   2.818
 4759TIP3    H214221   4.405   5.058   2.914
 4760TIP3   OH214222   6.652   6.110   3.235
 4760TIP3    H114223   6.599   6.175   3.189
 4760TIP3    H214224   6.686   6.157   3.312
 4761TIP3   OH214225   5.651   5.464   5.563
 4761TIP3    H114226   5.629   5.503   5.478
 4761TIP3    H214227   5.596   5.386   5.569
 4762TIP3   OH214228   8.016   6.491   5.385
 4762TIP3    H114229   7.980   6.574   5.355
 4762TIP3    H214230   8.040   6.507   5.476
 4763TIP3   OH214231   5.458   6.092   1.257
 4763TIP3    H114232   5.489   6.107   1.168
 4763TIP3    H214233   5.398   6.018   1.249
 4764TIP3   OH214234   5.436   0.565   4.136
 4764TIP3    H114235   5.367   0.606   4.084
 4764TIP3    H214236   5.517   0.605   4.104
 4765TIP3   OH214237   1.065   7.472   2.617
 4765TIP3    H114238   1.078   7.533   2.689
 4765TIP3    H214239   1.009   7.520   2.555
 4766TIP3   OH214240   8.117   6.991   3.624
 4766TIP3    H114241   8.026   6.996   3.593
 4766TIP3    H214242   8.169   7.003   3.544
 4767TIP3   OH214243   6.227   6.088   4.630
 4767TIP3    H114244   6.226   6.181   4.608
 4767TIP3    H214245   6.286   6.083   4.706
 4768TIP3   OH214246   6.084   5.931   1.090
 4768TIP3    H114247   6.110   6.016   1.126
 4768TIP3    H214248   6.085   5.872   1.165
 4769TIP3   OH214249   0.814   7.786   2.780
 4769TIP3    H114250   0.810   7.700   2.824
 4769TIP3    H214251   0.723   7.814   2.775
 4770TIP3   OH214252   6.386   0.715   5.878
 4770TIP3    H114253   6.469   0.736   5.836
 4770TIP3    H214254   6.322   0.714   5.807
 4771TIP3   OH214255   5.717   0.121   3.285
 4771TIP3    H114256   5.697   0.030   3.308
 4771TIP3    H214257   5.638   0.170   3.307
 4772TIP3   OH214258   1.942   0.816   4.441
 4772TIP3    H114259   1.860   0.789   4.482
 4772TIP3    H214260   1.949   0.763   4.362
 4773TIP3   OH214261   1.759   2.022   2.613
 4773TIP3    H114262   1.760   2.075   2.533
 4773TIP3    H214263   1.696   2.067   2.670
 4774TIP3   OH214264   3.278   2.043   5.903
 4774TIP3    H114265   3.242   2.070   5.987
 4774TIP3    H214266   3.305   1.952   5.916
 4775TIP3   OH214267   1.346   3.360   1.758
 4775TIP3    H114268   1.252   3.349   1.742
 4775TIP3    H214269   1.367   3.294   1.823
 4776TIP3   OH214270   0.384   0.279   0.950
 4776TIP3    H114271   0.430   0.283   0.866
 4776TIP3    H214272   0.319   0.210   0.937
 4777TIP3   OH214273   4.101   7.317   1.500
 4777TIP3    H114274   4.186   7.274   1.504
 4777TIP3    H214275   4.071   7.303   1.410
 4778TIP3   OH214276   5.968   0.671   3.198
 4778TIP3    H114277   5.909   0.615   3.147
 4778TIP3    H214278   5.967   0.754   3.151
 4779TIP3   OH214279   6.781   0.915   2.817
 4779TIP3    H114280   6.730   0.995   2.831
 4779TIP3    H214281   6.724   0.858   2.765
 4780TIP3   OH214282   0.103   1.879   3.325
 4780TIP3    H114283   0.184   1.870   3.375
 4780TIP3    H214284   0.092   1.973   3.314
 4781TIP3   OH214285   6.034   3.723   5.260
 4781TIP3    H114286   6.001   3.672   5.186
 4781TIP3    H214287   6.076   3.658   5.317
 4782TIP3   OH214288   0.245   7.791   4.304
 4782TIP3    H114289   0.323   7.846   4.296
 4782TIP3    H214290   0.206   7.792   4.217
 4783TIP3   OH214291   4.003   5.746   5.134
 4783TIP3    H114292   4.079   5.740   5.076
 4783TIP3    H214293   4.037   5.721   5.220
 4784TIP3   OH214294   5.337   1.875   4.391
 4784TIP3    H114295   5.262   1.870   4.332
 4784TIP3    H214296   5.354   1.784   4.416
 4785TIP3   OH214297   2.118   3.935   0.907
 4785TIP3    H114298   2.127   4.015   0.856
 4785TIP3    H214299   2.165   3.868   0.856
 4786TIP3   OH214300   4.597   0.571   5.685
 4786TIP3    H114301   4.656   0.571   5.609
 4786TIP3    H214302   4.587   0.478   5.707
 4787TIP3   OH214303   3.086   3.432   4.901
 4787TIP3    H114304   3.058   3.431   4.992
 4787TIP3    H214305   3.132   3.348   4.890
 4788TIP3   OH214306   2.994   1.166   0.789
 4788TIP3    H114307   2.971   1.166   0.881
 4788TIP3    H214308   3.006   1.258   0.766
 4789TIP3   OH214309   5.356   6.446   2.324
 4789TIP3    H114310   5.411   6.524   2.325
 4789TIP3    H214311   5.269   6.477   2.350
 4790TIP3   OH214312   3.068   7.126   1.821
 4790TIP3    H114313   2.977   7.097   1.834
 4790TIP3    H214314   3.117   7.044   1.809
 4791TIP3   OH214315   3.319   3.638   2.571
 4791TIP3    H114316   3.288   3.617   2.659
 4791TIP3    H214317   3.406   3.597   2.567
 4792TIP3   OH214318   6.442   0.436   6.281
 4792TIP3    H114319   6.356   0.394   6.277
 4792TIP3    H214320   6.461   0.461   6.190
 4793TIP3   OH214321   5.585   5.666   3.968
 4793TIP3    H114322   5.568   5.723   3.893
 4793TIP3    H214323   5.624   5.587   3.930
 4794TIP3   OH214324   6.997   3.691   2.776
 4794TIP3    H114325   6.903   3.709   2.774
 4794TIP3    H214326   7.019   3.672   2.685
 4795TIP3   OH214327   2.617   3.727   6.320
 4795TIP3    H114328   2.698   3.775   6.301
 4795TIP3    H214329   2.643   3.665   6.389
 4796TIP3   OH214330   8.139   5.088   5.292
 4796TIP3    H114331   8.063   5.143   5.311
 4796TIP3    H214332   8.213   5.149   5.292
 4797TIP3   OH214333   1.108   1.731   4.744
 4797TIP3    H114334   1.085   1.805   4.800
 4797TIP3    H214335   1.056   1.658   4.778
 4798TIP3   OH214336   5.700   2.092   0.555
 4798TIP3    H114337   5.718   2.120   0.645
 4798TIP3    H214338   5.687   1.998   0.561
 4799TIP3   OH214339   5.110   6.829   5.953
 4799TIP3    H114340   5.167   6.756   5.976
 4799TIP3    H214341   5.121   6.892   6.025
 4800TIP3   OH214342   7.032   2.251   0.876
 4800TIP3    H114343   7.062   2.321   0.817
 4800TIP3    H214344   7.110   2.226   0.925
 4801TIP3   OH214345   0.100   0.277   3.280
 4801TIP3    H114346   0.189   0.308   3.265
 4801TIP3    H214347   0.044   0.352   3.258
 4802TIP3   OH214348   0.924   7.221   6.137
 4802TIP3    H114349   0.987   7.268   6.082
 4802TIP3    H214350   0.870   7.289   6.177
 4803TIP3   OH214351   6.619   3.453   2.610
 4803TIP3    H114352   6.707   3.489   2.601
 4803TIP3    H214353   6.561   3.530   2.612
 4804TIP3   OH214354   0.404   6.828   2.370
 4804TIP3    H114355   0.331   6.857   2.423
 4804TIP3    H214356   0.431   6.907   2.321
 4805TIP3   OH214357   7.639   1.241   3.676
 4805TIP3    H114358   7.599   1.215   3.759
 4805TIP3    H214359   7.610   1.173   3.614
 4806TIP3   OH214360   2.807   7.538   0.083
 4806TIP3    H114361   2.887   7.534   0.134
 4806TIP3    H214362   2.741   7.571   0.144
 4807TIP3   OH214363   4.891   2.392   5.287
 4807TIP3    H114364   4.973   2.387   5.239
 4807TIP3    H214365   4.841   2.460   5.243
 4808TIP3   OH214366   4.709   1.353   2.061
 4808TIP3    H114367   4.682   1.296   1.989
 4808TIP3    H214368   4.627   1.386   2.097
 4809TIP3   OH214369   7.516   6.980   2.315
 4809TIP3    H114370   7.465   6.907   2.280
 4809TIP3    H214371   7.606   6.961   2.289
 4810TIP3   OH214372   8.048   4.226   5.097
 4810TIP3    H114373   8.014   4.170   5.028
 4810TIP3    H214374   8.143   4.219   5.089
 4811TIP3   OH214375   0.524   3.616   4.254
 4811TIP3    H114376   0.582   3.682   4.294
 4811TIP3    H214377   0.563   3.532   4.279
 4812TIP3   OH214378   1.756   1.831   3.013
 4812TIP3    H114379   1.806   1.913   3.015
 4812TIP3    H214380   1.823   1.763   3.017
 4813TIP3   OH214381   6.193   4.514   3.889
 4813TIP3    H114382   6.196   4.608   3.907
 4813TIP3    H214383   6.279   4.494   3.852
 4814TIP3   OH214384   1.862   1.004   4.222
 4814TIP3    H114385   1.893   0.968   4.305
 4814TIP3    H214386   1.767   1.001   4.229
 4815TIP3   OH214387   3.094   7.290   5.738
 4815TIP3    H114388   3.157   7.277   5.809
 4815TIP3    H214389   3.132   7.244   5.664
 4816TIP3   OH214390   4.379   5.209   6.023
 4816TIP3    H114391   4.310   5.269   5.993
 4816TIP3    H214392   4.333   5.127   6.042
 4817TIP3   OH214393   4.607   7.199   0.877
 4817TIP3    H114394   4.550   7.197   0.954
 4817TIP3    H214395   4.648   7.285   0.879
 4818TIP3   OH214396   5.633   5.660   1.825
 4818TIP3    H114397   5.694   5.732   1.813
 4818TIP3    H214398   5.687   5.581   1.820
 4819TIP3   OH214399   3.437   0.896   2.618
 4819TIP3    H114400   3.524   0.883   2.656
 4819TIP3    H214401   3.422   0.819   2.564
 4820TIP3   OH214402   2.637   0.627   2.881
 4820TIP3    H114403   2.715   0.576   2.905
 4820TIP3    H214404   2.663   0.718   2.892
 4821TIP3   OH214405   1.473   2.020   0.923
 4821TIP3    H114406   1.533   2.085   0.886
 4821TIP3    H214407   1.490   2.024   1.017
 4822TIP3   OH214408   7.223   6.324   2.348
 4822TIP3    H114409   7.178   6.398   2.307
 4822TIP3    H214410   7.207   6.334   2.441
 4823TIP3   OH214411   0.376   7.699   0.900
 4823TIP3    H114412   0.462   7.685   0.861
 4823TIP3    H214413   0.360   7.793   0.890
 4824TIP3   OH214414   0.575   7.547   3.864
 4824TIP3    H114415   0.516   7.593   3.924
 4824TIP3    H214416   0.648   7.608   3.852
 4825TIP3   OH214417   1.795   1.423   6.761
 4825TIP3    H114418   1.790   1.481   6.684
 4825TIP3    H214419   1.889   1.409   6.773
 4826TIP3   OH214420   2.008   7.391   1.626
 4826TIP3    H114421   1.934   7.342   1.588
 4826TIP3    H214422   1.967   7.467   1.667
 4827TIP3   OH214423   5.217   1.609   4.131
 4827TIP3    H114424   5.294   1.655   4.164
 4827TIP3    H214425   5.201   1.539   4.194
 4828TIP3   OH214426   7.384   2.525   3.045
 4828TIP3    H114427   7.310   2.582   3.069
 4828TIP3    H214428   7.419   2.495   3.129
 4829TIP3   OH214429   6.107   6.685   0.910
 4829TIP3    H114430   6.054   6.681   0.830
 4829TIP3    H214431   6.055   6.737   0.971
 4830TIP3   OH214432   7.709   2.838   2.697
 4830TIP3    H114433   7.714   2.820   2.791
 4830TIP3    H214434   7.774   2.780   2.658
 4831TIP3   OH214435   3.947   0.299   5.869
 4831TIP3    H114436   3.852   0.313   5.861
 4831TIP3    H214437   3.973   0.358   5.940
 4832TIP3   OH214438   4.558   6.086   4.574
 4832TIP3    H114439   4.481   6.144   4.570
 4832TIP3    H214440   4.629   6.142   4.604
 4833TIP3   OH214441   4.072   0.677   2.592
 4833TIP3    H114442   4.066   0.770   2.572
 4833TIP3    H214443   4.102   0.674   2.683
 4834TIP3   OH214444   5.118   3.865   0.438
 4834TIP3    H114445   5.023   3.867   0.446
 4834TIP3    H214446   5.141   3.949   0.398
 4835TIP3   OH214447   4.273   1.851   0.193
 4835TIP3    H114448   4.264   1.756   0.200
 4835TIP3    H214449   4.264   1.870   0.100
 4836TIP3   OH214450   6.991   7.179   5.326
 4836TIP3    H114451   7.080   7.170   5.359
 4836TIP3    H214452   6.993   7.139   5.239
 4837TIP3   OH214453   1.647   3.311   2.095
 4837TIP3    H114454   1.630   3.348   2.008
 4837TIP3    H214455   1.740   3.291   2.095
 4838TIP3   OH214456   7.438   7.539   0.343
 4838TIP3    H114457   7.444   7.489   0.424
 4838TIP3    H214458   7.413   7.627   0.371
 4839TIP3   OH214459   0.515   0.525   1.880
 4839TIP3    H114460   0.439   0.564   1.923
 4839TIP3    H214461   0.574   0.502   1.952
 4840TIP3   OH214462   7.093   2.031   3.646
 4840TIP3    H114463   7.018   2.089   3.654
 4840TIP3    H214464   7.130   2.051   3.560
 4841TIP3   OH214465   0.618   3.144   5.369
 4841TIP3    H114466   0.669   3.220   5.396
 4841TIP3    H214467   0.623   3.084   5.444
 4842TIP3   OH214468   2.451   1.499   1.309
 4842TIP3    H114469   2.394   1.434   1.267
 4842TIP3    H214470   2.471   1.562   1.240
 4843TIP3   OH214471   2.948   3.217   2.301
 4843TIP3    H114472   2.979   3.129   2.321
 4843TIP3    H214473   2.906   3.247   2.381
 4844TIP3   OH214474   5.189   4.933   2.525
 4844TIP3    H114475   5.139   4.979   2.457
 4844TIP3    H214476   5.143   4.954   2.606
 4845TIP3   OH214477   4.986   2.256   1.709
 4845TIP3    H114478   4.964   2.164   1.697
 4845TIP3    H214479   5.012   2.263   1.801
 4846TIP3   OH214480   1.828   6.656   3.166
 4846TIP3    H114481   1.771   6.703   3.227
 4846TIP3    H214482   1.828   6.710   3.087
 4847TIP3   OH214483   7.751   4.256   0.942
 4847TIP3    H114484   7.812   4.215   0.880
 4847TIP3    H214485   7.680   4.193   0.952
 4848TIP3   OH214486   1.844   7.408   1.885
 4848TIP3    H114487   1.910   7.474   1.908
 4848TIP3    H214488   1.846   7.347   1.959
 4849TIP3   OH214489   2.012   2.022   3.435
 4849TIP3    H114490   2.019   1.956   3.367
 4849TIP3    H214491   1.930   2.001   3.480
 4850TIP3   OH214492   3.850   2.932   0.585
 4850TIP3    H114493   3.797   3.003   0.548
 4850TIP3    H214494   3.834   2.935   0.679
 4851TIP3   OH214495   5.435   1.904   0.317
 4851TIP3    H114496   5.359   1.961   0.327
 4851TIP3    H214497   5.473   1.899   0.404
 4852TIP3   OH214498   6.755   3.087   4.282
 4852TIP3    H114499   6.800   3.068   4.364
 4852TIP3    H214500   6.826   3.099   4.218
 4853TIP3   OH214501   2.004   3.784   2.927
 4853TIP3    H114502   2.023   3.715   2.990
 4853TIP3    H214503   2.084   3.792   2.875
 4854TIP3   OH214504   6.823   0.083   2.595
 4854TIP3    H114505   6.908   0.112   2.563
 4854TIP3    H214506   6.765   0.086   2.519
 4855TIP3   OH214507   5.388   4.233   5.970
 4855TIP3    H114508   5.423   4.156   5.925
 4855TIP3    H214509   5.344   4.198   6.048
 4856TIP3   OH214510   1.329   5.348   4.568
 4856TIP3    H114511   1.247   5.378   4.530
 4856TIP3    H214512   1.396   5.400   4.522
 4857TIP3   OH214513   6.978   5.714   1.141
 4857TIP3    H114514   6.943   5.634   1.179
 4857TIP3    H214515   6.967   5.781   1.209
 4858TIP3   OH214516   0.655   3.976   0.824
 4858TIP3    H114517   0.669   4.066   0.853
 4858TIP3    H214518   0.611   3.985   0.739
 4859TIP3   OH214519   2.036   1.725   5.289
 4859TIP3    H114520   2.082   1.688   5.365
 4859TIP3    H214521   1.945   1.733   5.317
 4860TIP3   OH214522   0.060   1.480   6.723
 4860TIP3    H114523   0.072   1.430   6.803
 4860TIP3    H214524   0.016   1.560   6.751
 4861TIP3   OH214525   7.983   0.837   3.071
 4861TIP3    H114526   8.036   0.861   2.994
 4861TIP3    H214527   7.902   0.887   3.060
 4862TIP3   OH214528   1.212   2.686   5.256
 4862TIP3    H114529   1.171   2.707   5.173
 4862TIP3    H214530   1.286   2.629   5.233
 4863TIP3   OH214531   6.539   6.696   0.223
 4863TIP3    H114532   6.498   6.769   0.176
 4863TIP3    H214533   6.525   6.620   0.166
 4864TIP3   OH214534   4.558   7.685   3.175
 4864TIP3    H114535   4.641   7.664   3.133
 4864TIP3    H214536   4.550   7.621   3.246
 4865TIP3   OH214537   5.356   2.863   5.097
 4865TIP3    H114538   5.429   2.872   5.159
 4865TIP3    H214539   5.397   2.835   5.015
 4866TIP3   OH214540   5.052   0.977   5.273
 4866TIP3    H114541   4.994   1.035   5.322
 4866TIP3    H214542   5.137   0.986   5.316
 4867TIP3   OH214543   0.426   5.414   4.985
 4867TIP3    H114544   0.340   5.375   4.969
 4867TIP3    H214545   0.480   5.342   5.018
 4868TIP3   OH214546   6.319   1.202   3.684
 4868TIP3    H114547   6.347   1.131   3.626
 4868TIP3    H214548   6.395   1.218   3.740
 4869TIP3   OH214549   6.377   7.264   4.280
 4869TIP3    H114550   6.419   7.312   4.208
 4869TIP3    H214551   6.349   7.332   4.341
 4870TIP3   OH214552   2.379   3.307   0.564
 4870TIP3    H114553   2.464   3.351   0.572
 4870TIP3    H214554   2.399   3.214   0.566
 4871TIP3   OH214555   4.869   4.164   2.638
 4871TIP3    H114556   4.933   4.232   2.617
 4871TIP3    H214557   4.868   4.161   2.734
 4872TIP3   OH214558   3.824   2.390   1.210
 4872TIP3    H114559   3.736   2.364   1.182
 4872TIP3    H214560   3.814   2.481   1.238
 4873TIP3   OH214561   6.639   7.803   5.283
 4873TIP3    H114562   6.661   7.736   5.219
 4873TIP3    H214563   6.577   7.860   5.237
 4874TIP3   OH214564   0.355   3.576   2.529
 4874TIP3    H114565   0.295   3.650   2.526
 4874TIP3    H214566   0.318   3.517   2.595
 4875TIP3   OH214567   2.365   7.585   0.568
 4875TIP3    H114568   2.315   7.542   0.499
 4875TIP3    H214569   2.308   7.656   0.598
 4876TIP3   OH214570   5.065   7.526   0.060
 4876TIP3    H114571   4.977   7.550   0.088
 4876TIP3    H214572   5.079   7.439   0.097
 4877TIP3   OH214573   8.238   0.569   6.560
 4877TIP3    H114574   8.262   0.556   6.468
 4877TIP3    H214575   8.309   0.528   6.609
 4878TIP3   OH214576   3.341   5.943   2.128
 4878TIP3    H114577   3.369   5.983   2.210
 4878TIP3    H214578   3.421   5.904   2.092
 4879TIP3   OH214579   8.245   7.240   1.386
 4879TIP3    H114580   8.163   7.196   1.363
 4879TIP3    H214581   8.246   7.319   1.332
 4880TIP3   OH214582   3.284   0.186   6.544
 4880TIP3    H114583   3.223   0.260   6.549
 4880TIP3    H214584   3.299   0.174   6.450
 4881TIP3   OH214585   5.592   1.319   3.964
 4881TIP3    H114586   5.524   1.383   3.942
 4881TIP3    H214587   5.671   1.353   3.922
 4882TIP3   OH214588   1.759   2.900   3.561
 4882TIP3    H114589   1.772   2.808   3.536
 4882TIP3    H214590   1.674   2.902   3.604
 4883TIP3   OH214591   6.535   4.323   4.887
 4883TIP3    H114592   6.559   4.414   4.874
 4883TIP3    H214593   6.613   4.282   4.923
 4884TIP3   OH214594   6.341   6.397   2.453
 4884TIP3    H114595   6.394   6.398   2.532
 4884TIP3    H214596   6.405   6.387   2.382
 4885TIP3   OH214597   4.511   7.373   0.206
 4885TIP3    H114598   4.545   7.343   0.290
 4885TIP3    H214599   4.444   7.437   0.230
 4886TIP3   OH214600   1.299   3.635   2.111
 4886TIP3    H114601   1.272   3.684   2.188
 4886TIP3    H214602   1.311   3.545   2.143
 4887TIP3   OH214603   2.604   7.695   0.635
 4887TIP3    H114604   2.620   7.649   0.718
 4887TIP3    H214605   2.515   7.670   0.611
 4888TIP3   OH214606   3.677   0.961   0.760
 4888TIP3    H114607   3.654   1.014   0.836
 4888TIP3    H214608   3.621   0.884   0.766
 4889TIP3   OH214609   8.214   2.026   3.965
 4889TIP3    H114610   8.294   2.028   3.912
 4889TIP3    H214611   8.161   2.098   3.933
 4890TIP3   OH214612   6.930   3.327   4.176
 4890TIP3    H114613   6.867   3.394   4.154
 4890TIP3    H214614   7.015   3.372   4.173
 4891TIP3   OH214615   6.262   4.528   2.165
 4891TIP3    H114616   6.185   4.571   2.200
 4891TIP3    H214617   6.285   4.462   2.231
 4892TIP3   OH214618   4.240   1.716   2.641
 4892TIP3    H114619   4.188   1.659   2.584
 4892TIP3    H214620   4.178   1.784   2.669
 4893TIP3   OH214621   1.896   5.555   1.480
 4893TIP3    H114622   1.926   5.638   1.518
 4893TIP3    H214623   1.965   5.493   1.502
 4894TIP3   OH214624   1.955   2.574   6.027
 4894TIP3    H114625   1.901   2.543   6.099
 4894TIP3    H214626   2.018   2.503   6.013
 4895TIP3   OH214627   4.832   7.793   2.992
 4895TIP3    H114628   4.880   7.847   2.929
 4895TIP3    H214629   4.839   7.705   2.957
 4896TIP3   OH214630   4.592   5.417   2.319
 4896TIP3    H114631   4.618   5.435   2.410
 4896TIP3    H214632   4.514   5.471   2.306
 4897TIP3   OH214633   3.072   1.321   4.677
 4897TIP3    H114634   3.161   1.337   4.707
 4897TIP3    H214635   3.082   1.286   4.589
 4898TIP3   OH214636   6.744   0.722   4.177
 4898TIP3    H114637   6.717   0.701   4.087
 4898TIP3    H214638   6.727   0.816   4.185
 4899TIP3   OH214639   0.306   7.555   1.937
 4899TIP3    H114640   0.391   7.511   1.933
 4899TIP3    H214641   0.324   7.635   1.988
 4900TIP3   OH214642   1.678   5.431   1.167
 4900TIP3    H114643   1.698   5.523   1.185
 4900TIP3    H214644   1.584   5.424   1.182
 4901TIP3   OH214645   7.656   5.173   6.598
 4901TIP3    H114646   7.725   5.214   6.546
 4901TIP3    H214647   7.587   5.152   6.535
 4902TIP3   OH214648   4.180   5.157   2.121
 4902TIP3    H114649   4.188   5.252   2.134
 4902TIP3    H214650   4.267   5.130   2.090
 4903TIP3   OH214651   1.623   5.695   0.326
 4903TIP3    H114652   1.624   5.775   0.274
 4903TIP3    H214653   1.530   5.674   0.337
 4904TIP3   OH214654   1.917   0.182   4.322
 4904TIP3    H114655   1.886   0.228   4.400
 4904TIP3    H214656   1.903   0.244   4.251
 4905TIP3   OH214657   5.822   3.681   1.809
 4905TIP3    H114658   5.849   3.693   1.900
 4905TIP3    H214659   5.772   3.760   1.788
 4906TIP3   OH214660   0.713   0.375   5.044
 4906TIP3    H114661   0.631   0.372   4.996
 4906TIP3    H214662   0.697   0.437   5.115
 4907TIP3   OH214663   4.357   1.363   3.721
 4907TIP3    H114664   4.422   1.419   3.678
 4907TIP3    H214665   4.348   1.287   3.663
 4908TIP3   OH214666   6.968   6.217   6.493
 4908TIP3    H114667   6.892   6.159   6.482
 4908TIP3    H214668   6.949   6.267   6.573
 4909TIP3   OH214669   5.912   6.285   1.304
 4909TIP3    H114670   5.834   6.229   1.311
 4909TIP3    H214671   5.886   6.355   1.244
 4910TIP3   OH214672   5.637   1.335   2.721
 4910TIP3    H114673   5.721   1.320   2.766
 4910TIP3    H214674   5.653   1.412   2.667
 4911TIP3   OH214675   8.068   5.828   1.143
 4911TIP3    H114676   8.108   5.779   1.215
 4911TIP3    H214677   8.120   5.807   1.067
 4912TIP3   OH214678   2.064   7.422   3.823
 4912TIP3    H114679   1.992   7.452   3.878
 4912TIP3    H214680   2.040   7.448   3.734
 4913TIP3   OH214681   2.812   3.520   0.083
 4913TIP3    H114682   2.754   3.444   0.089
 4913TIP3    H214683   2.866   3.503   0.006
 4914TIP3   OH214684   6.930   1.819   3.660
 4914TIP3    H114685   6.846   1.865   3.663
 4914TIP3    H214686   6.996   1.889   3.665
 4915TIP3   OH214687   0.530   2.839   2.470
 4915TIP3    H114688   0.441   2.863   2.496
 4915TIP3    H214689   0.578   2.832   2.552
 4916TIP3   OH214690   2.627   2.834   4.922
 4916TIP3    H114691   2.565   2.893   4.879
 4916TIP3    H214692   2.575   2.791   4.990
 4917TIP3   OH214693   4.264   2.914   2.646
 4917TIP3    H114694   4.236   2.898   2.736
 4917TIP3    H214695   4.288   2.827   2.613
 4918TIP3   OH214696   7.395   0.970   0.260
 4918TIP3    H114697   7.378   1.031   0.188
 4918TIP3    H214698   7.420   0.889   0.217
 4919TIP3   OH214699   2.433   0.959   0.301
 4919TIP3    H114700   2.505   0.948   0.363
 4919TIP3    H214701   2.395   0.872   0.291
 4920TIP3   OH214702   4.475   1.992   5.641
 4920TIP3    H114703   4.560   1.962   5.672
 4920TIP3    H214704   4.421   1.913   5.641
 4921TIP3   OH214705   3.499   3.705   4.925
 4921TIP3    H114706   3.552   3.690   4.846
 4921TIP3    H214707   3.515   3.796   4.947
 4922TIP3   OH214708   4.526   5.093   3.624
 4922TIP3    H114709   4.554   5.067   3.536
 4922TIP3    H214710   4.601   5.074   3.679
 4923TIP3   OH214711   4.014   1.236   1.149
 4923TIP3    H114712   4.002   1.285   1.067
 4923TIP3    H214713   3.966   1.154   1.135
 4924TIP3   OH214714   2.498   1.157   0.894
 4924TIP3    H114715   2.582   1.143   0.849
 4924TIP3    H214716   2.448   1.212   0.835
 4925TIP3   OH214717   7.260   0.222   4.622
 4925TIP3    H114718   7.250   0.128   4.638
 4925TIP3    H214719   7.171   0.257   4.625
 4926TIP3   OH214720   1.922   1.247   5.154
 4926TIP3    H114721   2.001   1.272   5.201
 4926TIP3    H214722   1.916   1.152   5.167
 4927TIP3   OH214723   4.253   2.514   5.405
 4927TIP3    H114724   4.173   2.464   5.389
 4927TIP3    H214725   4.307   2.455   5.459
 4928TIP3   OH214726   0.988   7.105   0.159
 4928TIP3    H114727   1.078   7.103   0.193
 4928TIP3    H214728   0.934   7.075   0.232
 4929TIP3   OH214729   3.075   0.942   3.986
 4929TIP3    H114730   3.070   1.038   3.989
 4929TIP3    H214731   3.107   0.917   4.073
 4930TIP3   OH214732   3.073   5.075   0.091
 4930TIP3    H114733   3.001   5.028   0.049
 4930TIP3    H214734   3.151   5.025   0.066
 4931TIP3   OH214735   6.695   4.628   1.759
 4931TIP3    H114736   6.701   4.688   1.834
 4931TIP3    H214737   6.713   4.682   1.683
 4932TIP3   OH214738   0.871   6.574   0.616
 4932TIP3    H114739   0.936   6.531   0.670
 4932TIP3    H214740   0.824   6.502   0.573
 4933TIP3   OH214741   0.941   2.386   2.775
 4933TIP3    H114742   1.014   2.339   2.814
 4933TIP3    H214743   0.867   2.326   2.780
 4934TIP3   OH214744   0.031   0.648   2.841
 4934TIP3    H114745   0.066   0.677   2.757
 4934TIP3    H214746  -0.027   0.720   2.869
 4935TIP3   OH214747   8.141   1.917   1.063
 4935TIP3    H114748   8.055   1.877   1.051
 4935TIP3    H214749   8.184   1.862   1.130
 4936TIP3   OH214750   8.156   2.006   2.260
 4936TIP3    H114751   8.127   2.004   2.351
 4936TIP3    H214752   8.101   2.071   2.218
 4937TIP3   OH214753   6.301   7.095   2.900
 4937TIP3    H114754   6.333   7.022   2.848
 4937TIP3    H214755   6.373   7.116   2.959
 4938TIP3   OH214756   6.513   3.943   5.005
 4938TIP3    H114757   6.472   3.986   4.929
 4938TIP3    H214758   6.571   4.010   5.041
 4939TIP3   OH214759   1.389   5.686   2.641
 4939TIP3    H114760   1.422   5.704   2.553
 4939TIP3    H214761   1.467   5.685   2.697
 4940TIP3   OH214762   6.833   1.484   4.044
 4940TIP3    H114763   6.757   1.444   4.086
 4940TIP3    H214764   6.823   1.578   4.059
 4941TIP3   OH214765   2.668   4.003   6.220
 4941TIP3    H114766   2.645   3.937   6.155
 4941TIP3    H214767   2.730   4.061   6.175
 4942TIP3   OH214768   6.666   2.615   5.877
 4942TIP3    H114769   6.633   2.537   5.832
 4942TIP3    H214770   6.713   2.581   5.953
 4943TIP3   OH214771   6.828   6.309   4.845
 4943TIP3    H114772   6.864   6.314   4.757
 4943TIP3    H214773   6.799   6.219   4.855
 4944TIP3   OH214774   3.414   7.005   5.701
 4944TIP3    H114775   3.508   6.991   5.714
 4944TIP3    H214776   3.381   7.031   5.788
 4945TIP3   OH214777   6.627   0.063   5.698
 4945TIP3    H114778   6.641  -0.006   5.633
 4945TIP3    H214779   6.695   0.049   5.764
 4946TIP3   OH214780   1.824   5.349   2.244
 4946TIP3    H114781   1.776   5.414   2.294
 4946TIP3    H214782   1.784   5.265   2.268
 4947TIP3   OH214783   8.293   4.972   4.598
 4947TIP3    H114784   8.237   4.983   4.521
 4947TIP3    H214785   8.348   4.896   4.578
 4948TIP3   OH214786   4.493   2.148   0.087
 4948TIP3    H114787   4.489   2.108   0.000
 4948TIP3    H214788   4.568   2.207   0.082
 4949TIP3   OH214789   0.109   6.640   0.489
 4949TIP3    H114790   0.038   6.703   0.474
 4949TIP3    H214791   0.166   6.683   0.552
 4950TIP3   OH214792   3.069   7.744   4.957
 4950TIP3    H114793   3.100   7.801   4.888
 4950TIP3    H214794   3.137   7.747   5.024
 4951TIP3   OH214795   4.147   1.368   0.097
 4951TIP3    H114796   4.088   1.303   0.059
 4951TIP3    H214797   4.096   1.449   0.100
 4952TIP3   OH214798   3.903   2.620   2.875
 4952TIP3    H114799   3.839   2.558   2.840
 4952TIP3    H214800   3.984   2.600   2.828
 4953TIP3   OH214801   0.902   1.920   5.267
 4953TIP3    H114802   0.881   1.866   5.343
 4953TIP3    H214803   0.990   1.953   5.286
 4954TIP3   OH214804   6.170   4.823   5.714
 4954TIP3    H114805   6.166   4.801   5.621
 4954TIP3    H214806   6.119   4.755   5.758
 4955TIP3   OH214807   1.312   1.356   4.087
 4955TIP3    H114808   1.376   1.291   4.115
 4955TIP3    H214809   1.321   1.429   4.148
 4956TIP3   OH214810   5.535   3.030   5.922
 4956TIP3    H114811   5.534   2.964   5.992
 4956TIP3    H214812   5.467   3.092   5.948
 4957TIP3   OH214813   7.541   4.626   0.965
 4957TIP3    H114814   7.463   4.650   0.914
 4957TIP3    H214815   7.612   4.677   0.925
 4958TIP3   OH214816   7.661   5.239   6.111
 4958TIP3    H114817   7.713   5.299   6.165
 4958TIP3    H214818   7.570   5.265   6.127
 4959TIP3   OH214819   0.699   6.726   5.682
 4959TIP3    H114820   0.787   6.698   5.708
 4959TIP3    H214821   0.640   6.665   5.725
 4960TIP3   OH214822   5.967   4.586   3.629
 4960TIP3    H114823   5.995   4.496   3.642
 4960TIP3    H214824   5.887   4.594   3.681
 4961TIP3   OH214825   7.688   1.544   1.055
 4961TIP3    H114826   7.736   1.499   1.125
 4961TIP3    H214827   7.753   1.597   1.010
 4962TIP3   OH214828   2.915   4.230   1.144
 4962TIP3    H114829   2.931   4.242   1.051
 4962TIP3    H214830   2.967   4.153   1.168
 4963TIP3   OH214831   2.843   7.306   1.764
 4963TIP3    H114832   2.844   7.337   1.855
 4963TIP3    H214833   2.932   7.276   1.748
 4964TIP3   OH214834   7.439   1.234   1.249
 4964TIP3    H114835   7.469   1.216   1.160
 4964TIP3    H214836   7.369   1.299   1.238
 4965TIP3   OH214837   2.854   3.591   4.812
 4965TIP3    H114838   2.865   3.634   4.897
 4965TIP3    H214839   2.929   3.532   4.805
 4966TIP3   OH214840   0.256   6.807   5.444
 4966TIP3    H114841   0.287   6.860   5.370
 4966TIP3    H214842   0.188   6.750   5.406
 4967TIP3   OH214843   3.806   5.227   0.135
 4967TIP3    H114844   3.792   5.192   0.046
 4967TIP3    H214845   3.851   5.156   0.181
 4968TIP3   OH214846   7.696   6.297   1.288
 4968TIP3    H114847   7.633   6.255   1.229
 4968TIP3    H214848   7.688   6.249   1.370
 4969TIP3   OH214849   3.898   5.098   0.918
 4969TIP3    H114850   3.849   5.023   0.881
 4969TIP3    H214851   3.962   5.119   0.851
 4970TIP3   OH214852   6.866   6.770   0.826
 4970TIP3    H114853   6.862   6.731   0.913
 4970TIP3    H214854   6.822   6.707   0.769
 4971TIP3   OH214855   4.959   3.369   4.146
 4971TIP3    H114856   4.976   3.325   4.229
 4971TIP3    H214857   4.871   3.340   4.121
 4972TIP3   OH214858   6.941   6.088   0.653
 4972TIP3    H114859   6.922   5.995   0.668
 4972TIP3    H214860   7.036   6.094   0.659
 4973TIP3   OH214861   1.247   2.908   1.657
 4973TIP3    H114862   1.180   2.840   1.664
 4973TIP3    H214863   1.298   2.884   1.580
 4974TIP3   OH214864   7.789   2.890   3.283
 4974TIP3    H114865   7.862   2.923   3.336
 4974TIP3    H214866   7.719   2.875   3.346
 4975TIP3   OH214867   4.374   2.261   5.704
 4975TIP3    H114868   4.437   2.321   5.666
 4975TIP3    H214869   4.410   2.174   5.688
 4976TIP3   OH214870   1.738   2.829   0.982
 4976TIP3    H114871   1.693   2.751   1.016
 4976TIP3    H214872   1.831   2.811   0.996
 4977TIP3   OH214873   2.894   5.767   3.291
 4977TIP3    H114874   2.917   5.675   3.280
 4977TIP3    H214875   2.830   5.784   3.222
 4978TIP3   OH214876   4.402   0.226   3.537
 4978TIP3    H114877   4.467   0.295   3.545
 4978TIP3    H214878   4.356   0.246   3.455
 4979TIP3   OH214879   2.022   5.293   0.262
 4979TIP3    H114880   2.102   5.291   0.209
 4979TIP3    H214881   2.029   5.375   0.312
 4980TIP3   OH214882   3.448   0.848   6.063
 4980TIP3    H114883   3.453   0.836   5.968
 4980TIP3    H214884   3.367   0.804   6.088
 4981TIP3   OH214885   1.037   3.775   6.085
 4981TIP3    H114886   0.943   3.778   6.102
 4981TIP3    H214887   1.058   3.681   6.080
 4982TIP3   OH214888   4.004   4.701   6.383
 4982TIP3    H114889   3.963   4.713   6.469
 4982TIP3    H214890   4.098   4.700   6.402
 4983TIP3   OH214891   3.899   5.692   1.459
 4983TIP3    H114892   3.940   5.639   1.527
 4983TIP3    H214893   3.968   5.704   1.393
 4984TIP3   OH214894   7.861   6.366   0.864
 4984TIP3    H114895   7.932   6.363   0.927
 4984TIP3    H214896   7.828   6.455   0.868
 4985TIP3   OH214897   6.614   1.981   2.952
 4985TIP3    H114898   6.663   1.911   2.909
 4985TIP3    H214899   6.536   1.938   2.988
 4986TIP3   OH214900   2.539   5.986   1.314
 4986TIP3    H114901   2.573   6.038   1.387
 4986TIP3    H214902   2.551   6.041   1.237
 4987TIP3   OH214903   2.754   2.266   2.387
 4987TIP3    H114904   2.825   2.232   2.332
 4987TIP3    H214905   2.710   2.330   2.332
 4988TIP3   OH214906   1.094   7.220   2.694
 4988TIP3    H114907   1.175   7.186   2.657
 4988TIP3    H214908   1.092   7.312   2.667
 4989TIP3   OH214909   5.114   7.662   3.691
 4989TIP3    H114910   5.164   7.594   3.644
 4989TIP3    H214911   5.026   7.657   3.654
 4990TIP3   OH214912   2.665   1.641   4.676
 4990TIP3    H114913   2.594   1.580   4.696
 4990TIP3    H214914   2.700   1.610   4.593
 4991TIP3   OH214915   4.343   7.459   1.809
 4991TIP3    H114916   4.287   7.483   1.883
 4991TIP3    H214917   4.429   7.443   1.848
 4992TIP3   OH214918   1.535   0.483   6.316
 4992TIP3    H114919   1.535   0.391   6.343
 4992TIP3    H214920   1.519   0.532   6.397
 4993TIP3   OH214921   2.234   1.326   0.141
 4993TIP3    H114922   2.320   1.291   0.165
 4993TIP3    H214923   2.182   1.249   0.118
 4994TIP3   OH214924   2.180   7.709   1.848
 4994TIP3    H114925   2.267   7.701   1.886
 4994TIP3    H214926   2.195   7.741   1.759
 4995TIP3   OH214927   2.737   6.985   5.584
 4995TIP3    H114928   2.705   6.983   5.674
 4995TIP3    H214929   2.657   6.991   5.530
 4996TIP3   OH214930   3.521   4.981   1.369
 4996TIP3    H114931   3.516   4.964   1.275
 4996TIP3    H214932   3.608   5.019   1.382
 4997TIP3   OH214933   0.959   1.878   6.557
 4997TIP3    H114934   1.040   1.827   6.560
 4997TIP3    H214935   0.927   1.868   6.468
 4998TIP3   OH214936   0.094   4.390   1.258
 4998TIP3    H114937   0.018   4.350   1.216
 4998TIP3    H214938   0.131   4.321   1.312
 4999TIP3   OH214939   6.876   4.488   0.333
 4999TIP3    H114940   6.815   4.417   0.311
 4999TIP3    H214941   6.885   4.482   0.428
 5000TIP3   OH214942   4.255   4.975   3.706
 5000TIP3    H114943   4.334   5.018   3.674
 5000TIP3    H214944   4.287   4.903   3.760
 5001TIP3   OH214945   4.160   5.340   0.060
 5001TIP3    H114946   4.087   5.388   0.100
 5001TIP3    H214947   4.225   5.408   0.041
 5002TIP3   OH214948   2.730   5.168   3.677
 5002TIP3    H114949   2.732   5.089   3.731
 5002TIP3    H214950   2.691   5.140   3.595
 5003TIP3   OH214951   6.361   6.287   6.313
 5003TIP3    H114952   6.337   6.195   6.318
 5003TIP3    H214953   6.453   6.289   6.340
 5004TIP3   OH214954   6.829   2.864   1.737
 5004TIP3    H114955   6.770   2.857   1.812
 5004TIP3    H214956   6.889   2.935   1.761
 5005TIP3   OH214957   3.975   4.893   6.170
 5005TIP3    H114958   4.045   4.958   6.174
 5005TIP3    H214959   3.980   4.847   6.254
 5006TIP3   OH214960   6.516   6.891   4.796
 5006TIP3    H114961   6.604   6.919   4.772
 5006TIP3    H214962   6.504   6.922   4.886
 5007TIP3   OH214963   5.001   0.276   3.078
 5007TIP3    H114964   4.948   0.303   3.003
 5007TIP3    H214965   5.090   0.268   3.043
 5008TIP3   OH214966   7.286   0.726   6.161
 5008TIP3    H114967   7.363   0.722   6.104
 5008TIP3    H214968   7.280   0.818   6.187
 5009TIP3   OH214969   6.727   5.048   3.342
 5009TIP3    H114970   6.674   4.973   3.316
 5009TIP3    H214971   6.764   5.081   3.260
 5010TIP3   OH214972   6.095   1.437   5.727
 5010TIP3    H114973   6.012   1.423   5.773
 5010TIP3    H214974   6.114   1.530   5.740
 5011TIP3   OH214975   3.199   4.386   2.879
 5011TIP3    H114976   3.110   4.354   2.868
 5011TIP3    H214977   3.195   4.479   2.858
 5012TIP3   OH214978   3.524   1.650   5.633
 5012TIP3    H114979   3.522   1.716   5.564
 5012TIP3    H214980   3.598   1.675   5.688
 5013TIP3   OH214981   2.715   6.417   3.982
 5013TIP3    H114982   2.776   6.385   4.048
 5013TIP3    H214983   2.634   6.369   3.999
 5014TIP3   OH214984   8.120   0.445   5.465
 5014TIP3    H114985   8.098   0.357   5.434
 5014TIP3    H214986   8.209   0.460   5.434
 5015TIP3   OH214987   7.173   3.148   4.873
 5015TIP3    H114988   7.204   3.218   4.931
 5015TIP3    H214989   7.163   3.072   4.930
 5016TIP3   OH214990   5.997   6.104   5.630
 5016TIP3    H114991   6.051   6.181   5.610
 5016TIP3    H214992   5.916   6.140   5.665
 5017TIP3   OH214993   5.297   0.287   4.014
 5017TIP3    H114994   5.212   0.255   3.982
 5017TIP3    H214995   5.341   0.319   3.935
 5018TIP3   OH214996   2.869   2.315   0.602
 5018TIP3    H114997   2.930   2.247   0.629
 5018TIP3    H214998   2.911   2.356   0.527
 5019TIP3   OH214999   0.474   3.044   5.936
 5019TIP3    H115000   0.503   3.095   5.860
 5019TIP3    H215001   0.409   2.984   5.900
 5020TIP3   OH215002   0.893   0.116   0.632
 5020TIP3    H115003   0.824   0.098   0.696
 5020TIP3    H215004   0.931   0.199   0.662
 5021TIP3   OH215005   4.077  -0.032   4.533
 5021TIP3    H115006   4.049   0.056   4.558
 5021TIP3    H215007   4.109  -0.072   4.615
 5022TIP3   OH215008   3.140   7.269   2.273
 5022TIP3    H115009   3.084   7.300   2.344
 5022TIP3    H215010   3.150   7.175   2.290
 5023TIP3   OH215011   3.359   6.969   4.962
 5023TIP3    H115012   3.312   7.016   4.892
 5023TIP3    H215013   3.396   6.893   4.918
 5024TIP3   OH215014   1.139   4.297   3.405
 5024TIP3    H115015   1.113   4.228   3.344
 5024TIP3    H215016   1.231   4.279   3.425
 5025TIP3   OH215017   5.903   3.186   3.050
 5025TIP3    H115018   5.979   3.136   3.019
 5025TIP3    H215019   5.852   3.123   3.101
 5026TIP3   OH215020   7.634   0.282   0.299
 5026TIP3    H115021   7.699   0.223   0.261
 5026TIP3    H215022   7.684   0.339   0.358
 5027TIP3   OH215023   6.148   3.340   4.508
 5027TIP3    H115024   6.239   3.335   4.479
 5027TIP3    H215025   6.100   3.375   4.433
 5028TIP3   OH215026   3.988   5.332   2.669
 5028TIP3    H115027   3.978   5.288   2.753
 5028TIP3    H215028   4.076   5.370   2.671
 5029TIP3   OH215029   1.666   7.024   2.390
 5029TIP3    H115030   1.596   7.018   2.326
 5029TIP3    H215031   1.737   6.970   2.355
 5030TIP3   OH215032   6.831   4.122   4.246
 5030TIP3    H115033   6.921   4.156   4.247
 5030TIP3    H215034   6.780   4.191   4.204
 5031TIP3   OH215035   4.976   3.578   5.346
 5031TIP3    H115036   4.957   3.555   5.437
 5031TIP3    H215037   4.937   3.665   5.335
 5032TIP3   OH215038   0.200   7.580   1.477
 5032TIP3    H115039   0.159   7.580   1.563
 5032TIP3    H215040   0.275   7.638   1.485
 5033TIP3   OH215041   7.268   3.394   4.218
 5033TIP3    H115042   7.292   3.305   4.245
 5033TIP3    H215043   7.350   3.433   4.190
 5034TIP3   OH215044   1.448   5.836   5.022
 5034TIP3    H115045   1.508   5.869   5.089
 5034TIP3    H215046   1.487   5.864   4.939
 5035TIP3   OH215047   6.591   7.050   3.487
 5035TIP3    H115048   6.677   7.011   3.502
 5035TIP3    H215049   6.532   7.001   3.545
 5036TIP3   OH215050   4.480   6.187   3.996
 5036TIP3    H115051   4.532   6.191   3.915
 5036TIP3    H215052   4.543   6.165   4.064
 5037TIP3   OH215053   6.264   3.172   4.878
 5037TIP3    H115054   6.300   3.139   4.796
 5037TIP3    H215055   6.339   3.210   4.924
 5038TIP3   OH215056   3.395   6.852   0.374
 5038TIP3    H115057   3.436   6.901   0.445
 5038TIP3    H215058   3.463   6.792   0.343
 5039TIP3   OH215059   1.249   2.464   6.748
 5039TIP3    H115060   1.305   2.394   6.714
 5039TIP3    H215061   1.175   2.468   6.688
 5040TIP3   OH215062   4.310   1.122   0.538
 5040TIP3    H115063   4.300   1.046   0.481
 5040TIP3    H215064   4.390   1.106   0.587
 5041TIP3   OH215065   3.198   3.755   5.209
 5041TIP3    H115066   3.158   3.793   5.130
 5041TIP3    H215067   3.126   3.748   5.271
 5042TIP3   OH215068   1.625   3.563   0.172
 5042TIP3    H115069   1.630   3.606   0.257
 5042TIP3    H215070   1.670   3.480   0.183
 5043TIP3   OH215071   6.845   1.317   4.355
 5043TIP3    H115072   6.810   1.247   4.411
 5043TIP3    H215073   6.776   1.333   4.291
 5044TIP3   OH215074   3.190   5.995   3.738
 5044TIP3    H115075   3.213   5.912   3.695
 5044TIP3    H215076   3.243   5.995   3.818
 5045TIP3   OH215077   5.951   4.033   4.640
 5045TIP3    H115078   6.038   3.993   4.642
 5045TIP3    H215079   5.907   4.000   4.717
 5046TIP3   OH215080   3.873   4.280   4.900
 5046TIP3    H115081   3.836   4.352   4.849
 5046TIP3    H215082   3.870   4.310   4.991
 5047TIP3   OH215083   2.646   4.659   3.165
 5047TIP3    H115084   2.655   4.589   3.230
 5047TIP3    H215085   2.697   4.628   3.090
 5048TIP3   OH215086   3.624   4.635   0.486
 5048TIP3    H115087   3.608   4.670   0.574
 5048TIP3    H215088   3.555   4.570   0.473
 5049TIP3   OH215089   5.691   5.806   1.264
 5049TIP3    H115090   5.777   5.773   1.290
 5049TIP3    H215091   5.682   5.889   1.311
 5050TIP3   OH215092   6.290   7.376   5.579
 5050TIP3    H115093   6.370   7.400   5.627
 5050TIP3    H215094   6.284   7.281   5.589
 5051TIP3   OH215095   1.456   5.422   4.798
 5051TIP3    H115096   1.402   5.395   4.723
 5051TIP3    H215097   1.517   5.486   4.761
 5052TIP3   OH215098   6.151   7.484   4.925
 5052TIP3    H115099   6.140   7.503   5.019
 5052TIP3    H215100   6.064   7.496   4.888
 5053TIP3   OH215101   4.665   2.750   0.401
 5053TIP3    H115102   4.721   2.781   0.471
 5053TIP3    H215103   4.577   2.747   0.440
 5054TIP3   OH215104   3.572   2.758   0.006
 5054TIP3    H115105   3.609   2.803   0.082
 5054TIP3    H215106   3.629   2.781  -0.067
 5055TIP3   OH215107   3.637   5.449   2.934
 5055TIP3    H115108   3.553   5.423   2.897
 5055TIP3    H215109   3.691   5.471   2.859
 5056TIP3   OH215110   7.693   0.797   1.494
 5056TIP3    H115111   7.772   0.809   1.548
 5056TIP3    H215112   7.626   0.767   1.555
 5057TIP3   OH215113   1.223   6.505   4.375
 5057TIP3    H115114   1.178   6.562   4.313
 5057TIP3    H215115   1.173   6.513   4.456
 5058TIP3   OH215116   5.796   1.170   0.760
 5058TIP3    H115117   5.779   1.112   0.835
 5058TIP3    H215118   5.835   1.114   0.694
 5059TIP3   OH215119   1.917   5.545   3.605
 5059TIP3    H115120   2.004   5.536   3.565
 5059TIP3    H215121   1.880   5.624   3.565
 5060TIP3   OH215122   6.589   6.439   5.407
 5060TIP3    H115123   6.564   6.476   5.323
 5060TIP3    H215124   6.575   6.509   5.470
 5061TIP3   OH215125   7.335   4.042   0.795
 5061TIP3    H115126   7.243   4.068   0.796
 5061TIP3    H215127   7.369   4.076   0.712
 5062TIP3   OH215128   1.772   6.519   3.540
 5062TIP3    H115129   1.689   6.474   3.560
 5062TIP3    H215130   1.831   6.491   3.610
 5063TIP3   OH215131   6.493   0.693   4.318
 5063TIP3    H115132   6.421   0.685   4.255
 5063TIP3    H215133   6.566   0.645   4.278
 5064TIP3   OH215134   2.380   6.816   1.779
 5064TIP3    H115135   2.423   6.839   1.862
 5064TIP3    H215136   2.378   6.720   1.780
 5065TIP3   OH215137   4.571   3.788   1.251
 5065TIP3    H115138   4.536   3.699   1.264
 5065TIP3    H215139   4.605   3.813   1.337
 5066TIP3   OH215140   1.706   4.962   0.196
 5066TIP3    H115141   1.630   5.020   0.186
 5066TIP3    H215142   1.718   4.923   0.109
 5067TIP3   OH215143   1.343   4.618   1.982
 5067TIP3    H115144   1.394   4.556   2.035
 5067TIP3    H215145   1.263   4.633   2.033
 5068TIP3   OH215146   3.399   2.105   4.590
 5068TIP3    H115147   3.421   2.196   4.609
 5068TIP3    H215148   3.303   2.104   4.590
 5069TIP3   OH215149   3.669   4.515   2.443
 5069TIP3    H115150   3.756   4.533   2.479
 5069TIP3    H215151   3.611   4.578   2.488
 5070TIP3   OH215152   6.123   7.707   3.391
 5070TIP3    H115153   6.169   7.636   3.346
 5070TIP3    H215154   6.086   7.665   3.469
 5071TIP3   OH215155   1.738   3.704   1.172
 5071TIP3    H115156   1.694   3.704   1.257
 5071TIP3    H215157   1.821   3.661   1.188
 5072TIP3   OH215158   3.363   0.894   4.444
 5072TIP3    H115159   3.385   0.817   4.496
 5072TIP3    H215160   3.347   0.963   4.508
 5073TIP3   OH215161   7.398   3.699   3.260
 5073TIP3    H115162   7.317   3.684   3.210
 5073TIP3    H215163   7.441   3.614   3.261
 5074TIP3   OH215164   8.291   0.638   6.034
 5074TIP3    H115165   8.238   0.704   6.079
 5074TIP3    H215166   8.234   0.561   6.030
 5075TIP3   OH215167   2.425   2.062   6.720
 5075TIP3    H115168   2.456   2.041   6.808
 5075TIP3    H215169   2.495   2.034   6.662
 5076TIP3   OH215170   1.108   2.159   0.458
 5076TIP3    H115171   1.026   2.121   0.427
 5076TIP3    H215172   1.173   2.090   0.445
 5077TIP3   OH215173   4.681   3.543   1.126
 5077TIP3    H115174   4.666   3.473   1.189
 5077TIP3    H215175   4.775   3.560   1.131
 5078TIP3   OH215176   7.840   2.334   5.497
 5078TIP3    H115177   7.932   2.317   5.475
 5078TIP3    H215178   7.838   2.334   5.593
 5079TIP3   OH215179   3.976   0.214   4.587
 5079TIP3    H115180   3.943   0.244   4.672
 5079TIP3    H215181   3.897   0.196   4.536
 5080TIP3   OH215182   1.562   1.782   1.802
 5080TIP3    H115183   1.468   1.780   1.822
 5080TIP3    H215184   1.570   1.728   1.723
 5081TIP3   OH215185   2.645   1.739   5.814
 5081TIP3    H115186   2.740   1.725   5.821
 5081TIP3    H215187   2.614   1.738   5.905
 5082TIP3   OH215188   3.890   1.896   1.583
 5082TIP3    H115189   3.818   1.956   1.566
 5082TIP3    H215190   3.851   1.809   1.577
 5083TIP3   OH215191   0.887   5.154   2.414
 5083TIP3    H115192   0.840   5.185   2.336
 5083TIP3    H215193   0.828   5.089   2.453
 5084TIP3   OH215194   7.866   3.654   6.372
 5084TIP3    H115195   7.904   3.729   6.327
 5084TIP3    H215196   7.771   3.669   6.368
 5085TIP3   OH215197   6.667   3.996   3.741
 5085TIP3    H115198   6.618   3.980   3.661
 5085TIP3    H215199   6.759   3.982   3.717
 5086TIP3   OH215200   4.271   3.036   0.785
 5086TIP3    H115201   4.322   3.104   0.742
 5086TIP3    H215202   4.313   2.954   0.759
 5087TIP3   OH215203   4.283   6.746   3.899
 5087TIP3    H115204   4.324   6.823   3.859
 5087TIP3    H215205   4.267   6.771   3.989
 5088TIP3   OH215206   6.438   0.572   2.079
 5088TIP3    H115207   6.533   0.577   2.080
 5088TIP3    H215208   6.412   0.574   2.171
 5089TIP3   OH215209   8.198   7.624   5.624
 5089TIP3    H115210   8.126   7.570   5.657
 5089TIP3    H215211   8.276   7.588   5.665
 5090TIP3   OH215212   3.836   7.554   2.359
 5090TIP3    H115213   3.759   7.607   2.378
 5090TIP3    H215214   3.825   7.475   2.414
 5091TIP3   OH215215   7.399   6.935   5.427
 5091TIP3    H115216   7.433   6.947   5.339
 5091TIP3    H215217   7.345   6.856   5.423
 5092TIP3   OH215218   0.468   1.362   4.699
 5092TIP3    H115219   0.388   1.321   4.667
 5092TIP3    H215220   0.461   1.360   4.794
 5093TIP3   OH215221   2.966   5.542   4.437
 5093TIP3    H115222   2.910   5.465   4.439
 5093TIP3    H215223   3.029   5.524   4.366
 5094TIP3   OH215224   1.851   2.653   3.142
 5094TIP3    H115225   1.894   2.713   3.204
 5094TIP3    H215226   1.824   2.710   3.069
 5095TIP3   OH215227   6.313   0.464   6.514
 5095TIP3    H115228   6.348   0.502   6.433
 5095TIP3    H215229   6.371   0.497   6.583
 5096TIP3   OH215230   5.373   7.186   3.983
 5096TIP3    H115231   5.426   7.203   4.061
 5096TIP3    H215232   5.297   7.137   4.015
 5097TIP3   OH215233   8.167   2.213   5.443
 5097TIP3    H115234   8.181   2.216   5.349
 5097TIP3    H215235   8.195   2.299   5.474
 5098TIP3   OH215236   6.693   6.741   2.819
 5098TIP3    H115237   6.774   6.754   2.869
 5098TIP3    H215238   6.716   6.763   2.729
 5099TIP3   OH215239   0.955   5.452   5.802
 5099TIP3    H115240   1.029   5.423   5.748
 5099TIP3    H215241   0.878   5.440   5.745
 5100TIP3   OH215242   3.251   4.901   2.238
 5100TIP3    H115243   3.323   4.839   2.230
 5100TIP3    H215244   3.227   4.897   2.331
 5101TIP3   OH215245   5.899   3.766   4.415
 5101TIP3    H115246   5.978   3.744   4.365
 5101TIP3    H215247   5.877   3.855   4.388
 5102TIP3   OH215248   1.091   5.340   6.415
 5102TIP3    H115249   1.180   5.348   6.381
 5102TIP3    H215250   1.036   5.386   6.351
 5103TIP3   OH215251   2.014   4.106   1.489
 5103TIP3    H115252   2.016   4.195   1.455
 5103TIP3    H215253   2.040   4.052   1.414
 5104TIP3   OH215254   7.380   6.205   5.145
 5104TIP3    H115255   7.389   6.112   5.166
 5104TIP3    H215256   7.287   6.223   5.157
 5105TIP3   OH215257   0.189   2.244   1.551
 5105TIP3    H115258   0.272   2.260   1.595
 5105TIP3    H215259   0.127   2.229   1.622
 5106TIP3   OH215260   7.368   0.968   5.592
 5106TIP3    H115261   7.283   0.925   5.583
 5106TIP3    H215262   7.346   1.057   5.622
 5107TIP3   OH215263   2.396   2.272   2.280
 5107TIP3    H115264   2.309   2.240   2.255
 5107TIP3    H215265   2.392   2.366   2.264
 5108TIP3   OH215266   3.421   1.869   6.189
 5108TIP3    H115267   3.406   1.824   6.106
 5108TIP3    H215268   3.514   1.856   6.207
 5109TIP3   OH215269   3.893   1.265   2.688
 5109TIP3    H115270   3.886   1.341   2.746
 5109TIP3    H215271   3.870   1.299   2.602
 5110TIP3   OH215272   4.158   4.959   3.111
 5110TIP3    H115273   4.167   5.035   3.168
 5110TIP3    H215274   4.146   4.996   3.023
 5111TIP3   OH215275   6.597   0.339   2.336
 5111TIP3    H115276   6.611   0.244   2.334
 5111TIP3    H215277   6.507   0.351   2.305
 5112TIP3   OH215278   4.505   1.610   1.982
 5112TIP3    H115279   4.465   1.672   2.043
 5112TIP3    H215280   4.506   1.527   2.028
 5113TIP3   OH215281   7.727   4.953   1.125
 5113TIP3    H115282   7.643   4.907   1.125
 5113TIP3    H215283   7.732   4.995   1.211
 5114TIP3   OH215284   2.828   4.287   1.613
 5114TIP3    H115285   2.766   4.314   1.682
 5114TIP3    H215286   2.774   4.283   1.534
 5115TIP3   OH215287   1.837   4.882   5.934
 5115TIP3    H115288   1.882   4.879   5.850
 5115TIP3    H215289   1.788   4.964   5.933
 5116TIP3   OH215290   0.944   0.406   3.213
 5116TIP3    H115291   1.024   0.394   3.161
 5116TIP3    H215292   0.960   0.484   3.265
 5117TIP3   OH215293   7.511   3.501   4.152
 5117TIP3    H115294   7.577   3.480   4.086
 5117TIP3    H215295   7.542   3.457   4.231
 5118TIP3   OH215296   4.414   6.459   5.792
 5118TIP3    H115297   4.498   6.473   5.749
 5118TIP3    H215298   4.372   6.391   5.741
 5119TIP3   OH215299   5.132   6.697   0.174
 5119TIP3    H115300   5.074   6.773   0.181
 5119TIP3    H215301   5.072   6.623   0.164
 5120TIP3   OH215302   3.744   2.852   5.116
 5120TIP3    H115303   3.673   2.793   5.090
 5120TIP3    H215304   3.820   2.795   5.128
 5121TIP3   OH215305   1.887   2.370   5.110
 5121TIP3    H115306   1.809   2.327   5.146
 5121TIP3    H215307   1.933   2.404   5.186
 5122TIP3   OH215308   0.208   0.074   0.897
 5122TIP3    H115309   0.173  -0.012   0.917
 5122TIP3    H215310   0.131   0.130   0.888
 5123TIP3   OH215311   7.907   1.499   3.643
 5123TIP3    H115312   7.960   1.578   3.655
 5123TIP3    H215313   7.848   1.498   3.719
 5124TIP3   OH215314   2.292   4.255   0.533
 5124TIP3    H115315   2.254   4.330   0.487
 5124TIP3    H215316   2.274   4.181   0.475
 5125TIP3   OH215317   3.762   1.363   6.114
 5125TIP3    H115318   3.740   1.445   6.069
 5125TIP3    H215319   3.683   1.311   6.110
 5126TIP3   OH215320   1.677   6.822   6.286
 5126TIP3    H115321   1.610   6.880   6.249
 5126TIP3    H215322   1.759   6.869   6.271
 5127TIP3   OH215323   4.377   5.756   0.539
 5127TIP3    H115324   4.443   5.825   0.544
 5127TIP3    H215325   4.427   5.675   0.544
 5128TIP3   OH215326   0.926   0.467   3.599
 5128TIP3    H115327   0.948   0.513   3.517
 5128TIP3    H215328   0.833   0.485   3.613
 5129TIP3   OH215329   7.844   2.642   1.824
 5129TIP3    H115330   7.916   2.655   1.762
 5129TIP3    H215331   7.882   2.593   1.896
 5130TIP3   OH215332   8.115   1.314   3.633
 5130TIP3    H115333   8.040   1.348   3.681
 5130TIP3    H215334   8.078   1.284   3.550
 5131TIP3   OH215335   6.246   3.751   2.633
 5131TIP3    H115336   6.221   3.780   2.720
 5131TIP3    H215337   6.164   3.756   2.582
 5132TIP3   OH215338   3.104   4.545   4.190
 5132TIP3    H115339   3.163   4.533   4.265
 5132TIP3    H215340   3.141   4.619   4.142
 5133TIP3   OH215341   2.484   2.725   2.493
 5133TIP3    H115342   2.498   2.777   2.571
 5133TIP3    H215343   2.390   2.708   2.491
 5134TIP3   OH215344   3.273   7.221   0.167
 5134TIP3    H115345   3.354   7.226   0.117
 5134TIP3    H215346   3.207   7.264   0.112
 5135TIP3   OH215347   7.190   5.899   4.532
 5135TIP3    H115348   7.128   5.908   4.459
 5135TIP3    H215349   7.255   5.836   4.501
 5136TIP3   OH215350   3.581   1.291   3.876
 5136TIP3    H115351   3.634   1.287   3.796
 5136TIP3    H215352   3.602   1.376   3.914
 5137TIP3   OH215353   5.380   0.976   0.221
 5137TIP3    H115354   5.342   1.059   0.193
 5137TIP3    H215355   5.415   0.994   0.308
 5138TIP3   OH215356   3.429   5.991   4.825
 5138TIP3    H115357   3.504   5.964   4.879
 5138TIP3    H215358   3.364   5.923   4.839
 5139TIP3   OH215359   2.794   1.725   0.153
 5139TIP3    H115360   2.717   1.717   0.098
 5139TIP3    H215361   2.762   1.759   0.237
 5140TIP3   OH215362   0.896   5.172   5.789
 5140TIP3    H115363   0.968   5.166   5.852
 5140TIP3    H215364   0.875   5.265   5.786
 5141TIP3   OH215365   0.908   5.780   5.727
 5141TIP3    H115366   0.878   5.736   5.647
 5141TIP3    H215367   0.999   5.751   5.737
 5142TIP3   OH215368   3.861   3.569   6.528
 5142TIP3    H115369   3.828   3.604   6.445
 5142TIP3    H215370   3.868   3.475   6.514
 5143TIP3   OH215371   6.613   4.610   3.328
 5143TIP3    H115372   6.618   4.588   3.235
 5143TIP3    H215373   6.704   4.619   3.356
 5144TIP3   OH215374   3.031   3.171   3.616
 5144TIP3    H115375   3.072   3.239   3.562
 5144TIP3    H215376   3.073   3.090   3.589
 5145TIP3   OH215377   4.268   3.151   3.719
 5145TIP3    H115378   4.236   3.083   3.659
 5145TIP3    H215379   4.353   3.118   3.749
 5146TIP3   OH215380   6.101   2.266   3.195
 5146TIP3    H115381   6.190   2.244   3.167
 5146TIP3    H215382   6.085   2.352   3.159
 5147TIP3   OH215383   5.281   6.834   0.532
 5147TIP3    H115384   5.221   6.897   0.571
 5147TIP3    H215385   5.362   6.882   0.518
 5148TIP3   OH215386   0.446   3.770   6.471
 5148TIP3    H115387   0.386   3.743   6.402
 5148TIP3    H215388   0.533   3.765   6.431
 5149TIP3   OH215389   3.287   1.330   5.630
 5149TIP3    H115390   3.302   1.400   5.566
 5149TIP3    H215391   3.192   1.328   5.641
 5150TIP3   OH215392   1.033   1.472   3.442
 5150TIP3    H115393   1.031   1.473   3.538
 5150TIP3    H215394   1.029   1.565   3.418
 5151TIP3   OH215395   0.264   0.763   0.653
 5151TIP3    H115396   0.344   0.760   0.600
 5151TIP3    H215397   0.197   0.723   0.597
 5152TIP3   OH215398   7.221   1.635   0.317
 5152TIP3    H115399   7.252   1.589   0.239
 5152TIP3    H215400   7.127   1.647   0.303
 5153TIP3   OH215401   6.217   6.987   5.160
 5153TIP3    H115402   6.236   7.050   5.090
 5153TIP3    H215403   6.123   6.994   5.175
 5154TIP3   OH215404   1.265   6.006   5.134
 5154TIP3    H115405   1.331   5.945   5.098
 5154TIP3    H215406   1.193   5.949   5.162
 5155TIP3   OH215407   3.391   5.542   1.274
 5155TIP3    H115408   3.468   5.549   1.331
 5155TIP3    H215409   3.326   5.599   1.314
 5156TIP3   OH215410   6.631   5.908   6.532
 5156TIP3    H115411   6.637   5.991   6.580
 5156TIP3    H215412   6.653   5.841   6.597
 5157TIP3   OH215413   1.489   7.205   3.032
 5157TIP3    H115414   1.538   7.263   2.973
 5157TIP3    H215415   1.556   7.166   3.088
 5158TIP3   OH215416   3.571   1.254   5.172
 5158TIP3    H115417   3.651   1.287   5.131
 5158TIP3    H215418   3.600   1.219   5.257
 5159TIP3   OH215419   5.573   1.618   2.615
 5159TIP3    H115420   5.618   1.698   2.643
 5159TIP3    H215421   5.480   1.641   2.616
 5160TIP3   OH215422   7.898   2.088   6.524
 5160TIP3    H115423   7.841   2.016   6.550
 5160TIP3    H215424   7.856   2.166   6.561
 5161TIP3   OH215425   1.087   5.201   3.753
 5161TIP3    H115426   1.084   5.274   3.815
 5161TIP3    H215427   0.997   5.167   3.752
 5162TIP3   OH215428   2.453   6.328   5.242
 5162TIP3    H115429   2.490   6.301   5.326
 5162TIP3    H215430   2.432   6.247   5.197
 5163TIP3   OH215431   5.318   0.941   6.145
 5163TIP3    H115432   5.411   0.943   6.165
 5163TIP3    H215433   5.287   0.858   6.182
 5164TIP3   OH215434   6.699   3.247   1.095
 5164TIP3    H115435   6.662   3.316   1.150
 5164TIP3    H215436   6.642   3.171   1.109
 5165TIP3   OH215437   3.911   4.537   5.084
 5165TIP3    H115438   3.905   4.615   5.138
 5165TIP3    H215439   3.904   4.464   5.146
 5166TIP3   OH215440   4.686   6.836   0.181
 5166TIP3    H115441   4.620   6.773   0.207
 5166TIP3    H215442   4.729   6.796   0.105
 5167TIP3   OH215443   4.971   1.398   0.670
 5167TIP3    H115444   4.990   1.489   0.648
 5167TIP3    H215445   4.909   1.403   0.743
 5168TIP3   OH215446   2.196   0.156   2.390
 5168TIP3    H115447   2.282   0.116   2.405
 5168TIP3    H215448   2.206   0.203   2.308
 5169TIP3   OH215449   1.481   7.720   0.772
 5169TIP3    H115450   1.430   7.770   0.707
 5169TIP3    H215451   1.479   7.630   0.739
 5170TIP3   OH215452   5.448   6.202   2.161
 5170TIP3    H115453   5.439   6.239   2.073
 5170TIP3    H215454   5.408   6.268   2.218
 5171TIP3   OH215455   0.781   3.126   4.657
 5171TIP3    H115456   0.795   3.032   4.641
 5171TIP3    H215457   0.869   3.164   4.653
 5172TIP3   OH215458   2.178   3.548   6.560
 5172TIP3    H115459   2.208   3.483   6.496
 5172TIP3    H215460   2.155   3.497   6.637
 5173TIP3   OH215461   8.134   5.747   3.047
 5173TIP3    H115462   8.199   5.798   2.998
 5173TIP3    H215463   8.129   5.789   3.132
 5174TIP3   OH215464   0.888   0.318   1.319
 5174TIP3    H115465   0.814   0.258   1.311
 5174TIP3    H215466   0.861   0.380   1.387
 5175TIP3   OH215467   3.292   5.245   5.962
 5175TIP3    H115468   3.358   5.314   5.969
 5175TIP3    H215469   3.304   5.209   5.875
 5176TIP3   OH215470   6.210   3.293   1.228
 5176TIP3    H115471   6.139   3.312   1.290
 5176TIP3    H215472   6.173   3.227   1.169
 5177TIP3   OH215473   3.055   6.371   5.716
 5177TIP3    H115474   3.071   6.333   5.802
 5177TIP3    H215475   2.974   6.329   5.686
 5178TIP3   OH215476   7.521   1.788   5.518
 5178TIP3    H115477   7.463   1.716   5.492
 5178TIP3    H215478   7.581   1.749   5.582
 5179TIP3   OH215479   4.474   7.127  -0.002
 5179TIP3    H115480   4.441   7.074   0.070
 5179TIP3    H215481   4.566   7.100  -0.012
 5180TIP3   OH215482   0.506   1.894   1.451
 5180TIP3    H115483   0.590   1.930   1.426
 5180TIP3    H215484   0.507   1.894   1.547
 5181TIP3   OH215485   4.674   5.922   3.609
 5181TIP3    H115486   4.618   5.846   3.599
 5181TIP3    H215487   4.734   5.918   3.534
 5182TIP3   OH215488   6.649   5.530   3.395
 5182TIP3    H115489   6.586   5.502   3.329
 5182TIP3    H215490   6.733   5.534   3.349
 5183TIP3   OH215491   1.288   3.348   4.622
 5183TIP3    H115492   1.330   3.370   4.539
 5183TIP3    H215493   1.274   3.432   4.665
 5184TIP3   OH215494   5.678   0.755   0.821
 5184TIP3    H115495   5.730   0.782   0.746
 5184TIP3    H215496   5.596   0.804   0.814
 5185TIP3   OH215497   3.902   3.897   6.577
 5185TIP3    H115498   3.964   3.885   6.505
 5185TIP3    H215499   3.839   3.825   6.566
 5186TIP3   OH215500   0.542   5.871   2.005
 5186TIP3    H115501   0.622   5.898   1.961
 5186TIP3    H215502   0.496   5.953   2.025
 5187TIP3   OH215503   3.797   4.084   0.195
 5187TIP3    H115504   3.883   4.052   0.166
 5187TIP3    H215505   3.737   4.014   0.170
 5188TIP3   OH215506   1.150   7.124   3.494
 5188TIP3    H115507   1.225   7.089   3.446
 5188TIP3    H215508   1.088   7.150   3.426
 5189TIP3   OH215509   1.891   7.439   6.286
 5189TIP3    H115510   1.961   7.381   6.315
 5189TIP3    H215511   1.860   7.482   6.366
 5190TIP3   OH215512   7.966   5.428   1.549
 5190TIP3    H115513   8.029   5.381   1.602
 5190TIP3    H215514   7.881   5.393   1.576
 5191TIP3   OH215515   3.019   0.721   5.618
 5191TIP3    H115516   2.978   0.672   5.547
 5191TIP3    H215517   3.106   0.684   5.625
 5192TIP3   OH215518   3.088   2.632   2.003
 5192TIP3    H115519   2.999   2.616   1.971
 5192TIP3    H215520   3.095   2.727   2.010
 5193TIP3   OH215521   0.197   0.800   6.695
 5193TIP3    H115522   0.224   0.788   6.786
 5193TIP3    H215523   0.134   0.872   6.699
 5194TIP3   OH215524   0.272   5.142   3.226
 5194TIP3    H115525   0.257   5.085   3.151
 5194TIP3    H215526   0.317   5.219   3.191
 5195TIP3   OH215527   3.656   6.465   2.032
 5195TIP3    H115528   3.595   6.536   2.054
 5195TIP3    H215529   3.739   6.492   2.070
 5196TIP3   OH215530   7.913   3.807   0.971
 5196TIP3    H115531   7.892   3.713   0.977
 5196TIP3    H215532   7.911   3.838   1.061
 5197TIP3   OH215533   6.519   5.925   1.910
 5197TIP3    H115534   6.538   5.991   1.844
 5197TIP3    H215535   6.595   5.925   1.968
 5198TIP3   OH215536   5.380   4.732   0.280
 5198TIP3    H115537   5.297   4.719   0.325
 5198TIP3    H215538   5.446   4.731   0.349
 5199TIP3   OH215539   1.929   2.106   2.248
 5199TIP3    H115540   1.834   2.096   2.252
 5199TIP3    H215541   1.958   2.034   2.192
 5200TIP3   OH215542   5.190   5.398   2.886
 5200TIP3    H115543   5.111   5.402   2.939
 5200TIP3    H215544   5.199   5.305   2.863
 5201TIP3   OH215545   6.956   6.081   2.463
 5201TIP3    H115546   7.034   6.056   2.413
 5201TIP3    H215547   6.932   6.167   2.429
 5202TIP3   OH215548   5.244   7.439   1.707
 5202TIP3    H115549   5.274   7.472   1.622
 5202TIP3    H215550   5.192   7.362   1.685
 5203TIP3   OH215551   4.081   0.663   6.484
 5203TIP3    H115552   4.063   0.599   6.415
 5203TIP3    H215553   4.139   0.727   6.442
 5204TIP3   OH215554   7.569   5.257   4.964
 5204TIP3    H115555   7.606   5.196   4.900
 5204TIP3    H215556   7.608   5.342   4.941
 5205TIP3   OH215557   0.407   2.364   1.750
 5205TIP3    H115558   0.428   2.458   1.753
 5205TIP3    H215559   0.315   2.359   1.776
 5206TIP3   OH215560   5.959   3.082   4.844
 5206TIP3    H115561   6.022   3.081   4.915
 5206TIP3    H215562   5.877   3.054   4.884
 5207TIP3   OH215563   0.307   4.206   1.793
 5207TIP3    H115564   0.293   4.244   1.706
 5207TIP3    H215565   0.220   4.178   1.821
 5208TIP3   OH215566   6.104   3.038   3.373
 5208TIP3    H115567   6.089   3.015   3.281
 5208TIP3    H215568   6.070   2.964   3.423
 5209TIP3   OH215569   0.878   2.106   1.069
 5209TIP3    H115570   0.896   2.084   0.977
 5209TIP3    H215571   0.910   2.195   1.079
 5210TIP3   OH215572   5.462   7.630   4.672
 5210TIP3    H115573   5.370   7.657   4.665
 5210TIP3    H215574   5.494   7.675   4.751
 5211TIP3   OH215575   2.865   1.407   6.247
 5211TIP3    H115576   2.957   1.387   6.260
 5211TIP3    H215577   2.840   1.359   6.168
 5212TIP3   OH215578   3.606   2.498   0.357
 5212TIP3    H115579   3.632   2.441   0.429
 5212TIP3    H215580   3.557   2.569   0.399
 5213TIP3   OH215581   1.942   1.884   2.761
 5213TIP3    H115582   1.926   1.916   2.850
 5213TIP3    H215583   1.874   1.925   2.708
 5214TIP3   OH215584   1.614   2.596   3.779
 5214TIP3    H115585   1.657   2.521   3.739
 5214TIP3    H215586   1.524   2.568   3.793
 5215TIP3   OH215587   5.949   2.234   6.624
 5215TIP3    H115588   6.026   2.189   6.658
 5215TIP3    H215589   5.983   2.314   6.584
 5216TIP3   OH215590   4.898   3.115   4.709
 5216TIP3    H115591   4.977   3.168   4.717
 5216TIP3    H215592   4.826   3.176   4.725
 5217TIP3   OH215593   0.912   0.963   5.529
 5217TIP3    H115594   0.905   0.974   5.434
 5217TIP3    H215595   0.972   1.031   5.556
 5218TIP3   OH215596   3.548   5.547   4.246
 5218TIP3    H115597   3.503   5.477   4.199
 5218TIP3    H215598   3.503   5.552   4.331
 5219TIP3   OH215599   1.832   5.608   3.856
 5219TIP3    H115600   1.846   5.688   3.806
 5219TIP3    H215601   1.911   5.556   3.842
 5220TIP3   OH215602   2.875   1.146   1.053
 5220TIP3    H115603   2.907   1.087   1.122
 5220TIP3    H215604   2.783   1.160   1.075
 5221TIP3   OH215605   5.741   3.987   4.873
 5221TIP3    H115606   5.661   4.026   4.910
 5221TIP3    H215607   5.721   3.894   4.867
 5222TIP3   OH215608   2.004   6.182   3.561
 5222TIP3    H115609   1.922   6.142   3.530
 5222TIP3    H215610   2.045   6.216   3.482
 5223TIP3   OH215611   3.788   1.316   6.673
 5223TIP3    H115612   3.823   1.325   6.762
 5223TIP3    H215613   3.713   1.257   6.683
 5224TIP3   OH215614   2.276   3.232   3.535
 5224TIP3    H115615   2.192   3.212   3.577
 5224TIP3    H215616   2.337   3.167   3.570
 5225TIP3   OH215617   6.595   0.021   3.763
 5225TIP3    H115618   6.627   0.053   3.678
 5225TIP3    H215619   6.505  -0.005   3.747
 5226TIP3   OH215620   4.756   7.173   2.300
 5226TIP3    H115621   4.745   7.083   2.269
 5226TIP3    H215622   4.845   7.196   2.273
 5227TIP3   OH215623   4.643   2.163   3.938
 5227TIP3    H115624   4.666   2.103   4.009
 5227TIP3    H215625   4.717   2.156   3.876
 5228TIP3   OH215626   3.027   0.468   2.781
 5228TIP3    H115627   2.952   0.459   2.841
 5228TIP3    H215628   2.992   0.520   2.708
 5229TIP3   OH215629   5.375   3.214   5.657
 5229TIP3    H115630   5.281   3.231   5.648
 5229TIP3    H215631   5.412   3.245   5.574
 5230TIP3   OH215632   2.850   1.159   1.457
 5230TIP3    H115633   2.906   1.206   1.518
 5230TIP3    H215634   2.781   1.222   1.434
 5231TIP3   OH215635   1.890   0.354   0.161
 5231TIP3    H115636   1.966   0.307   0.196
 5231TIP3    H215637   1.925   0.440   0.136
 5232TIP3   OH215638   4.392   2.890   4.594
 5232TIP3    H115639   4.324   2.824   4.581
 5232TIP3    H215640   4.466   2.858   4.542
 5233TIP3   OH215641   4.776   6.625   5.445
 5233TIP3    H115642   4.852   6.594   5.495
 5233TIP3    H215643   4.704   6.627   5.508
 5234TIP3   OH215644   0.090   4.958   0.447
 5234TIP3    H115645   0.030   5.029   0.423
 5234TIP3    H215646   0.033   4.892   0.487
 5235TIP3   OH215647   2.364   0.645   5.760
 5235TIP3    H115648   2.449   0.661   5.800
 5235TIP3    H215649   2.355   0.549   5.759
 5236TIP3   OH215650   5.194   7.559   5.766
 5236TIP3    H115651   5.258   7.589   5.831
 5236TIP3    H215652   5.124   7.624   5.769
 5237TIP3   OH215653   2.984   4.528   5.265
 5237TIP3    H115654   2.990   4.622   5.283
 5237TIP3    H215655   3.066   4.506   5.223
 5238TIP3   OH215656   3.570   2.139   6.025
 5238TIP3    H115657   3.510   2.067   6.042
 5238TIP3    H215658   3.652   2.097   6.000
 5239TIP3   OH215659   3.282   6.144   4.667
 5239TIP3    H115660   3.295   6.233   4.701
 5239TIP3    H215661   3.339   6.090   4.723
 5240TIP3   OH215662   0.196   5.919   5.620
 5240TIP3    H115663   0.240   5.980   5.678
 5240TIP3    H215664   0.109   5.955   5.608
 5241TIP3   OH215665   7.234   5.067   4.758
 5241TIP3    H115666   7.277   5.112   4.686
 5241TIP3    H215667   7.297   5.069   4.830
 5242TIP3   OH215668   0.147   1.640   4.880
 5242TIP3    H115669   0.174   1.646   4.789
 5242TIP3    H215670   0.079   1.572   4.882
 5243TIP3   OH215671   2.439   4.934   5.848
 5243TIP3    H115672   2.428   4.989   5.926
 5243TIP3    H215673   2.519   4.966   5.807
 5244TIP3   OH215674   2.975   3.872   0.704
 5244TIP3    H115675   2.984   3.858   0.610
 5244TIP3    H215676   2.918   3.949   0.711
 5245TIP3   OH215677   2.092   4.713   1.477
 5245TIP3    H115678   2.153   4.779   1.507
 5245TIP3    H215679   2.005   4.748   1.498
 5246TIP3   OH215680   7.831   6.375   4.722
 5246TIP3    H115681   7.922   6.404   4.725
 5246TIP3    H215682   7.835   6.286   4.688
 5247TIP3   OH215683   0.098   0.661   0.475
 5247TIP3    H115684   0.139   0.707   0.401
 5247TIP3    H215685   0.021   0.619   0.436
 5248TIP3   OH215686   7.988   0.101   2.703
 5248TIP3    H115687   8.044   0.117   2.627
 5248TIP3    H215688   8.008   0.173   2.763
 5249TIP3   OH215689   1.977   2.441   4.164
 5249TIP3    H115690   1.965   2.414   4.073
 5249TIP3    H215691   2.068   2.417   4.184
 5250TIP3   OH215692   5.659   1.816   1.801
 5250TIP3    H115693   5.703   1.831   1.885
 5250TIP3    H215694   5.725   1.773   1.747
 5251TIP3   OH215695   1.256   1.338   1.497
 5251TIP3    H115696   1.212   1.423   1.490
 5251TIP3    H215697   1.283   1.333   1.589
 5252TIP3   OH215698   2.292   3.006   6.079
 5252TIP3    H115699   2.271   2.967   6.164
 5252TIP3    H215700   2.363   2.952   6.045
 5253TIP3   OH215701   5.098   0.512   4.523
 5253TIP3    H115702   5.179   0.561   4.532
 5253TIP3    H215703   5.121   0.422   4.543
 5254TIP3   OH215704   2.993   3.176   0.938
 5254TIP3    H115705   3.026   3.228   0.864
 5254TIP3    H215706   3.036   3.214   1.015
 5255TIP3   OH215707   6.324   4.911   1.203
 5255TIP3    H115708   6.322   4.968   1.280
 5255TIP3    H215709   6.412   4.922   1.167
 5256TIP3   OH215710   7.701   7.448   5.169
 5256TIP3    H115711   7.736   7.359   5.166
 5256TIP3    H215712   7.773   7.504   5.139
 5257TIP3   OH215713   3.156   2.833   5.567
 5257TIP3    H115714   3.100   2.835   5.645
 5257TIP3    H215715   3.196   2.746   5.569
 5258TIP3   OH215716   8.258   7.166   2.603
 5258TIP3    H115717   8.314   7.137   2.531
 5258TIP3    H215718   8.265   7.096   2.668
 5259TIP3   OH215719   3.348   1.318   6.450
 5259TIP3    H115720   3.288   1.246   6.429
 5259TIP3    H215721   3.353   1.317   6.545
 5260TIP3   OH215722   5.310   1.060   5.823
 5260TIP3    H115723   5.365   1.032   5.896
 5260TIP3    H215724   5.358   1.134   5.784
 5261TIP3   OH215725   4.259   3.350   6.636
 5261TIP3    H115726   4.325   3.417   6.655
 5261TIP3    H215727   4.229   3.321   6.722
 5262TIP3   OH215728   0.856   0.947   3.292
 5262TIP3    H115729   0.775   0.968   3.338
 5262TIP3    H215730   0.828   0.916   3.206
 5263TIP3   OH215731   5.649   0.276   4.622
 5263TIP3    H115732   5.705   0.213   4.667
 5263TIP3    H215733   5.566   0.229   4.608
 5264TIP3   OH215734   0.130   6.067   4.584
 5264TIP3    H115735   0.176   6.148   4.602
 5264TIP3    H215736   0.043   6.094   4.554
 5265TIP3   OH215737   8.093   7.076   5.324
 5265TIP3    H115738   8.140   7.106   5.246
 5265TIP3    H215739   8.076   7.156   5.374
 5266TIP3   OH215740   7.311   1.791   5.915
 5266TIP3    H115741   7.359   1.715   5.947
 5266TIP3    H215742   7.323   1.789   5.820
 5267TIP3   OH215743   5.968   1.907   0.304
 5267TIP3    H115744   5.954   1.825   0.256
 5267TIP3    H215745   5.914   1.971   0.259
 5268TIP3   OH215746   1.933   0.754   6.364
 5268TIP3    H115747   1.854   0.768   6.312
 5268TIP3    H215748   1.993   0.708   6.305
 5269TIP3   OH215749   7.904   2.552   6.737
 5269TIP3    H115750   7.972   2.486   6.741
 5269TIP3    H215751   7.951   2.636   6.740
 5270TIP3   OH215752   7.520   2.354   1.871
 5270TIP3    H115753   7.602   2.315   1.903
 5270TIP3    H215754   7.548   2.412   1.799
 5271TIP3   OH215755   2.199   4.803   4.401
 5271TIP3    H115756   2.244   4.862   4.461
 5271TIP3    H215757   2.192   4.720   4.448
 5272TIP3   OH215758   0.831   7.534   2.891
 5272TIP3    H115759   0.785   7.470   2.837
 5272TIP3    H215760   0.794   7.521   2.979
 5273TIP3   OH215761   4.724   5.818   6.350
 5273TIP3    H115762   4.808   5.773   6.341
 5273TIP3    H215763   4.730   5.892   6.289
 5274TIP3   OH215764   7.844   5.647   4.425
 5274TIP3    H115765   7.922   5.648   4.480
 5274TIP3    H215766   7.848   5.729   4.375
 5275TIP3   OH215767   5.666   5.535   2.333
 5275TIP3    H115768   5.605   5.606   2.352
 5275TIP3    H215769   5.716   5.565   2.257
 5276TIP3   OH215770   0.598   5.618   1.898
 5276TIP3    H115771   0.602   5.695   1.955
 5276TIP3    H215772   0.555   5.551   1.951
 5277TIP3   OH215773   1.551   1.079   4.755
 5277TIP3    H115774   1.544   1.141   4.683
 5277TIP3    H215775   1.633   1.033   4.740
 5278TIP3   OH215776   5.034   4.948   2.246
 5278TIP3    H115777   5.108   4.898   2.212
 5278TIP3    H215778   4.968   4.882   2.268
 5279TIP3   OH215779   2.067   3.998   0.037
 5279TIP3    H115780   2.160   3.990   0.013
 5279TIP3    H215781   2.068   4.040   0.123
 5280TIP3   OH215782   6.092   2.987   0.754
 5280TIP3    H115783   6.177   3.029   0.742
 5280TIP3    H215784   6.094   2.912   0.695
 5281TIP3   OH215785   2.180   6.558   2.946
 5281TIP3    H115786   2.161   6.649   2.968
 5281TIP3    H215787   2.272   6.557   2.922
 5282TIP3   OH215788   6.874   7.616   6.730
 5282TIP3    H115789   6.868   7.592   6.823
 5282TIP3    H215790   6.966   7.603   6.708
 5283TIP3   OH215791   7.873   4.104   2.621
 5283TIP3    H115792   7.781   4.127   2.608
 5283TIP3    H215793   7.906   4.083   2.533
 5284TIP3   OH215794   1.700   1.519   5.216
 5284TIP3    H115795   1.706   1.491   5.124
 5284TIP3    H215796   1.661   1.606   5.212
 5285TIP3   OH215797   0.084   6.704   0.073
 5285TIP3    H115798   0.152   6.665   0.128
 5285TIP3    H215799   0.037   6.763   0.132
 5286TIP3   OH215800   6.293   0.726   3.590
 5286TIP3    H115801   6.198   0.723   3.580
 5286TIP3    H215802   6.326   0.659   3.530
 5287TIP3   OH215803   4.241   0.030   2.356
 5287TIP3    H115804   4.267   0.119   2.333
 5287TIP3    H215805   4.176   0.006   2.290
 5288TIP3   OH215806   1.150   0.276   2.898
 5288TIP3    H115807   1.153   0.200   2.956
 5288TIP3    H215808   1.184   0.349   2.951
 5289TIP3   OH215809   2.198   6.793   1.043
 5289TIP3    H115810   2.120   6.754   1.003
 5289TIP3    H215811   2.168   6.878   1.076
 5290TIP3   OH215812   0.675   3.802   3.249
 5290TIP3    H115813   0.736   3.812   3.322
 5290TIP3    H215814   0.588   3.807   3.289
 5291TIP3   OH215815   2.538   2.131   4.415
 5291TIP3    H115816   2.597   2.059   4.437
 5291TIP3    H215817   2.457   2.088   4.388
 5292TIP3   OH215818   5.611   0.301   5.292
 5292TIP3    H115819   5.699   0.269   5.274
 5292TIP3    H215820   5.592   0.361   5.220
 5293TIP3   OH215821   6.952   0.781   2.506
 5293TIP3    H115822   6.920   0.852   2.450
 5293TIP3    H215823   6.892   0.709   2.488
 5294TIP3   OH215824   3.428   3.010   3.529
 5294TIP3    H115825   3.439   2.917   3.510
 5294TIP3    H215826   3.348   3.014   3.581
 5295TIP3   OH215827   6.491   3.178   0.329
 5295TIP3    H115828   6.396   3.166   0.333
 5295TIP3    H215829   6.512   3.168   0.236
 5296TIP3   OH215830   4.214   5.690   0.045
 5296TIP3    H115831   4.291   5.712   0.098
 5296TIP3    H215832   4.176   5.775   0.023
 5297TIP3   OH215833   1.062   1.924   1.353
 5297TIP3    H115834   1.086   1.838   1.319
 5297TIP3    H215835   1.146   1.967   1.371
 5298TIP3   OH215836   6.619   5.403   4.849
 5298TIP3    H115837   6.685   5.357   4.797
 5298TIP3    H215838   6.654   5.491   4.860
 5299TIP3   OH215839   2.543   6.571   4.971
 5299TIP3    H115840   2.631   6.599   4.943
 5299TIP3    H215841   2.556   6.482   5.002
 5300TIP3   OH215842   7.755   6.500   6.756
 5300TIP3    H115843   7.747   6.585   6.713
 5300TIP3    H215844   7.693   6.443   6.710
 5301TIP3   OH215845   5.332   7.581   0.482
 5301TIP3    H115846   5.256   7.523   0.487
 5301TIP3    H215847   5.392   7.546   0.548
 5302TIP3   OH215848   6.669   0.904   0.353
 5302TIP3    H115849   6.669   0.823   0.404
 5302TIP3    H215850   6.579   0.936   0.359
 5303TIP3   OH215851   2.535   7.742   2.437
 5303TIP3    H115852   2.629   7.722   2.433
 5303TIP3    H215853   2.493   7.656   2.445
 5304TIP3   OH215854   1.955   3.923   5.855
 5304TIP3    H115855   1.912   3.956   5.776
 5304TIP3    H215856   1.980   4.002   5.903
 5305TIP3   OH215857   6.027   5.333   4.570
 5305TIP3    H115858   6.086   5.406   4.587
 5305TIP3    H215859   6.057   5.264   4.629
 5306TIP3   OH215860   5.885   6.491   6.079
 5306TIP3    H115861   5.929   6.573   6.056
 5306TIP3    H215862   5.894   6.436   6.001
 5307TIP3   OH215863   2.610   4.696   4.050
 5307TIP3    H115864   2.599   4.690   3.955
 5307TIP3    H215865   2.698   4.731   4.061
 5308TIP3   OH215866   1.221   1.577   2.714
 5308TIP3    H115867   1.309   1.576   2.750
 5308TIP3    H215868   1.163   1.576   2.790
 5309TIP3   OH215869   2.088   1.571   6.470
 5309TIP3    H115870   2.016   1.553   6.410
 5309TIP3    H215871   2.064   1.525   6.550
 5310TIP3   OH215872   1.428   0.591   4.232
 5310TIP3    H115873   1.383   0.673   4.254
 5310TIP3    H215874   1.424   0.539   4.312
 5311TIP3   OH215875   6.765   0.731   3.593
 5311TIP3    H115876   6.765   0.700   3.502
 5311TIP3    H215877   6.785   0.653   3.645
 5312TIP3   OH215878   4.841   4.759   3.689
 5312TIP3    H115879   4.909   4.770   3.623
 5312TIP3    H215880   4.889   4.756   3.772
 5313TIP3   OH215881   3.886   3.468   1.322
 5313TIP3    H115882   3.879   3.408   1.397
 5313TIP3    H215883   3.975   3.504   1.328
 5314TIP3   OH215884   6.127   4.116   1.346
 5314TIP3    H115885   6.100   4.092   1.434
 5314TIP3    H215886   6.219   4.092   1.341
 5315TIP3   OH215887   3.193   5.094   3.400
 5315TIP3    H115888   3.245   5.028   3.354
 5315TIP3    H215889   3.212   5.080   3.492
 5316TIP3   OH215890   6.713   6.805   3.188
 5316TIP3    H115891   6.761   6.816   3.269
 5316TIP3    H215892   6.662   6.886   3.178
 5317TIP3   OH215893   3.152   5.490   3.409
 5317TIP3    H115894   3.146   5.532   3.495
 5317TIP3    H215895   3.064   5.457   3.393
 5318TIP3   OH215896   1.464   7.030   0.046
 5318TIP3    H115897   1.494   6.958   0.101
 5318TIP3    H215898   1.538   7.047  -0.013
 5319TIP3   OH215899   2.423   4.450   5.486
 5319TIP3    H115900   2.474   4.426   5.563
 5319TIP3    H215901   2.471   4.410   5.413
 5320TIP3   OH215902   7.822   6.077   0.507
 5320TIP3    H115903   7.846   5.995   0.548
 5320TIP3    H215904   7.906   6.122   0.493
 5321TIP3   OH215905   1.510   1.052   6.269
 5321TIP3    H115906   1.432   1.034   6.217
 5321TIP3    H215907   1.502   0.994   6.345
 5322TIP3   OH215908   7.041   6.154   1.105
 5322TIP3    H115909   7.057   6.136   1.013
 5322TIP3    H215910   7.126   6.143   1.147
 5323TIP3   OH215911   2.085   1.908   2.158
 5323TIP3    H115912   2.173   1.915   2.194
 5323TIP3    H215913   2.097   1.863   2.075
 5324TIP3   OH215914   0.450   1.935   0.037
 5324TIP3    H115915   0.500   1.925  -0.044
 5324TIP3    H215916   0.383   2.001   0.017
 5325TIP3   OH215917   1.580   6.207   4.857
 5325TIP3    H115918   1.588   6.297   4.825
 5325TIP3    H215919   1.593   6.214   4.952
 5326TIP3   OH215920   4.016   7.217   2.497
 5326TIP3    H115921   3.939   7.268   2.523
 5326TIP3    H215922   4.037   7.165   2.574
 5327TIP3   OH215923   3.638   7.745   2.001
 5327TIP3    H115924   3.568   7.740   2.067
 5327TIP3    H215925   3.717   7.719   2.048
 5328TIP3   OH215926   5.533   6.739   1.328
 5328TIP3    H115927   5.474   6.736   1.403
 5328TIP3    H215928   5.497   6.807   1.272
 5329TIP3   OH215929   1.344   7.202   2.576
 5329TIP3    H115930   1.426   7.218   2.622
 5329TIP3    H215931   1.354   7.247   2.492
 5330TIP3   OH215932   1.749   3.647   1.528
 5330TIP3    H115933   1.672   3.591   1.535
 5330TIP3    H215934   1.741   3.708   1.602
 5331TIP3   OH215935   2.792   6.143   4.583
 5331TIP3    H115936   2.754   6.205   4.646
 5331TIP3    H215937   2.784   6.058   4.626
 5332TIP3   OH215938   2.934   7.305   4.937
 5332TIP3    H115939   2.860   7.366   4.935
 5332TIP3    H215940   2.921   7.248   4.861
 5333TIP3   OH215941   4.269   5.775   6.632
 5333TIP3    H115942   4.333   5.844   6.648
 5333TIP3    H215943   4.318   5.707   6.586
 5334TIP3   OH215944   7.503   2.746   3.880
 5334TIP3    H115945   7.577   2.717   3.826
 5334TIP3    H215946   7.532   2.732   3.970
 5335TIP3   OH215947   5.456   4.906   4.298
 5335TIP3    H115948   5.526   4.903   4.233
 5335TIP3    H215949   5.501   4.929   4.379
 5336TIP3   OH215950   5.673   6.371   6.300
 5336TIP3    H115951   5.629   6.352   6.217
 5336TIP3    H215952   5.628   6.449   6.334
 5337TIP3   OH215953   0.099   5.457   3.789
 5337TIP3    H115954   0.124   5.529   3.848
 5337TIP3    H215955   0.129   5.378   3.834
 5338TIP3   OH215956   4.521   1.684   2.364
 5338TIP3    H115957   4.516   1.771   2.325
 5338TIP3    H215958   4.603   1.648   2.331
 5339TIP3   OH215959   8.067   2.232   1.731
 5339TIP3    H115960   7.994   2.220   1.671
 5339TIP3    H215961   8.036   2.198   1.815
 5340TIP3   OH215962   5.789   2.995   6.296
 5340TIP3    H115963   5.804   3.053   6.222
 5340TIP3    H215964   5.715   2.940   6.268
 5341TIP3   OH215965   7.146   7.607   3.473
 5341TIP3    H115966   7.132   7.602   3.379
 5341TIP3    H215967   7.062   7.580   3.511
 5342TIP3   OH215968   4.265   5.526   3.630
 5342TIP3    H115969   4.275   5.469   3.554
 5342TIP3    H215970   4.173   5.519   3.654
 5343TIP3   OH215971   0.829   4.232   3.056
 5343TIP3    H115972   0.916   4.194   3.049
 5343TIP3    H215973   0.769   4.162   3.031
 5344TIP3   OH215974   2.905   4.342   5.464
 5344TIP3    H115975   2.981   4.284   5.473
 5344TIP3    H215976   2.931   4.405   5.397
 5345TIP3   OH215977   6.349   1.478   5.568
 5345TIP3    H115978   6.429   1.492   5.618
 5345TIP3    H215979   6.319   1.567   5.547
 5346TIP3   OH215980   3.306   4.383   1.162
 5346TIP3    H115981   3.228   4.416   1.118
 5346TIP3    H215982   3.275   4.356   1.249
 5347TIP3   OH215983   4.679   3.014   2.010
 5347TIP3    H115984   4.727   3.003   1.928
 5347TIP3    H215985   4.608   2.950   2.004
 5348TIP3   OH215986   5.263   6.260   6.064
 5348TIP3    H115987   5.335   6.313   6.030
 5348TIP3    H215988   5.189   6.282   6.007
 5349TIP3   OH215989   6.057   2.053   3.378
 5349TIP3    H115990   6.036   2.105   3.301
 5349TIP3    H215991   6.061   1.963   3.345
 5350TIP3   OH215992   6.022   7.058   5.689
 5350TIP3    H115993   5.952   7.105   5.644
 5350TIP3    H215994   5.977   7.008   5.757
 5351TIP3   OH215995   0.084   0.744   3.232
 5351TIP3    H115996   0.003   0.728   3.280
 5351TIP3    H215997   0.104   0.836   3.249
 5352TIP3   OH215998   5.999   4.393   1.416
 5352TIP3    H115999   6.048   4.448   1.355
 5352TIP3    H216000   6.056   4.318   1.431
 5353TIP3   OH216001   4.800   3.445   2.406
 5353TIP3    H116002   4.788   3.514   2.470
 5353TIP3    H216003   4.894   3.447   2.386
 5354TIP3   OH216004   4.307   6.569   4.987
 5354TIP3    H116005   4.357   6.618   4.922
 5354TIP3    H216006   4.239   6.524   4.936
 5355TIP3   OH216007   3.871   2.887   3.927
 5355TIP3    H116008   3.796   2.848   3.971
 5355TIP3    H216009   3.873   2.978   3.957
 5356TIP3   OH216010   5.682   3.684   5.117
 5356TIP3    H116011   5.646   3.700   5.030
 5356TIP3    H216012   5.726   3.766   5.141
 5357TIP3   OH216013   4.290   6.987   6.596
 5357TIP3    H116014   4.267   7.079   6.609
 5357TIP3    H216015   4.320   6.957   6.681
 5358TIP3   OH216016   1.406   6.269   1.630
 5358TIP3    H116017   1.338   6.224   1.680
 5358TIP3    H216018   1.416   6.217   1.551
 5359TIP3   OH216019   7.328   1.617   4.284
 5359TIP3    H116020   7.378   1.663   4.352
 5359TIP3    H216021   7.256   1.575   4.331
 5360TIP3   OH216022   7.891   6.619   2.430
 5360TIP3    H116023   7.944   6.568   2.370
 5360TIP3    H216024   7.949   6.690   2.459
 5361TIP3   OH216025   5.286   2.795   1.720
 5361TIP3    H116026   5.341   2.774   1.795
 5361TIP3    H216027   5.309   2.886   1.698
 5362TIP3   OH216028   5.964   5.617   5.135
 5362TIP3    H116029   5.914   5.624   5.054
 5362TIP3    H216030   5.898   5.625   5.204
 5363TIP3   OH216031   5.289   3.528   3.825
 5363TIP3    H116032   5.376   3.537   3.863
 5363TIP3    H216033   5.282   3.436   3.802
 5364TIP3   OH216034   5.211   1.227   0.665
 5364TIP3    H116035   5.217   1.168   0.740
 5364TIP3    H216036   5.120   1.257   0.666
 5365TIP3   OH216037   6.289   5.823   0.584
 5365TIP3    H116038   6.320   5.840   0.674
 5365TIP3    H216039   6.292   5.728   0.576
 5366TIP3   OH216040   6.005   4.598   2.589
 5366TIP3    H116041   6.093   4.637   2.588
 5366TIP3    H216042   6.012   4.526   2.652
 5367TIP3   OH216043   0.784   3.957   1.578
 5367TIP3    H116044   0.694   3.959   1.610
 5367TIP3    H216045   0.791   3.875   1.530
 5368TIP3   OH216046   7.529   7.316   6.739
 5368TIP3    H116047   7.606   7.307   6.795
 5368TIP3    H216048   7.564   7.316   6.650
 5369TIP3   OH216049   6.029   5.812   0.853
 5369TIP3    H116050   6.027   5.889   0.795
 5369TIP3    H216051   6.051   5.848   0.939
 5370TIP3   OH216052   1.309   3.699   1.322
 5370TIP3    H116053   1.315   3.619   1.269
 5370TIP3    H216054   1.305   3.668   1.412
 5371TIP3   OH216055   5.548   4.365   3.669
 5371TIP3    H116056   5.509   4.315   3.597
 5371TIP3    H216057   5.641   4.343   3.665
 5372TIP3   OH216058   3.942   0.438   6.363
 5372TIP3    H116059   3.980   0.354   6.338
 5372TIP3    H216060   3.915   0.426   6.454
 5373TIP3   OH216061   1.707   2.463   4.911
 5373TIP3    H116062   1.717   2.376   4.949
 5373TIP3    H216063   1.695   2.521   4.986
 5374TIP3   OH216064   2.371   2.816   3.752
 5374TIP3    H116065   2.334   2.858   3.675
 5374TIP3    H216066   2.439   2.758   3.718
 5375TIP3   OH216067   4.065   7.568   4.814
 5375TIP3    H116068   4.095   7.539   4.900
 5375TIP3    H216069   4.056   7.663   4.822
 5376TIP3   OH216070   4.306   2.022   4.712
 5376TIP3    H116071   4.376   1.971   4.751
 5376TIP3    H216072   4.345   2.109   4.697
 5377TIP3   OH216073   0.603   3.839   4.387
 5377TIP3    H116074   0.562   3.756   4.411
 5377TIP3    H216075   0.652   3.865   4.466
 5378TIP3   OH216076   6.084   6.147   0.459
 5378TIP3    H116077   6.131   6.224   0.425
 5378TIP3    H216078   6.100   6.079   0.394
 5379TIP3   OH216079   7.714   4.439   2.041
 5379TIP3    H116080   7.662   4.407   2.114
 5379TIP3    H216081   7.655   4.435   1.966
 5380TIP3   OH216082   7.593   2.712   2.971
 5380TIP3    H116083   7.650   2.647   2.931
 5380TIP3    H216084   7.509   2.667   2.981
 5381TIP3   OH216085   3.573   2.421   1.103
 5381TIP3    H116086   3.551   2.514   1.090
 5381TIP3    H216087   3.517   2.375   1.041
 5382TIP3   OH216088   7.999   3.234   6.696
 5382TIP3    H116089   8.061   3.271   6.759
 5382TIP3    H216090   7.918   3.222   6.746
 5383TIP3   OH216091   2.711   7.097   1.254
 5383TIP3    H116092   2.739   7.171   1.200
 5383TIP3    H216093   2.708   7.132   1.343
 5384TIP3   OH216094   3.888   4.424   5.662
 5384TIP3    H116095   3.893   4.336   5.701
 5384TIP3    H216096   3.966   4.429   5.606
 5385TIP3   OH216097   2.724   2.351   5.277
 5385TIP3    H116098   2.650   2.296   5.304
 5385TIP3    H216099   2.785   2.291   5.235
 5386TIP3   OH216100   0.453   1.587   3.431
 5386TIP3    H116101   0.517   1.656   3.415
 5386TIP3    H216102   0.472   1.556   3.520
 5387TIP3   OH216103   4.091   7.782   0.405
 5387TIP3    H116104   4.134   7.788   0.320
 5387TIP3    H216105   4.080   7.689   0.420
 5388TIP3   OH216106   0.865   2.615   4.589
 5388TIP3    H116107   0.825   2.597   4.674
 5388TIP3    H216108   0.922   2.540   4.573
 5389TIP3   OH216109   4.129   4.841   4.010
 5389TIP3    H116110   4.181   4.885   4.077
 5389TIP3    H216111   4.194   4.795   3.956
 5390TIP3   OH216112   7.563   0.295   5.934
 5390TIP3    H116113   7.644   0.331   5.899
 5390TIP3    H216114   7.512   0.271   5.857
 5391TIP3   OH216115   4.977   5.169   5.792
 5391TIP3    H116116   4.928   5.186   5.712
 5391TIP3    H216117   4.911   5.163   5.861
 5392TIP3   OH216118   5.456   4.676   3.692
 5392TIP3    H116119   5.460   4.713   3.781
 5392TIP3    H216120   5.404   4.739   3.642
 5393TIP3   OH216121   1.601   0.754   0.970
 5393TIP3    H116122   1.606   0.740   1.065
 5393TIP3    H216123   1.575   0.845   0.960
 5394TIP3   OH216124   4.377   4.784   3.928
 5394TIP3    H116125   4.417   4.827   4.004
 5394TIP3    H216126   4.449   4.734   3.889
 5395TIP3   OH216127   2.694   6.769   4.496
 5395TIP3    H116128   2.748   6.793   4.420
 5395TIP3    H216129   2.752   6.715   4.549
 5396TIP3   OH216130   1.377   5.203   3.664
 5396TIP3    H116131   1.284   5.210   3.687
 5396TIP3    H216132   1.419   5.274   3.712
 5397TIP3   OH216133   6.059   7.531   1.966
 5397TIP3    H116134   6.063   7.556   1.873
 5397TIP3    H216135   6.075   7.436   1.966
 5398TIP3   OH216136   6.412   1.360   6.580
 5398TIP3    H116137   6.500   1.340   6.549
 5398TIP3    H216138   6.355   1.305   6.525
 5399TIP3   OH216139   0.469   4.854   5.089
 5399TIP3    H116140   0.552   4.893   5.115
 5399TIP3    H216141   0.437   4.910   5.018
 5400TIP3   OH216142   3.257   1.260   5.281
 5400TIP3    H116143   3.306   1.333   5.317
 5400TIP3    H216144   3.256   1.275   5.187
 5401TIP3   OH216145   6.468   3.374   6.712
 5401TIP3    H116146   6.437   3.304   6.769
 5401TIP3    H216147   6.392   3.429   6.696
 5402TIP3   OH216148   7.976   5.807   3.664
 5402TIP3    H116149   7.955   5.743   3.596
 5402TIP3    H216150   8.065   5.785   3.692
 5403TIP3   OH216151   8.200   3.333   1.156
 5403TIP3    H116152   8.117   3.328   1.204
 5403TIP3    H216153   8.216   3.427   1.146
 5404TIP3   OH216154   5.004   1.984   2.680
 5404TIP3    H116155   4.921   1.937   2.675
 5404TIP3    H216156   5.024   1.987   2.774
 5405TIP3   OH216157   6.735   1.933   1.960
 5405TIP3    H116158   6.719   1.839   1.971
 5405TIP3    H216159   6.815   1.950   2.009
 5406TIP3   OH216160   8.180   2.075   6.607
 5406TIP3    H116161   8.252   2.112   6.555
 5406TIP3    H216162   8.105   2.077   6.548
 5407TIP3   OH216163   5.675   2.521   1.358
 5407TIP3    H116164   5.723   2.525   1.441
 5407TIP3    H216165   5.720   2.583   1.301
 5408TIP3   OH216166   4.717   5.325   3.935
 5408TIP3    H116167   4.775   5.378   3.989
 5408TIP3    H216168   4.651   5.386   3.902
 5409TIP3   OH216169   0.993   4.025   6.608
 5409TIP3    H116170   1.055   4.063   6.670
 5409TIP3    H216171   0.934   3.973   6.663
 5410TIP3   OH216172   5.114   1.624   2.072
 5410TIP3    H116173   5.051   1.633   2.000
 5410TIP3    H216174   5.192   1.585   2.030
 5411TIP3   OH216175   0.536   4.754   2.634
 5411TIP3    H116176   0.460   4.745   2.691
 5411TIP3    H216177   0.547   4.668   2.594
 5412TIP3   OH216178   7.199   0.614   0.757
 5412TIP3    H116179   7.118   0.617   0.706
 5412TIP3    H216180   7.239   0.700   0.743
 5413TIP3   OH216181   5.539   7.763   0.433
 5413TIP3    H116182   5.500   7.841   0.396
 5413TIP3    H216183   5.467   7.700   0.437
 5414TIP3   OH216184   4.714   2.680   5.566
 5414TIP3    H116185   4.801   2.710   5.591
 5414TIP3    H216186   4.661   2.759   5.565
 5415TIP3   OH216187   7.706   5.883   0.283
 5415TIP3    H116188   7.665   5.832   0.352
 5415TIP3    H216189   7.708   5.973   0.317
 5416TIP3   OH216190   7.644   2.205   2.984
 5416TIP3    H116191   7.636   2.290   3.027
 5416TIP3    H216192   7.739   2.190   2.977
 5417TIP3   OH216193   0.725   3.832   1.851
 5417TIP3    H116194   0.777   3.786   1.917
 5417TIP3    H216195   0.725   3.774   1.775
 5418TIP3   OH216196   4.497   1.511   3.968
 5418TIP3    H116197   4.573   1.507   3.910
 5418TIP3    H216198   4.422   1.504   3.908
 5419TIP3   OH216199   2.828   1.027   4.775
 5419TIP3    H116200   2.802   1.063   4.690
 5419TIP3    H216201   2.763   1.061   4.837
 5420TIP3   OH216202   1.217   2.024   2.459
 5420TIP3    H116203   1.122   2.036   2.468
 5420TIP3    H216204   1.235   1.941   2.504
 5421TIP3   OH216205   5.293   3.671   0.231
 5421TIP3    H116206   5.327   3.758   0.251
 5421TIP3    H216207   5.198   3.682   0.227
 5422TIP3   OH216208   0.287   6.589   6.626
 5422TIP3    H116209   0.375   6.624   6.638
 5422TIP3    H216210   0.254   6.635   6.549
 5423TIP3   OH216211   5.947   7.071   6.353
 5423TIP3    H116212   6.018   7.016   6.321
 5423TIP3    H216213   5.874   7.011   6.367
 5424TIP3   OH216214   6.223   2.592   6.005
 5424TIP3    H116215   6.253   2.577   5.916
 5424TIP3    H216216   6.303   2.594   6.058
 5425TIP3   OH216217   2.545   5.880   3.860
 5425TIP3    H116218   2.456   5.907   3.839
 5425TIP3    H216219   2.595   5.897   3.780
 5426TIP3   OH216220   6.051   2.357   0.779
 5426TIP3    H116221   6.054   2.434   0.837
 5426TIP3    H216222   6.107   2.381   0.705
 5427TIP3   OH216223   3.378   4.189   3.541
 5427TIP3    H116224   3.421   4.205   3.625
 5427TIP3    H216225   3.293   4.232   3.549
 5428TIP3   OH216226   6.100   7.756   5.802
 5428TIP3    H116227   6.105   7.660   5.802
 5428TIP3    H216228   6.188   7.785   5.777
 5429TIP3   OH216229   1.675   6.121   1.035
 5429TIP3    H116230   1.760   6.164   1.035
 5429TIP3    H216231   1.674   6.070   0.954
 5430TIP3   OH216232   0.712   2.768   1.880
 5430TIP3    H116233   0.757   2.822   1.815
 5430TIP3    H216234   0.685   2.830   1.948
 5431TIP3   OH216235   1.966   5.662   5.378
 5431TIP3    H116236   1.975   5.711   5.296
 5431TIP3    H216237   2.020   5.584   5.365
 5432TIP3   OH216238   4.018   5.884   2.681
 5432TIP3    H116239   4.097   5.938   2.682
 5432TIP3    H216240   4.042   5.807   2.732
 5433TIP3   OH216241   5.939   7.352   3.056
 5433TIP3    H116242   5.854   7.374   3.018
 5433TIP3    H216243   5.957   7.423   3.118
 5434TIP3   OH216244   3.351   7.343   4.550
 5434TIP3    H116245   3.311   7.273   4.602
 5434TIP3    H216246   3.432   7.304   4.517
 5435TIP3   OH216247   4.501   6.769   1.644
 5435TIP3    H116248   4.455   6.778   1.727
 5435TIP3    H216249   4.435   6.732   1.585
 5436TIP3   OH216250   7.717   7.693   3.825
 5436TIP3    H116251   7.680   7.696   3.737
 5436TIP3    H216252   7.794   7.749   3.821
 5437TIP3   OH216253   6.133   1.853   2.923
 5437TIP3    H116254   6.132   1.768   2.967
 5437TIP3    H216255   6.055   1.853   2.869
 5438TIP3   OH216256   0.215   7.308   4.068
 5438TIP3    H116257   0.149   7.327   4.002
 5438TIP3    H216258   0.298   7.332   4.027
 5439TIP3   OH216259   2.795   3.007   0.210
 5439TIP3    H116260   2.764   2.945   0.143
 5439TIP3    H216261   2.860   2.957   0.259
 5440TIP3   OH216262   3.117   6.437   4.656
 5440TIP3    H116263   3.142   6.494   4.583
 5440TIP3    H216264   3.125   6.348   4.621
 5441TIP3   OH216265   3.183   3.112   1.268
 5441TIP3    H116266   3.161   3.179   1.203
 5441TIP3    H216267   3.273   3.133   1.295
 5442TIP3   OH216268   4.335   2.640   2.276
 5442TIP3    H116269   4.363   2.559   2.234
 5442TIP3    H216270   4.313   2.699   2.203
 5443TIP3   OH216271   0.980   7.291   4.608
 5443TIP3    H116272   0.929   7.231   4.662
 5443TIP3    H216273   0.990   7.370   4.661
 5444TIP3   OH216274   6.531   1.369   2.354
 5444TIP3    H116275   6.533   1.419   2.436
 5444TIP3    H216276   6.439   1.372   2.326
 5445TIP3   OH216277   5.814   5.091   2.349
 5445TIP3    H116278   5.875   5.025   2.381
 5445TIP3    H216279   5.864   5.141   2.284
 5446TIP3   OH216280   2.759   5.688   5.112
 5446TIP3    H116281   2.836   5.687   5.056
 5446TIP3    H216282   2.704   5.617   5.080
 5447TIP3   OH216283   0.522   1.035   6.747
 5447TIP3    H116284   0.568   1.104   6.699
 5447TIP3    H216285   0.562   0.954   6.715
 5448TIP3   OH216286   4.170   6.976   1.182
 5448TIP3    H116287   4.127   7.013   1.259
 5448TIP3    H216288   4.209   6.895   1.213
 5449TIP3   OH216289   4.593   0.991   0.999
 5449TIP3    H116290   4.542   0.930   1.051
 5449TIP3    H216291   4.558   1.077   1.022
 5450TIP3   OH216292   7.006   7.517   2.879
 5450TIP3    H116293   6.931   7.559   2.838
 5450TIP3    H216294   7.080   7.536   2.820
 5451TIP3   OH216295   5.640   3.928   0.020
 5451TIP3    H116296   5.555   3.909  -0.018
 5451TIP3    H216297   5.622   3.991   0.090
 5452TIP3   OH216298   1.491   6.466   0.982
 5452TIP3    H116299   1.521   6.556   0.991
 5452TIP3    H216300   1.519   6.440   0.894
 5453TIP3   OH216301   7.348   0.253   0.282
 5453TIP3    H116302   7.438   0.268   0.312
 5453TIP3    H216303   7.294   0.271   0.359
 5454TIP3   OH216304   7.182   6.710   1.132
 5454TIP3    H116305   7.184   6.724   1.038
 5454TIP3    H216306   7.179   6.615   1.142
 5455TIP3   OH216307   0.836   5.815   3.292
 5455TIP3    H116308   0.931   5.801   3.286
 5455TIP3    H216309   0.811   5.847   3.206
 5456TIP3   OH216310   2.452   0.121   0.522
 5456TIP3    H116311   2.474   0.067   0.598
 5456TIP3    H216312   2.531   0.172   0.505
 5457TIP3   OH216313   5.289   4.896   0.073
 5457TIP3    H116314   5.330   4.846   0.144
 5457TIP3    H216315   5.327   4.984   0.081
 5458TIP3   OH216316   1.415   0.525   0.593
 5458TIP3    H116317   1.511   0.520   0.583
 5458TIP3    H216318   1.401   0.598   0.653
 5459TIP3   OH216319   6.592   0.193   6.468
 5459TIP3    H116320   6.560   0.109   6.501
 5459TIP3    H216321   6.628   0.237   6.545
 5460TIP3   OH216322   4.602   3.922   5.542
 5460TIP3    H116323   4.569   3.840   5.578
 5460TIP3    H216324   4.658   3.895   5.469
 5461TIP3   OH216325   4.056   4.520   5.877
 5461TIP3    H116326   4.061   4.449   5.813
 5461TIP3    H216327   4.068   4.600   5.825
 5462TIP3   OH216328   6.671   0.570   0.205
 5462TIP3    H116329   6.611   0.633   0.165
 5462TIP3    H216330   6.674   0.595   0.298
 5463TIP3   OH216331   6.940   5.720   6.439
 5463TIP3    H116332   7.016   5.727   6.382
 5463TIP3    H216333   6.866   5.743   6.383
 5464TIP3   OH216334   6.247   6.661   1.708
 5464TIP3    H116335   6.339   6.667   1.736
 5464TIP3    H216336   6.232   6.567   1.696
 5465TIP3   OH216337   3.455   2.706   5.529
 5465TIP3    H116338   3.428   2.663   5.610
 5465TIP3    H216339   3.492   2.636   5.476
 5466TIP3   OH216340   4.376   0.183   4.919
 5466TIP3    H116341   4.453   0.212   4.870
 5466TIP3    H216342   4.374   0.088   4.908
 5467TIP3   OH216343   1.907   3.251   2.115
 5467TIP3    H116344   1.939   3.262   2.025
 5467TIP3    H216345   1.983   3.222   2.165
 5468TIP3   OH216346   2.718   3.272   6.346
 5468TIP3    H116347   2.774   3.349   6.347
 5468TIP3    H216348   2.679   3.269   6.433
 5469TIP3   OH216349   2.471   1.147   0.545
 5469TIP3    H116350   2.567   1.149   0.547
 5469TIP3    H216351   2.448   1.076   0.605
 5470TIP3   OH216352   7.364   2.912   6.603
 5470TIP3    H116353   7.385   2.852   6.675
 5470TIP3    H216354   7.414   2.878   6.529
 5471TIP3   OH216355   2.776   4.815   1.114
 5471TIP3    H116356   2.753   4.722   1.126
 5471TIP3    H216357   2.805   4.844   1.201
 5472TIP3   OH216358   4.216   0.832   6.334
 5472TIP3    H116359   4.287   0.872   6.383
 5472TIP3    H216360   4.254   0.811   6.249
 5473TIP3   OH216361   5.670   5.392   3.558
 5473TIP3    H116362   5.736   5.437   3.505
 5473TIP3    H216363   5.615   5.347   3.495
 5474TIP3   OH216364   7.103   6.853   6.700
 5474TIP3    H116365   7.118   6.759   6.688
 5474TIP3    H216366   7.131   6.893   6.618
 5475TIP3   OH216367   7.942   4.703   5.497
 5475TIP3    H116368   7.909   4.789   5.525
 5475TIP3    H216369   7.946   4.709   5.402
 5476TIP3   OH216370   8.010   2.646   2.286
 5476TIP3    H116371   8.015   2.551   2.300
 5476TIP3    H216372   7.917   2.666   2.288
 5477TIP3   OH216373   4.211   6.881   4.346
 5477TIP3    H116374   4.144   6.906   4.410
 5477TIP3    H216375   4.250   6.963   4.318
 5478TIP3   OH216376   1.398   2.914   2.888
 5478TIP3    H116377   1.324   2.914   2.949
 5478TIP3    H216378   1.405   2.822   2.860
 5479TIP3   OH216379   3.258   4.080   1.654
 5479TIP3    H116380   3.265   3.993   1.616
 5479TIP3    H216381   3.348   4.113   1.656
 5480TIP3   OH216382   4.954   7.794   2.524
 5480TIP3    H116383   4.924   7.709   2.553
 5480TIP3    H216384   4.943   7.851   2.600
 5481TIP3   OH216385   4.347   4.452   1.965
 5481TIP3    H116386   4.309   4.498   1.890
 5481TIP3    H216387   4.366   4.364   1.931
 5482TIP3   OH216388   2.166   4.213   0.772
 5482TIP3    H116389   2.219   4.227   0.694
 5482TIP3    H216390   2.123   4.297   0.788
 5483TIP3   OH216391   7.850   4.532   3.996
 5483TIP3    H116392   7.836   4.475   4.072
 5483TIP3    H216393   7.841   4.621   4.031
 5484TIP3   OH216394   3.712   7.122   0.973
 5484TIP3    H116395   3.673   7.035   0.973
 5484TIP3    H216396   3.758   7.129   0.889
 5485TIP3   OH216397   7.586   0.940   0.762
 5485TIP3    H116398   7.653   0.914   0.825
 5485TIP3    H216399   7.568   1.032   0.783
 5486TIP3   OH216400   5.967   3.597   3.836
 5486TIP3    H116401   6.034   3.609   3.904
 5486TIP3    H216402   6.002   3.642   3.759
 5487TIP3   OH216403   1.549   1.396   3.548
 5487TIP3    H116404   1.596   1.332   3.493
 5487TIP3    H216405   1.535   1.471   3.490
 5488TIP3   OH216406   7.302   0.587   5.325
 5488TIP3    H116407   7.283   0.624   5.239
 5488TIP3    H216408   7.258   0.502   5.324
 5489TIP3   OH216409   0.874   4.662   4.749
 5489TIP3    H116410   0.808   4.730   4.737
 5489TIP3    H216411   0.945   4.706   4.797
 5490TIP3   OH216412   3.992   3.352   4.806
 5490TIP3    H116413   3.922   3.290   4.784
 5490TIP3    H216414   4.006   3.338   4.900
 5491TIP3   OH216415   4.629   7.357   3.656
 5491TIP3    H116416   4.626   7.452   3.643
 5491TIP3    H216417   4.649   7.346   3.749
 5492TIP3   OH216418   7.248   5.928   3.188
 5492TIP3    H116419   7.225   5.849   3.236
 5492TIP3    H216420   7.253   5.900   3.097
 5493TIP3   OH216421   1.715   1.345   5.001
 5493TIP3    H116422   1.798   1.332   5.047
 5493TIP3    H216423   1.739   1.348   4.908
 5494TIP3   OH216424   6.522   3.445   3.471
 5494TIP3    H116425   6.479   3.430   3.555
 5494TIP3    H216426   6.457   3.493   3.419
 5495TIP3   OH216427   5.277   3.063   2.491
 5495TIP3    H116428   5.358   3.096   2.452
 5495TIP3    H216429   5.238   3.008   2.422
 5496TIP3   OH216430   5.799   1.043   0.089
 5496TIP3    H116431   5.746   0.969   0.119
 5496TIP3    H216432   5.878   1.003   0.053
 5497TIP3   OH216433   4.609   4.717   4.669
 5497TIP3    H116434   4.610   4.631   4.627
 5497TIP3    H216435   4.637   4.700   4.759
 5498TIP3   OH216436   5.454   2.284   1.582
 5498TIP3    H116437   5.534   2.265   1.632
 5498TIP3    H216438   5.449   2.379   1.580
 5499TIP3   OH216439   1.612   6.493   1.276
 5499TIP3    H116440   1.672   6.424   1.304
 5499TIP3    H216441   1.586   6.468   1.188
 5500TIP3   OH216442   6.154   4.341   4.704
 5500TIP3    H116443   6.196   4.257   4.720
 5500TIP3    H216444   6.081   4.344   4.767
 5501TIP3   OH216445   0.737   2.489   0.196
 5501TIP3    H116446   0.671   2.494   0.126
 5501TIP3    H216447   0.761   2.580   0.213
 5502TIP3   OH216448   7.952   1.558   4.858
 5502TIP3    H116449   7.981   1.630   4.914
 5502TIP3    H216450   8.008   1.562   4.781
 5503TIP3   OH216451   2.212   2.476   3.497
 5503TIP3    H116452   2.145   2.411   3.473
 5503TIP3    H216453   2.244   2.447   3.582
 5504TIP3   OH216454   7.297   6.785   3.875
 5504TIP3    H116455   7.358   6.826   3.814
 5504TIP3    H216456   7.290   6.848   3.947
 5505TIP3   OH216457   2.091   2.831   6.746
 5505TIP3    H116458   2.106   2.738   6.761
 5505TIP3    H216459   2.173   2.863   6.709
 5506TIP3   OH216460   5.151   2.569   3.866
 5506TIP3    H116461   5.093   2.642   3.887
 5506TIP3    H216462   5.238   2.609   3.859
 5507TIP3   OH216463   3.576   6.528   2.970
 5507TIP3    H116464   3.620   6.497   2.891
 5507TIP3    H216465   3.512   6.461   2.991
 5508TIP3   OH216466   5.782   0.231   1.680
 5508TIP3    H116467   5.804   0.290   1.608
 5508TIP3    H216468   5.693   0.203   1.662
 5509TIP3   OH216469   6.092   2.799   3.541
 5509TIP3    H116470   6.102   2.852   3.620
 5509TIP3    H216471   6.162   2.734   3.546
 5510TIP3   OH216472   1.551   2.366   4.672
 5510TIP3    H116473   1.483   2.430   4.650
 5510TIP3    H216474   1.599   2.406   4.745
 5511TIP3   OH216475   7.966   2.986   3.775
 5511TIP3    H116476   7.910   2.927   3.723
 5511TIP3    H216477   8.044   2.935   3.794
 5512TIP3   OH216478   2.820   0.707   5.058
 5512TIP3    H116479   2.807   0.736   4.968
 5512TIP3    H216480   2.762   0.631   5.068
 5513TIP3   OH216481   0.822   0.856   1.059
 5513TIP3    H116482   0.733   0.828   1.038
 5513TIP3    H216483   0.844   0.919   0.990
 5514TIP3   OH216484   5.113   3.550   0.587
 5514TIP3    H116485   5.037   3.516   0.633
 5514TIP3    H216486   5.150   3.473   0.543
 5515TIP3   OH216487   7.129   7.597   5.915
 5515TIP3    H116488   7.219   7.568   5.927
 5515TIP3    H216489   7.077   7.516   5.920
 5516TIP3   OH216490   3.008   7.817   6.044
 5516TIP3    H116491   3.012   7.860   5.959
 5516TIP3    H216492   3.011   7.723   6.023
 5517TIP3   OH216493   1.342   5.516   3.505
 5517TIP3    H116494   1.399   5.592   3.493
 5517TIP3    H216495   1.259   5.541   3.464
 5518TIP3   OH216496   4.128   6.105   1.251
 5518TIP3    H116497   4.123   6.051   1.330
 5518TIP3    H216498   4.139   6.041   1.180
 5519TIP3   OH216499   6.627   3.254   5.199
 5519TIP3    H116500   6.688   3.226   5.130
 5519TIP3    H216501   6.631   3.350   5.197
 5520TIP3   OH216502   3.476   1.854   3.865
 5520TIP3    H116503   3.515   1.775   3.901
 5520TIP3    H216504   3.460   1.834   3.773
 5521TIP3   OH216505   4.366   6.329   1.111
 5521TIP3    H116506   4.379   6.259   1.175
 5521TIP3    H216507   4.298   6.296   1.052
 5522TIP3   OH216508   6.482   6.270   0.861
 5522TIP3    H116509   6.410   6.213   0.835
 5522TIP3    H216510   6.442   6.357   0.870
 5523TIP3   OH216511   4.392   5.362   2.540
 5523TIP3    H116512   4.419   5.292   2.481
 5523TIP3    H216513   4.474   5.402   2.569
 5524TIP3   OH216514   5.472   3.293   3.890
 5524TIP3    H116515   5.471   3.386   3.867
 5524TIP3    H216516   5.538   3.254   3.833
 5525TIP3   OH216517   7.634   5.501   1.284
 5525TIP3    H116518   7.545   5.515   1.251
 5525TIP3    H216519   7.675   5.587   1.280
 5526TIP3   OH216520   2.886   1.052   5.524
 5526TIP3    H116521   2.873   1.125   5.464
 5526TIP3    H216522   2.947   0.994   5.479
 5527TIP3   OH216523   1.476   5.287   6.509
 5527TIP3    H116524   1.405   5.244   6.555
 5527TIP3    H216525   1.519   5.218   6.460
 5528TIP3   OH216526   3.373   2.991   6.570
 5528TIP3    H116527   3.456   2.957   6.536
 5528TIP3    H216528   3.319   3.004   6.493
 5529TIP3   OH216529   6.411   4.895   6.119
 5529TIP3    H116530   6.383   4.870   6.031
 5529TIP3    H216531   6.383   4.987   6.128
 5530TIP3   OH216532   2.142   2.841   0.551
 5530TIP3    H116533   2.082   2.914   0.569
 5530TIP3    H216534   2.195   2.872   0.477
 5531TIP3   OH216535   6.797   1.499   0.796
 5531TIP3    H116536   6.721   1.531   0.845
 5531TIP3    H216537   6.858   1.468   0.863
 5532TIP3   OH216538   2.537   0.495   4.172
 5532TIP3    H116539   2.490   0.415   4.197
 5532TIP3    H216540   2.551   0.487   4.078
 5533TIP3   OH216541   4.324   3.518   1.944
 5533TIP3    H116542   4.329   3.587   2.010
 5533TIP3    H216543   4.315   3.437   1.994
 5534TIP3   OH216544   7.648   4.024   1.505
 5534TIP3    H116545   7.612   4.081   1.436
 5534TIP3    H216546   7.662   4.083   1.579
 5535TIP3   OH216547   6.933   6.661   1.249
 5535TIP3    H116548   7.023   6.685   1.224
 5535TIP3    H216549   6.890   6.642   1.166
 5536TIP3   OH216550   2.890   3.981   6.644
 5536TIP3    H116551   2.838   4.047   6.690
 5536TIP3    H216552   2.924   4.028   6.567
 5537TIP3   OH216553   5.307   4.839   3.539
 5537TIP3    H116554   5.328   4.836   3.446
 5537TIP3    H216555   5.333   4.927   3.566
 5538TIP3   OH216556   5.886   5.817   0.519
 5538TIP3    H116557   5.927   5.820   0.605
 5538TIP3    H216558   5.956   5.840   0.458
 5539TIP3   OH216559   0.505   5.166   6.210
 5539TIP3    H116560   0.466   5.080   6.200
 5539TIP3    H216561   0.430   5.226   6.216
 5540TIP3   OH216562   5.720   2.992   4.148
 5540TIP3    H116563   5.686   3.081   4.144
 5540TIP3    H216564   5.667   2.950   4.216
 5541TIP3   OH216565   4.300   5.776   6.267
 5541TIP3    H116566   4.282   5.745   6.356
 5541TIP3    H216567   4.312   5.871   6.276
 5542TIP3   OH216568   2.355   2.302   4.022
 5542TIP3    H116569   2.434   2.285   4.073
 5542TIP3    H216570   2.324   2.387   4.053
 5543TIP3   OH216571   7.003   0.090   0.846
 5543TIP3    H116572   7.077   0.147   0.866
 5543TIP3    H216573   6.981   0.049   0.929
 5544TIP3   OH216574   7.971   2.199   0.226
 5544TIP3    H116575   7.888   2.184   0.181
 5544TIP3    H216576   7.958   2.160   0.313
 5545TIP3   OH216577   4.760   7.446   6.108
 5545TIP3    H116578   4.706   7.371   6.134
 5545TIP3    H216579   4.698   7.518   6.100
 5546TIP3   OH216580   4.273   0.737   1.610
 5546TIP3    H116581   4.261   0.701   1.522
 5546TIP3    H216582   4.207   0.806   1.616
 5547TIP3   OH216583   1.517   5.456   6.719
 5547TIP3    H116584   1.501   5.465   6.625
 5547TIP3    H216585   1.504   5.363   6.738
 5548TIP3   OH216586   4.833   1.737   1.512
 5548TIP3    H116587   4.744   1.721   1.482
 5548TIP3    H216588   4.823   1.800   1.584
 5549TIP3   OH216589   7.330   6.361   0.083
 5549TIP3    H116590   7.246   6.370   0.129
 5549TIP3    H216591   7.396   6.367   0.152
 5550TIP3   OH216592   4.431   7.233   0.634
 5550TIP3    H116593   4.482   7.204   0.710
 5550TIP3    H216594   4.492   7.226   0.560
 5551TIP3   OH216595   0.171   0.295   1.796
 5551TIP3    H116596   0.142   0.274   1.707
 5551TIP3    H216597   0.242   0.233   1.813
 5552TIP3   OH216598   2.651   1.379   4.870
 5552TIP3    H116599   2.737   1.418   4.854
 5552TIP3    H216600   2.591   1.431   4.818
 5553TIP3   OH216601   0.614   5.174   2.959
 5553TIP3    H116602   0.542   5.225   2.996
 5553TIP3    H216603   0.618   5.200   2.867
 5554TIP3   OH216604   0.021   2.589   0.316
 5554TIP3    H116605  -0.027   2.655   0.367
 5554TIP3    H216606  -0.025   2.507   0.334
 5555TIP3   OH216607   2.222   4.001   3.154
 5555TIP3    H116608   2.175   3.954   3.223
 5555TIP3    H216609   2.154   4.030   3.094
 5556TIP3   OH216610   2.427   6.736   5.866
 5556TIP3    H116611   2.361   6.678   5.902
 5556TIP3    H216612   2.398   6.752   5.776
 5557TIP3   OH216613   0.715   0.363   4.125
 5557TIP3    H116614   0.791   0.419   4.109
 5557TIP3    H216615   0.734   0.282   4.077
 5558TIP3   OH216616   7.983   6.443   3.519
 5558TIP3    H116617   8.055   6.464   3.460
 5558TIP3    H216618   7.907   6.436   3.462
 5559TIP3   OH216619   0.121   4.610   4.388
 5559TIP3    H116620   0.199   4.595   4.335
 5559TIP3    H216621   0.048   4.604   4.326
 5560TIP3   OH216622   1.109   0.695   3.902
 5560TIP3    H116623   1.084   0.745   3.824
 5560TIP3    H216624   1.201   0.673   3.887
 5561TIP3   OH216625   6.328   2.565   5.000
 5561TIP3    H116626   6.336   2.479   5.041
 5561TIP3    H216627   6.256   2.607   5.047
 5562TIP3   OH216628   2.078   5.188   4.671
 5562TIP3    H116629   2.045   5.149   4.589
 5562TIP3    H216630   2.012   5.164   4.736
 5563TIP3   OH216631   7.116   5.281   1.735
 5563TIP3    H116632   7.159   5.233   1.806
 5563TIP3    H216633   7.179   5.277   1.663
 5564TIP3   OH216634   3.624   5.202   3.826
 5564TIP3    H116635   3.677   5.126   3.848
 5564TIP3    H216636   3.634   5.212   3.731
 5565TIP3   OH216637   4.453   4.138   6.451
 5565TIP3    H116638   4.494   4.156   6.536
 5565TIP3    H216639   4.476   4.214   6.397
 5566TIP3   OH216640   1.113   3.200   3.857
 5566TIP3    H116641   1.099   3.288   3.893
 5566TIP3    H216642   1.025   3.164   3.846
 5567TIP3   OH216643   4.453   0.597   1.806
 5567TIP3    H116644   4.423   0.674   1.758
 5567TIP3    H216645   4.386   0.531   1.792
 5568TIP3   OH216646   3.162   1.153   1.981
 5568TIP3    H116647   3.206   1.226   2.025
 5568TIP3    H216648   3.187   1.076   2.031
 5569TIP3   OH216649   1.608   4.448   3.480
 5569TIP3    H116650   1.552   4.457   3.557
 5569TIP3    H216651   1.674   4.516   3.490
 5570TIP3   OH216652   7.796   7.660   4.961
 5570TIP3    H116653   7.797   7.620   4.874
 5570TIP3    H216654   7.705   7.649   4.990
 5571TIP3   OH216655   5.809   0.999   6.008
 5571TIP3    H116656   5.871   1.072   6.007
 5571TIP3    H216657   5.858   0.926   6.045
 5572TIP3   OH216658   1.054   2.097   3.940
 5572TIP3    H116659   1.076   2.166   3.877
 5572TIP3    H216660   1.125   2.033   3.931
 5573TIP3   OH216661   6.231   5.023   4.440
 5573TIP3    H116662   6.309   4.998   4.490
 5573TIP3    H216663   6.164   5.036   4.507
 5574TIP3   OH216664   3.412   6.986   1.717
 5574TIP3    H116665   3.445   6.924   1.783
 5574TIP3    H216666   3.484   6.995   1.655
 5575TIP3   OH216667   0.886   0.781   4.670
 5575TIP3    H116668   0.798   0.803   4.703
 5575TIP3    H216669   0.870   0.713   4.604
 5576TIP3   OH216670   4.708   7.697   0.989
 5576TIP3    H116671   4.619   7.668   0.967
 5576TIP3    H216672   4.714   7.784   0.951
 5577TIP3   OH216673   2.573   3.999   2.905
 5577TIP3    H116674   2.479   3.983   2.899
 5577TIP3    H216675   2.581   4.076   2.961
 5578TIP3   OH216676   5.606   3.769   2.136
 5578TIP3    H116677   5.589   3.852   2.180
 5578TIP3    H216678   5.529   3.715   2.156
 5579TIP3   OH216679   2.023   3.934   3.784
 5579TIP3    H116680   1.952   3.967   3.729
 5579TIP3    H216681   1.995   3.846   3.809
 5580TIP3   OH216682   6.464   7.591   2.224
 5580TIP3    H116683   6.502   7.529   2.162
 5580TIP3    H216684   6.493   7.560   2.310
 5581TIP3   OH216685   7.399   3.770   6.132
 5581TIP3    H116686   7.347   3.802   6.058
 5581TIP3    H216687   7.342   3.781   6.208
 5582TIP3   OH216688   0.960   6.322   6.530
 5582TIP3    H116689   0.871   6.307   6.563
 5582TIP3    H216690   1.004   6.372   6.599
 5583TIP3   OH216691   6.925   5.101   5.028
 5583TIP3    H116692   6.995   5.036   5.033
 5583TIP3    H216693   6.955   5.173   5.084
 5584TIP3   OH216694   4.730   1.112   4.473
 5584TIP3    H116695   4.801   1.051   4.452
 5584TIP3    H216696   4.660   1.057   4.509
 5585TIP3   OH216697   1.601   5.651   4.798
 5585TIP3    H116698   1.596   5.747   4.789
 5585TIP3    H216699   1.585   5.635   4.891
 5586TIP3   OH216700   3.286   6.406   4.171
 5586TIP3    H116701   3.283   6.396   4.266
 5586TIP3    H216702   3.364   6.460   4.155
 5587TIP3   OH216703   2.720   5.029   5.992
 5587TIP3    H116704   2.650   5.087   6.021
 5587TIP3    H216705   2.785   5.087   5.953
 5588TIP3   OH216706   2.564   1.360   5.417
 5588TIP3    H116707   2.651   1.323   5.409
 5588TIP3    H216708   2.544   1.395   5.330
 5589TIP3   OH216709   5.209   2.645   4.502
 5589TIP3    H116710   5.223   2.569   4.444
 5589TIP3    H216711   5.234   2.720   4.448
 5590TIP3   OH216712   1.829   7.556   3.909
 5590TIP3    H116713   1.804   7.520   3.994
 5590TIP3    H216714   1.748   7.593   3.874
 5591TIP3   OH216715   8.154   3.176   2.439
 5591TIP3    H116716   8.073   3.132   2.465
 5591TIP3    H216717   8.135   3.210   2.351
 5592TIP3   OH216718   4.968   3.382   1.851
 5592TIP3    H116719   4.963   3.470   1.888
 5592TIP3    H216720   4.898   3.333   1.894
 5593TIP3   OH216721   5.186   6.984   3.709
 5593TIP3    H116722   5.278   6.959   3.702
 5593TIP3    H216723   5.148   6.920   3.769
 5594TIP3   OH216724   6.250   0.582   4.429
 5594TIP3    H116725   6.336   0.617   4.405
 5594TIP3    H216726   6.209   0.651   4.481
 5595TIP3   OH216727   7.887   1.426   2.591
 5595TIP3    H116728   7.902   1.332   2.603
 5595TIP3    H216729   7.941   1.468   2.658
 5596TIP3   OH216730   7.223   5.994   5.703
 5596TIP3    H116731   7.170   5.945   5.766
 5596TIP3    H216732   7.277   6.052   5.756
 5597TIP3   OH216733   8.003   6.372   0.400
 5597TIP3    H116734   8.053   6.293   0.419
 5597TIP3    H216735   8.049   6.442   0.448
 5598TIP3   OH216736   3.980   5.973   2.969
 5598TIP3    H116737   3.965   6.065   2.994
 5598TIP3    H216738   3.978   5.974   2.874
 5599TIP3   OH216739   1.023   1.300   1.232
 5599TIP3    H116740   1.021   1.380   1.283
 5599TIP3    H216741   0.931   1.273   1.226
 5600TIP3   OH216742   4.334   2.735   6.300
 5600TIP3    H116743   4.298   2.815   6.261
 5600TIP3    H216744   4.321   2.668   6.234
 5601TIP3   OH216745   1.963   3.045   3.773
 5601TIP3    H116746   1.904   3.077   3.704
 5601TIP3    H216747   1.977   2.953   3.752
 5602TIP3   OH216748   6.733   3.510   4.126
 5602TIP3    H116749   6.674   3.549   4.062
 5602TIP3    H216750   6.737   3.575   4.197
 5603TIP3   OH216751   0.651   3.090   1.105
 5603TIP3    H116752   0.713   3.149   1.147
 5603TIP3    H216753   0.566   3.117   1.137
 5604TIP3   OH216754   4.577   5.954   0.437
 5604TIP3    H116755   4.630   6.020   0.480
 5604TIP3    H216756   4.502   6.002   0.402
 5605TIP3   OH216757   3.529   7.162   1.458
 5605TIP3    H116758   3.562   7.191   1.373
 5605TIP3    H216759   3.434   7.164   1.449
 5606TIP3   OH216760   6.576   0.055   4.659
 5606TIP3    H116761   6.543  -0.034   4.649
 5606TIP3    H216762   6.501   0.111   4.639
 5607TIP3   OH216763   5.366   5.001   1.338
 5607TIP3    H116764   5.286   5.052   1.349
 5607TIP3    H216765   5.435   5.058   1.372
 5608TIP3   OH216766   7.883   2.764   0.181
 5608TIP3    H116767   7.967   2.799   0.213
 5608TIP3    H216768   7.893   2.761   0.086
 5609TIP3   OH216769   2.011   2.778   4.052
 5609TIP3    H116770   2.025   2.814   4.140
 5609TIP3    H216771   1.938   2.829   4.017
 5610TIP3   OH216772   7.736   1.359   0.175
 5610TIP3    H116773   7.744   1.266   0.154
 5610TIP3    H216774   7.762   1.366   0.267
 5611TIP3   OH216775   6.788   6.949   1.195
 5611TIP3    H116776   6.730   6.917   1.126
 5611TIP3    H216777   6.869   6.971   1.149
 5612TIP3   OH216778   0.469   6.153   1.293
 5612TIP3    H116779   0.481   6.109   1.377
 5612TIP3    H216780   0.396   6.213   1.307
 5613TIP3   OH216781   4.114   1.570   5.776
 5613TIP3    H116782   4.097   1.597   5.866
 5613TIP3    H216783   4.085   1.645   5.723
 5614TIP3   OH216784   4.840   7.766   5.737
 5614TIP3    H116785   4.893   7.790   5.814
 5614TIP3    H216786   4.838   7.670   5.739
 5615TIP3   OH216787   4.122   3.586   5.562
 5615TIP3    H116788   4.059   3.513   5.563
 5615TIP3    H216789   4.207   3.543   5.560
 5616TIP3   OH216790   6.068   0.558   0.244
 5616TIP3    H116791   6.150   0.607   0.238
 5616TIP3    H216792   6.050   0.554   0.338
 5617TIP3   OH216793   6.243   1.094   4.289
 5617TIP3    H116794   6.281   1.134   4.367
 5617TIP3    H216795   6.178   1.032   4.323
 5618TIP3   OH216796   1.569   2.639   2.143
 5618TIP3    H116797   1.529   2.643   2.230
 5618TIP3    H216798   1.535   2.715   2.097
 5619TIP3   OH216799   0.396   6.149   2.943
 5619TIP3    H116800   0.486   6.165   2.971
 5619TIP3    H216801   0.390   6.189   2.856
 5620TIP3   OH216802   5.502   1.973   0.053
 5620TIP3    H116803   5.475   1.955   0.143
 5620TIP3    H216804   5.467   1.900   0.002
 5621TIP3   OH216805   1.909   2.847   4.492
 5621TIP3    H116806   1.865   2.821   4.411
 5621TIP3    H216807   1.884   2.779   4.555
 5622TIP3   OH216808   5.714   2.048   3.240
 5622TIP3    H116809   5.624   2.062   3.270
 5622TIP3    H216810   5.724   2.107   3.165
 5623TIP3   OH216811   6.219   1.206   0.199
 5623TIP3    H116812   6.169   1.266   0.254
 5623TIP3    H216813   6.272   1.263   0.143
 5624TIP3   OH216814   4.840   5.447   5.316
 5624TIP3    H116815   4.801   5.459   5.229
 5624TIP3    H216816   4.768   5.411   5.369
 5625TIP3   OH216817   3.338   5.420   0.161
 5625TIP3    H116818   3.302   5.342   0.204
 5625TIP3    H216819   3.307   5.414   0.071
 5626TIP3   OH216820   7.734   7.626   4.382
 5626TIP3    H116821   7.810   7.573   4.407
 5626TIP3    H216822   7.694   7.578   4.310
 5627TIP3   OH216823   8.151   3.354   2.662
 5627TIP3    H116824   8.082   3.294   2.692
 5627TIP3    H216825   8.182   3.315   2.580
 5628TIP3   OH216826   0.189   1.170   1.421
 5628TIP3    H116827   0.242   1.143   1.346
 5628TIP3    H216828   0.228   1.125   1.496
 5629TIP3   OH216829   6.379   7.263   5.272
 5629TIP3    H116830   6.433   7.244   5.348
 5629TIP3    H216831   6.289   7.260   5.305
 5630TIP3   OH216832   0.126   3.032   3.300
 5630TIP3    H116833   0.113   3.126   3.284
 5630TIP3    H216834   0.205   3.028   3.354
 5631TIP3   OH216835   3.599   7.621   6.271
 5631TIP3    H116836   3.674   7.582   6.316
 5631TIP3    H216837   3.531   7.555   6.277
 5632TIP3   OH216838   4.973   1.283   5.218
 5632TIP3    H116839   4.957   1.276   5.312
 5632TIP3    H216840   5.065   1.259   5.207
 5633TIP3   OH216841   8.051   6.911   1.385
 5633TIP3    H116842   8.142   6.913   1.353
 5633TIP3    H216843   8.009   6.985   1.341
 5634TIP3   OH216844   5.097   2.334   0.370
 5634TIP3    H116845   5.156   2.347   0.444
 5634TIP3    H216846   5.044   2.413   0.367
 5635TIP3   OH216847   5.917   5.920   5.432
 5635TIP3    H116848   5.985   5.937   5.366
 5635TIP3    H216849   5.928   5.990   5.496
 5636TIP3   OH216850   5.386   6.323   4.170
 5636TIP3    H116851   5.438   6.246   4.191
 5636TIP3    H216852   5.412   6.347   4.081
 5637TIP3   OH216853   0.922   3.764   1.043
 5637TIP3    H116854   1.002   3.790   1.089
 5637TIP3    H216855   0.907   3.833   0.978
 5638TIP3   OH216856   5.374   4.987   6.027
 5638TIP3    H116857   5.363   4.903   5.982
 5638TIP3    H216858   5.468   5.003   6.025
 5639TIP3   OH216859   7.166   6.070   4.755
 5639TIP3    H116860   7.108   6.019   4.812
 5639TIP3    H216861   7.179   6.016   4.678
 5640TIP3   OH216862   8.010   4.990   1.991
 5640TIP3    H116863   8.050   4.937   1.922
 5640TIP3    H216864   8.071   5.063   2.004
 5641TIP3   OH216865   7.530   3.224   5.847
 5641TIP3    H116866   7.584   3.220   5.768
 5641TIP3    H216867   7.533   3.315   5.873
 5642TIP3   OH216868   4.095   1.314   3.958
 5642TIP3    H116869   4.119   1.366   3.881
 5642TIP3    H216870   4.015   1.354   3.990
 5643TIP3   OH216871   6.573   1.593   2.208
 5643TIP3    H116872   6.604   1.664   2.264
 5643TIP3    H216873   6.564   1.518   2.267
 5644TIP3   OH216874   2.984   5.948   4.943
 5644TIP3    H116875   3.063   5.895   4.934
 5644TIP3    H216876   2.991   5.986   5.030
 5645TIP3   OH216877   1.474   0.193   0.048
 5645TIP3    H116878   1.479   0.270  -0.010
 5645TIP3    H216879   1.509   0.121  -0.005
 5646TIP3   OH216880   0.050   0.114   5.403
 5646TIP3    H116881  -0.003   0.192   5.385
 5646TIP3    H216882   0.135   0.147   5.430
 5647TIP3   OH216883   6.081   7.106   3.080
 5647TIP3    H116884   6.041   7.187   3.048
 5647TIP3    H216885   6.159   7.095   3.027
 5648TIP3   OH216886   0.064   4.356   2.554
 5648TIP3    H116887   0.022   4.437   2.584
 5648TIP3    H216888  -0.005   4.309   2.507
 5649TIP3   OH216889   3.791   4.860   4.349
 5649TIP3    H116890   3.833   4.812   4.278
 5649TIP3    H216891   3.763   4.942   4.309
 5650TIP3   OH216892   1.531   0.209   4.033
 5650TIP3    H116893   1.517   0.115   4.044
 5650TIP3    H216894   1.620   0.224   4.063
 5651TIP3   OH216895   8.149   2.585   2.625
 5651TIP3    H116896   8.167   2.498   2.659
 5651TIP3    H216897   8.158   2.643   2.701
 5652TIP3   OH216898   0.815   3.517   4.144
 5652TIP3    H116899   0.893   3.507   4.199
 5652TIP3    H216900   0.744   3.484   4.199
 5653TIP3   OH216901   2.729   2.324   3.972
 5653TIP3    H116902   2.680   2.345   4.051
 5653TIP3    H216903   2.808   2.279   4.004
 5654TIP3   OH216904   3.317   6.723   1.037
 5654TIP3    H116905   3.331   6.797   0.978
 5654TIP3    H216906   3.369   6.652   1.000
 5655TIP3   OH216907   4.852   6.978   6.079
 5655TIP3    H116908   4.783   7.009   6.138
 5655TIP3    H216909   4.919   7.046   6.083
 5656TIP3   OH216910   0.592   2.057   1.026
 5656TIP3    H116911   0.671   2.102   1.056
 5656TIP3    H216912   0.525   2.080   1.090
 5657TIP3   OH216913   2.250   5.179   2.173
 5657TIP3    H116914   2.266   5.093   2.212
 5657TIP3    H216915   2.279   5.171   2.083
 5658TIP3   OH216916   6.831   3.316   4.463
 5658TIP3    H116917   6.762   3.252   4.443
 5658TIP3    H216918   6.847   3.361   4.381
 5659TIP3   OH216919   7.613   7.329   6.469
 5659TIP3    H116920   7.699   7.362   6.444
 5659TIP3    H216921   7.555   7.355   6.398
 5660TIP3   OH216922   2.859   5.000   3.204
 5660TIP3    H116923   2.898   5.085   3.220
 5660TIP3    H216924   2.923   4.937   3.238
 5661TIP3   OH216925   1.961   2.650   1.605
 5661TIP3    H116926   1.884   2.678   1.654
 5661TIP3    H216927   1.947   2.557   1.588
 5662TIP3   OH216928   5.403   6.755   3.051
 5662TIP3    H116929   5.459   6.699   2.997
 5662TIP3    H216930   5.314   6.729   3.029
 5663TIP3   OH216931   7.121   5.309   5.616
 5663TIP3    H116932   7.186   5.327   5.684
 5663TIP3    H216933   7.173   5.288   5.538
 5664TIP3   OH216934   1.047   3.618   0.842
 5664TIP3    H116935   1.071   3.525   0.848
 5664TIP3    H216936   0.987   3.632   0.915
 5665TIP3   OH216937   1.229   6.947   2.160
 5665TIP3    H116938   1.163   6.992   2.213
 5665TIP3    H216939   1.223   6.856   2.186
 5666TIP3   OH216940   7.189   1.108   2.896
 5666TIP3    H116941   7.195   1.107   2.991
 5666TIP3    H216942   7.114   1.164   2.876
 5667TIP3   OH216943   3.945   1.206   6.274
 5667TIP3    H116944   4.006   1.178   6.206
 5667TIP3    H216945   3.871   1.243   6.227
 5668TIP3   OH216946   2.191   7.127   4.687
 5668TIP3    H116947   2.205   7.058   4.622
 5668TIP3    H216948   2.166   7.080   4.767
 5669TIP3   OH216949   6.253   4.247   1.957
 5669TIP3    H116950   6.192   4.316   1.931
 5669TIP3    H216951   6.337   4.274   1.922
 5670TIP3   OH216952   1.380   1.197   6.681
 5670TIP3    H116953   1.469   1.176   6.651
 5670TIP3    H216954   1.390   1.278   6.731
 5671TIP3   OH216955   3.790   7.099   0.697
 5671TIP3    H116956   3.854   7.166   0.673
 5671TIP3    H216957   3.820   7.020   0.653
 5672TIP3   OH216958   1.042   2.446   6.558
 5672TIP3    H116959   1.002   2.506   6.495
 5672TIP3    H216960   0.978   2.375   6.567
 5673TIP3   OH216961   0.066   1.474   3.706
 5673TIP3    H116962   0.101   1.533   3.639
 5673TIP3    H216963  -0.008   1.431   3.664
 5674TIP3   OH216964   0.366   3.724   2.196
 5674TIP3    H116965   0.287   3.692   2.241
 5674TIP3    H216966   0.432   3.729   2.265
 5675TIP3   OH216967   5.640   3.906   1.079
 5675TIP3    H116968   5.733   3.909   1.057
 5675TIP3    H216969   5.639   3.876   1.170
 5676TIP3   OH216970   1.680   2.409   2.056
 5676TIP3    H116971   1.669   2.352   2.132
 5676TIP3    H216972   1.639   2.492   2.081
 5677TIP3   OH216973   0.401   4.123   3.243
 5677TIP3    H116974   0.440   4.040   3.270
 5677TIP3    H216975   0.318   4.099   3.202
 5678TIP3   OH216976   8.258   6.037   1.346
 5678TIP3    H116977   8.332   6.027   1.286
 5678TIP3    H216978   8.188   5.985   1.306
 5679TIP3   OH216979   7.115   3.226   2.046
 5679TIP3    H116980   7.206   3.238   2.019
 5679TIP3    H216981   7.117   3.147   2.101
 5680TIP3   OH216982   7.662   5.863   1.038
 5680TIP3    H116983   7.625   5.830   0.957
 5680TIP3    H216984   7.721   5.794   1.068
 5681TIP3   OH216985   6.045   5.207   1.895
 5681TIP3    H116986   5.949   5.201   1.900
 5681TIP3    H216987   6.061   5.294   1.857
 5682TIP3   OH216988   3.451   1.494   1.852
 5682TIP3    H116989   3.423   1.520   1.764
 5682TIP3    H216990   3.491   1.572   1.889
 5683TIP3   OH216991   2.774   1.629   2.881
 5683TIP3    H116992   2.723   1.622   2.800
 5683TIP3    H216993   2.802   1.539   2.899
 5684TIP3   OH216994   6.142   6.258   4.254
 5684TIP3    H116995   6.145   6.247   4.159
 5684TIP3    H216996   6.125   6.170   4.288
 5685TIP3   OH216997   6.495   7.738   4.853
 5685TIP3    H116998   6.541   7.668   4.899
 5685TIP3    H216999   6.493   7.811   4.915
 5686TIP3   OH217000   2.440   0.914   2.605
 5686TIP3    H117001   2.415   0.834   2.651
 5686TIP3    H217002   2.463   0.885   2.517
 5687TIP3   OH217003   4.982   0.647   4.923
 5687TIP3    H117004   4.920   0.688   4.984
 5687TIP3    H217005   5.017   0.572   4.972
 5688TIP3   OH217006   7.957   5.813   1.763
 5688TIP3    H117007   7.997   5.735   1.725
 5688TIP3    H217008   8.006   5.886   1.725
 5689TIP3   OH217009   2.229   3.739   1.394
 5689TIP3    H117010   2.226   3.649   1.361
 5689TIP3    H217011   2.137   3.767   1.393
 5690TIP3   OH217012   4.423   3.890   0.176
 5690TIP3    H117013   4.507   3.881   0.131
 5690TIP3    H217014   4.408   3.803   0.215
 5691TIP3   OH217015   3.782   1.277   3.305
 5691TIP3    H117016   3.689   1.285   3.285
 5691TIP3    H217017   3.806   1.189   3.274
 5692TIP3   OH217018   5.764   4.587   0.384
 5692TIP3    H117019   5.827   4.515   0.374
 5692TIP3    H217020   5.810   4.663   0.350
 5693TIP3   OH217021   4.145   7.705   1.015
 5693TIP3    H117022   4.064   7.708   1.066
 5693TIP3    H217023   4.150   7.615   0.983
 5694TIP3   OH217024   6.195   4.004   3.792
 5694TIP3    H117025   6.114   3.953   3.789
 5694TIP3    H217026   6.253   3.958   3.731
 5695TIP3   OH217027   4.347   4.771   3.204
 5695TIP3    H117028   4.274   4.830   3.185
 5695TIP3    H217029   4.336   4.699   3.141
 5696TIP3   OH217030   3.956   5.270   6.122
 5696TIP3    H117031   3.956   5.279   6.218
 5696TIP3    H217032   3.864   5.276   6.098
 5697TIP3   OH217033   4.436   5.675   1.272
 5697TIP3    H117034   4.520   5.663   1.229
 5697TIP3    H217035   4.413   5.766   1.256
 5698TIP3   OH217036   4.476   0.148   3.787
 5698TIP3    H117037   4.444   0.172   3.701
 5698TIP3    H217038   4.546   0.085   3.770
 5699TIP3   OH217039   3.505   3.834   2.743
 5699TIP3    H117040   3.477   3.826   2.835
 5699TIP3    H217041   3.510   3.744   2.712
 5700TIP3   OH217042   3.850   5.331   4.003
 5700TIP3    H117043   3.779   5.394   3.990
 5700TIP3    H217044   3.922   5.382   4.039
 5701TIP3   OH217045   5.959   6.945   4.604
 5701TIP3    H117046   5.971   6.888   4.528
 5701TIP3    H217047   5.930   7.029   4.567
 5702TIP3   OH217048   5.040   2.670   1.679
 5702TIP3    H117049   5.124   2.715   1.689
 5702TIP3    H217050   5.021   2.636   1.767
 5703TIP3   OH217051   3.609   0.621   2.069
 5703TIP3    H117052   3.558   0.571   2.133
 5703TIP3    H217053   3.544   0.656   2.009
 5704TIP3   OH217054   7.509   4.127   1.022
 5704TIP3    H117055   7.454   4.100   1.096
 5704TIP3    H217056   7.488   4.064   0.953
 5705TIP3   OH217057   6.724   5.437   2.225
 5705TIP3    H117058   6.728   5.493   2.147
 5705TIP3    H217059   6.713   5.498   2.298
 5706TIP3   OH217060   0.218   5.231   5.001
 5706TIP3    H117061   0.167   5.286   4.942
 5706TIP3    H217062   0.155   5.168   5.036
 5707TIP3   OH217063   0.075   4.400   3.513
 5707TIP3    H117064   0.171   4.394   3.513
 5707TIP3    H217065   0.057   4.491   3.486
 5708TIP3   OH217066   4.128   1.371   0.657
 5708TIP3    H117067   4.173   1.390   0.575
 5708TIP3    H217068   4.106   1.278   0.652
 5709TIP3   OH217069   4.159   2.067   3.437
 5709TIP3    H117070   4.254   2.054   3.432
 5709TIP3    H217071   4.127   1.992   3.486
 5710TIP3   OH217072   0.419   6.847   6.597
 5710TIP3    H117073   0.362   6.914   6.634
 5710TIP3    H217074   0.506   6.867   6.632
 5711TIP3   OH217075   5.067   7.780   4.996
 5711TIP3    H117076   5.009   7.753   5.067
 5711TIP3    H217077   5.104   7.863   5.025
 5712TIP3   OH217078   3.957   1.559   1.480
 5712TIP3    H117079   3.951   1.466   1.456
 5712TIP3    H217080   3.972   1.604   1.397
 5713TIP3   OH217081   7.036   2.242   2.756
 5713TIP3    H117082   6.948   2.223   2.790
 5713TIP3    H217083   7.087   2.164   2.780
 5714TIP3   OH217084   5.613   3.407   4.889
 5714TIP3    H117085   5.569   3.491   4.883
 5714TIP3    H217086   5.606   3.370   4.801
 5715TIP3   OH217087   5.860   1.903   0.782
 5715TIP3    H117088   5.804   1.855   0.844
 5715TIP3    H217089   5.846   1.995   0.803
 5716TIP3   OH217090   2.181   3.153   4.281
 5716TIP3    H117091   2.155   3.065   4.308
 5716TIP3    H217092   2.264   3.140   4.235
 5717TIP3   OH217093   2.339   7.194   4.228
 5717TIP3    H117094   2.328   7.199   4.133
 5717TIP3    H217095   2.384   7.111   4.243
 5718TIP3   OH217096   3.864   3.458   0.159
 5718TIP3    H117097   3.912   3.515   0.099
 5718TIP3    H217098   3.867   3.503   0.243
 5719TIP3   OH217099   1.462   5.414   5.423
 5719TIP3    H117100   1.549   5.432   5.387
 5719TIP3    H217101   1.454   5.319   5.422
 5720TIP3   OH217102   6.680   7.181   0.876
 5720TIP3    H117103   6.661   7.089   0.897
 5720TIP3    H217104   6.608   7.230   0.917
 5721TIP3   OH217105   5.893   1.085   0.339
 5721TIP3    H117106   5.981   1.116   0.322
 5721TIP3    H217107   5.858   1.061   0.253
 5722TIP3   OH217108   2.529   5.808   4.938
 5722TIP3    H117109   2.568   5.727   4.972
 5722TIP3    H217110   2.597   5.845   4.882
 5723TIP3   OH217111   2.864   1.097   2.060
 5723TIP3    H117112   2.903   1.024   2.107
 5723TIP3    H217113   2.875   1.172   2.118
 5724TIP3   OH217114   2.593   5.739   5.818
 5724TIP3    H117115   2.642   5.670   5.863
 5724TIP3    H217116   2.557   5.793   5.889
 5725TIP3   OH217117   3.085   6.715   6.621
 5725TIP3    H117118   3.033   6.635   6.613
 5725TIP3    H217119   3.035   6.781   6.574
 5726TIP3   OH217120   7.177   3.156   6.085
 5726TIP3    H117121   7.191   3.148   5.991
 5726TIP3    H217122   7.237   3.225   6.113
 5727TIP3   OH217123   3.321   0.209   5.564
 5727TIP3    H117124   3.310   0.301   5.588
 5727TIP3    H217125   3.370   0.171   5.638
 5728TIP3   OH217126   2.630   2.580   1.728
 5728TIP3    H117127   2.544   2.586   1.768
 5728TIP3    H217128   2.674   2.508   1.773
 5729TIP3   OH217129   2.732   0.516   0.468
 5729TIP3    H117130   2.664   0.536   0.531
 5729TIP3    H217131   2.729   0.588   0.404
 5730TIP3   OH217132   7.494   5.349   6.722
 5730TIP3    H117133   7.538   5.379   6.802
 5730TIP3    H217134   7.543   5.272   6.695
 5731TIP3   OH217135   7.057   6.788   5.671
 5731TIP3    H117136   7.122   6.718   5.661
 5731TIP3    H217137   6.980   6.755   5.625
 5732TIP3   OH217138   5.019   2.253   2.007
 5732TIP3    H117139   4.937   2.211   2.035
 5732TIP3    H217140   5.080   2.234   2.078
 5733TIP3   OH217141   7.289   3.112   4.224
 5733TIP3    H117142   7.317   3.047   4.289
 5733TIP3    H217143   7.349   3.101   4.151
 5734TIP3   OH217144   7.752   1.632   5.256
 5734TIP3    H117145   7.819   1.698   5.244
 5734TIP3    H217146   7.796   1.561   5.303
 5735TIP3   OH217147   7.735   2.586   3.798
 5735TIP3    H117148   7.765   2.587   3.889
 5735TIP3    H217149   7.700   2.497   3.786
 5736TIP3   OH217150   5.692   2.300   2.240
 5736TIP3    H117151   5.711   2.380   2.290
 5736TIP3    H217152   5.739   2.231   2.286
 5737TIP3   OH217153   3.778   7.063   3.412
 5737TIP3    H117154   3.689   7.029   3.404
 5737TIP3    H217155   3.834   6.986   3.409
 5738TIP3   OH217156   5.822   1.479   1.235
 5738TIP3    H117157   5.766   1.461   1.159
 5738TIP3    H217158   5.767   1.457   1.310
 5739TIP3   OH217159   8.176   4.446   5.275
 5739TIP3    H117160   8.118   4.482   5.342
 5739TIP3    H217161   8.241   4.396   5.324
 5740TIP3   OH217162   2.444   2.300   5.305
 5740TIP3    H117163   2.432   2.389   5.338
 5740TIP3    H217164   2.403   2.300   5.219
 5741TIP3   OH217165   1.747   3.732   2.023
 5741TIP3    H117166   1.808   3.806   2.020
 5741TIP3    H217167   1.755   3.690   1.938
 5742TIP3   OH217168   1.584   1.196   3.334
 5742TIP3    H117169   1.492   1.169   3.338
 5742TIP3    H217170   1.633   1.115   3.330
 5743TIP3   OH217171   5.697   1.843   2.695
 5743TIP3    H117172   5.669   1.898   2.622
 5743TIP3    H217173   5.648   1.875   2.770
 5744TIP3   OH217174   8.276   2.855   2.662
 5744TIP3    H117175   8.206   2.851   2.598
 5744TIP3    H217176   8.238   2.817   2.742
 5745TIP3   OH217177   0.487   3.936   1.521
 5745TIP3    H117178   0.468   4.024   1.553
 5745TIP3    H217179   0.446   3.877   1.584
 5746TIP3   OH217180   5.472   3.971   6.144
 5746TIP3    H117181   5.567   3.974   6.150
 5746TIP3    H217182   5.454   3.897   6.086
 5747TIP3   OH217183   0.575   2.369   1.045
 5747TIP3    H117184   0.496   2.329   1.082
 5747TIP3    H217185   0.606   2.428   1.113
 5748TIP3   OH217186   2.492   1.582   4.247
 5748TIP3    H117187   2.422   1.645   4.265
 5748TIP3    H217188   2.489   1.570   4.152
 5749TIP3   OH217189   7.909   3.377   2.150
 5749TIP3    H117190   7.844   3.334   2.206
 5749TIP3    H217191   7.904   3.331   2.067
 5750TIP3   OH217192   5.820   2.341   4.008
 5750TIP3    H117193   5.901   2.305   4.046
 5750TIP3    H217194   5.770   2.372   4.083
 5751TIP3   OH217195   7.629   2.368   4.735
 5751TIP3    H117196   7.564   2.330   4.794
 5751TIP3    H217197   7.706   2.313   4.746
 5752TIP3   OH217198   3.994   4.338   0.185
 5752TIP3    H117199   4.022   4.344   0.277
 5752TIP3    H217200   3.982   4.245   0.170
 5753TIP3   OH217201   2.770   5.821   1.423
 5753TIP3    H117202   2.683   5.826   1.384
 5753TIP3    H217203   2.806   5.738   1.390
 5754TIP3   OH217204   1.350   1.102   1.385
 5754TIP3    H117205   1.439   1.122   1.356
 5754TIP3    H217206   1.323   1.179   1.435
 5755TIP3   OH217207   3.353   6.468   0.544
 5755TIP3    H117208   3.261   6.470   0.520
 5755TIP3    H217209   3.396   6.427   0.469
 5756TIP3   OH217210   3.801   0.891   5.188
 5756TIP3    H117211   3.731   0.829   5.165
 5756TIP3    H217212   3.805   0.887   5.284
 5757TIP3   OH217213   5.497   5.939   2.121
 5757TIP3    H117214   5.485   6.033   2.112
 5757TIP3    H217215   5.590   5.928   2.138
 5758TIP3   OH217216   3.836   6.892   2.184
 5758TIP3    H117217   3.793   6.859   2.104
 5758TIP3    H217218   3.779   6.963   2.213
 5759TIP3   OH217219   6.589   2.607   1.991
 5759TIP3    H117220   6.666   2.571   2.036
 5759TIP3    H217221   6.553   2.533   1.943
 5760TIP3   OH217222   0.877   3.371   6.462
 5760TIP3    H117223   0.886   3.286   6.418
 5760TIP3    H217224   0.935   3.365   6.538
 5761TIP3   OH217225   7.003   5.483   4.133
 5761TIP3    H117226   6.981   5.423   4.203
 5761TIP3    H217227   7.043   5.427   4.065
 5762TIP3   OH217228   6.095   1.302   1.463
 5762TIP3    H117229   6.115   1.359   1.389
 5762TIP3    H217230   6.010   1.263   1.441
 5763TIP3   OH217231   3.311   5.831   1.307
 5763TIP3    H117232   3.276   5.918   1.326
 5763TIP3    H217233   3.235   5.773   1.315
 5764TIP3   OH217234   3.706   2.440   2.761
 5764TIP3    H117235   3.764   2.396   2.698
 5764TIP3    H217236   3.705   2.383   2.837
 5765TIP3   OH217237   5.072   6.099   0.960
 5765TIP3    H117238   5.141   6.165   0.954
 5765TIP3    H217239   5.094   6.048   1.039
 5766TIP3   OH217240   6.143   3.025   1.460
 5766TIP3    H117241   6.095   2.947   1.485
 5766TIP3    H217242   6.226   2.992   1.425
 5767TIP3   OH217243   8.247   5.757   5.347
 5767TIP3    H117244   8.303   5.731   5.420
 5767TIP3    H217245   8.307   5.794   5.282
 5768TIP3   OH217246   8.112   2.363   6.732
 5768TIP3    H117247   8.207   2.359   6.734
 5768TIP3    H217248   8.090   2.371   6.639
 5769TIP3   OH217249   0.526   1.722   4.817
 5769TIP3    H117250   0.460   1.784   4.786
 5769TIP3    H217251   0.529   1.655   4.749
 5770TIP3   OH217252   7.215   2.569   5.798
 5770TIP3    H117253   7.142   2.629   5.783
 5770TIP3    H217254   7.238   2.581   5.889
 5771TIP3   OH217255   0.746   4.645   2.873
 5771TIP3    H117256   0.676   4.694   2.830
 5771TIP3    H217257   0.790   4.710   2.929
 5772TIP3   OH217258   2.443   2.569   5.459
 5772TIP3    H117259   2.383   2.642   5.445
 5772TIP3    H217260   2.530   2.607   5.448
 5773TIP3   OH217261   7.092   2.935   0.330
 5773TIP3    H117262   7.074   2.842   0.328
 5773TIP3    H217263   7.083   2.959   0.422
 5774TIP3   OH217264   3.010   6.812   1.387
 5774TIP3    H117265   2.943   6.824   1.319
 5774TIP3    H217266   3.092   6.806   1.339
 5775TIP3   OH217267   4.178   6.498   6.363
 5775TIP3    H117268   4.118   6.447   6.418
 5775TIP3    H217269   4.133   6.582   6.350
 5776TIP3   OH217270   7.555   6.636   4.278
 5776TIP3    H117271   7.577   6.707   4.217
 5776TIP3    H217272   7.614   6.649   4.352
 5777TIP3   OH217273   5.945   6.779   3.885
 5777TIP3    H117274   5.865   6.744   3.924
 5777TIP3    H217275   6.013   6.717   3.912
 5778TIP3   OH217276   6.036   2.519   4.335
 5778TIP3    H117277   6.092   2.459   4.383
 5778TIP3    H217278   5.984   2.563   4.402
 5779TIP3   OH217279   2.454   7.043   6.634
 5779TIP3    H117280   2.392   7.114   6.648
 5779TIP3    H217281   2.515   7.049   6.708
 5780TIP3   OH217282   4.870   0.558   5.437
 5780TIP3    H117283   4.916   0.485   5.478
 5780TIP3    H217284   4.778   0.531   5.435
 5781TIP3   OH217285   6.404   2.003   1.022
 5781TIP3    H117286   6.450   2.015   0.939
 5781TIP3    H217287   6.431   1.916   1.052
 5782TIP3   OH217288   0.439   3.166   4.370
 5782TIP3    H117289   0.530   3.136   4.373
 5782TIP3    H217290   0.388   3.085   4.371
 5783TIP3   OH217291   1.991   2.303   3.445
 5783TIP3    H117292   1.964   2.211   3.446
 5783TIP3    H217293   1.977   2.331   3.354
 5784TIP3   OH217294   8.105   7.492   2.788
 5784TIP3    H117295   8.195   7.525   2.786
 5784TIP3    H217296   8.078   7.489   2.696
 5785TIP3   OH217297   3.078   3.945   2.292
 5785TIP3    H117298   3.039   3.893   2.363
 5785TIP3    H217299   3.143   3.886   2.254
 5786TIP3   OH217300   6.832   3.704   6.099
 5786TIP3    H117301   6.791   3.746   6.174
 5786TIP3    H217302   6.866   3.621   6.133
 5787TIP3   OH217303   1.617   7.798   5.660
 5787TIP3    H117304   1.565   7.733   5.613
 5787TIP3    H217305   1.568   7.880   5.649
 5788TIP3   OH217306   1.015   1.866   6.111
 5788TIP3    H117307   1.092   1.922   6.121
 5788TIP3    H217308   0.941   1.921   6.135
 5789TIP3   OH217309   3.611   7.763   3.143
 5789TIP3    H117310   3.599   7.670   3.122
 5789TIP3    H217311   3.648   7.801   3.064
 5790TIP3   OH217312   4.316   6.254   1.907
 5790TIP3    H117313   4.378   6.278   1.838
 5790TIP3    H217314   4.267   6.180   1.871
 5791TIP3   OH217315   1.546   4.965   4.968
 5791TIP3    H117316   1.602   4.892   4.995
 5791TIP3    H217317   1.468   4.922   4.932
 5792TIP3   OH217318   8.247   3.880   4.260
 5792TIP3    H117319   8.273   3.788   4.257
 5792TIP3    H217320   8.155   3.878   4.286
 5793TIP3   OH217321   6.659   7.096   5.030
 5793TIP3    H117322   6.744   7.056   5.047
 5793TIP3    H217323   6.680   7.180   4.990
 5794TIP3   OH217324   8.072   3.986   0.841
 5794TIP3    H117325   8.006   3.916   0.851
 5794TIP3    H217326   8.091   4.013   0.931
 5795TIP3   OH217327   3.823   2.220   1.453
 5795TIP3    H117328   3.836   2.160   1.380
 5795TIP3    H217329   3.819   2.307   1.412
 5796TIP3   OH217330   2.169   1.405   3.784
 5796TIP3    H117331   2.163   1.312   3.805
 5796TIP3    H217332   2.187   1.408   3.690
 5797TIP3   OH217333   7.966   2.284   6.101
 5797TIP3    H117334   7.938   2.207   6.051
 5797TIP3    H217335   7.888   2.308   6.152
 5798TIP3   OH217336   6.264   3.784   0.179
 5798TIP3    H117337   6.266   3.715   0.113
 5798TIP3    H217338   6.185   3.767   0.230
 5799TIP3   OH217339   5.583   4.779   6.472
 5799TIP3    H117340   5.497   4.814   6.448
 5799TIP3    H217341   5.641   4.807   6.401
 5800TIP3   OH217342   3.221   7.269   2.992
 5800TIP3    H117343   3.291   7.329   2.964
 5800TIP3    H217344   3.189   7.307   3.074
 5801TIP3   OH217345   7.719   7.166   2.809
 5801TIP3    H117346   7.724   7.087   2.756
 5801TIP3    H217347   7.810   7.188   2.828
 5802TIP3   OH217348   1.624   2.087   6.753
 5802TIP3    H117349   1.583   2.093   6.666
 5802TIP3    H217350   1.707   2.133   6.743
 5803TIP3   OH217351   7.638   6.812   4.543
 5803TIP3    H117352   7.547   6.822   4.516
 5803TIP3    H217353   7.655   6.888   4.599
 5804TIP3   OH217354   6.178   5.731   5.914
 5804TIP3    H117355   6.085   5.732   5.935
 5804TIP3    H217356   6.215   5.661   5.968
 5805TIP3   OH217357   7.991   0.617   1.377
 5805TIP3    H117358   7.901   0.601   1.348
 5805TIP3    H217359   7.987   0.611   1.472
 5806TIP3   OH217360   5.328   6.777   4.992
 5806TIP3    H117361   5.360   6.743   4.908
 5806TIP3    H217362   5.267   6.710   5.022
 5807TIP3   OH217363   1.477   3.675   6.203
 5807TIP3    H117364   1.505   3.585   6.187
 5807TIP3    H217365   1.435   3.672   6.289
 5808TIP3   OH217366   5.066   3.998   4.711
 5808TIP3    H117367   5.054   3.999   4.616
 5808TIP3    H217368   5.000   4.060   4.744
 5809TIP3   OH217369   1.932   1.639   0.336
 5809TIP3    H117370   1.911   1.729   0.309
 5809TIP3    H217371   1.847   1.596   0.342
 5810TIP3   OH217372   3.122   6.852   1.883
 5810TIP3    H117373   3.033   6.882   1.904
 5810TIP3    H217374   3.123   6.761   1.911
 5811TIP3   OH217375   6.423   3.174   6.112
 5811TIP3    H117376   6.448   3.157   6.021
 5811TIP3    H217377   6.331   3.200   6.107
 5812TIP3   OH217378   2.486   0.838   4.973
 5812TIP3    H117379   2.504   0.779   4.900
 5812TIP3    H217380   2.538   0.916   4.952
 5813TIP3   OH217381   2.641   3.577   1.813
 5813TIP3    H117382   2.639   3.534   1.899
 5813TIP3    H217383   2.553   3.565   1.778
 5814TIP3   OH217384   5.996   5.282   0.902
 5814TIP3    H117385   5.962   5.371   0.895
 5814TIP3    H217386   6.004   5.267   0.996
 5815TIP3   OH217387   3.116   0.554   6.404
 5815TIP3    H117388   3.188   0.615   6.386
 5815TIP3    H217389   3.132   0.524   6.493
 5816TIP3   OH217390   0.918   2.588   2.221
 5816TIP3    H117391   0.977   2.659   2.196
 5816TIP3    H217392   0.837   2.632   2.248
 5817TIP3   OH217393   6.640   4.586   4.857
 5817TIP3    H117394   6.591   4.658   4.817
 5817TIP3    H217395   6.708   4.566   4.793
 5818TIP3   OH217396   2.640   4.312   0.812
 5818TIP3    H117397   2.613   4.231   0.769
 5818TIP3    H217398   2.628   4.379   0.745
 5819TIP3   OH217399   1.420   4.106   3.939
 5819TIP3    H117400   1.412   4.117   3.844
 5819TIP3    H217401   1.366   4.029   3.959
 5820TIP3   OH217402   3.780   2.512   1.467
 5820TIP3    H117403   3.857   2.536   1.518
 5820TIP3    H217404   3.777   2.575   1.396
 5821TIP3   OH217405   4.882   2.286   4.863
 5821TIP3    H117406   4.897   2.249   4.776
 5821TIP3    H217407   4.787   2.292   4.870
 5822TIP3   OH217408   6.438   4.216   4.480
 5822TIP3    H117409   6.486   4.221   4.563
 5822TIP3    H217410   6.474   4.288   4.428
 5823TIP3   OH217411   3.735   0.680   0.867
 5823TIP3    H117412   3.768   0.718   0.949
 5823TIP3    H217413   3.814   0.658   0.818
 5824TIP3   OH217414   0.713   5.084   6.376
 5824TIP3    H117415   0.706   4.988   6.383
 5824TIP3    H217416   0.623   5.113   6.364
 5825TIP3   OH217417   0.211   5.459   6.625
 5825TIP3    H117418   0.302   5.442   6.598
 5825TIP3    H217419   0.190   5.543   6.585
 5826TIP3   OH217420   0.249   1.968   1.406
 5826TIP3    H117421   0.239   2.056   1.443
 5826TIP3    H217422   0.333   1.937   1.438
 5827TIP3   OH217423   5.513   2.785   1.207
 5827TIP3    H117424   5.445   2.801   1.272
 5827TIP3    H217425   5.571   2.721   1.247
 5828TIP3   OH217426   1.868   1.248   4.452
 5828TIP3    H117427   1.792   1.224   4.400
 5828TIP3    H217428   1.853   1.340   4.476
 5829TIP3   OH217429   4.059   4.434   2.763
 5829TIP3    H117430   4.109   4.385   2.699
 5829TIP3    H217431   3.973   4.446   2.724
 5830TIP3   OH217432   7.418   5.241   3.437
 5830TIP3    H117433   7.429   5.147   3.423
 5830TIP3    H217434   7.439   5.253   3.530
 5831TIP3   OH217435   7.297   4.793   6.243
 5831TIP3    H117436   7.333   4.840   6.318
 5831TIP3    H217437   7.222   4.845   6.216
 5832TIP3   OH217438   2.286   5.974   3.915
 5832TIP3    H117439   2.213   6.034   3.904
 5832TIP3    H217440   2.248   5.897   3.959
 5833TIP3   OH217441   4.478   5.925   4.791
 5833TIP3    H117442   4.453   5.993   4.854
 5833TIP3    H217443   4.533   5.971   4.728
 5834TIP3   OH217444   5.906   4.778   6.505
 5834TIP3    H117445   5.839   4.836   6.466
 5834TIP3    H217446   5.952   4.834   6.568
 5835TIP3   OH217447   7.335   5.482   4.127
 5835TIP3    H117448   7.274   5.486   4.054
 5835TIP3    H217449   7.399   5.415   4.102
 5836TIP3   OH217450   6.487   4.818   3.592
 5836TIP3    H117451   6.516   4.899   3.634
 5836TIP3    H217452   6.393   4.830   3.579
 5837TIP3   OH217453   4.240   2.127   5.369
 5837TIP3    H117454   4.305   2.192   5.341
 5837TIP3    H217455   4.270   2.045   5.331
 5838TIP3   OH217456   3.161   2.886   3.596
 5838TIP3    H117457   3.090   2.839   3.552
 5838TIP3    H217458   3.240   2.839   3.572
 5839TIP3   OH217459   5.167   5.403   0.889
 5839TIP3    H117460   5.161   5.456   0.969
 5839TIP3    H217461   5.179   5.314   0.921
 5840TIP3   OH217462   7.740   5.865   3.974
 5840TIP3    H117463   7.662   5.911   3.944
 5840TIP3    H217464   7.715   5.773   3.975
 5841TIP3   OH217465   6.454   1.818   3.850
 5841TIP3    H117466   6.371   1.776   3.871
 5841TIP3    H217467   6.432   1.883   3.784
 5842TIP3   OH217468   4.960   2.553   0.478
 5842TIP3    H117469   5.023   2.518   0.541
 5842TIP3    H217470   4.875   2.536   0.519
 5843TIP3   OH217471   2.539   4.113   0.643
 5843TIP3    H117472   2.490   4.040   0.679
 5843TIP3    H217473   2.482   4.148   0.574
 5844TIP3   OH217474   6.916   6.085   1.804
 5844TIP3    H117475   6.943   6.117   1.890
 5844TIP3    H217476   6.957   5.998   1.798
 5845TIP3   OH217477   6.021   0.140   2.972
 5845TIP3    H117478   5.929   0.123   2.993
 5845TIP3    H217479   6.067   0.129   3.054
 5846TIP3   OH217480   1.690   5.614   6.381
 5846TIP3    H117481   1.723   5.703   6.371
 5846TIP3    H217482   1.601   5.624   6.413
 5847TIP3   OH217483   5.744   1.122   1.012
 5847TIP3    H117484   5.701   1.145   1.095
 5847TIP3    H217485   5.765   1.205   0.971
 5848TIP3   OH217486   2.416   6.172   1.736
 5848TIP3    H117487   2.478   6.161   1.809
 5848TIP3    H217488   2.357   6.241   1.766
 5849TIP3   OH217489   0.014   6.902   1.280
 5849TIP3    H117490   0.030   6.984   1.234
 5849TIP3    H217491   0.098   6.881   1.320
 5850TIP3   OH217492   5.473   6.064   0.218
 5850TIP3    H117493   5.401   6.031   0.272
 5850TIP3    H217494   5.432   6.129   0.161
 5851TIP3   OH217495   7.181   4.985   1.001
 5851TIP3    H117496   7.140   4.899   0.997
 5851TIP3    H217497   7.110   5.045   1.025
 5852TIP3   OH217498   3.025   4.458   3.315
 5852TIP3    H117499   2.936   4.448   3.348
 5852TIP3    H217500   3.054   4.369   3.294
 5853TIP3   OH217501   8.273   5.269   2.194
 5853TIP3    H117502   8.278   5.240   2.285
 5853TIP3    H217503   8.179   5.281   2.178
 5854TIP3   OH217504   5.298   0.696   0.172
 5854TIP3    H117505   5.308   0.774   0.227
 5854TIP3    H217506   5.382   0.651   0.178
 5855TIP3   OH217507   5.336   0.136   2.222
 5855TIP3    H117508   5.331   0.075   2.148
 5855TIP3    H217509   5.319   0.082   2.299
 5856TIP3   OH217510   0.417   6.138   6.475
 5856TIP3    H117511   0.424   6.062   6.417
 5856TIP3    H217512   0.490   6.195   6.449
 5857TIP3   OH217513   2.123   6.701   1.959
 5857TIP3    H117514   2.216   6.704   1.982
 5857TIP3    H217515   2.078   6.685   2.042
 5858TIP3   OH217516   1.174   1.332   3.149
 5858TIP3    H117517   1.203   1.421   3.129
 5858TIP3    H217518   1.111   1.342   3.220
 5859TIP3   OH217519   5.320   6.614   6.024
 5859TIP3    H117520   5.253   6.587   6.087
 5859TIP3    H217521   5.394   6.557   6.042
 5860TIP3   OH217522   0.765   0.227   0.871
 5860TIP3    H117523   0.681   0.192   0.842
 5860TIP3    H217524   0.783   0.182   0.953
 5861TIP3   OH217525   4.315   6.409   3.586
 5861TIP3    H117526   4.341   6.441   3.672
 5861TIP3    H217527   4.398   6.395   3.540
 5862TIP3   OH217528   6.180   1.133   5.503
 5862TIP3    H117529   6.249   1.141   5.438
 5862TIP3    H217530   6.159   1.039   5.504
 5863TIP3   OH217531   3.540   4.506   3.377
 5863TIP3    H117532   3.504   4.485   3.290
 5863TIP3    H217533   3.608   4.571   3.359
 5864TIP3   OH217534   1.494   6.631   1.800
 5864TIP3    H117535   1.530   6.565   1.860
 5864TIP3    H217536   1.409   6.596   1.775
 5865TIP3   OH217537   0.840   0.652   5.500
 5865TIP3    H117538   0.771   0.661   5.565
 5865TIP3    H217539   0.883   0.738   5.499
 5866TIP3   OH217540   7.143   5.565   4.358
 5866TIP3    H117541   7.054   5.569   4.394
 5866TIP3    H217542   7.131   5.532   4.269
 5867TIP3   OH217543   7.723   5.710   2.874
 5867TIP3    H117544   7.661   5.656   2.923
 5867TIP3    H217545   7.809   5.687   2.910
 5868TIP3   OH217546   6.419   6.414   0.231
 5868TIP3    H117547   6.481   6.409   0.303
 5868TIP3    H217548   6.473   6.427   0.153
 5869TIP3   OH217549   2.985   6.290   2.169
 5869TIP3    H117550   2.957   6.282   2.260
 5869TIP3    H217551   3.080   6.299   2.174
 5870TIP3   OH217552   3.724   4.645   5.765
 5870TIP3    H117553   3.798   4.591   5.737
 5870TIP3    H217554   3.697   4.606   5.848
 5871TIP3   OH217555   4.703   2.879   5.032
 5871TIP3    H117556   4.683   2.860   4.941
 5871TIP3    H217557   4.798   2.886   5.035
 5872TIP3   OH217558   5.567   3.138   2.096
 5872TIP3    H117559   5.624   3.156   2.021
 5872TIP3    H217560   5.578   3.045   2.113
 5873TIP3   OH217561   4.829   6.497   0.750
 5873TIP3    H117562   4.774   6.423   0.724
 5873TIP3    H217563   4.914   6.458   0.773
 5874TIP3   OH217564   6.960   0.203   3.092
 5874TIP3    H117565   7.045   0.180   3.131
 5874TIP3    H217566   6.981   0.231   3.003
 5875TIP3   OH217567   3.792   3.190   0.879
 5875TIP3    H117568   3.712   3.213   0.832
 5875TIP3    H217569   3.796   3.253   0.951
 5876TIP3   OH217570   0.495   4.967   5.878
 5876TIP3    H117571   0.474   4.931   5.965
 5876TIP3    H217572   0.473   4.896   5.817
 5877TIP3   OH217573   7.253   0.305   6.010
 5877TIP3    H117574   7.250   0.222   5.963
 5877TIP3    H217575   7.346   0.324   6.021
 5878TIP3   OH217576   3.789   5.471   1.148
 5878TIP3    H117577   3.801   5.423   1.066
 5878TIP3    H217578   3.845   5.426   1.211
 5879TIP3   OH217579   6.542   1.684   1.385
 5879TIP3    H117580   6.594   1.757   1.352
 5879TIP3    H217581   6.566   1.610   1.330
 5880TIP3   OH217582   7.898   3.362   0.252
 5880TIP3    H117583   7.880   3.378   0.160
 5880TIP3    H217584   7.879   3.446   0.295
 5881TIP3   OH217585   7.487   2.512   6.143
 5881TIP3    H117586   7.539   2.575   6.194
 5881TIP3    H217587   7.403   2.555   6.128
 5882TIP3   OH217588   1.294   5.101   0.554
 5882TIP3    H117589   1.294   5.005   0.548
 5882TIP3    H217590   1.385   5.126   0.540
 5883TIP3   OH217591   1.429   1.786   6.267
 5883TIP3    H117592   1.490   1.731   6.218
 5883TIP3    H217593   1.397   1.849   6.202
 5884TIP3   OH217594   1.307   4.878   4.835
 5884TIP3    H117595   1.216   4.879   4.864
 5884TIP3    H217596   1.314   4.954   4.777
 5885TIP3   OH217597   5.359   3.288   2.039
 5885TIP3    H117598   5.397   3.373   2.014
 5885TIP3    H217599   5.430   3.242   2.084
 5886TIP3   OH217600   5.266   5.975   3.133
 5886TIP3    H117601   5.223   5.991   3.049
 5886TIP3    H217602   5.358   5.998   3.117
 5887TIP3   OH217603   4.625   7.295   1.664
 5887TIP3    H117604   4.596   7.347   1.589
 5887TIP3    H217605   4.557   7.228   1.674
 5888TIP3   OH217606   0.786   5.289   1.223
 5888TIP3    H117607   0.785   5.212   1.166
 5888TIP3    H217608   0.694   5.311   1.234
 5889TIP3   OH217609   5.264   6.327   1.485
 5889TIP3    H117610   5.177   6.332   1.524
 5889TIP3    H217611   5.324   6.347   1.557
 5890TIP3   OH217612   7.952   7.089   0.548
 5890TIP3    H117613   7.935   7.029   0.621
 5890TIP3    H217614   8.047   7.087   0.537
 5891TIP3   OH217615   7.388   4.272   2.465
 5891TIP3    H117616   7.394   4.355   2.419
 5891TIP3    H217617   7.471   4.265   2.513
 5892TIP3   OH217618   5.010   2.988   0.290
 5892TIP3    H117619   5.097   3.027   0.300
 5892TIP3    H217620   5.028   2.897   0.265
 5893TIP3   OH217621   7.077   2.103   6.114
 5893TIP3    H117622   6.984   2.112   6.093
 5893TIP3    H217623   7.120   2.091   6.030
 5894TIP3   OH217624   6.026   7.689   6.719
 5894TIP3    H117625   6.078   7.694   6.638
 5894TIP3    H217626   5.938   7.713   6.692
 5895TIP3   OH217627   4.563   3.821   0.425
 5895TIP3    H117628   4.542   3.744   0.372
 5895TIP3    H217629   4.485   3.875   0.421
 5896TIP3   OH217630   6.363   2.103   0.520
 5896TIP3    H117631   6.329   2.041   0.456
 5896TIP3    H217632   6.298   2.105   0.589
 5897TIP3   OH217633   6.176   0.759   0.865
 5897TIP3    H117634   6.093   0.804   0.881
 5897TIP3    H217635   6.154   0.690   0.802
 5898TIP3   OH217636   3.110   6.885   0.067
 5898TIP3    H117637   3.114   6.945   0.141
 5898TIP3    H217638   3.165   6.811   0.092
 5899TIP3   OH217639   0.361   3.874   1.280
 5899TIP3    H117640   0.413   3.878   1.360
 5899TIP3    H217641   0.424   3.850   1.212
 5900TIP3   OH217642   2.756   4.297   4.516
 5900TIP3    H117643   2.734   4.219   4.568
 5900TIP3    H217644   2.797   4.262   4.437
 5901TIP3   OH217645   7.750   6.352   3.719
 5901TIP3    H117646   7.799   6.283   3.676
 5901TIP3    H217647   7.790   6.360   3.806
 5902TIP3   OH217648   3.374   5.677   3.373
 5902TIP3    H117649   3.403   5.639   3.290
 5902TIP3    H217650   3.283   5.650   3.381
 5903TIP3   OH217651   2.356   5.833   5.709
 5903TIP3    H117652   2.450   5.820   5.718
 5903TIP3    H217653   2.332   5.786   5.630
 5904TIP3   OH217654   0.786   3.034   3.564
 5904TIP3    H117655   0.784   3.125   3.536
 5904TIP3    H217656   0.838   3.035   3.645
 5905TIP3   OH217657   2.446   6.017   5.386
 5905TIP3    H117658   2.373   6.076   5.364
 5905TIP3    H217659   2.423   5.983   5.472
 5906TIP3   OH217660   7.847   3.784   2.732
 5906TIP3    H117661   7.784   3.823   2.671
 5906TIP3    H217662   7.824   3.691   2.733
 5907TIP3   OH217663   2.485   5.860   4.158
 5907TIP3    H117664   2.459   5.840   4.068
 5907TIP3    H217665   2.435   5.939   4.181
 5908TIP3   OH217666   3.380   2.913   4.508
 5908TIP3    H117667   3.319   2.862   4.560
 5908TIP3    H217668   3.367   3.003   4.538
 5909TIP3   OH217669   5.882   7.049   4.124
 5909TIP3    H117670   5.927   7.028   4.042
 5909TIP3    H217671   5.928   7.126   4.157
 5910TIP3   OH217672   3.161   3.819   1.482
 5910TIP3    H117673   3.070   3.833   1.457
 5910TIP3    H217674   3.157   3.773   1.565
 5911TIP3   OH217675   2.422   2.612   4.031
 5911TIP3    H117676   2.468   2.646   3.955
 5911TIP3    H217677   2.336   2.587   3.997
 5912TIP3   OH217678   4.142   7.566   2.473
 5912TIP3    H117679   4.050   7.569   2.448
 5912TIP3    H217680   4.148   7.493   2.534
 5913TIP3   OH217681   3.192   6.155   1.976
 5913TIP3    H117682   3.248   6.082   2.000
 5913TIP3    H217683   3.233   6.192   1.897
 5914TIP3   OH217684   0.157   7.133   5.814
 5914TIP3    H117685   0.219   7.098   5.878
 5914TIP3    H217686   0.105   7.196   5.863
 5915TIP3   OH217687   5.763   6.162   5.279
 5915TIP3    H117688   5.808   6.206   5.207
 5915TIP3    H217689   5.816   6.084   5.296
 5916TIP3   OH217690   3.421   6.284   1.209
 5916TIP3    H117691   3.454   6.233   1.283
 5916TIP3    H217692   3.380   6.220   1.151
 5917TIP3   OH217693   3.449   3.916   5.808
 5917TIP3    H117694   3.472   3.983   5.872
 5917TIP3    H217695   3.511   3.929   5.737
 5918TIP3   OH217696   2.198   5.328   4.959
 5918TIP3    H117697   2.187   5.410   4.911
 5918TIP3    H217698   2.144   5.265   4.911
 5919TIP3   OH217699   3.088   5.747   5.548
 5919TIP3    H117700   3.066   5.840   5.559
 5919TIP3    H217701   3.168   5.747   5.496
 5920TIP3   OH217702   5.090   6.111   4.677
 5920TIP3    H117703   5.024   6.146   4.616
 5920TIP3    H217704   5.067   6.018   4.686
 5921TIP3   OH217705   6.954   0.717   1.803
 5921TIP3    H117706   6.964   0.748   1.893
 5921TIP3    H217707   6.959   0.796   1.750
 5922TIP3   OH217708   0.691   3.711   0.600
 5922TIP3    H117709   0.621   3.671   0.651
 5922TIP3    H217710   0.645   3.757   0.529
 5923TIP3   OH217711   5.414   3.904   0.283
 5923TIP3    H117712   5.343   3.956   0.321
 5923TIP3    H217713   5.463   3.966   0.229
 5924TIP3   OH217714   1.648   1.220   6.629
 5924TIP3    H117715   1.711   1.288   6.652
 5924TIP3    H217716   1.678   1.142   6.675
 5925TIP3   OH217717   0.744   1.186   4.478
 5925TIP3    H117718   0.663   1.136   4.492
 5925TIP3    H217719   0.760   1.180   4.384
 5926TIP3   OH217720   3.413   4.448   5.739
 5926TIP3    H117721   3.410   4.353   5.729
 5926TIP3    H217722   3.468   4.478   5.666
 5927TIP3   OH217723   8.286   0.274   0.836
 5927TIP3    H117724   8.343   0.338   0.793
 5927TIP3    H217725   8.206   0.274   0.783
 5928TIP3   OH217726   8.055   6.295   6.148
 5928TIP3    H117727   8.147   6.318   6.155
 5928TIP3    H217728   8.050   6.236   6.072
 5929TIP3   OH217729   3.867   7.624   4.362
 5929TIP3    H117730   3.785   7.593   4.323
 5929TIP3    H217731   3.871   7.579   4.447
 5930TIP3   OH217732   4.626   2.479   1.250
 5930TIP3    H117733   4.708   2.529   1.247
 5930TIP3    H217734   4.592   2.484   1.161
 5931TIP3   OH217735   5.122   6.538   6.206
 5931TIP3    H117736   5.066   6.612   6.226
 5931TIP3    H217737   5.089   6.467   6.262
 5932TIP3   OH217738   6.112   2.024   4.646
 5932TIP3    H117739   6.045   2.084   4.677
 5932TIP3    H217740   6.162   2.001   4.724
 5933TIP3   OH217741   5.222   2.942   1.047
 5933TIP3    H117742   5.261   2.987   1.121
 5933TIP3    H217743   5.152   3.000   1.018
 5934TIP3   OH217744   7.146   6.212   5.558
 5934TIP3    H117745   7.055   6.192   5.536
 5934TIP3    H217746   7.174   6.137   5.611
 5935TIP3   OH217747   2.093   7.158   2.259
 5935TIP3    H117748   2.003   7.187   2.244
 5935TIP3    H217749   2.097   7.140   2.353
 5936TIP3   OH217750   6.832   0.361   0.201
 5936TIP3    H117751   6.881   0.391   0.124
 5936TIP3    H217752   6.760   0.424   0.208
 5937TIP3   OH217753   7.231   4.872   5.746
 5937TIP3    H117754   7.281   4.853   5.667
 5937TIP3    H217755   7.189   4.789   5.768
 5938TIP3   OH217756   2.958   7.539   6.018
 5938TIP3    H117757   3.038   7.486   6.012
 5938TIP3    H217758   2.946   7.554   6.111
 5939TIP3   OH217759   6.785   4.237   2.903
 5939TIP3    H117760   6.795   4.329   2.878
 5939TIP3    H217761   6.690   4.223   2.905
 5940TIP3   OH217762   2.260   4.756   6.389
 5940TIP3    H117763   2.232   4.683   6.334
 5940TIP3    H217764   2.318   4.807   6.332
 5941TIP3   OH217765   0.446   0.932   5.133
 5941TIP3    H117766   0.472   1.023   5.121
 5941TIP3    H217767   0.493   0.883   5.065
 5942TIP3   OH217768   4.929   5.177   4.858
 5942TIP3    H117769   4.841   5.210   4.845
 5942TIP3    H217770   4.978   5.208   4.783
 5943TIP3   OH217771   3.779   3.575   5.145
 5943TIP3    H117772   3.688   3.593   5.167
 5943TIP3    H217773   3.808   3.653   5.099
 5944TIP3   OH217774   8.062   2.360   3.218
 5944TIP3    H117775   7.976   2.395   3.244
 5944TIP3    H217776   8.116   2.367   3.296
 5945TIP3   OH217777   2.453   5.582   5.591
 5945TIP3    H117778   2.395   5.543   5.657
 5945TIP3    H217779   2.531   5.609   5.640
 5946TIP3   OH217780   6.923   6.784   2.982
 5946TIP3    H117781   6.921   6.880   2.978
 5946TIP3    H217782   6.863   6.763   3.054
 5947TIP3   OH217783   5.249   2.631   3.344
 5947TIP3    H117784   5.297   2.669   3.418
 5947TIP3    H217785   5.230   2.705   3.287
 5948TIP3   OH217786   6.761   4.375   4.111
 5948TIP3    H117787   6.783   4.433   4.184
 5948TIP3    H217788   6.700   4.426   4.058
 5949TIP3   OH217789   6.617   2.636   5.501
 5949TIP3    H117790   6.613   2.559   5.557
 5949TIP3    H217791   6.674   2.611   5.428
 5950TIP3   OH217792   2.994   0.457   0.050
 5950TIP3    H117793   2.906   0.484   0.076
 5950TIP3    H217794   2.979   0.383  -0.009
 5951TIP3   OH217795   5.230   3.959   1.404
 5951TIP3    H117796   5.313   3.959   1.357
 5951TIP3    H217797   5.211   3.866   1.418
 5952TIP3   OH217798   0.620   3.646   5.594
 5952TIP3    H117799   0.563   3.632   5.519
 5952TIP3    H217800   0.571   3.613   5.669
 5953TIP3   OH217801   0.856   6.909   2.858
 5953TIP3    H117802   0.916   6.974   2.896
 5953TIP3    H217803   0.907   6.868   2.788
 5954TIP3   OH217804   6.053   4.739   3.409
 5954TIP3    H117805   6.140   4.699   3.416
 5954TIP3    H217806   5.999   4.691   3.471
 5955TIP3   OH217807   8.127   4.451   5.583
 5955TIP3    H117808   8.095   4.506   5.655
 5955TIP3    H217809   8.207   4.411   5.617
 5956TIP3   OH217810   4.739   6.469   6.515
 5956TIP3    H117811   4.738   6.429   6.428
 5956TIP3    H217812   4.648   6.495   6.530
 5957TIP3   OH217813   0.103   6.950   0.882
 5957TIP3    H117814   0.066   6.990   0.961
 5957TIP3    H217815   0.185   6.910   0.912
 5958TIP3   OH217816   5.117   2.544   2.736
 5958TIP3    H117817   5.082   2.491   2.665
 5958TIP3    H217818   5.108   2.490   2.814
 5959TIP3   OH217819   2.283   1.187   5.121
 5959TIP3    H117820   2.374   1.198   5.095
 5959TIP3    H217821   2.282   1.210   5.214
 5960TIP3   OH217822   6.325   7.169   5.801
 5960TIP3    H117823   6.398   7.129   5.848
 5960TIP3    H217824   6.289   7.099   5.748
 5961TIP3   OH217825   0.578   5.235   5.164
 5961TIP3    H117826   0.576   5.142   5.185
 5961TIP3    H217827   0.625   5.275   5.238
 5962TIP3   OH217828   6.154   6.296   5.239
 5962TIP3    H117829   6.225   6.333   5.187
 5962TIP3    H217830   6.085   6.276   5.176
 5963TIP3   OH217831   1.794   3.466   6.686
 5963TIP3    H117832   1.714   3.415   6.672
 5963TIP3    H217833   1.797   3.480   6.780
 5964TIP3   OH217834   1.741   7.064   1.930
 5964TIP3    H117835   1.687   7.056   1.852
 5964TIP3    H217836   1.730   6.979   1.975
 5965TIP3   OH217837   6.087   5.682   2.892
 5965TIP3    H117838   6.122   5.744   2.956
 5965TIP3    H217839   6.123   5.597   2.918
 5966TIP3   OH217840   2.568   5.530   5.044
 5966TIP3    H117841   2.486   5.551   5.088
 5966TIP3    H217842   2.584   5.438   5.065
 5967TIP3   OH217843   5.274   1.857   0.606
 5967TIP3    H117844   5.281   1.824   0.517
 5967TIP3    H217845   5.215   1.795   0.650
 5968TIP3   OH217846   7.879   3.077   2.467
 5968TIP3    H117847   7.809   3.069   2.532
 5968TIP3    H217848   7.834   3.093   2.384
 5969TIP3   OH217849   5.002   0.459   5.191
 5969TIP3    H117850   4.967   0.496   5.272
 5969TIP3    H217851   5.089   0.427   5.215
 5970TIP3   OH217852   5.744   5.280   1.523
 5970TIP3    H117853   5.797   5.354   1.555
 5970TIP3    H217854   5.784   5.255   1.441
 5971TIP3   OH217855   3.300   4.783   1.721
 5971TIP3    H117856   3.348   4.712   1.763
 5971TIP3    H217857   3.323   4.776   1.628
 5972TIP3   OH217858   5.559   1.630   3.891
 5972TIP3    H117859   5.636   1.679   3.864
 5972TIP3    H217860   5.486   1.691   3.880
 5973TIP3   OH217861   0.170   0.995   3.313
 5973TIP3    H117862   0.145   1.033   3.397
 5973TIP3    H217863   0.200   1.069   3.260
 5974TIP3   OH217864   0.436   0.686   2.105
 5974TIP3    H117865   0.467   0.774   2.124
 5974TIP3    H217866   0.426   0.644   2.190
 5975TIP3   OH217867   7.114   3.158   1.312
 5975TIP3    H117868   7.079   3.241   1.280
 5975TIP3    H217869   7.209   3.167   1.303
 5976TIP3   OH217870   3.168   4.637   2.655
 5976TIP3    H117871   3.155   4.717   2.604
 5976TIP3    H217872   3.115   4.571   2.610
 5977TIP3   OH217873   7.902   4.768   4.130
 5977TIP3    H117874   7.962   4.811   4.070
 5977TIP3    H217875   7.824   4.825   4.131
 5978TIP3   OH217876   6.600   5.248   3.482
 5978TIP3    H117877   6.626   5.340   3.480
 5978TIP3    H217878   6.669   5.202   3.436
 5979TIP3   OH217879   4.579   1.287   6.035
 5979TIP3    H117880   4.512   1.356   6.036
 5979TIP3    H217881   4.545   1.222   5.974
 5980TIP3   OH217882   3.947   0.173   1.526
 5980TIP3    H117883   3.974   0.258   1.491
 5980TIP3    H217884   3.955   0.113   1.452
 5981TIP3   OH217885   3.385   5.380   2.849
 5981TIP3    H117886   3.326   5.341   2.913
 5981TIP3    H217887   3.349   5.354   2.764
 5982TIP3   OH217888   2.637   4.181   6.481
 5982TIP3    H117889   2.613   4.091   6.504
 5982TIP3    H217890   2.657   4.178   6.388
 5983TIP3   OH217891   0.516   4.210   1.500
 5983TIP3    H117892   0.577   4.268   1.546
 5983TIP3    H217893   0.540   4.219   1.408
 5984TIP3   OH217894   5.110   0.461   1.413
 5984TIP3    H117895   5.203   0.474   1.428
 5984TIP3    H217896   5.085   0.532   1.353
 5985TIP3   OH217897   2.146   5.991   5.615
 5985TIP3    H117898   2.106   6.046   5.683
 5985TIP3    H217899   2.195   5.925   5.664
 5986TIP3   OH217900   3.025   6.057   6.747
 5986TIP3    H117901   2.982   6.080   6.829
 5986TIP3    H217902   2.983   6.112   6.681
 5987TIP3   OH217903   4.527   2.935   0.625
 5987TIP3    H117904   4.470   2.869   0.586
 5987TIP3    H217905   4.495   3.018   0.591
 5988TIP3   OH217906   7.164   3.377   3.296
 5988TIP3    H117907   7.109   3.414   3.226
 5988TIP3    H217908   7.166   3.283   3.278
 5989TIP3   OH217909   6.016   0.240   4.452
 5989TIP3    H117910   5.947   0.177   4.431
 5989TIP3    H217911   6.095   0.187   4.462
 5990TIP3   OH217912   4.492   4.848   4.206
 5990TIP3    H117913   4.550   4.827   4.133
 5990TIP3    H217914   4.551   4.882   4.274
 5991TIP3   OH217915   6.804   7.283   1.607
 5991TIP3    H117916   6.765   7.348   1.665
 5991TIP3    H217917   6.738   7.269   1.540
 5992TIP3   OH217918   0.335   1.534   3.849
 5992TIP3    H117919   0.243   1.508   3.850
 5992TIP3    H217920   0.367   1.514   3.937
 5993TIP3   OH217921   1.744   6.022   5.446
 5993TIP3    H117922   1.819   6.009   5.388
 5993TIP3    H217923   1.737   5.940   5.495
 5994TIP3   OH217924   0.462   5.901   3.892
 5994TIP3    H117925   0.373   5.936   3.883
 5994TIP3    H217926   0.485   5.916   3.983
 5995TIP3   OH217927   2.647   0.641   5.408
 5995TIP3    H117928   2.645   0.587   5.329
 5995TIP3    H217929   2.558   0.635   5.443
 5996TIP3   OH217930   1.643   1.168   6.047
 5996TIP3    H117931   1.578   1.159   6.116
 5996TIP3    H217932   1.629   1.257   6.012
 5997TIP3   OH217933   7.116   4.089   1.629
 5997TIP3    H117934   7.208   4.074   1.605
 5997TIP3    H217935   7.105   4.043   1.712
 5998TIP3   OH217936   4.536   7.499   6.366
 5998TIP3    H117937   4.544   7.527   6.457
 5998TIP3    H217938   4.502   7.575   6.320
 5999TIP3   OH217939   0.141   7.575   1.737
 5999TIP3    H117940   0.147   7.546   1.828
 5999TIP3    H217941   0.108   7.664   1.742
 6000TIP3   OH217942   2.505   0.368   6.549
 6000TIP3    H117943   2.488   0.424   6.473
 6000TIP3    H217944   2.551   0.424   6.611
 6001TIP3   OH217945   5.229   6.077   1.775
 6001TIP3    H117946   5.264   6.121   1.697
 6001TIP3    H217947   5.306   6.040   1.819
 6002TIP3   OH217948   4.633   6.316   1.581
 6002TIP3    H117949   4.643   6.410   1.590
 6002TIP3    H217950   4.708   6.279   1.627
 6003TIP3   OH217951   6.511   6.179   5.387
 6003TIP3    H117952   6.546   6.143   5.469
 6003TIP3    H217953   6.560   6.260   5.373
 6004TIP3   OH217954   6.803   4.813   0.523
 6004TIP3    H117955   6.748   4.768   0.587
 6004TIP3    H217956   6.766   4.901   0.516
 6005TIP3   OH217957   6.883   4.195   0.558
 6005TIP3    H117958   6.788   4.195   0.545
 6005TIP3    H217959   6.918   4.206   0.469
 6006TIP3   OH217960   1.669   0.872   1.911
 6006TIP3    H117961   1.669   0.794   1.856
 6006TIP3    H217962   1.587   0.869   1.959
 6007TIP3   OH217963   2.314   7.805   6.597
 6007TIP3    H117964   2.360   7.723   6.615
 6007TIP3    H217965   2.223   7.786   6.618
 6008TIP3   OH217966   7.362   3.574   5.315
 6008TIP3    H117967   7.369   3.479   5.300
 6008TIP3    H217968   7.321   3.582   5.401
 6009TIP3   OH217969   2.306   7.232   3.384
 6009TIP3    H117970   2.286   7.259   3.473
 6009TIP3    H217971   2.270   7.301   3.329
 6010TIP3   OH217972   8.050   7.114   3.896
 6010TIP3    H117973   8.099   7.189   3.931
 6010TIP3    H217974   8.079   7.108   3.805
 6011TIP3   OH217975   6.954   5.095   5.445
 6011TIP3    H117976   6.860   5.094   5.425
 6011TIP3    H217977   6.961   5.148   5.524
 6012TIP3   OH217978   6.014   2.466   0.451
 6012TIP3    H117979   5.978   2.377   0.454
 6012TIP3    H217980   6.077   2.469   0.522
 6013TIP3   OH217981   1.925   7.786   6.247
 6013TIP3    H117982   1.864   7.718   6.220
 6013TIP3    H217983   1.912   7.857   6.183
 6014TIP3   OH217984   4.169   6.200   0.950
 6014TIP3    H117985   4.088   6.188   0.900
 6014TIP3    H217986   4.236   6.156   0.899
 6015TIP3   OH217987   8.121   6.391   4.673
 6015TIP3    H117988   8.208   6.365   4.703
 6015TIP3    H217989   8.132   6.411   4.581
 6016TIP3   OH217990   5.015   7.178   0.289
 6016TIP3    H117991   5.023   7.083   0.285
 6016TIP3    H217992   5.093   7.211   0.245
 6017TIP3   OH217993   0.535   6.956   2.066
 6017TIP3    H117994   0.624   6.964   2.030
 6017TIP3    H217995   0.501   6.876   2.026
 6018TIP3   OH217996   7.844   0.929   5.125
 6018TIP3    H117997   7.846   0.967   5.037
 6018TIP3    H217998   7.935   0.928   5.153
 6019TIP3   OH217999   1.594   7.794   0.030
 6019TIP3    H118000   1.620   7.865   0.088
 6019TIP3    H218001   1.499   7.806   0.019
 6020TIP3   OH218002   5.530   2.998   4.612
 6020TIP3    H118003   5.524   2.980   4.518
 6020TIP3    H218004   5.608   3.052   4.622
 6021TIP3   OH218005   6.435   4.372   2.439
 6021TIP3    H118006   6.346   4.338   2.444
 6021TIP3    H218007   6.451   4.410   2.525
 6022TIP3   OH218008   0.749   1.603   3.648
 6022TIP3    H118009   0.834   1.642   3.670
 6022TIP3    H218010   0.732   1.632   3.559
 6023TIP3   OH218011   3.842   0.702   2.288
 6023TIP3    H118012   3.796   0.745   2.216
 6023TIP3    H218013   3.935   0.711   2.266
 6024TIP3   OH218014   5.059   3.751   6.247
 6024TIP3    H118015   5.131   3.726   6.189
 6024TIP3    H218016   5.101   3.800   6.318
 6025TIP3   OH218017   7.833   4.576   4.697
 6025TIP3    H118018   7.903   4.580   4.633
 6025TIP3    H218019   7.859   4.505   4.757
 6026TIP3   OH218020   2.711   0.329   6.285
 6026TIP3    H118021   2.797   0.369   6.278
 6026TIP3    H218022   2.652   0.401   6.307
 6027TIP3   OH218023   0.402   7.219   2.538
 6027TIP3    H118024   0.460   7.143   2.540
 6027TIP3    H218025   0.345   7.208   2.614
 6028TIP3   OH218026   5.723   3.964   3.797
 6028TIP3    H118027   5.637   3.994   3.829
 6028TIP3    H218028   5.710   3.871   3.777
 6029TIP3   OH218029   7.987   3.802   3.337
 6029TIP3    H118030   7.943   3.853   3.269
 6029TIP3    H218031   8.032   3.867   3.391
 6030TIP3   OH218032   3.475   7.584   5.682
 6030TIP3    H118033   3.381   7.571   5.687
 6030TIP3    H218034   3.486   7.673   5.649
 6031TIP3   OH218035   0.251   5.066   4.685
 6031TIP3    H118036   0.249   4.974   4.661
 6031TIP3    H218037   0.192   5.109   4.622
 6032TIP3   OH218038   1.920   5.125   5.787
 6032TIP3    H118039   1.876   5.184   5.847
 6032TIP3    H218040   1.880   5.143   5.702
 6033TIP3   OH218041   4.205   2.046   6.519
 6033TIP3    H118042   4.217   2.122   6.462
 6033TIP3    H218043   4.284   1.994   6.507
 6034TIP3   OH218044   3.012   1.287   5.686
 6034TIP3    H118045   2.976   1.244   5.608
 6034TIP3    H218046   3.048   1.216   5.739
 6035TIP3   OH218047   1.475   5.302   3.382
 6035TIP3    H118048   1.466   5.223   3.435
 6035TIP3    H218049   1.425   5.369   3.430
 6036TIP3   OH218050   2.956   2.909   2.715
 6036TIP3    H118051   2.983   2.958   2.637
 6036TIP3    H218052   2.942   2.977   2.781
 6037TIP3   OH218053   3.025   4.234   5.166
 6037TIP3    H118054   2.937   4.269   5.152
 6037TIP3    H218055   3.083   4.310   5.159
 6038TIP3   OH218056   7.077   1.598   6.242
 6038TIP3    H118057   7.127   1.603   6.323
 6038TIP3    H218058   6.987   1.582   6.270
 6039TIP3   OH218059   4.342   0.521   2.980
 6039TIP3    H118060   4.315   0.449   3.038
 6039TIP3    H218061   4.403   0.480   2.919
 6040TIP3   OH218062   4.742   2.870   1.564
 6040TIP3    H118063   4.828   2.858   1.525
 6040TIP3    H218064   4.759   2.873   1.659
 6041TIP3   OH218065   0.399   6.931   4.614
 6041TIP3    H118066   0.351   7.006   4.649
 6041TIP3    H218067   0.402   6.946   4.520
 6042TIP3   OH218068   7.076   5.192   6.640
 6042TIP3    H118069   7.072   5.176   6.734
 6042TIP3    H218070   6.985   5.187   6.611
 6043TIP3   OH218071   1.586   4.329   6.565
 6043TIP3    H118072   1.560   4.278   6.488
 6043TIP3    H218073   1.519   4.308   6.631
 6044TIP3   OH218074   2.531   4.674   4.896
 6044TIP3    H118075   2.531   4.621   4.816
 6044TIP3    H218076   2.458   4.735   4.885
 6045TIP3   OH218077   6.475   4.708   4.609
 6045TIP3    H118078   6.397   4.735   4.658
 6045TIP3    H218079   6.501   4.787   4.561
 6046TIP3   OH218080   2.986   7.175   0.101
 6046TIP3    H118081   2.997   7.211   0.189
 6046TIP3    H218082   2.892   7.160   0.092
 6047TIP3   OH218083   0.909   3.519   1.569
 6047TIP3    H118084   0.980   3.561   1.618
 6047TIP3    H218085   0.834   3.576   1.582
 6048TIP3   OH218086   3.641   0.786   1.586
 6048TIP3    H118087   3.722   0.826   1.552
 6048TIP3    H218088   3.571   0.842   1.553
 6049TIP3   OH218089   4.322   2.445   3.198
 6049TIP3    H118090   4.253   2.480   3.254
 6049TIP3    H218091   4.400   2.494   3.222
 6050TIP3   OH218092   2.919   0.777   4.702
 6050TIP3    H118093   2.884   0.858   4.741
 6050TIP3    H218094   2.983   0.746   4.766
 6051TIP3   OH218095   2.292   4.892   1.576
 6051TIP3    H118096   2.323   4.950   1.646
 6051TIP3    H218097   2.341   4.811   1.590
 6052TIP3   OH218098   7.629   6.681   2.477
 6052TIP3    H118099   7.638   6.709   2.386
 6052TIP3    H218100   7.719   6.669   2.508
 6053TIP3   OH218101   6.428   3.303   2.310
 6053TIP3    H118102   6.511   3.349   2.307
 6053TIP3    H218103   6.427   3.251   2.229
 6054TIP3   OH218104   2.011   2.114  -0.005
 6054TIP3    H118105   2.046   2.026  -0.016
 6054TIP3    H218106   1.929   2.101   0.043
 6055TIP3   OH218107   3.318   1.862   4.966
 6055TIP3    H118108   3.226   1.844   4.985
 6055TIP3    H218109   3.317   1.906   4.881
 6056TIP3   OH218110   2.052   2.917   6.350
 6056TIP3    H118111   2.044   2.975   6.427
 6056TIP3    H218112   2.013   2.967   6.279
 6057TIP3   OH218113   7.964   1.390   6.595
 6057TIP3    H118114   8.050   1.406   6.556
 6057TIP3    H218115   7.983   1.351   6.680
 6058TIP3   OH218116   3.868   5.990   2.476
 6058TIP3    H118117   3.910   5.941   2.546
 6058TIP3    H218118   3.775   5.973   2.487
 6059TIP3   OH218119   1.415   4.139   4.991
 6059TIP3    H118120   1.486   4.204   4.991
 6059TIP3    H218121   1.339   4.186   5.024
 6060TIP3   OH218122   2.728   3.078   3.167
 6060TIP3    H118123   2.705   3.158   3.120
 6060TIP3    H218124   2.679   3.083   3.249
 6061TIP3   OH218125   0.611   5.476   4.308
 6061TIP3    H118126   0.517   5.490   4.297
 6061TIP3    H218127   0.627   5.497   4.400
 6062TIP3   OH218128   0.796   4.222   0.322
 6062TIP3    H118129   0.880   4.267   0.323
 6062TIP3    H218130   0.817   4.129   0.313
 6063TIP3   OH218131   6.461   6.662   2.644
 6063TIP3    H118132   6.377   6.706   2.652
 6063TIP3    H218133   6.522   6.731   2.617
 6064TIP3   OH218134   7.843   2.076   3.298
 6064TIP3    H118135   7.770   2.139   3.301
 6064TIP3    H218136   7.820   2.011   3.364
 6065TIP3   OH218137   7.821   1.332   4.780
 6065TIP3    H118138   7.859   1.401   4.833
 6065TIP3    H218139   7.727   1.334   4.800
 6066TIP3   OH218140   2.799   6.579   6.526
 6066TIP3    H118141   2.754   6.577   6.610
 6066TIP3    H218142   2.764   6.655   6.480
 6067TIP3   OH218143   6.917   0.107   3.778
 6067TIP3    H118144   6.993   0.154   3.812
 6067TIP3    H218145   6.901   0.146   3.692
 6068TIP3   OH218146   6.792   7.056   1.781
 6068TIP3    H118147   6.812   7.134   1.729
 6068TIP3    H218148   6.770   7.091   1.868
 6069TIP3   OH218149   7.183   6.070   6.338
 6069TIP3    H118150   7.100   6.115   6.355
 6069TIP3    H218151   7.186   6.061   6.243
 6070TIP3   OH218152   7.181   3.495   5.752
 6070TIP3    H118153   7.200   3.566   5.690
 6070TIP3    H218154   7.088   3.477   5.738
 6071TIP3   OH218155   5.176   3.099   6.358
 6071TIP3    H118156   5.126   3.096   6.277
 6071TIP3    H218157   5.136   3.171   6.408
 6072TIP3   OH218158   4.574   0.296   5.740
 6072TIP3    H118159   4.585   0.230   5.672
 6072TIP3    H218160   4.642   0.277   5.804
 6073TIP3   OH218161   7.880   6.054   2.839
 6073TIP3    H118162   7.883   6.131   2.782
 6073TIP3    H218163   7.959   6.060   2.892
 6074TIP3   OH218164   6.947   4.150   5.521
 6074TIP3    H118165   6.891   4.176   5.594
 6074TIP3    H218166   7.036   4.154   5.557
 6075TIP3   OH218167   5.079   1.137   4.276
 6075TIP3    H118168   5.053   1.163   4.187
 6075TIP3    H218169   5.060   1.043   4.279
 6076TIP3   OH218170   7.007   0.655   5.457
 6076TIP3    H118171   7.059   0.577   5.437
 6076TIP3    H218172   6.924   0.640   5.412
 6077TIP3   OH218173   2.074   0.732   0.717
 6077TIP3    H118174   1.981   0.721   0.700
 6077TIP3    H218175   2.087   0.827   0.716
 6078TIP3   OH218176   5.595   1.924   1.412
 6078TIP3    H118177   5.592   1.858   1.481
 6078TIP3    H218178   5.609   1.875   1.331
 6079TIP3   OH218179   2.513   7.600   0.334
 6079TIP3    H118180   2.580   7.665   0.312
 6079TIP3    H218181   2.527   7.582   0.428
 6080TIP3   OH218182   3.496   3.784   3.830
 6080TIP3    H118183   3.438   3.824   3.765
 6080TIP3    H218184   3.522   3.701   3.790
 6081TIP3   OH218185   7.082   6.629   4.773
 6081TIP3    H118186   6.988   6.645   4.762
 6081TIP3    H218187   7.093   6.535   4.760
 6082TIP3   OH218188   6.071   2.331   4.744
 6082TIP3    H118189   6.057   2.425   4.754
 6082TIP3    H218190   6.145   2.312   4.801
 6083TIP3   OH218191   0.525   1.039   4.654
 6083TIP3    H118192   0.463   1.014   4.723
 6083TIP3    H218193   0.538   0.959   4.603
 6084TIP3   OH218194   5.834   0.159   5.786
 6084TIP3    H118195   5.862   0.080   5.739
 6084TIP3    H218196   5.796   0.215   5.718
 6085TIP3   OH218197   5.083   7.534   3.221
 6085TIP3    H118198   5.127   7.619   3.231
 6085TIP3    H218199   5.054   7.512   3.310
 6086TIP3   OH218200   0.168   6.103   6.276
 6086TIP3    H118201   0.141   6.135   6.362
 6086TIP3    H218202   0.156   6.177   6.218
 6087TIP3   OH218203   3.814   5.766   4.501
 6087TIP3    H118204   3.752   5.771   4.573
 6087TIP3    H218205   3.893   5.727   4.539
 6088TIP3   OH218206   3.111   6.343   1.684
 6088TIP3    H118207   3.045   6.346   1.752
 6088TIP3    H218208   3.105   6.428   1.640
 6089TIP3   OH218209   2.507   5.011   3.999
 6089TIP3    H118210   2.459   4.961   3.933
 6089TIP3    H218211   2.599   5.004   3.972
 6090TIP3   OH218212   4.512   6.485   0.710
 6090TIP3    H118213   4.472   6.433   0.640
 6090TIP3    H218214   4.437   6.527   0.754
 6091TIP3   OH218215   1.636   0.618   5.615
 6091TIP3    H118216   1.662   0.707   5.590
 6091TIP3    H218217   1.714   0.565   5.604
 6092TIP3   OH218218   3.312   0.665   6.540
 6092TIP3    H118219   3.354   0.738   6.496
 6092TIP3    H218220   3.373   0.640   6.609
 6093TIP3   OH218221   4.472   5.160   2.372
 6093TIP3    H118222   4.473   5.069   2.343
 6093TIP3    H218223   4.523   5.206   2.305
 6094TIP3   OH218224   5.296   1.379   4.298
 6094TIP3    H118225   5.213   1.370   4.346
 6094TIP3    H218226   5.297   1.305   4.238
 6095TIP3   OH218227   7.783   6.017   6.694
 6095TIP3    H118228   7.715   6.078   6.668
 6095TIP3    H218229   7.736   5.938   6.722
 6096TIP3   OH218230   7.617   2.115   6.222
 6096TIP3    H118231   7.590   2.028   6.253
 6096TIP3    H218232   7.537   2.154   6.188
 6097TIP3   OH218233   5.013   7.232   6.349
 6097TIP3    H118234   4.960   7.282   6.411
 6097TIP3    H218235   5.066   7.298   6.305
 6098TIP3   OH218236   6.911   2.317   0.090
 6098TIP3    H118237   6.989   2.262   0.091
 6098TIP3    H218238   6.843   2.262   0.051
 6099TIP3   OH218239   5.058   1.445   4.413
 6099TIP3    H118240   4.984   1.491   4.373
 6099TIP3    H218241   5.044   1.455   4.507
 6100TIP3   OH218242   6.803   3.461   0.045
 6100TIP3    H118243   6.893   3.454   0.076
 6100TIP3    H218244   6.753   3.482   0.124
 6101TIP3   OH218245   1.018   4.630   3.635
 6101TIP3    H118246   1.098   4.610   3.684
 6101TIP3    H218247   0.990   4.546   3.599
 6102TIP3   OH218248   6.400   3.437   5.926
 6102TIP3    H118249   6.474   3.385   5.894
 6102TIP3    H218250   6.385   3.502   5.857
 6103TIP3   OH218251   2.793   4.011   1.671
 6103TIP3    H118252   2.871   3.958   1.659
 6103TIP3    H218253   2.825   4.101   1.677
 6104TIP3   OH218254   5.850   7.406   2.622
 6104TIP3    H118255   5.788   7.404   2.550
 6104TIP3    H218256   5.842   7.494   2.659
 6105TIP3   OH218257   4.878   6.692   1.406
 6105TIP3    H118258   4.948   6.709   1.469
 6105TIP3    H218259   4.894   6.602   1.377
 6106TIP3   OH218260   0.962   6.688   5.736
 6106TIP3    H118261   0.986   6.615   5.792
 6106TIP3    H218262   0.992   6.766   5.783
 6107TIP3   OH218263   0.392   0.717   1.417
 6107TIP3    H118264   0.475   0.764   1.409
 6107TIP3    H218265   0.363   0.704   1.327
 6108TIP3   OH218266   6.358   2.358   3.964
 6108TIP3    H118267   6.413   2.436   3.960
 6108TIP3    H218268   6.315   2.363   4.049
 6109TIP3   OH218269   1.753   3.768   4.633
 6109TIP3    H118270   1.712   3.692   4.673
 6109TIP3    H218271   1.688   3.801   4.571
 6110TIP3   OH218272   3.979   1.359   1.929
 6110TIP3    H118273   4.046   1.365   1.998
 6110TIP3    H218274   4.001   1.431   1.869
 6111TIP3   OH218275   5.394   6.867   5.250
 6111TIP3    H118276   5.342   6.889   5.173
 6111TIP3    H218277   5.469   6.818   5.216
 6112TIP3   OH218278   1.305   6.001   4.284
 6112TIP3    H118279   1.401   6.010   4.284
 6112TIP3    H218280   1.273   6.083   4.320
 6113TIP3   OH218281   6.432   1.135   0.879
 6113TIP3    H118282   6.433   1.061   0.941
 6113TIP3    H218283   6.341   1.139   0.849
 6114TIP3   OH218284   2.571   4.200   4.115
 6114TIP3    H118285   2.565   4.249   4.033
 6114TIP3    H218286   2.560   4.266   4.183
 6115TIP3   OH218287   4.200   0.413   4.790
 6115TIP3    H118288   4.262   0.366   4.846
 6115TIP3    H218289   4.122   0.358   4.788
 6116TIP3   OH218290   0.222   3.999   3.668
 6116TIP3    H118291   0.186   4.075   3.622
 6116TIP3    H218292   0.208   3.926   3.608
 6117TIP3   OH218293   1.267   7.038   3.074
 6117TIP3    H118294   1.342   7.092   3.050
 6117TIP3    H218295   1.194   7.074   3.023
 6118TIP3   OH218296   0.326   3.242   1.991
 6118TIP3    H118297   0.231   3.240   1.977
 6118TIP3    H218298   0.338   3.214   2.082
 6119TIP3   OH218299   2.722   7.103   3.476
 6119TIP3    H118300   2.635   7.123   3.512
 6119TIP3    H218301   2.755   7.032   3.532
 6120TIP3   OH218302   7.041   0.263   4.296
 6120TIP3    H118303   7.026   0.354   4.271
 6120TIP3    H218304   7.024   0.213   4.216
 6121TIP3   OH218305   2.335   7.503   1.049
 6121TIP3    H118306   2.320   7.513   1.143
 6121TIP3    H218307   2.276   7.567   1.009
 6122TIP3   OH218308   7.049   1.388   3.464
 6122TIP3    H118309   7.080   1.429   3.384
 6122TIP3    H218310   7.015   1.460   3.517
 6123TIP3   OH218311   2.471   5.388   6.540
 6123TIP3    H118312   2.544   5.447   6.557
 6123TIP3    H218313   2.407   5.409   6.608
 6124TIP3   OH218314   2.754   3.456   3.279
 6124TIP3    H118315   2.795   3.532   3.319
 6124TIP3    H218316   2.675   3.489   3.238
 6125TIP3   OH218317   5.431   1.296   0.887
 6125TIP3    H118318   5.374   1.220   0.898
 6125TIP3    H218319   5.479   1.279   0.806
 6126TIP3   OH218320   1.458   3.371   1.250
 6126TIP3    H118321   1.436   3.317   1.174
 6126TIP3    H218322   1.376   3.384   1.296
 6127TIP3   OH218323   2.873   4.312   0.494
 6127TIP3    H118324   2.903   4.349   0.411
 6127TIP3    H218325   2.812   4.378   0.528
 6128TIP3   OH218326   4.593   5.489   6.305
 6128TIP3    H118327   4.588   5.563   6.245
 6128TIP3    H218328   4.630   5.418   6.253
 6129TIP3   OH218329   5.814   1.018   3.831
 6129TIP3    H118330   5.845   0.975   3.751
 6129TIP3    H218331   5.730   1.057   3.807
 6130TIP3   OH218332   5.314   7.822   0.241
 6130TIP3    H118333   5.328   7.728   0.249
 6130TIP3    H218334   5.303   7.836   0.147
 6131TIP3   OH218335   4.722   6.285   4.627
 6131TIP3    H118336   4.756   6.368   4.595
 6131TIP3    H218337   4.769   6.270   4.710
 6132TIP3   OH218338   2.111   3.960   1.741
 6132TIP3    H118339   2.199   3.990   1.720
 6132TIP3    H218340   2.056   3.994   1.670
 6133TIP3   OH218341   8.014   6.972   2.939
 6133TIP3    H118342   7.928   7.004   2.968
 6133TIP3    H218343   8.076   7.011   3.001
 6134TIP3   OH218344   7.151   5.904   0.500
 6134TIP3    H118345   7.084   5.838   0.514
 6134TIP3    H218346   7.116   5.959   0.430
 6135TIP3   OH218347   4.997   2.691   5.617
 6135TIP3    H118348   5.043   2.734   5.689
 6135TIP3    H218349   5.048   2.712   5.540
 6136TIP3   OH218350   0.913   5.601   1.134
 6136TIP3    H118351   0.974   5.527   1.131
 6136TIP3    H218352   0.826   5.561   1.129
 6137TIP3   OH218353   2.123   7.422   2.465
 6137TIP3    H118354   2.054   7.421   2.531
 6137TIP3    H218355   2.129   7.515   2.439
 6138TIP3   OH218356   2.126   4.448   1.593
 6138TIP3    H118357   2.127   4.543   1.601
 6138TIP3    H218358   2.059   4.431   1.526
 6139TIP3   OH218359   0.785   5.822   4.877
 6139TIP3    H118360   0.722   5.771   4.928
 6139TIP3    H218361   0.838   5.757   4.832
 6140TIP3   OH218362   5.529   6.331   3.934
 6140TIP3    H118363   5.542   6.342   3.840
 6140TIP3    H218364   5.612   6.361   3.973
 6141TIP3   OH218365   4.028   4.861   1.826
 6141TIP3    H118366   4.097   4.919   1.792
 6141TIP3    H218367   3.949   4.887   1.779
 6142TIP3   OH218368   3.415   4.802   4.309
 6142TIP3    H118369   3.459   4.873   4.262
 6142TIP3    H218370   3.421   4.727   4.250
 6143TIP3   OH218371   5.499   2.745   6.566
 6143TIP3    H118372   5.460   2.674   6.618
 6143TIP3    H218373   5.582   2.763   6.609
 6144TIP3   OH218374   4.579   6.867   5.161
 6144TIP3    H118375   4.652   6.922   5.189
 6144TIP3    H218376   4.502   6.923   5.169
 6145TIP3   OH218377   0.410   3.658   4.536
 6145TIP3    H118378   0.467   3.591   4.575
 6145TIP3    H218379   0.346   3.677   4.604
 6146TIP3   OH218380   6.762   5.483   2.630
 6146TIP3    H118381   6.670   5.460   2.639
 6146TIP3    H218382   6.762   5.574   2.603
 6147TIP3   OH218383   2.470   3.251   2.228
 6147TIP3    H118384   2.427   3.171   2.197
 6147TIP3    H218385   2.518   3.224   2.306
 6148TIP3   OH218386   5.063   7.829   6.607
 6148TIP3    H118387   4.994   7.765   6.588
 6148TIP3    H218388   5.110   7.792   6.682
 6149TIP3   OH218389   5.807   2.732   1.226
 6149TIP3    H118390   5.795   2.786   1.148
 6149TIP3    H218391   5.805   2.794   1.298
 6150TIP3   OH218392   3.000   4.746   1.749
 6150TIP3    H118393   2.985   4.655   1.723
 6150TIP3    H218394   3.095   4.757   1.745
 6151TIP3   OH218395   2.985   6.662   0.617
 6151TIP3    H118396   2.975   6.757   0.621
 6151TIP3    H218397   3.030   6.645   0.535
 6152TIP3   OH218398   6.435   0.039   6.122
 6152TIP3    H118399   6.415   0.012   6.032
 6152TIP3    H218400   6.387  -0.023   6.176
 6153TIP3   OH218401   5.045   4.995   3.772
 6153TIP3    H118402   5.065   5.040   3.690
 6153TIP3    H218403   4.955   5.020   3.792
 6154TIP3   OH218404   7.858   2.192   4.755
 6154TIP3    H118405   7.914   2.199   4.832
 6154TIP3    H218406   7.845   2.098   4.743
 6155TIP3   OH218407   2.211   2.490   6.149
 6155TIP3    H118408   2.242   2.445   6.227
 6155TIP3    H218409   2.204   2.582   6.175
 6156TIP3   OH218410   6.787   4.316   5.684
 6156TIP3    H118411   6.813   4.402   5.652
 6156TIP3    H218412   6.795   4.323   5.779
 6157TIP3   OH218413   1.578   2.616   6.322
 6157TIP3    H118414   1.507   2.578   6.375
 6157TIP3    H218415   1.542   2.620   6.233
 6158TIP3   OH218416   3.882   1.485   3.991
 6158TIP3    H118417   3.894   1.543   4.066
 6158TIP3    H218418   3.813   1.425   4.019
 6159TIP3   OH218419   7.374   0.747   3.331
 6159TIP3    H118420   7.423   0.731   3.251
 6159TIP3    H218421   7.384   0.666   3.381
 6160TIP3   OH218422   0.361   1.654   5.460
 6160TIP3    H118423   0.387   1.568   5.425
 6160TIP3    H218424   0.344   1.638   5.553
 6161TIP3   OH218425   0.317   0.727   1.157
 6161TIP3    H118426   0.261   0.805   1.147
 6161TIP3    H218427   0.301   0.676   1.078
 6162TIP3   OH218428   7.381   6.421   3.669
 6162TIP3    H118429   7.456   6.480   3.676
 6162TIP3    H218430   7.373   6.403   3.575
 6163TIP3   OH218431   8.024   2.727   3.133
 6163TIP3    H118432   8.091   2.762   3.192
 6163TIP3    H218433   7.942   2.737   3.181
 6164TIP3   OH218434   0.387   0.258   4.105
 6164TIP3    H118435   0.398   0.294   4.017
 6164TIP3    H218436   0.382   0.335   4.162
 6165TIP3   OH218437   4.555   3.309   4.313
 6165TIP3    H118438   4.532   3.229   4.361
 6165TIP3    H218439   4.625   3.349   4.365
 6166TIP3   OH218440   7.997   0.493   0.804
 6166TIP3    H118441   8.014   0.487   0.710
 6166TIP3    H218442   7.957   0.409   0.826
 6167TIP3   OH218443   3.326   0.146   6.275
 6167TIP3    H118444   3.416   0.117   6.268
 6167TIP3    H218445   3.278   0.093   6.210
 6168TIP3   OH218446   0.946   2.201   5.871
 6168TIP3    H118447   0.863   2.241   5.844
 6168TIP3    H218448   0.985   2.170   5.790
 6169TIP3   OH218449   5.690   2.593   2.004
 6169TIP3    H118450   5.738   2.511   1.996
 6169TIP3    H218451   5.758   2.661   2.001
 6170TIP3   OH218452   2.195   0.505   4.057
 6170TIP3    H118453   2.182   0.577   4.118
 6170TIP3    H218454   2.259   0.448   4.100
 6171TIP3   OH218455   0.248   3.658   6.308
 6171TIP3    H118456   0.173   3.676   6.365
 6171TIP3    H218457   0.215   3.669   6.219
 6172TIP3   OH218458   3.927   2.498   1.996
 6172TIP3    H118459   3.934   2.511   2.090
 6172TIP3    H218460   3.939   2.404   1.983
 6173TIP3   OH218461   6.243   1.509   5.024
 6173TIP3    H118462   6.270   1.553   5.105
 6173TIP3    H218463   6.318   1.455   5.000
 6174TIP3   OH218464   6.058   0.513   4.231
 6174TIP3    H118465   6.093   0.434   4.271
 6174TIP3    H218466   6.054   0.577   4.303
 6175TIP3   OH218467   4.036   2.210   6.665
 6175TIP3    H118468   4.032   2.214   6.760
 6175TIP3    H218469   4.096   2.138   6.646
 6176TIP3   OH218470   4.193   3.859   4.603
 6176TIP3    H118471   4.282   3.847   4.569
 6176TIP3    H218472   4.205   3.862   4.698
 6177TIP3   OH218473   5.789   6.287   0.173
 6177TIP3    H118474   5.744   6.270   0.090
 6177TIP3    H218475   5.880   6.305   0.149
 6178TIP3   OH218476   1.182   1.854   4.144
 6178TIP3    H118477   1.181   1.787   4.076
 6178TIP3    H218478   1.226   1.929   4.103
 6179TIP3   OH218479   1.553   7.446   6.271
 6179TIP3    H118480   1.472   7.463   6.319
 6179TIP3    H218481   1.550   7.353   6.249
 6180TIP3   OH218482   4.611   2.137   3.097
 6180TIP3    H118483   4.682   2.089   3.140
 6180TIP3    H218484   4.575   2.074   3.035
 6181TIP3   OH218485   4.656   3.934   6.337
 6181TIP3    H118486   4.660   3.995   6.264
 6181TIP3    H218487   4.614   3.983   6.407
 6182TIP3   OH218488   6.720   2.595   3.058
 6182TIP3    H118489   6.770   2.677   3.063
 6182TIP3    H218490   6.676   2.599   2.973
 6183TIP3   OH218491   3.369   2.110   1.467
 6183TIP3    H118492   3.341   2.192   1.509
 6183TIP3    H218493   3.305   2.045   1.497
 6184TIP3   OH218494   0.410   0.243   2.330
 6184TIP3    H118495   0.387   0.194   2.251
 6184TIP3    H218496   0.505   0.238   2.335
 6185TIP3   OH218497   6.933   3.066   2.445
 6185TIP3    H118498   7.008   3.125   2.438
 6185TIP3    H218499   6.858   3.120   2.418
 6186TIP3   OH218500   2.485   5.502   2.212
 6186TIP3    H118501   2.567   5.487   2.261
 6186TIP3    H218502   2.508   5.568   2.148
 6187TIP3   OH218503   5.428   1.122   4.558
 6187TIP3    H118504   5.403   1.155   4.644
 6187TIP3    H218505   5.508   1.169   4.535
 6188TIP3   OH218506   3.210   4.648   6.265
 6188TIP3    H118507   3.251   4.636   6.351
 6188TIP3    H218508   3.274   4.699   6.215
 6189TIP3   OH218509   4.000   3.504   6.229
 6189TIP3    H118510   4.069   3.569   6.242
 6189TIP3    H218511   4.000   3.452   6.309
 6190TIP3   OH218512   7.145   2.474   3.219
 6190TIP3    H118513   7.064   2.463   3.169
 6190TIP3    H218514   7.121   2.534   3.290
 6191TIP3   OH218515   6.960   2.579   6.528
 6191TIP3    H118516   6.950   2.672   6.551
 6191TIP3    H218517   7.055   2.566   6.527
 6192TIP3   OH218518   0.490   1.395   3.653
 6192TIP3    H118519   0.566   1.439   3.690
 6192TIP3    H218520   0.418   1.416   3.713
 6193TIP3   OH218521   0.478   5.950   3.123
 6193TIP3    H118522   0.438   5.985   3.043
 6193TIP3    H218523   0.405   5.936   3.182
 6194TIP3   OH218524   7.601   6.012   1.293
 6194TIP3    H118525   7.686   5.978   1.323
 6194TIP3    H218526   7.562   5.938   1.246
 6195TIP3   OH218527   1.279   4.407   6.250
 6195TIP3    H118528   1.262   4.343   6.181
 6195TIP3    H218529   1.351   4.460   6.216
 6196TIP3   OH218530   4.826   7.676   6.222
 6196TIP3    H118531   4.735   7.700   6.237
 6196TIP3    H218532   4.821   7.595   6.171
 6197TIP3   OH218533   1.705   6.720   5.524
 6197TIP3    H118534   1.659   6.803   5.510
 6197TIP3    H218535   1.635   6.657   5.544
 6198TIP3   OH218536   5.959   3.314   3.882
 6198TIP3    H118537   5.957   3.409   3.894
 6198TIP3    H218538   5.981   3.302   3.790
 6199TIP3   OH218539   2.671   2.395   6.073
 6199TIP3    H118540   2.698   2.460   6.138
 6199TIP3    H218541   2.753   2.356   6.043
 6200TIP3   OH218542   1.996   4.388   1.365
 6200TIP3    H118543   1.933   4.349   1.304
 6200TIP3    H218544   2.075   4.401   1.312
 6201TIP3   OH218545   5.634   0.544   4.725
 6201TIP3    H118546   5.613   0.456   4.692
 6201TIP3    H218547   5.703   0.529   4.789
 6202TIP3   OH218548   2.210   6.267   1.465
 6202TIP3    H118549   2.185   6.191   1.517
 6202TIP3    H218550   2.302   6.284   1.489
 6203TIP3   OH218551   4.426   5.437   3.866
 6203TIP3    H118552   4.399   5.525   3.894
 6203TIP3    H218553   4.395   5.430   3.776
 6204TIP3   OH218554   0.092   7.683   5.277
 6204TIP3    H118555   0.070   7.592   5.293
 6204TIP3    H218556   0.186   7.688   5.289
 6205TIP3   OH218557   2.220   5.193   0.070
 6205TIP3    H118558   2.287   5.221   0.133
 6205TIP3    H218559   2.245   5.103   0.047
 6206TIP3   OH218560   6.759   1.646   1.688
 6206TIP3    H118561   6.690   1.583   1.669
 6206TIP3    H218562   6.747   1.714   1.621
 6207TIP3   OH218563   2.456   0.426   2.992
 6207TIP3    H118564   2.497   0.511   2.976
 6207TIP3    H218565   2.446   0.387   2.905
 6208TIP3   OH218566   6.406   6.009   4.232
 6208TIP3    H118567   6.469   5.948   4.193
 6208TIP3    H218568   6.456   6.057   4.298
 6209TIP3   OH218569   6.592   2.732   4.711
 6209TIP3    H118570   6.520   2.682   4.672
 6209TIP3    H218571   6.665   2.720   4.650
 6210TIP3   OH218572   0.869   0.541   4.408
 6210TIP3    H118573   0.865   0.516   4.316
 6210TIP3    H218574   0.811   0.616   4.415
 6211TIP3   OH218575   5.073   5.892   3.298
 6211TIP3    H118576   5.086   5.798   3.310
 6211TIP3    H218577   5.148   5.920   3.246
 6212TIP3   OH218578   7.315   3.267   0.499
 6212TIP3    H118579   7.233   3.282   0.452
 6212TIP3    H218580   7.289   3.252   0.589
 6213TIP3   OH218581   3.824   1.183   0.772
 6213TIP3    H118582   3.875   1.198   0.692
 6213TIP3    H218583   3.776   1.102   0.754
 6214TIP3   OH218584   6.605   2.523   4.468
 6214TIP3    H118585   6.512   2.542   4.478
 6214TIP3    H218586   6.610   2.478   4.383
 6215TIP3   OH218587   5.919   2.589   5.725
 6215TIP3    H118588   5.864   2.531   5.777
 6215TIP3    H218589   5.864   2.614   5.650
 6216TIP3   OH218590   4.753   7.086   4.271
 6216TIP3    H118591   4.753   7.060   4.363
 6216TIP3    H218592   4.800   7.169   4.270
 6217TIP3   OH218593   6.600   0.889   1.984
 6217TIP3    H118594   6.524   0.890   2.043
 6217TIP3    H218595   6.568   0.847   1.904
 6218TIP3   OH218596   5.652   6.505   1.400
 6218TIP3    H118597   5.700   6.497   1.483
 6218TIP3    H218598   5.661   6.597   1.375
 6219TIP3   OH218599   8.167   3.015   0.824
 6219TIP3    H118600   8.135   3.043   0.910
 6219TIP3    H218601   8.234   3.081   0.801
 6220TIP3   OH218602   5.203   4.479   1.194
 6220TIP3    H118603   5.230   4.392   1.166
 6220TIP3    H218604   5.176   4.468   1.285
 6221TIP3   OH218605   8.066   4.981   1.313
 6221TIP3    H118606   7.976   5.004   1.290
 6221TIP3    H218607   8.106   4.957   1.229
 6222TIP3   OH218608   5.851   7.669   3.993
 6222TIP3    H118609   5.861   7.651   4.086
 6222TIP3    H218610   5.825   7.586   3.954
 6223TIP3   OH218611   5.023   2.501   2.246
 6223TIP3    H118612   5.008   2.470   2.335
 6223TIP3    H218613   5.117   2.517   2.242
 6224TIP3   OH218614   3.651   7.228   0.385
 6224TIP3    H118615   3.673   7.162   0.320
 6224TIP3    H218616   3.557   7.219   0.399
 6225TIP3   OH218617   0.883   3.850   5.272
 6225TIP3    H118618   0.903   3.758   5.288
 6225TIP3    H218619   0.798   3.864   5.314
 6226TIP3   OH218620   1.525   2.332   0.561
 6226TIP3    H118621   1.581   2.305   0.634
 6226TIP3    H218622   1.436   2.318   0.593
 6227TIP3   OH218623   4.973   1.160   2.732
 6227TIP3    H118624   4.886   1.198   2.725
 6227TIP3    H218625   4.983   1.107   2.653
 6228TIP3   OH218626   7.328   0.621   0.233
 6228TIP3    H118627   7.381   0.670   0.170
 6228TIP3    H218628   7.386   0.553   0.266
 6229TIP3   OH218629   4.650   3.519   2.680
 6229TIP3    H118630   4.713   3.449   2.699
 6229TIP3    H218631   4.704   3.597   2.667
 6230TIP3   OH218632   3.113   5.099   0.525
 6230TIP3    H118633   3.028   5.110   0.567
 6230TIP3    H218634   3.156   5.031   0.577
 6231TIP3   OH218635   0.968   4.144   2.001
 6231TIP3    H118636   0.985   4.229   1.961
 6231TIP3    H218637   0.874   4.131   1.992
 6232TIP3   OH218638   6.635   1.372   5.582
 6232TIP3    H118639   6.729   1.376   5.597
 6232TIP3    H218640   6.607   1.293   5.628
 6233TIP3   OH218641   7.412   6.118   5.911
 6233TIP3    H118642   7.454   6.204   5.921
 6233TIP3    H218643   7.477   6.065   5.866
 6234TIP3   OH218644   6.216   7.579   2.846
 6234TIP3    H118645   6.231   7.505   2.787
 6234TIP3    H218646   6.126   7.565   2.878
 6235TIP3   OH218647   6.521   0.262   0.681
 6235TIP3    H118648   6.590   0.201   0.705
 6235TIP3    H218649   6.534   0.278   0.587
 6236TIP3   OH218650   0.701   0.539   3.858
 6236TIP3    H118651   0.641   0.563   3.788
 6236TIP3    H218652   0.722   0.447   3.841
 6237TIP3   OH218653   7.664   3.119   0.813
 6237TIP3    H118654   7.607   3.078   0.748
 6237TIP3    H218655   7.648   3.069   0.893
 6238TIP3   OH218656   5.044   1.204   5.647
 6238TIP3    H118657   5.082   1.163   5.725
 6238TIP3    H218658   5.119   1.232   5.595
 6239TIP3   OH218659   2.495   6.428   1.302
 6239TIP3    H118660   2.462   6.475   1.378
 6239TIP3    H218661   2.536   6.496   1.248
 6240TIP3   OH218662   7.040   0.722   6.276
 6240TIP3    H118663   7.114   0.692   6.224
 6240TIP3    H218664   6.983   0.767   6.213
 6241TIP3   OH218665   2.609   0.449   5.782
 6241TIP3    H118666   2.684   0.508   5.786
 6241TIP3    H218667   2.626   0.394   5.705
 6242TIP3   OH218668   1.306   5.315   6.178
 6242TIP3    H118669   1.325   5.362   6.096
 6242TIP3    H218670   1.360   5.359   6.243
 6243TIP3   OH218671   5.410   3.607   0.519
 6243TIP3    H118672   5.417   3.538   0.453
 6243TIP3    H218673   5.478   3.586   0.583
 6244TIP3   OH218674   4.736   3.760   5.350
 6244TIP3    H118675   4.780   3.789   5.270
 6244TIP3    H218676   4.698   3.675   5.327
 6245TIP3   OH218677   5.575   2.760   2.454
 6245TIP3    H118678   5.519   2.817   2.505
 6245TIP3    H218679   5.566   2.674   2.495
 6246TIP3   OH218680   2.330   0.311   4.215
 6246TIP3    H118681   2.345   0.221   4.242
 6246TIP3    H218682   2.287   0.352   4.290
 6247TIP3   OH218683   5.077   6.654   3.054
 6247TIP3    H118684   4.986   6.682   3.064
 6247TIP3    H218685   5.077   6.600   2.976
 6248TIP3   OH218686   6.630   6.902   0.976
 6248TIP3    H118687   6.537   6.878   0.978
 6248TIP3    H218688   6.660   6.872   0.890
 6249TIP3   OH218689   6.812   0.426   0.581
 6249TIP3    H118690   6.874   0.354   0.588
 6249TIP3    H218691   6.750   0.398   0.514
 6250TIP3   OH218692   8.200   3.002   6.449
 6250TIP3    H118693   8.254   3.066   6.496
 6250TIP3    H218694   8.228   2.917   6.483
 6251TIP3   OH218695   2.133   7.515   5.548
 6251TIP3    H118696   2.135   7.428   5.587
 6251TIP3    H218697   2.195   7.566   5.601
 6252TIP3   OH218698   4.568   3.063   2.640
 6252TIP3    H118699   4.527   3.144   2.672
 6252TIP3    H218700   4.495   3.010   2.608
 6253TIP3   OH218701   0.730   6.803   0.492
 6253TIP3    H118702   0.683   6.814   0.574
 6253TIP3    H218703   0.774   6.718   0.500
 6254TIP3   OH218704   0.141   2.640   2.510
 6254TIP3    H118705   0.188   2.701   2.454
 6254TIP3    H218706   0.055   2.680   2.521
 6255TIP3   OH218707   1.183   1.724   1.235
 6255TIP3    H118708   1.137   1.661   1.179
 6255TIP3    H218709   1.232   1.669   1.296
 6256TIP3   OH218710   5.170   7.259   0.083
 6256TIP3    H118711   5.265   7.270   0.076
 6256TIP3    H218712   5.156   7.165   0.076
 6257TIP3   OH218713   2.923   3.385   3.015
 6257TIP3    H118714   2.916   3.471   3.055
 6257TIP3    H218715   2.971   3.400   2.934
 6258TIP3   OH218716   2.374   4.966   3.777
 6258TIP3    H118717   2.389   4.937   3.687
 6258TIP3    H218718   2.330   4.893   3.819
 6259TIP3   OH218719   4.545   6.880   2.157
 6259TIP3    H118720   4.544   6.921   2.243
 6259TIP3    H218721   4.456   6.888   2.124
 6260TIP3   OH218722   6.125   2.021   4.249
 6260TIP3    H118723   6.054   2.013   4.314
 6260TIP3    H218724   6.205   2.004   4.299
 6261TIP3   OH218725   5.733   5.570   0.563
 6261TIP3    H118726   5.760   5.659   0.585
 6261TIP3    H218727   5.667   5.548   0.630
 6262TIP3   OH218728   0.037   6.377   2.007
 6262TIP3    H118729   0.077   6.385   1.920
 6262TIP3    H218730  -0.022   6.302   1.999
 6263TIP3   OH218731   2.524   0.036   2.650
 6263TIP3    H118732   2.594  -0.005   2.600
 6263TIP3    H218733   2.567   0.071   2.728
 6264TIP3   OH218734   1.748   6.805   2.064
 6264TIP3    H118735   1.817   6.782   2.127
 6264TIP3    H218736   1.741   6.729   2.007
 6265TIP3   OH218737   2.475   4.434   6.274
 6265TIP3    H118738   2.439   4.345   6.274
 6265TIP3    H218739   2.435   4.476   6.198
 6266TIP3   OH218740   3.196   2.326   2.793
 6266TIP3    H118741   3.146   2.381   2.732
 6266TIP3    H218742   3.266   2.288   2.740
 6267TIP3   OH218743   5.264   4.474   5.167
 6267TIP3    H118744   5.256   4.394   5.220
 6267TIP3    H218745   5.259   4.545   5.231
 6268TIP3   OH218746   4.919   4.798   3.979
 6268TIP3    H118747   4.987   4.740   4.012
 6268TIP3    H218748   4.949   4.886   4.003
 6269TIP3   OH218749   6.533   0.766   0.116
 6269TIP3    H118750   6.561   0.856   0.133
 6269TIP3    H218751   6.481   0.772   0.035
 6270TIP3   OH218752   2.442   5.138   6.438
 6270TIP3    H118753   2.442   5.233   6.445
 6270TIP3    H218754   2.466   5.107   6.526
 6271TIP3   OH218755   4.623   4.055   6.090
 6271TIP3    H118756   4.557   4.124   6.078
 6271TIP3    H218757   4.627   4.010   6.006
 6272TIP3   OH218758   6.512   0.189   5.075
 6272TIP3    H118759   6.535   0.106   5.034
 6272TIP3    H218760   6.550   0.183   5.163
 6273TIP3   OH218761   4.947   2.458   3.714
 6273TIP3    H118762   5.027   2.470   3.765
 6273TIP3    H218763   4.977   2.443   3.625
 6274TIP3   OH218764   7.354   1.503   3.830
 6274TIP3    H118765   7.320   1.418   3.799
 6274TIP3    H218766   7.294   1.567   3.793
 6275TIP3   OH218767   7.853   3.306   0.729
 6275TIP3    H118768   7.787   3.247   0.765
 6275TIP3    H218769   7.914   3.320   0.800
 6276TIP3   OH218770   0.551   4.268   5.898
 6276TIP3    H118771   0.582   4.187   5.940
 6276TIP3    H218772   0.459   4.251   5.880
 6277TIP3   OH218773   7.758   3.248   1.925
 6277TIP3    H118774   7.691   3.189   1.959
 6277TIP3    H218775   7.713   3.299   1.857
 6278TIP3   OH218776   1.984   3.510   0.057
 6278TIP3    H118777   1.988   3.415   0.060
 6278TIP3    H218778   2.013   3.539   0.143
 6279TIP3   OH218779   3.185   3.426   3.461
 6279TIP3    H118780   3.268   3.392   3.428
 6279TIP3    H218781   3.152   3.481   3.390
 6280TIP3   OH218782   5.305   3.021   2.933
 6280TIP3    H118783   5.254   3.065   2.865
 6280TIP3    H218784   5.396   3.043   2.914
 6281TIP3   OH218785   1.859   5.145   5.493
 6281TIP3    H118786   1.907   5.079   5.443
 6281TIP3    H218787   1.923   5.215   5.509
 6282TIP3   OH218788   4.074   6.561   4.608
 6282TIP3    H118789   4.138   6.519   4.551
 6282TIP3    H218790   3.995   6.568   4.555
 6283TIP3   OH218791   3.187   5.008   6.360
 6283TIP3    H118792   3.245   5.078   6.328
 6283TIP3    H218793   3.115   5.007   6.297
 6284TIP3   OH218794   4.960   2.855   0.860
 6284TIP3    H118795   5.052   2.844   0.835
 6284TIP3    H218796   4.960   2.922   0.928
 6285TIP3   OH218797   5.547   3.138   0.530
 6285TIP3    H118798   5.637   3.139   0.498
 6285TIP3    H218799   5.554   3.128   0.625
 6286TIP3   OH218800   1.209   1.193   6.254
 6286TIP3    H118801   1.183   1.111   6.294
 6286TIP3    H218802   1.254   1.167   6.173
 6287TIP3   OH218803   7.915   0.800   2.110
 6287TIP3    H118804   7.831   0.844   2.125
 6287TIP3    H218805   7.906   0.760   2.023
 6288TIP3   OH218806   5.062   0.514   6.687
 6288TIP3    H118807   5.155   0.533   6.691
 6288TIP3    H218808   5.022   0.594   6.652
 6289TIP3   OH218809   2.972   3.576   1.234
 6289TIP3    H118810   2.926   3.494   1.252
 6289TIP3    H218811   2.929   3.641   1.289
 6290TIP3   OH218812   1.449   2.591   5.157
 6290TIP3    H118813   1.483   2.503   5.174
 6290TIP3    H218814   1.511   2.649   5.201
 6291TIP3   OH218815   7.199   7.206   2.900
 6291TIP3    H118816   7.292   7.224   2.913
 6291TIP3    H218817   7.192   7.181   2.808
 6292TIP3   OH218818   3.230   0.508   2.117
 6292TIP3    H118819   3.294   0.488   2.184
 6292TIP3    H218820   3.240   0.438   2.052
 6293TIP3   OH218821   3.221   2.623   0.476
 6293TIP3    H118822   3.168   2.662   0.407
 6293TIP3    H218823   3.269   2.553   0.432
 6294TIP3   OH218824   5.181   1.884   6.592
 6294TIP3    H118825   5.232   1.903   6.514
 6294TIP3    H218826   5.135   1.802   6.571
 6295TIP3   OH218827   0.142   3.367   4.164
 6295TIP3    H118828   0.196   3.411   4.229
 6295TIP3    H218829   0.204   3.340   4.095
 6296TIP3   OH218830   6.118   7.146   2.590
 6296TIP3    H118831   6.097   7.202   2.515
 6296TIP3    H218832   6.145   7.207   2.658
 6297TIP3   OH218833   1.528   5.738   3.466
 6297TIP3    H118834   1.522   5.806   3.532
 6297TIP3    H218835   1.502   5.781   3.384
 6298TIP3   OH218836   2.293   1.776   0.597
 6298TIP3    H118837   2.317   1.723   0.521
 6298TIP3    H218838   2.219   1.730   0.636
 6299TIP3   OH218839   0.897   4.227   5.434
 6299TIP3    H118840   0.835   4.199   5.500
 6299TIP3    H218841   0.911   4.321   5.451
 6300TIP3   OH218842   0.504   7.160   0.705
 6300TIP3    H118843   0.409   7.154   0.709
 6300TIP3    H218844   0.524   7.161   0.612
 6301TIP3   OH218845   0.926   2.764   3.989
 6301TIP3    H118846   0.885   2.737   3.907
 6301TIP3    H218847   1.020   2.753   3.974
 6302TIP3   OH218848   3.180   5.181   2.239
 6302TIP3    H118849   3.179   5.198   2.145
 6302TIP3    H218850   3.195   5.087   2.247
 6303TIP3   OH218851   7.803   3.558   5.976
 6303TIP3    H118852   7.829   3.650   5.976
 6303TIP3    H218853   7.850   3.519   5.902
 6304TIP3   OH218854   4.782   4.763   6.509
 6304TIP3    H118855   4.742   4.828   6.451
 6304TIP3    H218856   4.825   4.701   6.450
 6305TIP3   OH218857   2.632   6.210   5.492
 6305TIP3    H118858   2.580   6.202   5.572
 6305TIP3    H218859   2.603   6.137   5.437
 6306TIP3   OH218860   8.167   5.008   4.351
 6306TIP3    H118861   8.087   4.955   4.345
 6306TIP3    H218862   8.180   5.043   4.263
 6307TIP3   OH218863   3.412   0.781   1.912
 6307TIP3    H118864   3.333   0.808   1.960
 6307TIP3    H218865   3.381   0.714   1.852
 6308TIP3   OH218866   0.082   1.533   3.158
 6308TIP3    H118867   0.140   1.609   3.165
 6308TIP3    H218868   0.026   1.552   3.083
 6309TIP3   OH218869   3.778   0.036   3.447
 6309TIP3    H118870   3.689   0.060   3.419
 6309TIP3    H218871   3.805   0.108   3.503
 6310TIP3   OH218872   6.278   6.234   5.576
 6310TIP3    H118873   6.352   6.208   5.522
 6310TIP3    H218874   6.303   6.320   5.611
 6311TIP3   OH218875   2.992   4.497   2.476
 6311TIP3    H118876   2.958   4.408   2.465
 6311TIP3    H218877   3.003   4.529   2.386
 6312TIP3   OH218878   4.473   1.598   3.223
 6312TIP3    H118879   4.451   1.651   3.299
 6312TIP3    H218880   4.541   1.647   3.177
 6313TIP3   OH218881   2.091   5.486   5.909
 6313TIP3    H118882   2.167   5.474   5.851
 6313TIP3    H218883   2.109   5.428   5.983
 6314TIP3   OH218884   1.454   7.451   0.004
 6314TIP3    H118885   1.539   7.441  -0.039
 6314TIP3    H218886   1.436   7.545   0.001
 6315TIP3   OH218887   6.869   5.401   0.699
 6315TIP3    H118888   6.844   5.313   0.728
 6315TIP3    H218889   6.797   5.457   0.727
 6316TIP3   OH218890   1.621   1.484   1.996
 6316TIP3    H118891   1.539   1.436   1.982
 6316TIP3    H218892   1.675   1.462   1.921
 6317TIP3   OH218893   3.814   5.677   5.435
 6317TIP3    H118894   3.909   5.689   5.440
 6317TIP3    H218895   3.802   5.584   5.417
 6318TIP3   OH218896   4.636   3.832   0.701
 6318TIP3    H118897   4.707   3.772   0.725
 6318TIP3    H218898   4.644   3.841   0.606
 6319TIP3   OH218899   7.209   0.363   4.903
 6319TIP3    H118900   7.157   0.294   4.862
 6319TIP3    H218901   7.299   0.332   4.897
 6320TIP3   OH218902   5.956   7.119   1.997
 6320TIP3    H118903   6.018   7.120   1.924
 6320TIP3    H218904   5.891   7.185   1.974
 6321TIP3   OH218905   7.869   4.791   2.983
 6321TIP3    H118906   7.876   4.823   3.072
 6321TIP3    H218907   7.775   4.776   2.970
 6322TIP3   OH218908   3.911   2.285   2.936
 6322TIP3    H118909   4.004   2.303   2.927
 6322TIP3    H218910   3.898   2.271   3.030
 6323TIP3   OH218911   1.635   6.830   0.537
 6323TIP3    H118912   1.669   6.799   0.622
 6323TIP3    H218913   1.703   6.806   0.474
 6324TIP3   OH218914   1.337   4.790   0.531
 6324TIP3    H118915   1.406   4.791   0.465
 6324TIP3    H218916   1.384   4.794   0.615
 6325TIP3   OH218917   1.098   6.196   2.844
 6325TIP3    H118918   1.112   6.216   2.937
 6325TIP3    H218919   1.050   6.272   2.811
 6326TIP3   OH218920   2.118   0.134   5.509
 6326TIP3    H118921   2.071   0.151   5.590
 6326TIP3    H218922   2.202   0.096   5.537
 6327TIP3   OH218923   6.327   3.562   3.310
 6327TIP3    H118924   6.332   3.472   3.277
 6327TIP3    H218925   6.236   3.587   3.295
 6328TIP3   OH218926   5.891   2.059   2.306
 6328TIP3    H118927   5.897   1.979   2.254
 6328TIP3    H218928   5.982   2.081   2.326
 6329TIP3   OH218929   4.284   1.123   3.245
 6329TIP3    H118930   4.200   1.167   3.255
 6329TIP3    H218931   4.278   1.046   3.302
 6330TIP3   OH218932   2.646   3.708   5.872
 6330TIP3    H118933   2.739   3.700   5.893
 6330TIP3    H218934   2.643   3.723   5.777
 6331TIP3   OH218935   5.855   3.520   5.755
 6331TIP3    H118936   5.942   3.521   5.714
 6331TIP3    H218937   5.870   3.554   5.843
 6332TIP3   OH218938   1.065   1.008   2.681
 6332TIP3    H118939   1.150   0.976   2.652
 6332TIP3    H218940   1.010   1.003   2.602
 6333TIP3   OH218941   0.389   0.550   2.811
 6333TIP3    H118942   0.459   0.485   2.820
 6333TIP3    H218943   0.394   0.602   2.891
 6334TIP3   OH218944   4.599   7.295   6.568
 6334TIP3    H118945   4.588   7.379   6.523
 6334TIP3    H218946   4.519   7.286   6.621
 6335TIP3   OH218947   0.444   5.220   0.340
 6335TIP3    H118948   0.442   5.134   0.382
 6335TIP3    H218949   0.357   5.231   0.304
 6336TIP3   OH218950   2.604   3.837   3.143
 6336TIP3    H118951   2.565   3.924   3.145
 6336TIP3    H218952   2.697   3.852   3.124
 6337TIP3   OH218953   8.164   0.316   1.997
 6337TIP3    H118954   8.176   0.401   2.041
 6337TIP3    H218955   8.247   0.301   1.953
 6338TIP3   OH218956   4.395   7.264   2.879
 6338TIP3    H118957   4.337   7.307   2.943
 6338TIP3    H218958   4.450   7.335   2.847
 6339TIP3   OH218959   5.413   0.131   0.561
 6339TIP3    H118960   5.393   0.055   0.616
 6339TIP3    H218961   5.502   0.114   0.529
 6340TIP3   OH218962   7.578   2.129   5.414
 6340TIP3    H118963   7.663   2.090   5.433
 6340TIP3    H218964   7.564   2.192   5.486
 6341TIP3   OH218965   6.406   3.743   5.171
 6341TIP3    H118966   6.315   3.718   5.156
 6341TIP3    H218967   6.427   3.801   5.098
 6342TIP3   OH218968   3.392   5.284   1.940
 6342TIP3    H118969   3.478   5.244   1.925
 6342TIP3    H218970   3.357   5.300   1.852
 6343TIP3   OH218971   0.475   4.440   6.174
 6343TIP3    H118972   0.514   4.388   6.103
 6343TIP3    H218973   0.520   4.409   6.253
 6344TIP3   OH218974   2.005   5.350   5.594
 6344TIP3    H118975   2.086   5.357   5.645
 6344TIP3    H218976   1.943   5.409   5.638
 6345TIP3   OH218977   1.677   0.789   5.363
 6345TIP3    H118978   1.594   0.742   5.375
 6345TIP3    H218979   1.666   0.837   5.281
 6346TIP3   OH218980   0.000   1.821   2.097
 6346TIP3    H118981   0.038   1.900   2.058
 6346TIP3    H218982  -0.021   1.847   2.187
 6347TIP3   OH218983   3.748   7.132   2.850
 6347TIP3    H118984   3.814   7.101   2.788
 6347TIP3    H218985   3.781   7.216   2.881
 6348TIP3   OH218986   4.146   5.751   1.334
 6348TIP3    H118987   4.207   5.716   1.398
 6348TIP3    H218988   4.112   5.831   1.373
 6349TIP3   OH218989   4.399   4.044   1.427
 6349TIP3    H118990   4.316   4.010   1.393
 6349TIP3    H218991   4.423   3.982   1.496
 6350TIP3   OH218992   4.178   5.176   5.520
 6350TIP3    H118993   4.113   5.189   5.589
 6350TIP3    H218994   4.128   5.179   5.439
 6351TIP3   OH218995   1.450   5.863   5.850
 6351TIP3    H118996   1.460   5.942   5.798
 6351TIP3    H218997   1.427   5.895   5.938
 6352TIP3   OH218998   0.568   2.006   4.395
 6352TIP3    H118999   0.514   1.928   4.380
 6352TIP3    H219000   0.534   2.071   4.333
 6353TIP3   OH219001   1.415   0.778   6.018
 6353TIP3    H119002   1.509   0.788   6.001
 6353TIP3    H219003   1.398   0.686   6.001
 6354TIP3   OH219004   2.780   6.256   1.102
 6354TIP3    H119005   2.704   6.201   1.084
 6354TIP3    H219006   2.812   6.225   1.187
 6355TIP3   OH219007   2.328   4.036   1.126
 6355TIP3    H119008   2.411   4.082   1.115
 6355TIP3    H219009   2.289   4.035   1.038
 6356TIP3   OH219010   5.926   0.166   0.323
 6356TIP3    H119011   5.997   0.177   0.386
 6356TIP3    H219012   5.957   0.209   0.244
 6357TIP3   OH219013   2.462   3.842   2.405
 6357TIP3    H119014   2.372   3.870   2.389
 6357TIP3    H219015   2.464   3.819   2.498
 6358TIP3   OH219016   4.566   3.832   1.765
 6358TIP3    H119017   4.608   3.852   1.849
 6358TIP3    H219018   4.546   3.738   1.771
 6359TIP3   OH219019   6.980   3.405   1.886
 6359TIP3    H119020   7.019   3.347   1.952
 6359TIP3    H219021   7.013   3.492   1.908
 6360TIP3   OH219022   0.712   1.180   2.672
 6360TIP3    H119023   0.758   1.201   2.753
 6360TIP3    H219024   0.704   1.084   2.672
 6361TIP3   OH219025   5.773   4.619   4.090
 6361TIP3    H119026   5.858   4.582   4.066
 6361TIP3    H219027   5.787   4.659   4.176
 6362TIP3   OH219028   2.080   4.936   3.052
 6362TIP3    H119029   2.099   4.968   2.964
 6362TIP3    H219030   1.998   4.979   3.076
 6363TIP3   OH219031   5.104   3.610   3.450
 6363TIP3    H119032   5.048   3.579   3.379
 6363TIP3    H219033   5.188   3.630   3.408
 6364TIP3   OH219034   6.749   3.302   3.444
 6364TIP3    H119035   6.825   3.348   3.479
 6364TIP3    H219036   6.674   3.355   3.472
 6365TIP3   OH219037   6.066   4.706   2.280
 6365TIP3    H119038   6.001   4.658   2.331
 6365TIP3    H219039   6.053   4.798   2.303
 6366TIP3   OH219040   6.346   5.597   0.455
 6366TIP3    H119041   6.280   5.590   0.385
 6366TIP3    H219042   6.411   5.658   0.421
 6367TIP3   OH219043   3.635   4.158   6.154
 6367TIP3    H119044   3.701   4.153   6.223
 6367TIP3    H219045   3.666   4.229   6.097
 6368TIP3   OH219046   7.412   6.129   1.466
 6368TIP3    H119047   7.381   6.136   1.376
 6368TIP3    H219048   7.482   6.063   1.463
 6369TIP3   OH219049   0.865   0.546   1.141
 6369TIP3    H119050   0.864   0.491   1.219
 6369TIP3    H219051   0.813   0.623   1.165
 6370TIP3   OH219052   2.577   1.428   6.675
 6370TIP3    H119053   2.588   1.516   6.712
 6370TIP3    H219054   2.518   1.384   6.735
 6371TIP3   OH219055   5.529   0.663   1.207
 6371TIP3    H119056   5.496   0.630   1.124
 6371TIP3    H219057   5.557   0.584   1.254
 6372TIP3   OH219058   1.429   2.173   2.951
 6372TIP3    H119059   1.429   2.203   3.042
 6372TIP3    H219060   1.422   2.078   2.957
 6373TIP3   OH219061   6.811   3.930   3.982
 6373TIP3    H119062   6.863   4.010   3.988
 6373TIP3    H219063   6.726   3.960   3.949
 6374TIP3   OH219064   5.754   3.885   6.206
 6374TIP3    H119065   5.777   3.969   6.167
 6374TIP3    H219066   5.829   3.862   6.261
 6375TIP3   OH219067   7.825   2.009   6.079
 6375TIP3    H119068   7.756   2.064   6.116
 6375TIP3    H219069   7.782   1.926   6.059
 6376TIP3   OH219070   8.047   1.180   5.544
 6376TIP3    H119071   8.134   1.160   5.580
 6376TIP3    H219072   7.987   1.128   5.597
 6377TIP3   OH219073   3.363   7.465   3.687
 6377TIP3    H119074   3.451   7.454   3.721
 6377TIP3    H219075   3.313   7.502   3.760
 6378TIP3   OH219076   7.008   1.347   2.422
 6378TIP3    H119077   7.095   1.321   2.453
 6378TIP3    H219078   7.025   1.398   2.343
 6379TIP3   OH219079   5.281   4.489   0.164
 6379TIP3    H119080   5.306   4.567   0.213
 6379TIP3    H219081   5.213   4.448   0.217
 6380TIP3   OH219082   6.000   0.311   0.105
 6380TIP3    H119083   6.017   0.394   0.149
 6380TIP3    H219084   6.086   0.274   0.088
 6381TIP3   OH219085   4.904   3.284   4.410
 6381TIP3    H119086   4.833   3.313   4.467
 6381TIP3    H219087   4.979   3.272   4.469
 6382TIP3   OH219088   0.924   5.568   5.102
 6382TIP3    H119089   0.934   5.495   5.041
 6382TIP3    H219090   0.840   5.551   5.146
 6383TIP3   OH219091   5.883   4.427   1.646
 6383TIP3    H119092   5.849   4.338   1.656
 6383TIP3    H219093   5.931   4.426   1.563
 6384TIP3   OH219094   7.017   3.905   6.363
 6384TIP3    H119095   6.934   3.879   6.403
 6384TIP3    H219096   7.062   3.822   6.345
 6385TIP3   OH219097   0.395   4.848   5.633
 6385TIP3    H119098   0.442   4.810   5.558
 6385TIP3    H219099   0.321   4.894   5.594
 6386TIP3   OH219100   7.112   2.460   2.906
 6386TIP3    H119101   7.105   2.465   2.811
 6386TIP3    H219102   7.182   2.395   2.921
 6387TIP3   OH219103   8.179   2.367   1.530
 6387TIP3    H119104   8.216   2.305   1.467
 6387TIP3    H219105   8.158   2.313   1.606
 6388TIP3   OH219106   5.561   6.178   5.920
 6388TIP3    H119107   5.524   6.090   5.921
 6388TIP3    H219108   5.633   6.173   5.857
 6389TIP3   OH219109   1.341   5.596   5.248
 6389TIP3    H119110   1.370   5.555   5.166
 6389TIP3    H219111   1.350   5.527   5.314
 6390TIP3   OH219112   8.041   4.684   0.157
 6390TIP3    H119113   8.095   4.638   0.092
 6390TIP3    H219114   7.951   4.659   0.135
 6391TIP3   OH219115   2.041   3.975   6.695
 6391TIP3    H119116   1.947   3.976   6.682
 6391TIP3    H219117   2.071   3.896   6.651
 6392TIP3   OH219118   7.447   1.557   6.069
 6392TIP3    H119119   7.522   1.578   6.124
 6392TIP3    H219120   7.408   1.480   6.111
 6393TIP3   OH219121   1.625   3.300   6.015
 6393TIP3    H119122   1.701   3.335   5.968
 6393TIP3    H219123   1.603   3.368   6.079
 6394TIP3   OH219124   7.243   3.302   3.015
 6394TIP3    H119125   7.242   3.364   2.942
 6394TIP3    H219126   7.222   3.217   2.976
 6395TIP3   OH219127   4.382   6.976   0.207
 6395TIP3    H119128   4.303   6.938   0.245
 6395TIP3    H219129   4.445   6.977   0.280
 6396TIP3   OH219130   0.606   4.369   2.766
 6396TIP3    H119131   0.610   4.394   2.674
 6396TIP3    H219132   0.532   4.308   2.771
 6397TIP3   OH219133   1.967   2.003   0.503
 6397TIP3    H119134   2.012   1.989   0.420
 6397TIP3    H219135   2.006   2.084   0.537
 6398TIP3   OH219136   3.621   1.531   3.105
 6398TIP3    H119137   3.571   1.449   3.101
 6398TIP3    H219138   3.682   1.525   3.031
 6399TIP3   OH219139   7.943   0.276   2.378
 6399TIP3    H119140   7.918   0.295   2.469
 6399TIP3    H219141   7.874   0.218   2.346
 6400TIP3   OH219142   5.374   5.670   3.572
 6400TIP3    H119143   5.421   5.590   3.595
 6400TIP3    H219144   5.282   5.643   3.569
 6401TIP3   OH219145   7.245   4.551   6.084
 6401TIP3    H119146   7.310   4.602   6.131
 6401TIP3    H219147   7.282   4.538   5.997
 6402TIP3   OH219148   5.532   2.773   5.457
 6402TIP3    H119149   5.474   2.705   5.491
 6402TIP3    H219150   5.562   2.820   5.535
 6403TIP3   OH219151   1.646   5.498   4.005
 6403TIP3    H119152   1.715   5.534   3.950
 6403TIP3    H219153   1.565   5.534   3.969
 6404TIP3   OH219154   4.872   7.486   4.141
 6404TIP3    H119155   4.934   7.556   4.120
 6404TIP3    H219156   4.928   7.409   4.156
 6405TIP3   OH219157   2.899   3.968   3.575
 6405TIP3    H119158   2.904   3.891   3.519
 6405TIP3    H219159   2.854   4.034   3.522
 6406TIP3   OH219160   3.786   7.297   5.448
 6406TIP3    H119161   3.699   7.329   5.474
 6406TIP3    H219162   3.770   7.210   5.412
 6407TIP3   OH219163   5.614   6.308   2.956
 6407TIP3    H119164   5.677   6.358   3.009
 6407TIP3    H219165   5.576   6.245   3.017
 6408TIP3   OH219166   1.079   5.389   1.453
 6408TIP3    H119167   1.066   5.361   1.363
 6408TIP3    H219168   1.162   5.350   1.479
 6409TIP3   OH219169   5.055   5.961   3.934
 6409TIP3    H119170   5.102   6.029   3.886
 6409TIP3    H219171   5.061   5.884   3.879
 6410TIP3   OH219172   3.626   0.521   0.445
 6410TIP3    H119173   3.708   0.528   0.396
 6410TIP3    H219174   3.569   0.588   0.408
 6411TIP3   OH219175   5.996   0.513   2.015
 6411TIP3    H119176   6.013   0.455   1.940
 6411TIP3    H219177   5.901   0.510   2.026
 6412TIP3   OH219178   5.185   5.032   5.444
 6412TIP3    H119179   5.130   4.983   5.506
 6412TIP3    H219180   5.189   4.977   5.366
 6413TIP3   OH219181   4.166   2.797   6.507
 6413TIP3    H119182   4.186   2.735   6.577
 6413TIP3    H219183   4.222   2.769   6.435
 6414TIP3   OH219184   3.766   6.853   1.597
 6414TIP3    H119185   3.754   6.931   1.651
 6414TIP3    H219186   3.756   6.885   1.507
 6415TIP3   OH219187   8.306   3.653   3.568
 6415TIP3    H119188   8.226   3.601   3.555
 6415TIP3    H219189   8.344   3.619   3.649
 6416TIP3   OH219190   4.972   1.332   3.371
 6416TIP3    H119191   5.006   1.263   3.314
 6416TIP3    H219192   5.019   1.321   3.453
 6417TIP3   OH219193   0.183   5.968   3.862
 6417TIP3    H119194   0.168   6.040   3.923
 6417TIP3    H219195   0.203   6.011   3.779
 6418TIP3   OH219196   2.610   3.205   5.669
 6418TIP3    H119197   2.573   3.263   5.603
 6418TIP3    H219198   2.629   3.124   5.622
 6419TIP3   OH219199   0.655   7.618   0.166
 6419TIP3    H119200   0.642   7.544   0.225
 6419TIP3    H219201   0.725   7.669   0.205
 6420TIP3   OH219202   5.657   2.056   2.506
 6420TIP3    H119203   5.747   2.050   2.474
 6420TIP3    H219204   5.660   2.122   2.575
 6421TIP3   OH219205   3.162   6.076   6.197
 6421TIP3    H119206   3.256   6.097   6.197
 6421TIP3    H219207   3.126   6.125   6.271
 6422TIP3   OH219208   6.678   4.141   5.092
 6422TIP3    H119209   6.701   4.094   5.172
 6422TIP3    H219210   6.757   4.189   5.069
 6423TIP3   OH219211   0.271   0.111   1.518
 6423TIP3    H119212   0.310   0.198   1.532
 6423TIP3    H219213   0.270   0.100   1.423
 6424TIP3   OH219214   4.670   0.842   2.515
 6424TIP3    H119215   4.648   0.911   2.453
 6424TIP3    H219216   4.591   0.788   2.521
 6425TIP3   OH219217   3.157   5.799   0.675
 6425TIP3    H119218   3.070   5.778   0.640
 6425TIP3    H219219   3.172   5.734   0.744
 6426TIP3   OH219220   7.931   0.054   0.941
 6426TIP3    H119221   7.938  -0.026   0.993
 6426TIP3    H219222   8.018   0.068   0.905
 6427TIP3   OH219223   3.384   3.767   4.658
 6427TIP3    H119224   3.442   3.767   4.581
 6427TIP3    H219225   3.379   3.675   4.684
 6428TIP3   OH219226   4.381   5.078   1.145
 6428TIP3    H119227   4.300   5.027   1.143
 6428TIP3    H219228   4.390   5.114   1.057
 6429TIP3   OH219229   6.947   6.547   3.332
 6429TIP3    H119230   6.983   6.632   3.306
 6429TIP3    H219231   6.860   6.545   3.292
 6430TIP3   OH219232   6.652   2.822   3.484
 6430TIP3    H119233   6.604   2.902   3.464
 6430TIP3    H219234   6.741   2.851   3.504
 6431TIP3   OH219235   1.115   1.086   3.771
 6431TIP3    H119236   1.044   1.115   3.714
 6431TIP3    H219237   1.192   1.135   3.743
 6432TIP3   OH219238   3.190   7.392   1.667
 6432TIP3    H119239   3.140   7.312   1.657
 6432TIP3    H219240   3.281   7.363   1.671
 6433TIP3   OH219241   4.580   6.565   3.927
 6433TIP3    H119242   4.536   6.489   3.889
 6433TIP3    H219243   4.525   6.590   4.001
 6434TIP3   OH219244   1.859   7.117   3.859
 6434TIP3    H119245   1.831   7.186   3.799
 6434TIP3    H219246   1.913   7.161   3.923
 6435TIP3   OH219247   3.543   0.642   5.756
 6435TIP3    H119248   3.595   0.720   5.740
 6435TIP3    H219249   3.458   0.675   5.783
 6436TIP3   OH219250   4.837   2.439   5.547
 6436TIP3    H119251   4.881   2.445   5.462
 6436TIP3    H219252   4.819   2.529   5.572
 6437TIP3   OH219253   7.178   5.511   3.867
 6437TIP3    H119254   7.217   5.527   3.781
 6437TIP3    H219255   7.103   5.570   3.871
 6438TIP3   OH219256   5.002   3.670   1.853
 6438TIP3    H119257   4.929   3.729   1.835
 6438TIP3    H219258   5.077   3.712   1.811
 6439TIP3   OH219259   7.199   0.273   0.513
 6439TIP3    H119260   7.251   0.201   0.550
 6439TIP3    H219261   7.109   0.252   0.537
 6440TIP3   OH219262   6.716   0.322   4.238
 6440TIP3    H119263   6.714   0.229   4.264
 6440TIP3    H219264   6.666   0.325   4.156
 6441TIP3   OH219265   8.189   7.604   0.980
 6441TIP3    H119266   8.282   7.621   0.991
 6441TIP3    H219267   8.146   7.652   1.051
 6442TIP3   OH219268   6.655   1.891   2.314
 6442TIP3    H119269   6.721   1.821   2.306
 6442TIP3    H219270   6.697   1.957   2.368
 6443TIP3   OH219271   6.206   7.312   1.884
 6443TIP3    H119272   6.286   7.344   1.842
 6443TIP3    H219273   6.199   7.221   1.855
 6444TIP3   OH219274   3.174   7.361   3.248
 6444TIP3    H119275   3.104   7.379   3.311
 6444TIP3    H219276   3.237   7.308   3.296
 6445TIP3   OH219277   1.104   1.069   5.087
 6445TIP3    H119278   1.181   1.022   5.119
 6445TIP3    H219279   1.033   1.041   5.146
 6446TIP3   OH219280   5.565   3.693   3.289
 6446TIP3    H119281   5.522   3.762   3.237
 6446TIP3    H219282   5.492   3.647   3.330
 6447TIP3   OH219283   7.340   1.510   2.871
 6447TIP3    H119284   7.352   1.423   2.832
 6447TIP3    H219285   7.387   1.505   2.954
 6448TIP3   OH219286   3.617   1.543   0.662
 6448TIP3    H119287   3.550   1.500   0.714
 6448TIP3    H219288   3.576   1.555   0.576
 6449TIP3   OH219289   2.718   6.139   6.321
 6449TIP3    H119290   2.753   6.101   6.240
 6449TIP3    H219291   2.698   6.230   6.298
 6450TIP3   OH219292   5.140   1.545   6.508
 6450TIP3    H119293   5.130   1.450   6.511
 6450TIP3    H219294   5.052   1.578   6.495
 6451TIP3   OH219295   6.731   5.731   5.355
 6451TIP3    H119296   6.794   5.758   5.422
 6451TIP3    H219297   6.772   5.753   5.272
 6452TIP3   OH219298   3.977   5.960   4.043
 6452TIP3    H119299   4.057   6.009   4.059
 6452TIP3    H219300   4.006   5.869   4.034
 6453TIP3   OH219301   2.360   1.833   3.931
 6453TIP3    H119302   2.359   1.770   3.859
 6453TIP3    H219303   2.412   1.907   3.897
 6454TIP3   OH219304   3.516   7.153   3.622
 6454TIP3    H119305   3.550   7.205   3.549
 6454TIP3    H219306   3.482   7.073   3.581
 6455TIP3   OH219307   6.596   1.141   3.764
 6455TIP3    H119308   6.588   1.046   3.757
 6455TIP3    H219309   6.582   1.173   3.675
 6456TIP3   OH219310   7.689   2.953   1.831
 6456TIP3    H119311   7.745   2.912   1.765
 6456TIP3    H219312   7.604   2.962   1.788
 6457TIP3   OH219313   0.021   1.413   2.319
 6457TIP3    H119314   0.007   1.373   2.405
 6457TIP3    H219315   0.040   1.339   2.261
 6458TIP3   OH219316   3.567   2.851   5.730
 6458TIP3    H119317   3.538   2.843   5.639
 6458TIP3    H219318   3.596   2.764   5.754
 6459TIP3   OH219319   4.315   0.457   6.280
 6459TIP3    H119320   4.234   0.409   6.297
 6459TIP3    H219321   4.383   0.390   6.276
 6460TIP3   OH219322   6.249   1.088   6.725
 6460TIP3    H119323   6.327   1.035   6.744
 6460TIP3    H219324   6.228   1.130   6.808
 6461TIP3   OH219325   6.467   2.980   2.708
 6461TIP3    H119326   6.483   3.060   2.658
 6461TIP3    H219327   6.373   2.967   2.703
 6462TIP3   OH219328   4.328   4.442   2.569
 6462TIP3    H119329   4.294   4.530   2.555
 6462TIP3    H219330   4.292   4.391   2.496
 6463TIP3   OH219331   5.870   0.824   2.107
 6463TIP3    H119332   5.879   0.819   2.012
 6463TIP3    H219333   5.877   0.918   2.127
 6464TIP3   OH219334   4.073   1.246   2.333
 6464TIP3    H119335   4.149   1.192   2.358
 6464TIP3    H219336   4.003   1.182   2.321
 6465TIP3   OH219337   2.950   7.637   3.018
 6465TIP3    H119338   2.971   7.728   3.041
 6465TIP3    H219339   3.024   7.609   2.964
 6466TIP3   OH219340   1.983   2.088   6.122
 6466TIP3    H119341   1.966   1.996   6.141
 6466TIP3    H219342   2.036   2.119   6.196
 6467TIP3   OH219343   6.744   6.865   2.023
 6467TIP3    H119344   6.836   6.892   2.030
 6467TIP3    H219345   6.696   6.946   2.009
 6468TIP3   OH219346   7.951   4.747   6.151
 6468TIP3    H119347   8.006   4.821   6.179
 6468TIP3    H219348   7.972   4.735   6.058
 6469TIP3   OH219349   0.362   3.091   6.202
 6469TIP3    H119350   0.286   3.033   6.197
 6469TIP3    H219351   0.412   3.072   6.122
 6470TIP3   OH219352   7.861   6.139   3.498
 6470TIP3    H119353   7.825   6.083   3.428
 6470TIP3    H219354   7.867   6.081   3.574
 6471TIP3   OH219355   5.960   4.112   2.856
 6471TIP3    H119356   5.912   4.054   2.916
 6471TIP3    H219357   6.046   4.123   2.898
 6472TIP3   OH219358   0.142   1.082   4.054
 6472TIP3    H119359   0.083   1.006   4.047
 6472TIP3    H219360   0.097   1.142   4.113
 6473TIP3   OH219361   4.757   0.540   2.952
 6473TIP3    H119362   4.704   0.591   3.013
 6473TIP3    H219363   4.708   0.544   2.869
 6474TIP3   OH219364   4.436   5.151   0.827
 6474TIP3    H119365   4.491   5.208   0.880
 6474TIP3    H219366   4.357   5.202   0.812
 6475TIP3   OH219367   2.437   4.409   3.178
 6475TIP3    H119368   2.423   4.380   3.088
 6475TIP3    H219369   2.369   4.475   3.193
 6476TIP3   OH219370   7.150   7.553   4.629
 6476TIP3    H119371   7.231   7.534   4.581
 6476TIP3    H219372   7.146   7.648   4.634
 6477TIP3   OH219373   7.538   0.752   6.000
 6477TIP3    H119374   7.625   0.756   6.041
 6477TIP3    H219375   7.543   0.813   5.927
 6478TIP3   OH219376   0.941   1.904   4.240
 6478TIP3    H119377   0.927   1.877   4.330
 6478TIP3    H219378   1.032   1.880   4.221
 6479TIP3   OH219379   5.799   6.772   5.550
 6479TIP3    H119380   5.765   6.843   5.495
 6479TIP3    H219381   5.883   6.749   5.511
 6480TIP3   OH219382   2.710   1.806   1.866
 6480TIP3    H119383   2.645   1.873   1.845
 6480TIP3    H219384   2.765   1.800   1.788
 6481TIP3   OH219385   2.766   2.367   4.806
 6481TIP3    H119386   2.705   2.381   4.879
 6481TIP3    H219387   2.850   2.401   4.838
 6482TIP3   OH219388   1.751   2.382   4.299
 6482TIP3    H119389   1.774   2.290   4.312
 6482TIP3    H219390   1.822   2.417   4.245
 6483TIP3   OH219391   2.713   4.509   6.457
 6483TIP3    H119392   2.765   4.588   6.444
 6483TIP3    H219393   2.663   4.500   6.376
 6484TIP3   OH219394   6.994   0.177   4.824
 6484TIP3    H119395   6.977   0.189   4.731
 6484TIP3    H219396   6.917   0.132   4.858
 6485TIP3   OH219397   2.500   7.062   5.477
 6485TIP3    H119398   2.494   7.047   5.383
 6485TIP3    H219399   2.498   7.157   5.487
 6486TIP3   OH219400   1.613   2.197   3.936
 6486TIP3    H119401   1.601   2.157   4.022
 6486TIP3    H219402   1.699   2.165   3.907
 6487TIP3   OH219403   2.917   2.322   5.955
 6487TIP3    H119404   2.941   2.367   5.874
 6487TIP3    H219405   2.974   2.359   6.021
 6488TIP3   OH219406   0.844   0.735   0.759
 6488TIP3    H119407   0.879   0.650   0.788
 6488TIP3    H219408   0.758   0.740   0.800
 6489TIP3   OH219409   1.290   4.456  -0.049
 6489TIP3    H119410   1.270   4.547  -0.026
 6489TIP3    H219411   1.370   4.435  -0.001
 6490TIP3   OH219412   3.192   4.112   3.845
 6490TIP3    H119413   3.163   4.181   3.786
 6490TIP3    H219414   3.287   4.126   3.852
 6491TIP3   OH219415   4.855   5.354   0.996
 6491TIP3    H119416   4.916   5.281   0.985
 6491TIP3    H219417   4.883   5.396   1.078
 6492TIP3   OH219418   7.103   5.327   4.595
 6492TIP3    H119419   7.128   5.288   4.679
 6492TIP3    H219420   7.180   5.376   4.567
 6493TIP3   OH219421   7.742   5.356   3.290
 6493TIP3    H119422   7.664   5.362   3.235
 6493TIP3    H219423   7.809   5.319   3.233
 6494TIP3   OH219424   1.032   4.900   5.821
 6494TIP3    H119425   1.030   4.993   5.797
 6494TIP3    H219426   1.089   4.897   5.898
 6495TIP3   OH219427   2.418   6.457   3.523
 6495TIP3    H119428   2.495   6.514   3.522
 6495TIP3    H219429   2.453   6.368   3.518
 6496TIP3   OH219430   5.200   3.789   3.753
 6496TIP3    H119431   5.242   3.799   3.667
 6496TIP3    H219432   5.228   3.703   3.783
 6497TIP3   OH219433   0.478   2.559   6.380
 6497TIP3    H119434   0.442   2.623   6.441
 6497TIP3    H219435   0.453   2.474   6.416
 6498TIP3   OH219436   0.355   1.055   0.045
 6498TIP3    H119437   0.350   1.003  -0.036
 6498TIP3    H219438   0.307   1.135   0.025
 6499TIP3   OH219439   6.993   1.909   0.103
 6499TIP3    H119440   6.983   1.947   0.190
 6499TIP3    H219441   7.000   1.815   0.118
 6500TIP3   OH219442   5.970   5.885   6.369
 6500TIP3    H119443   5.997   5.976   6.378
 6500TIP3    H219444   6.041   5.835   6.411
 6501TIP3   OH219445   3.859   0.417   4.278
 6501TIP3    H119446   3.842   0.377   4.193
 6501TIP3    H219447   3.805   0.368   4.340
 6502TIP3   OH219448   1.157   0.697   4.269
 6502TIP3    H119449   1.158   0.619   4.213
 6502TIP3    H219450   1.195   0.667   4.352
 6503TIP3   OH219451   8.094   2.332   4.666
 6503TIP3    H119452   8.051   2.416   4.684
 6503TIP3    H219453   8.042   2.268   4.714
 6504TIP3   OH219454   5.336   3.617   5.626
 6504TIP3    H119455   5.353   3.691   5.567
 6504TIP3    H219456   5.419   3.603   5.671
 6505TIP3   OH219457   6.382   3.762   2.976
 6505TIP3    H119458   6.350   3.672   2.966
 6505TIP3    H219459   6.306   3.817   2.957
 6506TIP3   OH219460   3.424   6.225   1.828
 6506TIP3    H119461   3.410   6.150   1.770
 6506TIP3    H219462   3.444   6.297   1.769
 6507TIP3   OH219463   0.051   1.284   2.561
 6507TIP3    H119464  -0.004   1.310   2.634
 6507TIP3    H219465   0.135   1.262   2.601
 6508TIP3   OH219466   6.636   5.810   4.911
 6508TIP3    H119467   6.685   5.728   4.904
 6508TIP3    H219468   6.595   5.806   4.997
 6509TIP3   OH219469   5.368   0.790   1.376
 6509TIP3    H119470   5.428   0.759   1.309
 6509TIP3    H219471   5.353   0.713   1.432
 6510TIP3   OH219472   2.886   7.311   4.060
 6510TIP3    H119473   2.835   7.375   4.011
 6510TIP3    H219474   2.822   7.265   4.113
 6511TIP3   OH219475   8.049   5.810   5.711
 6511TIP3    H119476   7.974   5.866   5.726
 6511TIP3    H219477   8.105   5.859   5.651
 6512TIP3   OH219478   5.995   1.479   5.161
 6512TIP3    H119479   6.060   1.518   5.103
 6512TIP3    H219480   5.996   1.386   5.139
 6513TIP3   OH219481   5.447   5.441   1.036
 6513TIP3    H119482   5.354   5.457   1.056
 6513TIP3    H219483   5.486   5.528   1.031
 6514TIP3   OH219484   4.415   3.395   3.804
 6514TIP3    H119485   4.368   3.458   3.858
 6514TIP3    H219486   4.346   3.341   3.764
 6515TIP3   OH219487   5.692   3.805   6.553
 6515TIP3    H119488   5.683   3.760   6.470
 6515TIP3    H219489   5.785   3.824   6.561
 6516TIP3   OH219490   6.586   5.060   2.293
 6516TIP3    H119491   6.559   5.031   2.206
 6516TIP3    H219492   6.506   5.055   2.346
 6517TIP3   OH219493   3.142   3.366   2.189
 6517TIP3    H119494   3.062   3.315   2.201
 6517TIP3    H219495   3.211   3.311   2.226
 6518TIP3   OH219496   2.872   3.970   3.846
 6518TIP3    H119497   2.882   4.022   3.766
 6518TIP3    H219498   2.803   3.907   3.825
 6519TIP3   OH219499   6.671   5.602   4.487
 6519TIP3    H119500   6.576   5.597   4.486
 6519TIP3    H219501   6.695   5.626   4.398
 6520TIP3   OH219502   6.188   4.049   3.039
 6520TIP3    H119503   6.208   4.045   3.133
 6520TIP3    H219504   6.210   4.139   3.013
 6521TIP3   OH219505   2.313   0.541   5.124
 6521TIP3    H119506   2.301   0.632   5.096
 6521TIP3    H219507   2.269   0.537   5.209
 6522TIP3   OH219508   0.126   7.133   4.490
 6522TIP3    H119509   0.125   7.089   4.405
 6522TIP3    H219510   0.089   7.220   4.472
 6523TIP3   OH219511   3.635   4.894   5.728
 6523TIP3    H119512   3.642   4.933   5.815
 6523TIP3    H219513   3.663   4.803   5.740
 6524TIP3   OH219514   2.292   0.564   0.734
 6524TIP3    H119515   2.220   0.624   0.711
 6524TIP3    H219516   2.248   0.481   0.754
 6525TIP3   OH219517   0.394   4.578   3.731
 6525TIP3    H119518   0.338   4.636   3.680
 6525TIP3    H219519   0.344   4.496   3.739
 6526TIP3   OH219520   3.979   6.952   0.063
 6526TIP3    H119521   3.896   6.913   0.035
 6526TIP3    H219522   4.046   6.905   0.013
 6527TIP3   OH219523   6.460   7.297   3.054
 6527TIP3    H119524   6.405   7.363   3.096
 6527TIP3    H219525   6.476   7.331   2.966
 6528TIP3   OH219526   3.382   1.205   2.906
 6528TIP3    H119527   3.322   1.132   2.893
 6528TIP3    H219528   3.352   1.247   2.987
 6529TIP3   OH219529   1.487   5.205   4.083
 6529TIP3    H119530   1.473   5.298   4.099
 6529TIP3    H219531   1.567   5.201   4.031
 6530TIP3   OH219532   6.507   2.470   1.162
 6530TIP3    H119533   6.504   2.563   1.183
 6530TIP3    H219534   6.600   2.448   1.161
 6531TIP3   OH219535   6.405   7.347   1.720
 6531TIP3    H119536   6.498   7.371   1.722
 6531TIP3    H219537   6.388   7.327   1.628
 6532TIP3   OH219538   1.224   6.987   4.128
 6532TIP3    H119539   1.291   6.931   4.088
 6532TIP3    H219540   1.270   7.068   4.149
 6533TIP3   OH219541   1.394   0.506   2.815
 6533TIP3    H119542   1.442   0.566   2.871
 6533TIP3    H219543   1.460   0.446   2.782
 6534TIP3   OH219544   8.123   3.341   5.003
 6534TIP3    H119545   8.049   3.292   5.040
 6534TIP3    H219546   8.082   3.417   4.962
 6535TIP3   OH219547   1.948   4.924   0.590
 6535TIP3    H119548   1.953   4.972   0.672
 6535TIP3    H219549   1.968   4.989   0.522
 6536TIP3   OH219550   1.165   2.433   4.085
 6536TIP3    H119551   1.197   2.352   4.045
 6536TIP3    H219552   1.079   2.446   4.046
 6537TIP3   OH219553   7.825   7.113   5.532
 6537TIP3    H119554   7.755   7.164   5.491
 6537TIP3    H219555   7.792   7.024   5.536
 6538TIP3   OH219556   0.935   1.909   5.002
 6538TIP3    H119557   0.932   1.908   5.098
 6538TIP3    H219558   0.884   1.832   4.977
 6539TIP3   OH219559   6.884   2.596   0.491
 6539TIP3    H119560   6.878   2.540   0.414
 6539TIP3    H219561   6.794   2.602   0.523
 6540TIP3   OH219562   6.967   0.257   4.573
 6540TIP3    H119563   6.990   0.299   4.490
 6540TIP3    H219564   6.917   0.180   4.547
 6541TIP3   OH219565   5.902   4.116   3.537
 6541TIP3    H119566   5.852   4.188   3.497
 6541TIP3    H219567   5.984   4.156   3.565
 6542TIP3   OH219568   7.161   7.619   6.700
 6542TIP3    H119569   7.196   7.569   6.627
 6542TIP3    H219570   7.238   7.658   6.742
 6543TIP3   OH219571   7.095   3.566   4.401
 6543TIP3    H119572   7.092   3.533   4.491
 6543TIP3    H219573   7.140   3.497   4.352
 6544TIP3   OH219574   7.182   6.788   5.356
 6544TIP3    H119575   7.147   6.723   5.296
 6544TIP3    H219576   7.116   6.795   5.425
 6545TIP3   OH219577   1.367   5.392   1.854
 6545TIP3    H119578   1.430   5.435   1.796
 6545TIP3    H219579   1.282   5.427   1.826
 6546TIP3   OH219580   2.719   3.863   5.314
 6546TIP3    H119581   2.699   3.944   5.360
 6546TIP3    H219582   2.813   3.867   5.298
 6547TIP3   OH219583   1.662   2.904   2.631
 6547TIP3    H119584   1.651   2.937   2.720
 6547TIP3    H219585   1.604   2.959   2.578
 6548TIP3   OH219586   1.517   2.081   5.620
 6548TIP3    H119587   1.445   2.052   5.676
 6548TIP3    H219588   1.561   2.149   5.670
 6549TIP3   OH219589   5.051   3.747   0.108
 6549TIP3    H119590   4.979   3.788   0.059
 6549TIP3    H219591   5.013   3.727   0.194
 6550TIP3   OH219592   2.423   0.959   1.785
 6550TIP3    H119593   2.460   1.045   1.764
 6550TIP3    H219594   2.422   0.956   1.880
 6551TIP3   OH219595   8.144   2.953   5.002
 6551TIP3    H119596   8.208   2.881   4.994
 6551TIP3    H219597   8.190   3.030   4.968
 6552TIP3   OH219598   2.265   6.463   5.704
 6552TIP3    H119599   2.236   6.461   5.795
 6552TIP3    H219600   2.187   6.438   5.654
 6553TIP3   OH219601   4.267   3.669   4.144
 6553TIP3    H119602   4.301   3.669   4.055
 6553TIP3    H219603   4.259   3.761   4.167
 6554TIP3   OH219604   4.243   5.141   0.243
 6554TIP3    H119605   4.333   5.174   0.244
 6554TIP3    H219606   4.198   5.196   0.178
 6555TIP3   OH219607   4.524   5.813   3.855
 6555TIP3    H119608   4.605   5.862   3.845
 6555TIP3    H219609   4.527   5.747   3.786
 6556TIP3   OH219610   4.048   6.931   4.049
 6556TIP3    H119611   4.105   6.990   3.998
 6556TIP3    H219612   3.982   6.903   3.986
 6557TIP3   OH219613   3.567   3.708   3.584
 6557TIP3    H119614   3.573   3.795   3.544
 6557TIP3    H219615   3.578   3.647   3.512
 6558TIP3   OH219616   8.167   3.685   3.911
 6558TIP3    H119617   8.230   3.755   3.895
 6558TIP3    H219618   8.203   3.636   3.985
 6559TIP3   OH219619   1.099   1.562   4.275
 6559TIP3    H119620   1.066   1.559   4.185
 6559TIP3    H219621   1.123   1.654   4.288
 6560TIP3   OH219622   1.118   1.128   4.794
 6560TIP3    H119623   1.032   1.156   4.763
 6560TIP3    H219624   1.107   1.121   4.889
 6561TIP3   OH219625   2.909   7.016   2.918
 6561TIP3    H119626   2.862   6.973   2.989
 6561TIP3    H219627   2.892   7.109   2.931
 6562TIP3   OH219628   6.725   0.051   3.124
 6562TIP3    H119629   6.711   0.048   3.219
 6562TIP3    H219630   6.816   0.077   3.113
 6563TIP3   OH219631   6.468   3.956   1.669
 6563TIP3    H119632   6.494   3.904   1.745
 6563TIP3    H219633   6.443   3.891   1.603
 6564TIP3   OH219634   7.112   0.446   1.305
 6564TIP3    H119635   7.179   0.508   1.335
 6564TIP3    H219636   7.124   0.443   1.210
 6565TIP3   OH219637   6.864   1.741   3.197
 6565TIP3    H119638   6.820   1.686   3.132
 6565TIP3    H219639   6.808   1.734   3.275
 6566TIP3   OH219640   0.526   4.512   1.906
 6566TIP3    H119641   0.602   4.457   1.884
 6566TIP3    H219642   0.547   4.549   1.992
 6567TIP3   OH219643   7.257   5.225   0.009
 6567TIP3    H119644   7.188   5.212   0.075
 6567TIP3    H219645   7.333   5.251   0.060
 6568TIP3   OH219646   4.278   0.452   2.631
 6568TIP3    H119647   4.222   0.474   2.556
 6568TIP3    H219648   4.290   0.357   2.626
 6569TIP3   OH219649   2.550   5.482   4.533
 6569TIP3    H119650   2.546   5.440   4.447
 6569TIP3    H219651   2.525   5.573   4.515
 6570TIP3   OH219652   7.418   7.384   5.216
 6570TIP3    H119653   7.497   7.421   5.178
 6570TIP3    H219654   7.372   7.459   5.254
 6571TIP3   OH219655   6.848   6.588   0.581
 6571TIP3    H119656   6.798   6.512   0.611
 6571TIP3    H219657   6.786   6.637   0.526
 6572TIP3   OH219658   7.832   2.534   2.902
 6572TIP3    H119659   7.827   2.550   2.808
 6572TIP3    H219660   7.900   2.594   2.933
 6573TIP3   OH219661   3.465   7.684   1.065
 6573TIP3    H119662   3.554   7.674   1.030
 6573TIP3    H219663   3.451   7.605   1.118
 6574TIP3   OH219664   0.477   1.100   3.695
 6574TIP3    H119665   0.400   1.108   3.751
 6574TIP3    H219666   0.512   1.189   3.689
 6575TIP3   OH219667   3.792   2.916   0.895
 6575TIP3    H119668   3.771   3.010   0.894
 6575TIP3    H219669   3.885   2.913   0.915
 6576TIP3   OH219670   5.990   6.477   1.886
 6576TIP3    H119671   5.966   6.527   1.964
 6576TIP3    H219672   5.956   6.528   1.813
 6577TIP3   OH219673   6.339   6.822   3.889
 6577TIP3    H119674   6.350   6.772   3.970
 6577TIP3    H219675   6.299   6.904   3.917
 6578TIP3   OH219676   4.395   0.761   2.586
 6578TIP3    H119677   4.385   0.707   2.508
 6578TIP3    H219678   4.328   0.728   2.646
 6579TIP3   OH219679   2.561   6.142   2.394
 6579TIP3    H119680   2.589   6.214   2.338
 6579TIP3    H219681   2.612   6.152   2.474
 6580TIP3   OH219682   1.783   1.891   0.287
 6580TIP3    H119683   1.750   1.932   0.367
 6580TIP3    H219684   1.784   1.961   0.222
 6581TIP3   OH219685   6.186   6.011   5.384
 6581TIP3    H119686   6.190   6.010   5.480
 6581TIP3    H219687   6.181   6.104   5.362
 6582TIP3   OH219688   1.092   4.572   1.728
 6582TIP3    H119689   1.174   4.620   1.732
 6582TIP3    H219690   1.080   4.554   1.635
 6583TIP3   OH219691   4.953   5.209   2.303
 6583TIP3    H119692   4.975   5.118   2.283
 6583TIP3    H219693   5.025   5.260   2.266
 6584TIP3   OH219694   6.930   2.527   6.115
 6584TIP3    H119695   6.910   2.618   6.137
 6584TIP3    H219696   6.898   2.477   6.190
 6585TIP3   OH219697   2.239   2.402   5.539
 6585TIP3    H119698   2.329   2.424   5.518
 6585TIP3    H219699   2.245   2.321   5.591
 6586TIP3   OH219700   0.563   7.215   2.172
 6586TIP3    H119701   0.517   7.135   2.144
 6586TIP3    H219702   0.526   7.284   2.119
 6587TIP3   OH219703   2.800   3.361   5.265
 6587TIP3    H119704   2.756   3.435   5.223
 6587TIP3    H219705   2.889   3.362   5.229
 6588TIP3   OH219706   0.572   1.569   4.560
 6588TIP3    H119707   0.520   1.503   4.606
 6588TIP3    H219708   0.662   1.553   4.587
 6589TIP3   OH219709   6.808   2.449   2.706
 6589TIP3    H119710   6.804   2.479   2.615
 6589TIP3    H219711   6.898   2.422   2.718
 6590TIP3   OH219712   7.393   7.236   1.066
 6590TIP3    H119713   7.307   7.206   1.035
 6590TIP3    H219714   7.425   7.293   0.996
 6591TIP3   OH219715   1.691   0.305   5.392
 6591TIP3    H119716   1.598   0.281   5.390
 6591TIP3    H219717   1.733   0.235   5.440
 6592TIP3   OH219718   2.188   3.381   5.445
 6592TIP3    H119719   2.163   3.353   5.357
 6592TIP3    H219720   2.144   3.319   5.503
 6593TIP3   OH219721   2.752   7.833   4.438
 6593TIP3    H119722   2.738   7.779   4.515
 6593TIP3    H219723   2.762   7.771   4.366
 6594TIP3   OH219724   5.116   0.313   2.657
 6594TIP3    H119725   5.112   0.345   2.747
 6594TIP3    H219726   5.155   0.225   2.665
 6595TIP3   OH219727   1.724   3.927   5.203
 6595TIP3    H119728   1.760   3.882   5.127
 6595TIP3    H219729   1.738   4.020   5.184
 6596TIP3   OH219730   2.540   2.554   0.864
 6596TIP3    H119731   2.479   2.502   0.810
 6596TIP3    H219732   2.624   2.509   0.855
 6597TIP3   OH219733   1.703   6.718   4.723
 6597TIP3    H119734   1.792   6.724   4.757
 6597TIP3    H219735   1.707   6.762   4.638
 6598TIP3   OH219736   2.291   6.279   3.859
 6598TIP3    H119737   2.255   6.368   3.865
 6598TIP3    H219738   2.215   6.223   3.844
 6599TIP3   OH219739   7.955   0.496   4.589
 6599TIP3    H119740   8.038   0.450   4.604
 6599TIP3    H219741   7.917   0.504   4.676
 6600TIP3   OH219742   1.600   0.942   4.304
 6600TIP3    H119743   1.509   0.916   4.287
 6600TIP3    H219744   1.606   0.949   4.399
 6601TIP3   OH219745   2.745   7.665   4.672
 6601TIP3    H119746   2.744   7.582   4.625
 6601TIP3    H219747   2.761   7.642   4.763
 6602TIP3   OH219748   0.222   7.318   0.430
 6602TIP3    H119749   0.311   7.292   0.404
 6602TIP3    H219750   0.226   7.413   0.438
 6603TIP3   OH219751   5.323   6.206   5.541
 6603TIP3    H119752   5.367   6.181   5.460
 6603TIP3    H219753   5.230   6.192   5.524
 6604TIP3   OH219754   4.476   0.530   4.462
 6604TIP3    H119755   4.455   0.497   4.374
 6604TIP3    H219756   4.400   0.506   4.515
 6605TIP3   OH219757   4.320   3.477   3.574
 6605TIP3    H119758   4.398   3.499   3.624
 6605TIP3    H219759   4.275   3.560   3.562
 6606TIP3   OH219760   4.862   1.550   5.160
 6606TIP3    H119761   4.772   1.519   5.150
 6606TIP3    H219762   4.913   1.471   5.182
 6607TIP3   OH219763   3.070   1.124   3.328
 6607TIP3    H119764   3.116   1.063   3.386
 6607TIP3    H219765   3.001   1.161   3.382
 6608TIP3   OH219766   4.212   2.353   2.369
 6608TIP3    H119767   4.295   2.348   2.417
 6608TIP3    H219768   4.147   2.373   2.437
 6609TIP3   OH219769   7.636   4.366   6.674
 6609TIP3    H119770   7.636   4.301   6.604
 6609TIP3    H219771   7.698   4.332   6.739
 6610TIP3   OH219772   3.093   1.659   1.261
 6610TIP3    H119773   3.160   1.651   1.193
 6610TIP3    H219774   3.114   1.589   1.324
 6611TIP3   OH219775   3.097   6.255   6.394
 6611TIP3    H119776   3.038   6.288   6.462
 6611TIP3    H219777   3.182   6.295   6.415
 6612TIP3   OH219778   1.045   7.030   0.682
 6612TIP3    H119779   1.078   7.110   0.721
 6612TIP3    H219780   1.010   6.980   0.755
 6613TIP3   OH219781   6.456   2.780   0.586
 6613TIP3    H119782   6.449   2.775   0.490
 6613TIP3    H219783   6.544   2.747   0.605
 6614TIP3   OH219784   2.967   6.282   2.454
 6614TIP3    H119785   2.942   6.358   2.507
 6614TIP3    H219786   3.058   6.265   2.479
 6615TIP3   OH219787   2.305   3.578   2.936
 6615TIP3    H119788   2.250   3.550   2.862
 6615TIP3    H219789   2.247   3.571   3.012
 6616TIP3   OH219790   6.676   0.942   4.842
 6616TIP3    H119791   6.652   0.892   4.920
 6616TIP3    H219792   6.769   0.925   4.830
 6617TIP3   OH219793   7.792   6.404   5.807
 6617TIP3    H119794   7.822   6.315   5.788
 6617TIP3    H219795   7.700   6.392   5.834
 6618TIP3   OH219796   5.257   5.771   0.160
 6618TIP3    H119797   5.341   5.739   0.126
 6618TIP3    H219798   5.279   5.812   0.244
 6619TIP3   OH219799   5.341   7.749   3.502
 6619TIP3    H119800   5.397   7.723   3.575
 6619TIP3    H219801   5.272   7.683   3.500
 6620TIP3   OH219802   0.642   5.468   6.632
 6620TIP3    H119803   0.680   5.390   6.591
 6620TIP3    H219804   0.698   5.486   6.708
 6621TIP3   OH219805   6.648   7.466   1.731
 6621TIP3    H119806   6.654   7.529   1.803
 6621TIP3    H219807   6.658   7.518   1.652
 6622TIP3   OH219808   2.870   2.729   2.494
 6622TIP3    H119809   2.883   2.796   2.427
 6622TIP3    H219810   2.884   2.776   2.577
 6623TIP3   OH219811   6.765   6.121   6.681
 6623TIP3    H119812   6.771   6.183   6.754
 6623TIP3    H219813   6.838   6.061   6.694
 6624TIP3   OH219814   7.535   5.941   2.204
 6624TIP3    H119815   7.527   5.955   2.110
 6624TIP3    H219816   7.574   6.022   2.237
 6625TIP3   OH219817   7.063   5.516   2.847
 6625TIP3    H119818   6.996   5.551   2.907
 6625TIP3    H219819   7.146   5.533   2.892
 6626TIP3   OH219820   7.247   5.992   6.595
 6626TIP3    H119821   7.307   5.918   6.577
 6626TIP3    H219822   7.227   6.027   6.508
 6627TIP3   OH219823   7.125   2.543   3.880
 6627TIP3    H119824   7.152   2.622   3.928
 6627TIP3    H219825   7.206   2.492   3.872
 6628TIP3   OH219826   7.128   2.167   4.029
 6628TIP3    H119827   7.115   2.201   4.118
 6628TIP3    H219828   7.039   2.157   3.994
 6629TIP3   OH219829   0.930   1.105   2.253
 6629TIP3    H119830   1.022   1.093   2.275
 6629TIP3    H219831   0.918   1.199   2.249
 6630TIP3   OH219832   5.243   1.667   1.298
 6630TIP3    H119833   5.227   1.645   1.206
 6630TIP3    H219834   5.173   1.623   1.346
 6631TIP3   OH219835   5.392   1.042   2.809
 6631TIP3    H119836   5.336   0.983   2.860
 6631TIP3    H219837   5.399   0.999   2.724
 6632TIP3   OH219838   7.525   7.071   1.445
 6632TIP3    H119839   7.537   7.157   1.485
 6632TIP3    H219840   7.449   7.034   1.491
 6633TIP3   OH219841   3.965   1.135   4.344
 6633TIP3    H119842   3.939   1.213   4.393
 6633TIP3    H219843   3.969   1.066   4.409
 6634TIP3   OH219844   2.008   0.308   5.700
 6634TIP3    H119845   1.976   0.380   5.645
 6634TIP3    H219846   1.955   0.312   5.779
 6635TIP3   OH219847   3.922   6.655   3.525
 6635TIP3    H119848   3.981   6.661   3.600
 6635TIP3    H219849   3.945   6.572   3.483
 6636TIP3   OH219850   2.558   6.459   3.186
 6636TIP3    H119851   2.588   6.543   3.220
 6636TIP3    H219852   2.622   6.396   3.217
 6637TIP3   OH219853   6.151   7.239   0.890
 6637TIP3    H119854   6.120   7.329   0.882
 6637TIP3    H219855   6.131   7.215   0.980
 6638TIP3   OH219856   2.742   7.709   2.162
 6638TIP3    H119857   2.828   7.750   2.163
 6638TIP3    H219858   2.749   7.636   2.224
 6639TIP3   OH219859   7.253   6.885   2.796
 6639TIP3    H119860   7.332   6.930   2.826
 6639TIP3    H219861   7.262   6.883   2.701
 6640TIP3   OH219862   1.848   2.440   0.997
 6640TIP3    H119863   1.784   2.451   0.926
 6640TIP3    H219864   1.864   2.529   1.029
 6641TIP3   OH219865   3.213   5.017   1.630
 6641TIP3    H119866   3.235   4.932   1.669
 6641TIP3    H219867   3.205   4.999   1.536
 6642TIP3   OH219868   0.052   5.420   4.190
 6642TIP3    H119869   0.035   5.440   4.282
 6642TIP3    H219870  -0.006   5.479   4.142
 6643TIP3   OH219871   2.171   3.520   5.884
 6643TIP3    H119872   2.260   3.541   5.914
 6643TIP3    H219873   2.156   3.579   5.810
 6644TIP3   OH219874   1.371   2.796   1.199
 6644TIP3    H119875   1.329   2.752   1.273
 6644TIP3    H219876   1.327   2.881   1.193
 6645TIP3   OH219877   8.129   1.731   1.308
 6645TIP3    H119878   8.114   1.636   1.301
 6645TIP3    H219879   8.216   1.739   1.349
 6646TIP3   OH219880   3.185   3.261   5.326
 6646TIP3    H119881   3.231   3.224   5.401
 6646TIP3    H219882   3.255   3.290   5.267
 6647TIP3   OH219883   0.400   4.655   0.015
 6647TIP3    H119884   0.394   4.560   0.027
 6647TIP3    H219885   0.412   4.689   0.104
 6648TIP3   OH219886   8.193   0.867   2.246
 6648TIP3    H119887   8.100   0.887   2.261
 6648TIP3    H219888   8.197   0.840   2.155
 6649TIP3   OH219889   2.974   5.732   0.340
 6649TIP3    H119890   3.069   5.725   0.335
 6649TIP3    H219891   2.946   5.743   0.249
 6650TIP3   OH219892   0.781   4.315   3.356
 6650TIP3    H119893   0.818   4.314   3.268
 6650TIP3    H219894   0.777   4.408   3.380
 6651TIP3   OH219895   5.466   3.623   4.666
 6651TIP3    H119896   5.510   3.538   4.665
 6651TIP3    H219897   5.379   3.606   4.628
 6652TIP3   OH219898   1.851   1.481   6.320
 6652TIP3    H119899   1.879   1.391   6.336
 6652TIP3    H219900   1.781   1.496   6.383
 6653TIP3   OH219901   1.342   4.408   0.946
 6653TIP3    H119902   1.323   4.461   1.024
 6653TIP3    H219903   1.259   4.364   0.927
 6654TIP3   OH219904   4.600   3.426   3.548
 6654TIP3    H119905   4.542   3.368   3.597
 6654TIP3    H219906   4.672   3.444   3.609
 6655TIP3   OH219907   6.542   5.485   3.138
 6655TIP3    H119908   6.616   5.508   3.081
 6655TIP3    H219909   6.529   5.391   3.123
 6656TIP3   OH219910   6.738   4.466   6.327
 6656TIP3    H119911   6.785   4.485   6.246
 6656TIP3    H219912   6.646   4.478   6.305
 6657TIP3   OH219913   4.050   5.533   4.478
 6657TIP3    H119914   4.053   5.558   4.386
 6657TIP3    H219915   3.957   5.517   4.496
 6658TIP3   OH219916   3.400   4.004   1.954
 6658TIP3    H119917   3.381   4.059   1.878
 6658TIP3    H219918   3.324   3.946   1.961
 6659TIP3   OH219919   5.864   0.096   4.712
 6659TIP3    H119920   5.868   0.092   4.616
 6659TIP3    H219921   5.954   0.113   4.739
 6660TIP3   OH219922   7.204   1.350   0.463
 6660TIP3    H119923   7.147   1.350   0.540
 6660TIP3    H219924   7.221   1.443   0.445
 6661TIP3   OH219925   6.500   0.356   2.899
 6661TIP3    H119926   6.488   0.428   2.838
 6661TIP3    H219927   6.424   0.362   2.958
 6662TIP3   OH219928   5.540   4.674   4.732
 6662TIP3    H119929   5.597   4.661   4.657
 6662TIP3    H219930   5.587   4.736   4.787
 6663TIP3   OH219931   6.215   6.308   3.418
 6663TIP3    H119932   6.199   6.214   3.426
 6663TIP3    H219933   6.279   6.327   3.487
 6664TIP3   OH219934   2.690   6.784   6.372
 6664TIP3    H119935   2.677   6.877   6.354
 6664TIP3    H219936   2.603   6.745   6.361
 6665TIP3   OH219937   2.996   2.040   1.289
 6665TIP3    H119938   3.013   2.132   1.270
 6665TIP3    H219939   3.069   2.012   1.344
 6666TIP3   OH219940   3.484   1.587   6.779
 6666TIP3    H119941   3.458   1.642   6.705
 6666TIP3    H219942   3.461   1.498   6.753
 6667TIP3   OH219943   4.470   1.015   6.101
 6667TIP3    H119944   4.549   0.972   6.135
 6667TIP3    H219945   4.469   0.992   6.008
 6668TIP3   OH219946   4.615   4.287   5.854
 6668TIP3    H119947   4.520   4.296   5.864
 6668TIP3    H219948   4.628   4.193   5.839
 6669TIP3   OH219949   3.484   0.915   3.470
 6669TIP3    H119950   3.478   0.863   3.550
 6669TIP3    H219951   3.577   0.931   3.458
 6670TIP3   OH219952   0.806   3.091   0.187
 6670TIP3    H119953   0.757   3.083   0.269
 6670TIP3    H219954   0.895   3.064   0.210
 6671TIP3   OH219955   2.991   7.308   0.357
 6671TIP3    H119956   3.055   7.314   0.427
 6671TIP3    H219957   2.989   7.395   0.318
 6672TIP3   OH219958   1.177   2.777   5.731
 6672TIP3    H119959   1.225   2.775   5.648
 6672TIP3    H219960   1.211   2.854   5.776
 6673TIP3   OH219961   3.947   4.585   6.122
 6673TIP3    H119962   3.992   4.577   6.038
 6673TIP3    H219963   3.957   4.678   6.145
 6674TIP3   OH219964   2.829   4.459   5.725
 6674TIP3    H119965   2.848   4.406   5.647
 6674TIP3    H219966   2.752   4.511   5.700
 6675TIP3   OH219967   8.114   5.376   5.672
 6675TIP3    H119968   8.130   5.292   5.715
 6675TIP3    H219969   8.065   5.354   5.593
 6676TIP3   OH219970   4.429   7.514   0.633
 6676TIP3    H119971   4.428   7.552   0.545
 6676TIP3    H219972   4.422   7.420   0.619
 6677TIP3   OH219973   5.260   5.758   5.358
 6677TIP3    H119974   5.293   5.758   5.268
 6677TIP3    H219975   5.165   5.755   5.349
 6678TIP3   OH219976   7.048   0.891   0.766
 6678TIP3    H119977   7.010   0.817   0.719
 6678TIP3    H219978   7.132   0.906   0.723
 6679TIP3   OH219979   1.748   2.138   0.144
 6679TIP3    H119980   1.771   2.197   0.216
 6679TIP3    H219981   1.693   2.190   0.086
 6680TIP3   OH219982   7.736   4.495   0.597
 6680TIP3    H119983   7.704   4.584   0.583
 6680TIP3    H219984   7.813   4.505   0.653
 6681TIP3   OH219985   3.710   4.488   0.890
 6681TIP3    H119986   3.653   4.418   0.922
 6681TIP3    H219987   3.796   4.447   0.883
 6682TIP3   OH219988   7.853   3.337   6.160
 6682TIP3    H119989   7.855   3.416   6.107
 6682TIP3    H219990   7.876   3.366   6.248
 6683TIP3   OH219991   6.043   6.244   2.163
 6683TIP3    H119992   6.012   6.334   2.157
 6683TIP3    H219993   6.137   6.251   2.178
 6684TIP3   OH219994   0.716   2.283   3.810
 6684TIP3    H119995   0.703   2.189   3.822
 6684TIP3    H219996   0.722   2.295   3.715
 6685TIP3   OH219997   5.655   7.696   5.925
 6685TIP3    H119998   5.681   7.645   6.002
 6685TIP3    H219999   5.735   7.742   5.899
 6686TIP3   OH220000   0.457   0.317   4.935
 6686TIP3    H120001   0.438   0.313   4.841
 6686TIP3    H220002   0.422   0.236   4.970
 6687TIP3   OH220003   2.705   0.624   4.557
 6687TIP3    H120004   2.763   0.700   4.571
 6687TIP3    H220005   2.741   0.557   4.615
 6688TIP3   OH220006   5.534   6.993   6.639
 6688TIP3    H120007   5.529   7.003   6.544
 6688TIP3    H220008   5.617   6.946   6.654
 6689TIP3   OH220009   6.260   3.645   2.012
 6689TIP3    H120010   6.198   3.718   2.023
 6689TIP3    H220011   6.239   3.608   1.927
 6690TIP3   OH220012   3.371   1.366   2.077
 6690TIP3    H120013   3.386   1.409   1.993
 6690TIP3    H220014   3.458   1.344   2.109
 6691TIP3   OH220015   3.362   4.723   5.832
 6691TIP3    H120016   3.457   4.738   5.827
 6691TIP3    H220017   3.349   4.637   5.793
 6692TIP3   OH220018   7.127   4.455   3.840
 6692TIP3    H120019   7.072   4.453   3.919
 6692TIP3    H220020   7.199   4.513   3.863
 6693TIP3   OH220021   0.458   5.577   6.442
 6693TIP3    H120022   0.504   5.533   6.513
 6693TIP3    H220023   0.527   5.620   6.391
 6694TIP3   OH220024   0.135   0.070   2.289
 6694TIP3    H120025   0.046   0.043   2.267
 6694TIP3    H220026   0.125   0.156   2.329
 6695TIP3   OH220027   4.792   0.452   0.256
 6695TIP3    H120028   4.810   0.542   0.225
 6695TIP3    H220029   4.869   0.402   0.227
 6696TIP3   OH220030   6.078   0.620   5.125
 6696TIP3    H120031   6.172   0.607   5.112
 6696TIP3    H220032   6.039   0.607   5.039
 6697TIP3   OH220033   1.570   0.168   4.899
 6697TIP3    H120034   1.535   0.201   4.982
 6697TIP3    H220035   1.656   0.133   4.921
 6698TIP3   OH220036   4.802   2.893   0.631
 6698TIP3    H120037   4.708   2.901   0.651
 6698TIP3    H220038   4.842   2.863   0.712
 6699TIP3   OH220039   0.658   5.472   3.625
 6699TIP3    H120040   0.720   5.535   3.588
 6699TIP3    H220041   0.622   5.516   3.702
 6700TIP3   OH220042   5.257   2.955   6.768
 6700TIP3    H120043   5.305   2.873   6.782
 6700TIP3    H220044   5.319   3.013   6.725
 6701TIP3   OH220045   7.806   4.321   1.248
 6701TIP3    H120046   7.738   4.349   1.309
 6701TIP3    H220047   7.779   4.358   1.164
 6702TIP3   OH220048   8.180   3.666   6.450
 6702TIP3    H120049   8.253   3.689   6.507
 6702TIP3    H220050   8.105   3.660   6.509
 6703TIP3   OH220051   0.427   4.141   5.135
 6703TIP3    H120052   0.398   4.133   5.226
 6703TIP3    H220053   0.490   4.070   5.124
 6704TIP3   OH220054   0.054   3.610   5.734
 6704TIP3    H120055   0.051   3.552   5.810
 6704TIP3    H220056  -0.025   3.663   5.741
 6705TIP3   OH220057   7.555   0.732   1.732
 6705TIP3    H120058   7.462   0.712   1.743
 6705TIP3    H220059   7.601   0.658   1.772
 6706TIP3   OH220060   7.586   6.174   0.069
 6706TIP3    H120061   7.497   6.161   0.038
 6706TIP3    H220062   7.641   6.136   0.001
 6707TIP3   OH220063   6.561   3.545   1.649
 6707TIP3    H120064   6.526   3.516   1.734
 6707TIP3    H220065   6.492   3.524   1.586
 6708TIP3   OH220066   1.340   2.246   3.895
 6708TIP3    H120067   1.298   2.198   3.824
 6708TIP3    H220068   1.431   2.217   3.894
 6709TIP3   OH220069   1.947   1.378   0.615
 6709TIP3    H120070   2.007   1.451   0.599
 6709TIP3    H220071   1.919   1.351   0.528
 6710TIP3   OH220072   0.743   6.437   0.858
 6710TIP3    H120073   0.720   6.351   0.894
 6710TIP3    H220074   0.835   6.429   0.834
 6711TIP3   OH220075   3.041   1.450   2.676
 6711TIP3    H120076   3.068   1.542   2.683
 6711TIP3    H220077   3.122   1.401   2.683
 6712TIP3   OH220078   0.282   2.026   6.484
 6712TIP3    H120079   0.302   2.104   6.536
 6712TIP3    H220080   0.224   2.058   6.415
 6713TIP3   OH220081   6.645   0.740   6.480
 6713TIP3    H120082   6.593   0.755   6.401
 6713TIP3    H220083   6.583   0.703   6.543
 6714TIP3   OH220084   2.441   7.032   5.214
 6714TIP3    H120085   2.458   7.108   5.157
 6714TIP3    H220086   2.495   6.962   5.178
 6715TIP3   OH220087   8.174   6.050   3.853
 6715TIP3    H120088   8.246   6.076   3.911
 6715TIP3    H220089   8.151   6.131   3.807
 6716TIP3   OH220090   2.927   7.274   2.983
 6716TIP3    H120091   3.021   7.272   3.000
 6716TIP3    H220092   2.892   7.329   3.053
 6717TIP3   OH220093   8.159   7.739   4.557
 6717TIP3    H120094   8.136   7.831   4.563
 6717TIP3    H220095   8.151   7.718   4.464
 6718TIP3   OH220096   7.420   4.042   4.858
 6718TIP3    H120097   7.504   4.087   4.869
 6718TIP3    H220098   7.444   3.949   4.853
 6719TIP3   OH220099   0.035   5.499   2.565
 6719TIP3    H120100  -0.031   5.547   2.615
 6719TIP3    H220101   0.089   5.566   2.525
 6720TIP3   OH220102   3.220   0.999   2.738
 6720TIP3    H120103   3.198   0.925   2.794
 6720TIP3    H220104   3.302   0.973   2.694
 6721TIP3   OH220105   7.572   7.246   4.893
 6721TIP3    H120106   7.640   7.273   4.954
 6721TIP3    H220107   7.617   7.189   4.831
 6722TIP3   OH220108   4.736   5.337   4.496
 6722TIP3    H120109   4.670   5.286   4.448
 6722TIP3    H220110   4.733   5.424   4.455
 6723TIP3   OH220111   3.726   0.361   2.016
 6723TIP3    H120112   3.689   0.436   2.062
 6723TIP3    H220113   3.755   0.302   2.086
 6724TIP3   OH220114   7.128   4.363   6.242
 6724TIP3    H120115   7.053   4.344   6.187
 6724TIP3    H220116   7.172   4.436   6.198
 6725TIP3   OH220117   5.298   0.369   4.724
 6725TIP3    H120118   5.349   0.409   4.794
 6725TIP3    H220119   5.331   0.279   4.719
 6726TIP3   OH220120   2.465   4.373   6.594
 6726TIP3    H120121   2.540   4.366   6.535
 6726TIP3    H220122   2.444   4.282   6.616
 6727TIP3   OH220123   0.827   7.063   0.410
 6727TIP3    H120124   0.805   6.975   0.440
 6727TIP3    H220125   0.744   7.100   0.381
 6728TIP3   OH220126   2.939   1.953   4.536
 6728TIP3    H120127   2.942   1.872   4.587
 6728TIP3    H220128   2.855   1.949   4.490
 6729TIP3   OH220129   8.094   3.012   5.657
 6729TIP3    H120130   8.056   2.985   5.741
 6729TIP3    H220131   8.177   2.965   5.653
 6730TIP3   OH220132   7.280   1.804   1.295
 6730TIP3    H120133   7.363   1.837   1.327
 6730TIP3    H220134   7.221   1.809   1.371
 6731TIP3   OH220135   7.457   2.245   2.616
 6731TIP3    H120136   7.389   2.290   2.566
 6731TIP3    H220137   7.484   2.308   2.682
 6732TIP3   OH220138   1.342   0.595   3.332
 6732TIP3    H120139   1.402   0.664   3.303
 6732TIP3    H220140   1.400   0.524   3.360
 6733TIP3   OH220141   7.008   3.921   4.663
 6733TIP3    H120142   7.080   3.916   4.726
 6733TIP3    H220143   7.033   3.860   4.593
 6734TIP3   OH220144   0.653   0.104   2.345
 6734TIP3    H120145   0.685   0.056   2.421
 6734TIP3    H220146   0.727   0.107   2.285
 6735TIP3   OH220147   5.169   7.056   5.718
 6735TIP3    H120148   5.137   7.001   5.789
 6735TIP3    H220149   5.178   6.996   5.643
 6736TIP3   OH220150   3.637   3.909   5.612
 6736TIP3    H120151   3.725   3.938   5.637
 6736TIP3    H220152   3.650   3.859   5.531
 6737TIP3   OH220153   6.309   0.420   0.747
 6737TIP3    H120154   6.377   0.356   0.728
 6737TIP3    H220155   6.311   0.430   0.843
 6738TIP3   OH220156   5.463   5.817   3.307
 6738TIP3    H120157   5.385   5.859   3.273
 6738TIP3    H220158   5.432   5.765   3.381
 6739TIP3   OH220159   3.450   4.263   2.880
 6739TIP3    H120160   3.503   4.342   2.871
 6739TIP3    H220161   3.360   4.295   2.888
 6740TIP3   OH220162   1.775   6.236   0.687
 6740TIP3    H120163   1.785   6.144   0.663
 6740TIP3    H220164   1.680   6.248   0.696
 6741TIP3   OH220165   7.552   4.553   4.265
 6741TIP3    H120166   7.580   4.614   4.333
 6741TIP3    H220167   7.551   4.605   4.185
 6742TIP3   OH220168   3.358   4.065   1.327
 6742TIP3    H120169   3.342   3.994   1.389
 6742TIP3    H220170   3.271   4.089   1.295
 6743TIP3   OH220171   0.166   6.559   4.749
 6743TIP3    H120172   0.105   6.599   4.687
 6743TIP3    H220173   0.125   6.476   4.772
 6744TIP3   OH220174   6.534   1.737   3.373
 6744TIP3    H120175   6.627   1.726   3.395
 6744TIP3    H220176   6.488   1.708   3.451
 6745TIP3   OH220177   1.953   4.599   5.531
 6745TIP3    H120178   2.046   4.606   5.510
 6745TIP3    H220179   1.910   4.586   5.447
 6746TIP3   OH220180   6.732   0.710   3.245
 6746TIP3    H120181   6.822   0.721   3.214
 6746TIP3    H220182   6.703   0.627   3.207
 6747TIP3   OH220183   7.281   4.044   2.554
 6747TIP3    H120184   7.328   4.126   2.540
 6747TIP3    H220185   7.268   4.040   2.648
 6748TIP3   OH220186   3.056   0.259   3.806
 6748TIP3    H120187   3.084   0.218   3.724
 6748TIP3    H220188   3.110   0.219   3.873
 6749TIP3   OH220189   7.038   0.863   2.752
 6749TIP3    H120190   6.949   0.880   2.784
 6749TIP3    H220191   7.036   0.892   2.661
 6750TIP3   OH220192   3.248   0.471   2.606
 6750TIP3    H120193   3.329   0.495   2.650
 6750TIP3    H220194   3.184   0.461   2.677
 6751TIP3   OH220195   2.773   5.650   1.767
 6751TIP3    H120196   2.709   5.599   1.816
 6751TIP3    H220197   2.772   5.613   1.679
 6752TIP3   OH220198   3.077   3.247   6.579
 6752TIP3    H120199   3.128   3.306   6.635
 6752TIP3    H220200   3.023   3.197   6.640
 6753TIP3   OH220201   3.582   1.027   1.054
 6753TIP3    H120202   3.516   0.958   1.050
 6753TIP3    H220203   3.542   1.101   1.008
 6754TIP3   OH220204   4.720   6.312   5.352
 6754TIP3    H120205   4.733   6.376   5.283
 6754TIP3    H220206   4.625   6.307   5.363
 6755TIP3   OH220207   4.461   3.321   2.758
 6755TIP3    H120208   4.378   3.337   2.713
 6755TIP3    H220209   4.505   3.406   2.758
 6756TIP3   OH220210   1.988   4.719   4.609
 6756TIP3    H120211   1.902   4.681   4.593
 6756TIP3    H220212   2.046   4.644   4.618
 6757TIP3   OH220213   6.451   2.108   4.064
 6757TIP3    H120214   6.441   2.203   4.057
 6757TIP3    H220215   6.375   2.073   4.017
 6758TIP3   OH220216   3.090   7.295   6.256
 6758TIP3    H120217   3.089   7.389   6.236
 6758TIP3    H220218   3.174   7.265   6.220
 6759TIP3   OH220219   2.214   7.078   2.963
 6759TIP3    H120220   2.267   7.002   2.937
 6759TIP3    H220221   2.194   7.063   3.055
 6760TIP3   OH220222   7.443   5.154   1.285
 6760TIP3    H120223   7.533   5.145   1.315
 6760TIP3    H220224   7.411   5.064   1.276
 6761TIP3   OH220225   0.962   6.305   1.866
 6761TIP3    H120226   0.878   6.349   1.881
 6761TIP3    H220227   1.028   6.372   1.882
 6762TIP3   OH220228   2.363   5.518   5.234
 6762TIP3    H120229   2.358   5.609   5.261
 6762TIP3    H220230   2.272   5.488   5.232
 6763TIP3   OH220231   0.897   0.443   0.246
 6763TIP3    H120232   0.950   0.470   0.321
 6763TIP3    H220233   0.887   0.349   0.256
 6764TIP3   OH220234   7.269   2.101   5.398
 6764TIP3    H120235   7.364   2.089   5.403
 6764TIP3    H220236   7.256   2.147   5.315
 6765TIP3   OH220237   1.383   4.721   2.400
 6765TIP3    H120238   1.313   4.781   2.428
 6765TIP3    H220239   1.412   4.756   2.316
 6766TIP3   OH220240   4.593   1.961   2.905
 6766TIP3    H120241   4.658   1.892   2.900
 6766TIP3    H220242   4.512   1.920   2.875
 6767TIP3   OH220243   5.866   6.462   5.341
 6767TIP3    H120244   5.916   6.380   5.344
 6767TIP3    H220245   5.932   6.529   5.327
 6768TIP3   OH220246   2.649   4.284   0.139
 6768TIP3    H120247   2.632   4.284   0.045
 6768TIP3    H220248   2.650   4.191   0.163
 6769TIP3   OH220249   3.707   0.799   6.165
 6769TIP3    H120250   3.615   0.798   6.139
 6769TIP3    H220251   3.727   0.709   6.188
 6770TIP3   OH220252   3.534   3.464   4.418
 6770TIP3    H120253   3.497   3.449   4.505
 6770TIP3    H220254   3.626   3.485   4.434
 6771TIP3   OH220255   4.695   5.167   2.144
 6771TIP3    H120256   4.749   5.215   2.207
 6771TIP3    H220257   4.644   5.235   2.100
 6772TIP3   OH220258   3.816   4.856   2.603
 6772TIP3    H120259   3.872   4.861   2.681
 6772TIP3    H220260   3.762   4.935   2.607
 6773TIP3   OH220261   3.796   4.090   2.723
 6773TIP3    H120262   3.805   4.012   2.668
 6773TIP3    H220263   3.886   4.117   2.742
 6774TIP3   OH220264   7.161   1.156   3.158
 6774TIP3    H120265   7.110   1.234   3.139
 6774TIP3    H220266   7.137   1.133   3.248
 6775TIP3   OH220267   4.897   0.530   3.243
 6775TIP3    H120268   4.991   0.530   3.222
 6775TIP3    H220269   4.854   0.508   3.161
 6776TIP3   OH220270   4.929   1.760   5.344
 6776TIP3    H120271   5.000   1.717   5.391
 6776TIP3    H220272   4.888   1.691   5.292
 6777TIP3   OH220273   0.474   4.268   4.606
 6777TIP3    H120274   0.518   4.210   4.543
 6777TIP3    H220275   0.504   4.356   4.582
 6778TIP3   OH220276   7.676   0.223   1.239
 6778TIP3    H120277   7.594   0.271   1.250
 6778TIP3    H220278   7.742   0.280   1.276
 6779TIP3   OH220279   4.695   7.717   3.941
 6779TIP3    H120280   4.667   7.637   3.987
 6779TIP3    H220281   4.670   7.788   4.000
 6780TIP3   OH220282   3.919   6.338   4.959
 6780TIP3    H120283   3.855   6.267   4.958
 6780TIP3    H220284   3.927   6.361   5.052
 6781TIP3   OH220285   5.652   7.396   2.996
 6781TIP3    H120286   5.631   7.306   2.974
 6781TIP3    H220287   5.629   7.447   2.919
 6782TIP3   OH220288   2.612   1.917   2.682
 6782TIP3    H120289   2.642   1.829   2.701
 6782TIP3    H220290   2.527   1.923   2.727
 6783TIP3   OH220291   5.690   3.442   1.857
 6783TIP3    H120292   5.665   3.387   1.782
 6783TIP3    H220293   5.736   3.516   1.818
 6784TIP3   OH220294   7.289   3.829   4.634
 6784TIP3    H120295   7.363   3.838   4.694
 6784TIP3    H220296   7.324   3.781   4.559
 6785TIP3   OH220297   1.511   1.648   5.590
 6785TIP3    H120298   1.493   1.730   5.545
 6785TIP3    H220299   1.435   1.593   5.572
 6786TIP3   OH220300   1.347   7.516   3.449
 6786TIP3    H120301   1.326   7.603   3.484
 6786TIP3    H220302   1.268   7.488   3.403
 6787TIP3   OH220303   7.307   0.491   4.159
 6787TIP3    H120304   7.349   0.564   4.204
 6787TIP3    H220305   7.286   0.429   4.228
 6788TIP3   OH220306   3.625   0.172   4.090
 6788TIP3    H120307   3.583   0.102   4.039
 6788TIP3    H220308   3.658   0.127   4.168
 6789TIP3   OH220309   0.908   5.926   5.994
 6789TIP3    H120310   0.865   6.009   6.013
 6789TIP3    H220311   0.984   5.950   5.940
 6790TIP3   OH220312   0.515   2.343   2.329
 6790TIP3    H120313   0.498   2.354   2.236
 6790TIP3    H220314   0.441   2.386   2.372
 6791TIP3   OH220315   7.089   1.557   2.259
 6791TIP3    H120316   7.106   1.615   2.334
 6791TIP3    H220317   7.170   1.507   2.250
 6792TIP3   OH220318   7.151   3.877   5.452
 6792TIP3    H120319   7.082   3.819   5.483
 6792TIP3    H220320   7.228   3.850   5.502
 6793TIP3   OH220321   8.140   4.570   2.562
 6793TIP3    H120322   8.126   4.631   2.634
 6793TIP3    H220323   8.052   4.536   2.543
 6794TIP3   OH220324   6.195   2.863   0.320
 6794TIP3    H120325   6.106   2.894   0.310
 6794TIP3    H220326   6.250   2.941   0.313
 6795TIP3   OH220327   5.865   2.130   4.723
 6795TIP3    H120328   5.897   2.219   4.733
 6795TIP3    H220329   5.806   2.117   4.796
 6796TIP3   OH220330   1.307   4.487   2.303
 6796TIP3    H120331   1.312   4.571   2.348
 6796TIP3    H220332   1.382   4.438   2.336
 6797TIP3   OH220333   1.286   1.919   6.050
 6797TIP3    H120334   1.292   1.839   5.998
 6797TIP3    H220335   1.327   1.986   5.995
 6798TIP3   OH220336   7.199   4.231   5.609
 6798TIP3    H120337   7.197   4.189   5.695
 6798TIP3    H220338   7.278   4.285   5.610
 6799TIP3   OH220339   3.043   0.777   0.530
 6799TIP3    H120340   3.023   0.821   0.448
 6799TIP3    H220341   3.119   0.721   0.510
 6800TIP3   OH220342   3.069   0.046   5.100
 6800TIP3    H120343   3.029   0.083   5.022
 6800TIP3    H220344   3.080  -0.047   5.079
 6801TIP3   OH220345   2.596   7.183   0.211
 6801TIP3    H120346   2.536   7.129   0.262
 6801TIP3    H220347   2.662   7.212   0.275
 6802TIP3   OH220348   3.578   3.497   1.373
 6802TIP3    H120349   3.584   3.592   1.365
 6802TIP3    H220350   3.656   3.463   1.329
 6803TIP3   OH220351   4.941   7.152   0.851
 6803TIP3    H120352   5.005   7.112   0.909
 6803TIP3    H220353   4.857   7.143   0.897
 6804TIP3   OH220354   1.447   3.853   3.717
 6804TIP3    H120355   1.528   3.802   3.729
 6804TIP3    H220356   1.377   3.790   3.735
 6805TIP3   OH220357   6.079   0.937   0.133
 6805TIP3    H120358   6.048   0.888   0.056
 6805TIP3    H220359   6.138   1.003   0.097
 6806TIP3   OH220360   5.141   6.550   3.989
 6806TIP3    H120361   5.164   6.577   4.078
 6806TIP3    H220362   5.055   6.509   3.999
 6807TIP3   OH220363   3.111   7.621   0.895
 6807TIP3    H120364   3.085   7.532   0.870
 6807TIP3    H220365   3.118   7.617   0.991
 6808TIP3   OH220366   6.244   7.076   3.945
 6808TIP3    H120367   6.158   7.108   3.916
 6808TIP3    H220368   6.307   7.135   3.903
 6809TIP3   OH220369   6.059   0.875   5.500
 6809TIP3    H120370   6.035   0.891   5.591
 6809TIP3    H220371   6.016   0.792   5.478
 6810TIP3   OH220372   2.282   6.772   3.370
 6810TIP3    H120373   2.306   6.740   3.457
 6810TIP3    H220374   2.229   6.702   3.333
 6811TIP3   OH220375   1.574   0.443   3.054
 6811TIP3    H120376   1.586   0.383   3.128
 6811TIP3    H220377   1.489   0.418   3.017
 6812TIP3   OH220378   6.913   1.536   5.316
 6812TIP3    H120379   6.953   1.492   5.240
 6812TIP3    H220380   6.983   1.539   5.381
 6813TIP3   OH220381   5.785   2.435   0.918
 6813TIP3    H120382   5.793   2.512   0.860
 6813TIP3    H220383   5.691   2.425   0.931
 6814TIP3   OH220384   3.508   1.292   3.568
 6814TIP3    H120385   3.528   1.351   3.496
 6814TIP3    H220386   3.474   1.213   3.526
 6815TIP3   OH220387   7.718   1.273   6.485
 6815TIP3    H120388   7.663   1.333   6.536
 6815TIP3    H220389   7.807   1.307   6.497
 6816TIP3   OH220390   6.904   0.941   1.618
 6816TIP3    H120391   6.818   0.924   1.580
 6816TIP3    H220392   6.965   0.891   1.563
 6817TIP3   OH220393   2.949   6.766   5.924
 6817TIP3    H120394   2.886   6.736   5.858
 6817TIP3    H220395   2.923   6.720   6.004
 6818TIP3   OH220396   6.965   7.044   2.437
 6818TIP3    H120397   6.887   7.088   2.403
 6818TIP3    H220398   7.029   7.050   2.366
 6819TIP3   OH220399   6.164   6.861   6.374
 6819TIP3    H120400   6.142   6.875   6.466
 6819TIP3    H220401   6.180   6.767   6.367
 6820TIP3   OH220402   4.071   0.923   5.579
 6820TIP3    H120403   4.138   0.933   5.511
 6820TIP3    H220404   4.121   0.917   5.660
 6821TIP3   OH220405   6.918   4.532   5.590
 6821TIP3    H120406   6.923   4.623   5.561
 6821TIP3    H220407   6.957   4.482   5.518
 6822TIP3   OH220408   4.856   7.531   4.991
 6822TIP3    H120409   4.789   7.466   5.012
 6822TIP3    H220410   4.860   7.588   5.068
 6823TIP3   OH220411   3.846   0.184   2.198
 6823TIP3    H120412   3.881   0.179   2.288
 6823TIP3    H220413   3.916   0.147   2.144
 6824TIP3   OH220414   7.624   1.931   4.933
 6824TIP3    H120415   7.666   1.848   4.957
 6824TIP3    H220416   7.654   1.949   4.844
 6825TIP3   OH220417   2.948   6.355   6.082
 6825TIP3    H120418   3.000   6.313   6.014
 6825TIP3    H220419   2.954   6.295   6.157
 6826TIP3   OH220420   3.350   3.084   6.080
 6826TIP3    H120421   3.343   3.067   5.986
 6826TIP3    H220422   3.407   3.014   6.113
 6827TIP3   OH220423   5.395   5.197   0.693
 6827TIP3    H120424   5.457   5.178   0.623
 6827TIP3    H220425   5.431   5.149   0.769
 6828TIP3   OH220426   7.520   1.812   3.370
 6828TIP3    H120427   7.592   1.817   3.432
 6828TIP3    H220428   7.559   1.833   3.286
 6829TIP3   OH220429   5.249   5.318   6.679
 6829TIP3    H120430   5.234   5.265   6.602
 6829TIP3    H220431   5.338   5.296   6.708
 6830TIP3   OH220432   1.120   5.950   3.478
 6830TIP3    H120433   1.116   5.885   3.407
 6830TIP3    H220434   1.175   5.909   3.545
 6831TIP3   OH220435   0.903   2.440   3.934
 6831TIP3    H120436   0.874   2.520   3.889
 6831TIP3    H220437   0.847   2.371   3.898
 6832TIP3   OH220438   4.056   5.987   6.429
 6832TIP3    H120439   4.150   5.997   6.410
 6832TIP3    H220440   4.017   5.966   6.344
 6833TIP3   OH220441   2.006   3.352   5.215
 6833TIP3    H120442   1.961   3.268   5.211
 6833TIP3    H220443   2.081   3.342   5.156
 6834TIP3   OH220444   2.076   0.044   6.191
 6834TIP3    H120445   2.123   0.056   6.109
 6834TIP3    H220446   1.989   0.013   6.165
 6835TIP3   OH220447   6.926   5.792   0.656
 6835TIP3    H120448   6.947   5.756   0.742
 6835TIP3    H220449   6.839   5.831   0.666
 6836TIP3   OH220450   7.154   2.561   1.959
 6836TIP3    H120451   7.082   2.578   1.898
 6836TIP3    H220452   7.232   2.553   1.903
 6837TIP3   OH220453   0.847   2.358   0.744
 6837TIP3    H120454   0.913   2.360   0.675
 6837TIP3    H220455   0.897   2.351   0.825
 6838TIP3   OH220456   2.468   5.226   4.911
 6838TIP3    H120457   2.475   5.227   5.007
 6838TIP3    H220458   2.452   5.318   4.888
 6839TIP3   OH220459   6.028   0.533   4.838
 6839TIP3    H120460   6.034   0.469   4.767
 6839TIP3    H220461   6.082   0.607   4.808
 6840TIP3   OH220462   5.849   3.505   0.603
 6840TIP3    H120463   5.935   3.490   0.643
 6840TIP3    H220464   5.833   3.427   0.550
 6841TIP3   OH220465   1.863   3.993   0.980
 6841TIP3    H120466   1.900   4.071   1.023
 6841TIP3    H220467   1.939   3.947   0.945
 6842TIP3   OH220468   7.162   3.083   3.275
 6842TIP3    H120469   7.134   3.025   3.346
 6842TIP3    H220470   7.090   3.082   3.213
 6843TIP3   OH220471   6.300   5.415   1.282
 6843TIP3    H120472   6.286   5.331   1.238
 6843TIP3    H220473   6.338   5.392   1.367
 6844TIP3   OH220474   4.533   6.490   2.195
 6844TIP3    H120475   4.577   6.493   2.110
 6844TIP3    H220476   4.602   6.469   2.258
 6845TIP3   OH220477   7.367   1.986   0.924
 6845TIP3    H120478   7.342   2.073   0.954
 6845TIP3    H220479   7.449   1.967   0.971
 6846TIP3   OH220480   5.504   6.815   3.613
 6846TIP3    H120481   5.498   6.721   3.628
 6846TIP3    H220482   5.478   6.855   3.696
 6847TIP3   OH220483   0.509   2.664   5.087
 6847TIP3    H120484   0.604   2.673   5.085
 6847TIP3    H220485   0.493   2.571   5.076
 6848TIP3   OH220486   3.452   1.809   5.406
 6848TIP3    H120487   3.482   1.894   5.375
 6848TIP3    H220488   3.436   1.758   5.327
 6849TIP3   OH220489   6.300   5.942   6.742
 6849TIP3    H120490   6.241   5.900   6.680
 6849TIP3    H220491   6.340   6.013   6.693
 6850TIP3   OH220492   5.579   5.157   6.300
 6850TIP3    H120493   5.583   5.141   6.206
 6850TIP3    H220494   5.516   5.228   6.310
 6851TIP3   OH220495   6.334   6.176   6.594
 6851TIP3    H120496   6.333   6.222   6.678
 6851TIP3    H220497   6.390   6.230   6.538
 6852TIP3   OH220498   2.758   1.773   2.130
 6852TIP3    H120499   2.729   1.682   2.121
 6852TIP3    H220500   2.772   1.803   2.040
 6853TIP3   OH220501   2.264   2.838   1.733
 6853TIP3    H120502   2.348   2.825   1.689
 6853TIP3    H220503   2.223   2.751   1.731
 6854TIP3   OH220504   0.845   6.067   2.781
 6854TIP3    H120505   0.907   6.045   2.712
 6854TIP3    H220506   0.869   6.156   2.808
 6855TIP3   OH220507   0.396   1.815   0.582
 6855TIP3    H120508   0.334   1.886   0.570
 6855TIP3    H220509   0.480   1.858   0.594
 6856TIP3   OH220510   4.519   6.500   1.261
 6856TIP3    H120511   4.454   6.444   1.220
 6856TIP3    H220512   4.531   6.464   1.348
 6857TIP3   OH220513   6.338   0.257   4.683
 6857TIP3    H120514   6.411   0.306   4.721
 6857TIP3    H220515   6.276   0.325   4.657
 6858TIP3   OH220516   7.057  -0.016   2.176
 6858TIP3    H120517   7.137   0.003   2.226
 6858TIP3    H220518   7.007   0.065   2.180
 6859TIP3   OH220519   1.942   7.161   4.105
 6859TIP3    H120520   1.982   7.212   4.175
 6859TIP3    H220521   1.860   7.129   4.141
 6860TIP3   OH220522   6.600   4.539   0.346
 6860TIP3    H120523   6.525   4.596   0.327
 6860TIP3    H220524   6.675   4.583   0.306
 6861TIP3   OH220525   7.958   7.123   2.227
 6861TIP3    H120526   8.032   7.153   2.174
 6861TIP3    H220527   7.902   7.077   2.165
 6862TIP3   OH220528   1.644   1.804   2.467
 6862TIP3    H120529   1.724   1.802   2.520
 6862TIP3    H220530   1.646   1.723   2.416
 6863TIP3   OH220531   2.322   4.380   4.360
 6863TIP3    H120532   2.417   4.382   4.349
 6863TIP3    H220533   2.291   4.320   4.292
 6864TIP3   OH220534   2.689   1.414   1.390
 6864TIP3    H120535   2.607   1.461   1.377
 6864TIP3    H220536   2.733   1.419   1.305
 6865TIP3   OH220537   0.443   0.315   5.989
 6865TIP3    H120538   0.538   0.305   5.987
 6865TIP3    H220539   0.423   0.370   5.913
 6866TIP3   OH220540   3.225   2.385   0.058
 6866TIP3    H120541   3.274   2.444   0.001
 6866TIP3    H220542   3.140   2.428   0.069
 6867TIP3   OH220543   2.925   5.704   2.214
 6867TIP3    H120544   2.884   5.715   2.300
 6867TIP3    H220545   2.859   5.736   2.152
 6868TIP3   OH220546   1.493   4.357   2.057
 6868TIP3    H120547   1.569   4.410   2.081
 6868TIP3    H220548   1.471   4.309   2.137
 6869TIP3   OH220549   1.923   3.562   6.473
 6869TIP3    H120550   2.018   3.559   6.486
 6869TIP3    H220551   1.887   3.541   6.559
 6870TIP3   OH220552   7.512   6.893   5.186
 6870TIP3    H120553   7.603   6.905   5.159
 6870TIP3    H220554   7.461   6.946   5.124
 6871TIP3   OH220555   4.882   1.933   1.845
 6871TIP3    H120556   4.806   1.988   1.861
 6871TIP3    H220557   4.907   1.953   1.755
 6872TIP3   OH220558   1.878   7.369   5.019
 6872TIP3    H120559   1.963   7.355   4.978
 6872TIP3    H220560   1.853   7.282   5.052
 6873TIP3   OH220561   1.153   0.637   2.952
 6873TIP3    H120562   1.224   0.611   2.892
 6873TIP3    H220563   1.133   0.558   3.001
 6874TIP3   OH220564   1.098   3.738   2.381
 6874TIP3    H120565   1.185   3.699   2.388
 6874TIP3    H220566   1.047   3.693   2.448
 6875TIP3   OH220567   2.966   4.206   3.383
 6875TIP3    H120568   2.937   4.247   3.464
 6875TIP3    H220569   2.897   4.226   3.319
 6876TIP3   OH220570   7.417   1.720   4.542
 6876TIP3    H120571   7.331   1.706   4.581
 6876TIP3    H220572   7.469   1.645   4.571
 6877TIP3   OH220573   7.331   2.711   1.028
 6877TIP3    H120574   7.277   2.773   0.979
 6877TIP3    H220575   7.415   2.756   1.041
 6878TIP3   OH220576   7.734   4.859   6.307
 6878TIP3    H120577   7.801   4.835   6.243
 6878TIP3    H220578   7.674   4.916   6.260
 6879TIP3   OH220579   6.219   2.524   1.866
 6879TIP3    H120580   6.259   2.469   1.799
 6879TIP3    H220581   6.233   2.613   1.836
 6880TIP3   OH220582   2.477   4.137   5.251
 6880TIP3    H120583   2.508   4.223   5.280
 6880TIP3    H220584   2.520   4.124   5.166
 6881TIP3   OH220585   4.163   1.014   3.841
 6881TIP3    H120586   4.169   0.996   3.935
 6881TIP3    H220587   4.157   1.110   3.836
 6882TIP3   OH220588   4.530   4.743   2.532
 6882TIP3    H120589   4.510   4.659   2.490
 6882TIP3    H220590   4.601   4.780   2.479
 6883TIP3   OH220591   5.583   4.081   4.351
 6883TIP3    H120592   5.535   4.019   4.405
 6883TIP3    H220593   5.550   4.167   4.377
 6884TIP3   OH220594   6.939   4.212   3.962
 6884TIP3    H120595   6.882   4.273   4.009
 6884TIP3    H220596   6.937   4.243   3.871
 6885TIP3   OH220597   0.718   0.081   4.760
 6885TIP3    H120598   0.785   0.145   4.736
 6885TIP3    H220599   0.766   0.008   4.798
 6886TIP3   OH220600   5.927   2.271   1.541
 6886TIP3    H120601   6.015   2.237   1.554
 6886TIP3    H220602   5.885   2.207   1.483
 6887TIP3   OH220603   7.780   4.833   2.389
 6887TIP3    H120604   7.724   4.810   2.315
 6887TIP3    H220605   7.846   4.892   2.353
 6888TIP3   OH220606   7.219   2.124   2.058
 6888TIP3    H120607   7.242   2.119   1.965
 6888TIP3    H220608   7.280   2.065   2.101
 6889TIP3   OH220609   7.645   4.137   6.477
 6889TIP3    H120610   7.603   4.215   6.440
 6889TIP3    H220611   7.678   4.090   6.401
 6890TIP3   OH220612   1.121   4.227   6.402
 6890TIP3    H120613   1.181   4.270   6.341
 6890TIP3    H220614   1.037   4.223   6.355
 6891TIP3   OH220615   0.950   1.835   1.897
 6891TIP3    H120616   0.956   1.898   1.825
 6891TIP3    H220617   0.892   1.766   1.864
 6892TIP3   OH220618   1.074   3.046   3.296
 6892TIP3    H120619   1.045   3.136   3.307
 6892TIP3    H220620   1.074   3.009   3.384
 6893TIP3   OH220621   6.216   0.148   0.174
 6893TIP3    H120622   6.270   0.220   0.142
 6893TIP3    H220623   6.275   0.073   0.177
 6894TIP3   OH220624   1.153   4.995   0.061
 6894TIP3    H120625   1.069   4.984   0.106
 6894TIP3    H220626   1.132   4.985  -0.032
 6895TIP3   OH220627   5.675  -0.005   3.997
 6895TIP3    H120628   5.674   0.091   3.997
 6895TIP3    H220629   5.768  -0.028   3.993
 6896TIP3   OH220630   0.776   0.236   6.370
 6896TIP3    H120631   0.706   0.275   6.423
 6896TIP3    H220632   0.812   0.310   6.320
 6897TIP3   OH220633   5.623   3.313   6.337
 6897TIP3    H120634   5.569   3.361   6.398
 6897TIP3    H220635   5.568   3.240   6.307
 6898TIP3   OH220636   5.670   0.096   0.458
 6898TIP3    H120637   5.746   0.092   0.399
 6898TIP3    H220638   5.663   0.008   0.493
 6899TIP3   OH220639   7.865   3.958   2.144
 6899TIP3    H120640   7.793   3.905   2.109
 6899TIP3    H220641   7.825   4.043   2.161
 6900TIP3   OH220642   8.266   5.825   2.488
 6900TIP3    H120643   8.246   5.790   2.401
 6900TIP3    H220644   8.279   5.919   2.474
 6901TIP3   OH220645   4.731   1.647   3.163
 6901TIP3    H120646   4.815   1.600   3.165
 6901TIP3    H220647   4.738   1.711   3.233
 6902TIP3   OH220648   6.354   2.888   3.037
 6902TIP3    H120649   6.344   2.800   3.000
 6902TIP3    H220650   6.301   2.885   3.117
 6903TIP3   OH220651   0.380   2.532   0.361
 6903TIP3    H120652   0.401   2.453   0.310
 6903TIP3    H220653   0.308   2.504   0.418
 6904TIP3   OH220654   6.781   4.786   4.381
 6904TIP3    H120655   6.794   4.832   4.298
 6904TIP3    H220656   6.867   4.789   4.424
 6905TIP3   OH220657   6.669   3.656   4.561
 6905TIP3    H120658   6.674   3.739   4.609
 6905TIP3    H220659   6.645   3.591   4.627
 6906TIP3   OH220660   2.060   4.079   2.584
 6906TIP3    H120661   2.013   4.018   2.642
 6906TIP3    H220662   2.005   4.158   2.584
 6907TIP3   OH220663   6.856   5.199   6.457
 6907TIP3    H120664   6.805   5.162   6.529
 6907TIP3    H220665   6.811   5.170   6.378
 6908TIP3   OH220666   6.452   2.444   0.183
 6908TIP3    H120667   6.469   2.477   0.095
 6908TIP3    H220668   6.420   2.355   0.169
 6909TIP3   OH220669   7.423   0.496   0.595
 6909TIP3    H120670   7.330   0.515   0.607
 6909TIP3    H220671   7.450   0.557   0.525
 6910TIP3   OH220672   0.684   3.378   5.511
 6910TIP3    H120673   0.756   3.359   5.571
 6910TIP3    H220674   0.685   3.474   5.502
 6911TIP3   OH220675   1.679   0.927   0.164
 6911TIP3    H120676   1.632   0.925   0.080
 6911TIP3    H220677   1.610   0.929   0.230
 6912TIP3   OH220678   5.802   4.594   5.174
 6912TIP3    H120679   5.797   4.679   5.129
 6912TIP3    H220680   5.712   4.579   5.205
 6913TIP3   OH220681   2.589   4.423   2.325
 6913TIP3    H120682   2.607   4.494   2.263
 6913TIP3    H220683   2.587   4.344   2.271
 6914TIP3   OH220684   4.909   1.624   2.617
 6914TIP3    H120685   4.969   1.653   2.686
 6914TIP3    H220686   4.964   1.613   2.540
 6915TIP3   OH220687   0.199   4.143   4.370
 6915TIP3    H120688   0.203   4.054   4.404
 6915TIP3    H220689   0.172   4.196   4.445
 6916TIP3   OH220690   0.567   5.901   2.829
 6916TIP3    H120691   0.522   5.821   2.802
 6916TIP3    H220692   0.633   5.871   2.893
 6917TIP3   OH220693   5.532   7.479   4.169
 6917TIP3    H120694   5.494   7.460   4.083
 6917TIP3    H220695   5.462   7.522   4.218
 6918TIP3   OH220696   7.387   5.730   2.521
 6918TIP3    H120697   7.343   5.813   2.540
 6918TIP3    H220698   7.373   5.676   2.598
 6919TIP3   OH220699   8.018   5.841   4.008
 6919TIP3    H120700   7.924   5.854   4.009
 6919TIP3    H220701   8.050   5.900   3.940
 6920TIP3   OH220702   5.525   6.466   1.005
 6920TIP3    H120703   5.497   6.454   1.096
 6920TIP3    H220704   5.478   6.544   0.976
 6921TIP3   OH220705   0.210   6.111   0.382
 6921TIP3    H120706   0.144   6.092   0.315
 6921TIP3    H220707   0.196   6.202   0.405
 6922TIP3   OH220708   5.003   2.856   5.869
 6922TIP3    H120709   4.973   2.766   5.883
 6922TIP3    H220710   4.924   2.906   5.849
 6923TIP3   OH220711   2.650   6.939   3.807
 6923TIP3    H120712   2.678   6.913   3.894
 6923TIP3    H220713   2.579   6.878   3.785
 6924TIP3   OH220714   4.824   2.319   6.187
 6924TIP3    H120715   4.822   2.240   6.134
 6924TIP3    H220716   4.880   2.296   6.261
 6925TIP3   OH220717   8.176   6.184   4.471
 6925TIP3    H120718   8.137   6.143   4.548
 6925TIP3    H220719   8.107   6.184   4.405
 6926TIP3   OH220720   4.116   6.439   3.427
 6926TIP3    H120721   4.186   6.495   3.393
 6926TIP3    H220722   4.153   6.400   3.506
 6927TIP3   OH220723   7.414   6.726   6.396
 6927TIP3    H120724   7.417   6.665   6.322
 6927TIP3    H220725   7.478   6.793   6.373
 6928TIP3   OH220726   3.293   6.734   6.805
 6928TIP3    H120727   3.359   6.795   6.773
 6928TIP3    H220728   3.216   6.751   6.751
 6929TIP3   OH220729   3.076   6.185   3.008
 6929TIP3    H120730   3.040   6.217   2.925
 6929TIP3    H220731   3.052   6.093   3.011
 6930TIP3   OH220732   0.115   3.424   1.340
 6930TIP3    H120733   0.057   3.379   1.402
 6930TIP3    H220734   0.096   3.517   1.355
 6931TIP3   OH220735   2.818   7.220   5.837
 6931TIP3    H120736   2.784   7.194   5.752
 6931TIP3    H220737   2.912   7.232   5.822
 6932TIP3   OH220738   6.119   5.051   1.653
 6932TIP3    H120739   6.073   5.076   1.733
 6932TIP3    H220740   6.212   5.060   1.675
 6933TIP3   OH220741   7.422   0.976   1.501
 6933TIP3    H120742   7.340   0.978   1.452
 6933TIP3    H220743   7.490   0.966   1.435
 6934TIP3   OH220744   5.913   4.939   1.479
 6934TIP3    H120745   5.826   4.957   1.515
 6934TIP3    H220746   5.971   4.995   1.529
 6935TIP3   OH220747   7.973   7.511   4.406
 6935TIP3    H120748   7.974   7.427   4.451
 6935TIP3    H220749   8.021   7.495   4.324
 6936TIP3   OH220750   5.339   2.477   1.799
 6936TIP3    H120751   5.255   2.509   1.833
 6936TIP3    H220752   5.382   2.438   1.875
 6937TIP3   OH220753   1.022   0.954   1.957
 6937TIP3    H120754   1.075   0.904   2.020
 6937TIP3    H220755   1.073   1.033   1.940
 6938TIP3   OH220756   0.957   5.307   5.373
 6938TIP3    H120757   1.004   5.290   5.291
 6938TIP3    H220758   0.993   5.391   5.404
 6939TIP3   OH220759   2.268   0.436   4.454
 6939TIP3    H120760   2.229   0.358   4.494
 6939TIP3    H220761   2.300   0.487   4.529
 6940TIP3   OH220762   4.163   5.812   3.303
 6940TIP3    H120763   4.157   5.885   3.365
 6940TIP3    H220764   4.244   5.766   3.328
 6941TIP3   OH220765   1.790   6.149   6.262
 6941TIP3    H120766   1.864   6.173   6.318
 6941TIP3    H220767   1.819   6.171   6.173
 6942TIP3   OH220768   6.499   4.591   1.310
 6942TIP3    H120769   6.574   4.580   1.252
 6942TIP3    H220770   6.434   4.638   1.257
 6943TIP3   OH220771   7.635   0.551   0.099
 6943TIP3    H120772   7.642   0.466   0.143
 6943TIP3    H220773   7.690   0.610   0.151
 6944TIP3   OH220774   2.582   0.336   0.225
 6944TIP3    H120775   2.523   0.290   0.167
 6944TIP3    H220776   2.646   0.270   0.252
 6945TIP3   OH220777   3.151   6.210   5.249
 6945TIP3    H120778   3.246   6.213   5.233
 6945TIP3    H220779   3.123   6.302   5.244
 6946TIP3   OH220780   4.096   4.875   4.791
 6946TIP3    H120781   4.042   4.796   4.785
 6946TIP3    H220782   4.171   4.848   4.845
 6947TIP3   OH220783   7.483   5.269   1.020
 6947TIP3    H120784   7.471   5.220   1.102
 6947TIP3    H220785   7.561   5.231   0.981
 6948TIP3   OH220786   1.419   1.586   2.926
 6948TIP3    H120787   1.363   1.599   3.002
 6948TIP3    H220788   1.485   1.522   2.956
 6949TIP3   OH220789   1.219   3.965   0.520
 6949TIP3    H120790   1.267   3.904   0.464
 6949TIP3    H220791   1.209   4.044   0.467
 6950TIP3   OH220792   2.017   7.560   2.013
 6950TIP3    H120793   2.084   7.597   1.956
 6950TIP3    H220794   2.061   7.551   2.098
 6951TIP3   OH220795   6.548   1.789   1.083
 6951TIP3    H120796   6.634   1.830   1.067
 6951TIP3    H220797   6.568   1.698   1.104
 6952TIP3   OH220798   5.048   3.047   0.614
 6952TIP3    H120799   5.066   3.001   0.696
 6952TIP3    H220800   4.966   3.009   0.583
 6953TIP3   OH220801   5.184   5.097   6.202
 6953TIP3    H120802   5.095   5.061   6.195
 6953TIP3    H220803   5.233   5.052   6.133
 6954TIP3   OH220804   5.531   2.914   3.898
 6954TIP3    H120805   5.611   2.921   3.846
 6954TIP3    H220806   5.561   2.886   3.984
 6955TIP3   OH220807   6.074   5.371   4.286
 6955TIP3    H120808   6.045   5.349   4.375
 6955TIP3    H220809   6.149   5.313   4.270
 6956TIP3   OH220810   0.726   6.620   2.764
 6956TIP3    H120811   0.642   6.655   2.795
 6956TIP3    H220812   0.716   6.615   2.669
 6957TIP3   OH220813   0.887   1.740   5.471
 6957TIP3    H120814   0.860   1.648   5.479
 6957TIP3    H220815   0.982   1.737   5.481
 6958TIP3   OH220816   6.659   3.000   2.892
 6958TIP3    H120817   6.733   3.022   2.837
 6958TIP3    H220818   6.584   2.997   2.832
 6959TIP3   OH220819   2.434   3.245   4.610
 6959TIP3    H120820   2.473   3.331   4.625
 6959TIP3    H220821   2.465   3.219   4.524
 6960TIP3   OH220822   4.941   0.429   2.507
 6960TIP3    H120823   4.972   0.414   2.596
 6960TIP3    H220824   4.918   0.522   2.506
 6961TIP3   OH220825   6.386   4.848   0.761
 6961TIP3    H120826   6.314   4.852   0.698
 6961TIP3    H220827   6.347   4.880   0.843
 6962TIP3   OH220828   5.965   1.410   4.739
 6962TIP3    H120829   5.976   1.356   4.661
 6962TIP3    H220830   5.992   1.498   4.711
 6963TIP3   OH220831   2.284   0.567   4.718
 6963TIP3    H120832   2.244   0.602   4.797
 6963TIP3    H220833   2.287   0.641   4.658
 6964TIP3   OH220834   2.128   2.153   4.255
 6964TIP3    H120835   2.171   2.238   4.262
 6964TIP3    H220836   2.158   2.104   4.332
 6965TIP3   OH220837   6.111   0.491   5.437
 6965TIP3    H120838   6.076   0.405   5.462
 6965TIP3    H220839   6.036   0.550   5.441
 6966TIP3   OH220840   2.759   0.717   0.282
 6966TIP3    H120841   2.686   0.767   0.318
 6966TIP3    H220842   2.831   0.780   0.275
 6967TIP3   OH220843   6.816   1.156   0.298
 6967TIP3    H120844   6.864   1.085   0.255
 6967TIP3    H220845   6.777   1.114   0.375
 6968TIP3   OH220846   4.338   4.955   5.633
 6968TIP3    H120847   4.329   4.910   5.549
 6968TIP3    H220848   4.301   5.042   5.618
 6969TIP3   OH220849   1.201   3.385   2.665
 6969TIP3    H120850   1.238   3.299   2.647
 6969TIP3    H220851   1.207   3.394   2.760
 6970TIP3   OH220852   7.541   7.278   0.834
 6970TIP3    H120853   7.592   7.199   0.817
 6970TIP3    H220854   7.505   7.302   0.748
 6971TIP3   OH220855   3.311   4.128   5.105
 6971TIP3    H120856   3.219   4.126   5.079
 6971TIP3    H220857   3.357   4.156   5.027
 6972TIP3   OH220858   2.603   1.294   6.440
 6972TIP3    H120859   2.587   1.336   6.525
 6972TIP3    H220860   2.583   1.362   6.376
 6973TIP3   OH220861   8.163   5.041   3.211
 6973TIP3    H120862   8.068   5.047   3.204
 6973TIP3    H220863   8.192   5.129   3.234
 6974TIP3   OH220864   1.941   6.537   4.579
 6974TIP3    H120865   1.869   6.478   4.599
 6974TIP3    H220866   1.900   6.622   4.564
 6975TIP3   OH220867   0.564   6.535   0.384
 6975TIP3    H120868   0.560   6.556   0.478
 6975TIP3    H220869   0.648   6.572   0.355
 6976TIP3   OH220870   3.144   6.549   4.388
 6976TIP3    H120871   3.140   6.469   4.335
 6976TIP3    H220872   3.169   6.617   4.326
 6977TIP3   OH220873   7.945   6.686   3.353
 6977TIP3    H120874   7.882   6.697   3.424
 6977TIP3    H220875   7.894   6.650   3.281
 6978TIP3   OH220876   3.230   0.920   2.101
 6978TIP3    H120877   3.249   0.926   2.194
 6978TIP3    H220878   3.149   0.869   2.096
 6979TIP3   OH220879   5.552   1.454   2.116
 6979TIP3    H120880   5.519   1.523   2.059
 6979TIP3    H220881   5.639   1.433   2.082
 6980TIP3   OH220882   0.544   3.100   0.838
 6980TIP3    H120883   0.584   3.101   0.924
 6980TIP3    H220884   0.488   3.022   0.838
 6981TIP3   OH220885   2.443   0.003   1.656
 6981TIP3    H120886   2.389  -0.023   1.730
 6981TIP3    H220887   2.412   0.090   1.633
 6982TIP3   OH220888   4.850   6.851   5.828
 6982TIP3    H120889   4.764   6.886   5.849
 6982TIP3    H220890   4.906   6.878   5.900
 6983TIP3   OH220891   3.343   3.622   0.574
 6983TIP3    H120892   3.377   3.711   0.564
 6983TIP3    H220893   3.374   3.576   0.497
 6984TIP3   OH220894   5.243   6.561   0.557
 6984TIP3    H120895   5.319   6.511   0.587
 6984TIP3    H220896   5.271   6.652   0.557
 6985TIP3   OH220897   1.888   5.054   1.578
 6985TIP3    H120898   1.886   5.027   1.487
 6985TIP3    H220899   1.913   4.976   1.626
 6986TIP3   OH220900   0.429   0.516   2.336
 6986TIP3    H120901   0.428   0.427   2.301
 6986TIP3    H220902   0.366   0.514   2.408
 6987TIP3   OH220903   4.676   5.543   2.966
 6987TIP3    H120904   4.586   5.566   2.987
 6987TIP3    H220905   4.674   5.448   2.951
 6988TIP3   OH220906   5.326   1.939   2.512
 6988TIP3    H120907   5.364   1.880   2.447
 6988TIP3    H220908   5.281   1.881   2.574
 6989TIP3   OH220909   1.699   0.533   3.666
 6989TIP3    H120910   1.613   0.519   3.705
 6989TIP3    H220911   1.752   0.461   3.700
 6990TIP3   OH220912   6.572   7.588   4.511
 6990TIP3    H120913   6.565   7.683   4.508
 6990TIP3    H220914   6.482   7.557   4.502
 6991TIP3   OH220915   4.890   3.230   3.723
 6991TIP3    H120916   4.809   3.203   3.766
 6991TIP3    H220917   4.895   3.174   3.645
 6992TIP3   OH220918   3.532   7.382   5.505
 6992TIP3    H120919   3.455   7.362   5.450
 6992TIP3    H220920   3.509   7.463   5.549
 6993TIP3   OH220921   6.550   1.315   3.532
 6993TIP3    H120922   6.523   1.398   3.492
 6993TIP3    H220923   6.625   1.287   3.480
 6994TIP3   OH220924   5.867   0.703   4.448
 6994TIP3    H120925   5.828   0.617   4.464
 6994TIP3    H220926   5.854   0.751   4.530
 6995TIP3   OH220927   7.283   1.835   3.512
 6995TIP3    H120928   7.365   1.855   3.466
 6995TIP3    H220929   7.288   1.741   3.529
 6996TIP3   OH220930   7.875   6.029   1.055
 6996TIP3    H120931   7.806   5.963   1.062
 6996TIP3    H220932   7.957   5.980   1.063
 6997TIP3   OH220933   2.962   6.122   4.135
 6997TIP3    H120934   2.907   6.046   4.154
 6997TIP3    H220935   3.042   6.106   4.186
 6998TIP3   OH220936   2.841   1.495   5.693
 6998TIP3    H120937   2.925   1.451   5.684
 6998TIP3    H220938   2.851   1.550   5.770
 6999TIP3   OH220939   6.408   3.356   4.413
 6999TIP3    H120940   6.490   3.313   4.439
 6999TIP3    H220941   6.432   3.447   4.398
 7000TIP3   OH220942   3.340   3.391   4.260
 7000TIP3    H120943   3.404   3.430   4.320
 7000TIP3    H220944   3.308   3.313   4.306
 7001TIP3   OH220945   5.888   1.154   5.520
 7001TIP3    H120946   5.979   1.170   5.545
 7001TIP3    H220947   5.852   1.105   5.594
 7002TIP3   OH220948   6.998   7.214   4.859
 7002TIP3    H120949   6.941   7.192   4.785
 7002TIP3    H220950   7.081   7.239   4.818
 7003TIP3   OH220951   0.411   7.425   3.054
 7003TIP3    H120952   0.396   7.470   2.971
 7003TIP3    H220953   0.341   7.456   3.112
 7004TIP3   OH220954   7.442   5.043   0.181
 7004TIP3    H120955   7.400   5.117   0.225
 7004TIP3    H220956   7.476   5.080   0.099
 7005TIP3   OH220957   0.939   6.210   4.003
 7005TIP3    H120958   0.856   6.163   4.014
 7005TIP3    H220959   0.962   6.197   3.911
 7006TIP3   OH220960   2.144   3.927   5.549
 7006TIP3    H120961   2.227   3.940   5.503
 7006TIP3    H220962   2.112   4.016   5.566
 7007TIP3   OH220963   5.887   4.545   1.029
 7007TIP3    H120964   5.929   4.626   1.060
 7007TIP3    H220965   5.794   4.559   1.046
 7008TIP3   OH220966   2.738   2.709   0.511
 7008TIP3    H120967   2.785   2.686   0.431
 7008TIP3    H220968   2.645   2.708   0.485
 7009TIP3   OH220969   5.402   3.159   6.249
 7009TIP3    H120970   5.359   3.170   6.164
 7009TIP3    H220971   5.330   3.155   6.312
 7010TIP3   OH220972   2.810   2.056   1.496
 7010TIP3    H120973   2.881   2.067   1.433
 7010TIP3    H220974   2.809   1.962   1.516
 7011TIP3   OH220975   5.051   3.968   2.304
 7011TIP3    H120976   4.986   4.009   2.246
 7011TIP3    H220977   5.132   3.968   2.253
 7012TIP3   OH220978   1.722   4.839   5.302
 7012TIP3    H120979   1.749   4.748   5.316
 7012TIP3    H220980   1.629   4.833   5.278
 7013TIP3   OH220981   7.042   2.566   2.611
 7013TIP3    H120982   7.129   2.581   2.575
 7013TIP3    H220983   6.985   2.627   2.562
 7014TIP3   OH220984   2.052   6.629   3.511
 7014TIP3    H120985   2.076   6.616   3.419
 7014TIP3    H220986   1.964   6.593   3.518
 7015TIP3   OH220987   0.981   1.125   3.086
 7015TIP3    H120988   1.051   1.177   3.124
 7015TIP3    H220989   1.022   1.042   3.063
 7016TIP3   OH220990   4.315   0.883   3.078
 7016TIP3    H120991   4.274   0.967   3.099
 7016TIP3    H220992   4.340   0.846   3.163
 7017TIP3   OH220993   7.246   6.173   3.499
 7017TIP3    H120994   7.197   6.104   3.453
 7017TIP3    H220995   7.180   6.239   3.519
 7018TIP3   OH220996   6.176   0.183   0.442
 7018TIP3    H120997   6.196   0.170   0.349
 7018TIP3    H220998   6.238   0.125   0.487
 7019TIP3   OH220999   0.128   2.814   5.623
 7019TIP3    H121000   0.199   2.857   5.576
 7019TIP3    H221001   0.137   2.721   5.601
 7020TIP3   OH221002   2.450   0.130   5.539
 7020TIP3    H121003   2.463   0.067   5.610
 7020TIP3    H221004   2.526   0.188   5.544
 7021TIP3   OH221005   6.620   4.224   0.440
 7021TIP3    H121006   6.609   4.295   0.377
 7021TIP3    H221007   6.531   4.206   0.471
 7022TIP3   OH221008   4.487   7.194   5.126
 7022TIP3    H121009   4.538   7.202   5.206
 7022TIP3    H221010   4.452   7.105   5.128
 7023TIP3   OH221011   4.744   3.288   5.457
 7023TIP3    H121012   4.704   3.294   5.544
 7023TIP3    H221013   4.735   3.377   5.421
 7024TIP3   OH221014   5.678   1.281   0.043
 7024TIP3    H121015   5.747   1.338   0.077
 7024TIP3    H221016   5.716   1.193   0.047
 7025TIP3   OH221017   7.554   3.544   4.688
 7025TIP3    H121018   7.515   3.465   4.727
 7025TIP3    H221019   7.530   3.539   4.595
 7026TIP3   OH221020   7.984   1.346   2.265
 7026TIP3    H121021   8.072   1.378   2.285
 7026TIP3    H221022   7.998   1.265   2.216
 7027TIP3   OH221023   0.796   2.511   1.920
 7027TIP3    H121024   0.765   2.598   1.896
 7027TIP3    H221025   0.808   2.465   1.837
 7028TIP3   OH221026   3.230   5.018   5.045
 7028TIP3    H121027   3.220   5.108   5.073
 7028TIP3    H221028   3.215   4.966   5.124
 7029TIP3   OH221029   5.964   2.330   2.763
 7029TIP3    H121030   5.924   2.381   2.833
 7029TIP3    H221031   5.936   2.240   2.779
 7030TIP3   OH221032   0.823   3.025   1.667
 7030TIP3    H121033   0.908   3.035   1.624
 7030TIP3    H221034   0.821   3.096   1.732
 7031TIP3   OH221035   5.449   5.554   2.075
 7031TIP3    H121036   5.424   5.622   2.013
 7031TIP3    H221037   5.480   5.601   2.152
 7032TIP3   OH221038   1.624   7.639   2.827
 7032TIP3    H121039   1.568   7.629   2.750
 7032TIP3    H221040   1.567   7.681   2.892
 7033TIP3   OH221041   3.815   3.242   2.836
 7033TIP3    H121042   3.764   3.288   2.768
 7033TIP3    H221043   3.820   3.152   2.805
 7034TIP3   OH221044   8.093   6.958   6.781
 7034TIP3    H121045   8.023   6.952   6.716
 7034TIP3    H221046   8.167   6.995   6.733
 7035TIP3   OH221047   2.428   6.525   1.706
 7035TIP3    H121048   2.373   6.506   1.783
 7035TIP3    H221049   2.517   6.505   1.735
 7036TIP3   OH221050   5.658   4.258   0.341
 7036TIP3    H121051   5.735   4.229   0.389
 7036TIP3    H221052   5.607   4.309   0.404
 7037TIP3   OH221053   8.227   0.495   3.600
 7037TIP3    H121054   8.193   0.434   3.666
 7037TIP3    H221055   8.313   0.521   3.633
 7038TIP3   OH221056   7.172   5.764   6.282
 7038TIP3    H121057   7.168   5.850   6.241
 7038TIP3    H221058   7.157   5.703   6.209
 7039TIP3   OH221059   3.802   6.364   3.639
 7039TIP3    H121060   3.750   6.296   3.683
 7039TIP3    H221061   3.893   6.333   3.648
 7040TIP3   OH221062   7.705   6.540   6.322
 7040TIP3    H121063   7.784   6.532   6.269
 7040TIP3    H221064   7.644   6.589   6.267
 7041TIP3   OH221065   3.796   5.519   2.225
 7041TIP3    H121066   3.840   5.453   2.171
 7041TIP3    H221067   3.844   5.519   2.307
 7042TIP3   OH221068   5.420   4.892   2.391
 7042TIP3    H121069   5.491   4.947   2.424
 7042TIP3    H221070   5.345   4.912   2.448
 7043TIP3   OH221071   0.562   1.464   6.145
 7043TIP3    H121072   0.614   1.398   6.099
 7043TIP3    H221073   0.552   1.428   6.233
 7044TIP3   OH221074   1.043   7.132   3.230
 7044TIP3    H121075   1.110   7.165   3.169
 7044TIP3    H221076   0.961   7.170   3.199
 7045TIP3   OH221077   7.995   5.620   5.371
 7045TIP3    H121078   8.082   5.629   5.333
 7045TIP3    H221079   8.006   5.645   5.463
 7046TIP3   OH221080   0.744   0.484   3.053
 7046TIP3    H121081   0.793   0.536   2.990
 7046TIP3    H221082   0.803   0.474   3.128
 7047TIP3   OH221083   0.725   5.971   5.663
 7047TIP3    H121084   0.793   5.910   5.690
 7047TIP3    H221085   0.735   6.046   5.722
 7048TIP3   OH221086   4.347   0.441   5.802
 7048TIP3    H121087   4.382   0.485   5.725
 7048TIP3    H221088   4.388   0.354   5.801
 7049TIP3   OH221089   8.256   0.365   2.820
 7049TIP3    H121090   8.318   0.317   2.875
 7049TIP3    H221091   8.282   0.457   2.829
 7050TIP3   OH221092   4.761   5.518   0.576
 7050TIP3    H121093   4.826   5.567   0.627
 7050TIP3    H221094   4.809   5.442   0.544
 7051TIP3   OH221095   0.656   7.144   2.647
 7051TIP3    H121096   0.740   7.133   2.603
 7051TIP3    H221097   0.630   7.056   2.673
 7052TIP3   OH221098   5.128   7.410   0.497
 7052TIP3    H121099   5.087   7.395   0.412
 7052TIP3    H221100   5.058   7.442   0.553
 7053TIP3   OH221101   0.649   6.549   1.618
 7053TIP3    H121102   0.686   6.539   1.706
 7053TIP3    H221103   0.708   6.611   1.575
 7054TIP3   OH221104   2.397   1.070   3.711
 7054TIP3    H121105   2.450   0.994   3.689
 7054TIP3    H221106   2.420   1.135   3.644
 7055TIP3   OH221107   3.970   4.404   0.798
 7055TIP3    H121108   3.990   4.494   0.771
 7055TIP3    H221109   4.052   4.372   0.836
 7056TIP3   OH221110   8.245   2.029   1.519
 7056TIP3    H121111   8.311   1.965   1.493
 7056TIP3    H221112   8.230   2.082   1.441
 7057TIP3   OH221113   1.339   4.792   3.566
 7057TIP3    H121114   1.291   4.720   3.525
 7057TIP3    H221115   1.272   4.847   3.604
 7058TIP3   OH221116   7.518   6.533   2.908
 7058TIP3    H121117   7.468   6.602   2.951
 7058TIP3    H221118   7.598   6.577   2.879
 7059TIP3   OH221119   1.486   5.802   4.504
 7059TIP3    H121120   1.565   5.774   4.457
 7059TIP3    H221121   1.465   5.728   4.562
 7060TIP3   OH221122   2.909   3.075   5.948
 7060TIP3    H121123   2.969   3.106   5.880
 7060TIP3    H221124   2.957   3.086   6.030
 7061TIP3   OH221125   6.723   1.747   0.154
 7061TIP3    H121126   6.655   1.701   0.203
 7061TIP3    H221127   6.710   1.720   0.063
 7062TIP3   OH221128   1.882   5.459   1.916
 7062TIP3    H121129   1.932   5.394   1.965
 7062TIP3    H221130   1.826   5.408   1.858
 7063TIP3   OH221131   5.398   7.152   4.258
 7063TIP3    H121132   5.359   7.079   4.305
 7063TIP3    H221133   5.374   7.229   4.309
 7064TIP3   OH221134   8.006   1.604   4.512
 7064TIP3    H121135   8.053   1.542   4.456
 7064TIP3    H221136   8.071   1.671   4.533
 7065TIP3   OH221137   3.469   2.628   1.899
 7065TIP3    H121138   3.453   2.718   1.931
 7065TIP3    H221139   3.555   2.632   1.859
 7066TIP3   OH221140   1.956   4.626   6.520
 7066TIP3    H121141   1.958   4.708   6.471
 7066TIP3    H221142   2.027   4.574   6.484
 7067TIP3   OH221143   3.409   0.048   5.762
 7067TIP3    H121144   3.338   0.067   5.823
 7067TIP3    H221145   3.486   0.034   5.818
 7068TIP3   OH221146   3.952   6.815   5.845
 7068TIP3    H121147   3.967   6.895   5.795
 7068TIP3    H221148   4.039   6.783   5.867
 7069TIP3   OH221149   7.493   5.556   5.235
 7069TIP3    H121150   7.561   5.489   5.229
 7069TIP3    H221151   7.531   5.623   5.292
 7070TIP3   OH221152   2.580   5.979   1.877
 7070TIP3    H121153   2.547   5.921   1.809
 7070TIP3    H221154   2.655   6.023   1.836
 7071TIP3   OH221155   1.079   3.426   1.106
 7071TIP3    H121156   1.079   3.397   1.015
 7071TIP3    H221157   1.152   3.487   1.111
 7072TIP3   OH221158   3.938   5.406   5.407
 7072TIP3    H121159   3.958   5.313   5.399
 7072TIP3    H221160   4.023   5.449   5.401
 7073TIP3   OH221161   7.600   4.831   6.659
 7073TIP3    H121162   7.659   4.900   6.689
 7073TIP3    H221163   7.512   4.868   6.672
 7074TIP3   OH221164   5.391   6.320   3.365
 7074TIP3    H121165   5.391   6.382   3.437
 7074TIP3    H221166   5.479   6.281   3.366
 7075TIP3   OH221167   3.547   7.592   5.129
 7075TIP3    H121168   3.478   7.550   5.181
 7075TIP3    H221169   3.525   7.571   5.038
 7076TIP3   OH221170   4.492   3.239   3.015
 7076TIP3    H121171   4.421   3.265   3.073
 7076TIP3    H221172   4.478   3.290   2.935
 7077TIP3   OH221173   2.005   3.246   0.981
 7077TIP3    H121174   1.981   3.154   0.995
 7077TIP3    H221175   2.100   3.249   0.995
 7078TIP3   OH221176   0.972   6.004   4.969
 7078TIP3    H121177   0.892   5.956   4.944
 7078TIP3    H221178   1.019   5.944   5.026
 7079TIP3   OH221179   7.431   7.499   4.843
 7079TIP3    H121180   7.522   7.468   4.846
 7079TIP3    H221181   7.417   7.519   4.750
 7080TIP3   OH221182   3.266   3.935   4.183
 7080TIP3    H121183   3.188   3.964   4.136
 7080TIP3    H221184   3.233   3.879   4.254
 7081TIP3   OH221185   1.848   1.580   2.725
 7081TIP3    H121186   1.843   1.597   2.631
 7081TIP3    H221187   1.942   1.572   2.743
 7082TIP3   OH221188   1.858   6.245   6.011
 7082TIP3    H121189   1.835   6.194   5.933
 7082TIP3    H221190   1.923   6.308   5.980
 7083TIP3   OH221191   3.224   3.771   5.719
 7083TIP3    H121192   3.292   3.832   5.748
 7083TIP3    H221193   3.181   3.815   5.646
 7084TIP3   OH221194   4.153   4.007   1.034
 7084TIP3    H121195   4.210   4.083   1.030
 7084TIP3    H221196   4.074   4.034   0.987
 7085TIP3   OH221197   0.304   5.241   5.278
 7085TIP3    H121198   0.288   5.245   5.184
 7085TIP3    H221199   0.398   5.225   5.285
 7086TIP3   OH221200   6.277   6.166   4.042
 7086TIP3    H121201   6.322   6.112   4.107
 7086TIP3    H221202   6.327   6.248   4.041
 7087TIP3   OH221203   0.772   2.169   2.763
 7087TIP3    H121204   0.842   2.104   2.764
 7087TIP3    H221205   0.700   2.127   2.810
 7088TIP3   OH221206   6.657   2.300   5.826
 7088TIP3    H121207   6.735   2.273   5.778
 7088TIP3    H221208   6.616   2.218   5.853
 7089TIP3   OH221209   7.967   7.041   3.336
 7089TIP3    H121210   7.900   7.028   3.268
 7089TIP3    H221211   8.028   6.969   3.323
 7090TIP3   OH221212   3.415   5.089   6.185
 7090TIP3    H121213   3.397   4.997   6.169
 7090TIP3    H221214   3.399   5.132   6.101
 7091TIP3   OH221215   2.056   0.370   2.190
 7091TIP3    H121216   2.072   0.421   2.270
 7091TIP3    H221217   2.092   0.425   2.120
 7092TIP3   OH221218   0.860   1.180   4.712
 7092TIP3    H121219   0.830   1.200   4.624
 7092TIP3    H221220   0.779   1.169   4.763
 7093TIP3   OH221221   8.018   7.412   2.356
 7093TIP3    H121222   8.018   7.330   2.306
 7093TIP3    H221223   7.979   7.389   2.440
 7094TIP3   OH221224   0.440   6.858   6.309
 7094TIP3    H121225   0.456   6.834   6.400
 7094TIP3    H221226   0.519   6.829   6.262
 7095TIP3   OH221227   1.676   4.751   6.246
 7095TIP3    H121228   1.603   4.782   6.299
 7095TIP3    H221229   1.751   4.805   6.272
 7096TIP3   OH221230   3.160   0.245   2.927
 7096TIP3    H121231   3.201   0.239   3.013
 7096TIP3    H221232   3.132   0.336   2.920
 7097TIP3   OH221233   5.125   2.528   0.708
 7097TIP3    H121234   5.165   2.561   0.788
 7097TIP3    H221235   5.200   2.504   0.652
 7098TIP3   OH221236   6.104   0.166   4.169
 7098TIP3    H121237   6.176   0.164   4.106
 7098TIP3    H221238   6.132   0.228   4.236
 7099TIP3   OH221239   1.332   6.721   6.070
 7099TIP3    H121240   1.380   6.739   5.989
 7099TIP3    H221241   1.336   6.625   6.079
 7100TIP3   OH221242   6.865   7.808   1.822
 7100TIP3    H121243   6.857   7.874   1.891
 7100TIP3    H221244   6.893   7.729   1.868
 7101TIP3   OH221245   7.960   4.383   6.776
 7101TIP3    H121246   7.985   4.450   6.839
 7101TIP3    H221247   7.942   4.432   6.695
 7102TIP3   OH221248   7.587   3.722   0.640
 7102TIP3    H121249   7.622   3.645   0.596
 7102TIP3    H221250   7.624   3.796   0.591
 7103TIP3   OH221251   4.752   0.459   4.550
 7103TIP3    H121252   4.763   0.373   4.508
 7103TIP3    H221253   4.661   0.482   4.534
 7104TIP3   OH221254   4.207   7.562   6.148
 7104TIP3    H121255   4.122   7.600   6.169
 7104TIP3    H221256   4.193   7.513   6.067
 7105TIP3   OH221257   7.331   1.763   1.794
 7105TIP3    H121258   7.301   1.723   1.876
 7105TIP3    H221259   7.357   1.689   1.739
 7106TIP3   OH221260   6.341   2.878   2.402
 7106TIP3    H121261   6.272   2.920   2.454
 7106TIP3    H221262   6.376   2.810   2.458
 7107TIP3   OH221263   3.280   6.300   5.559
 7107TIP3    H121264   3.195   6.301   5.603
 7107TIP3    H221265   3.268   6.240   5.486
 7108TIP3   OH221266   2.495   4.101   3.187
 7108TIP3    H121267   2.405   4.069   3.187
 7108TIP3    H221268   2.500   4.157   3.110
 7109TIP3   OH221269   2.874   1.293   6.568
 7109TIP3    H121270   2.871   1.388   6.578
 7109TIP3    H221271   2.818   1.275   6.492
 7110TIP3   OH221272   5.341   1.003   1.162
 7110TIP3    H121273   5.265   0.995   1.218
 7110TIP3    H221274   5.341   0.923   1.109
 7111TIP3   OH221275   5.565   4.555   6.244
 7111TIP3    H121276   5.481   4.590   6.274
 7111TIP3    H221277   5.605   4.626   6.195
 7112TIP3   OH221278   3.348   0.387   3.645
 7112TIP3    H121279   3.298   0.431   3.714
 7112TIP3    H221280   3.432   0.366   3.686
 7113TIP3   OH221281   3.853   5.711   3.023
 7113TIP3    H121282   3.939   5.747   3.003
 7113TIP3    H221283   3.821   5.676   2.940
 7114TIP3   OH221284   7.748   7.243   2.339
 7114TIP3    H121285   7.824   7.191   2.312
 7114TIP3    H221286   7.680   7.219   2.275
 7115TIP3   OH221287   7.417   1.671   2.668
 7115TIP3    H121288   7.364   1.633   2.739
 7115TIP3    H221289   7.430   1.598   2.607
 7116TIP3   OH221290   0.942   6.250   5.219
 7116TIP3    H121291   1.020   6.295   5.252
 7116TIP3    H221292   0.972   6.161   5.200
 7117TIP3   OH221293   3.020   2.344   3.957
 7117TIP3    H121294   3.015   2.387   4.043
 7117TIP3    H221295   3.067   2.407   3.902
 7118TIP3   OH221296   0.096   0.087   3.611
 7118TIP3    H121297   0.023   0.097   3.549
 7118TIP3    H221298   0.102  -0.007   3.627
 7119TIP3   OH221299   2.732   5.477   2.303
 7119TIP3    H121300   2.751   5.550   2.361
 7119TIP3    H221301   2.773   5.401   2.345
 7120TIP3   OH221302   1.018   4.695   4.509
 7120TIP3    H121303   0.943   4.737   4.468
 7120TIP3    H221304   1.052   4.760   4.570
 7121TIP3   OH221305   3.835   3.811   1.237
 7121TIP3    H121306   3.929   3.793   1.231
 7121TIP3    H221307   3.808   3.826   1.146
 7122TIP3   OH221308   5.515   5.601   5.793
 7122TIP3    H121309   5.566   5.555   5.726
 7122TIP3    H221310   5.425   5.599   5.760
 7123TIP3   OH221311   7.078   1.580   0.930
 7123TIP3    H121312   7.023   1.534   0.994
 7123TIP3    H221313   7.116   1.653   0.979
 7124TIP3   OH221314   5.862   1.086   2.175
 7124TIP3    H121315   5.862   1.168   2.125
 7124TIP3    H221316   5.832   1.111   2.262
 7125TIP3   OH221317   0.993   0.064   6.279
 7125TIP3    H121318   1.080   0.103   6.281
 7125TIP3    H221319   0.936   0.131   6.317
 7126TIP3   OH221320   3.757   0.700   4.633
 7126TIP3    H121321   3.662   0.697   4.622
 7126TIP3    H221322   3.773   0.772   4.693
 7127TIP3   OH221323   4.223   3.112   4.468
 7127TIP3    H121324   4.261   3.106   4.556
 7127TIP3    H221325   4.292   3.077   4.411
 7128TIP3   OH221326   3.882   6.389   5.216
 7128TIP3    H121327   3.882   6.484   5.224
 7128TIP3    H221328   3.873   6.357   5.306
 7129TIP3   OH221329   5.122   1.986   2.017
 7129TIP3    H121330   5.190   2.022   1.960
 7129TIP3    H221331   5.041   1.999   1.968
 7130TIP3   OH221332   6.660   4.953   1.719
 7130TIP3    H121333   6.750   4.984   1.729
 7130TIP3    H221334   6.648   4.889   1.790
 7131TIP3   OH221335   2.846   4.846   2.431
 7131TIP3    H121336   2.809   4.921   2.478
 7131TIP3    H221337   2.820   4.861   2.340
 7132TIP3   OH221338   4.124   3.473   0.540
 7132TIP3    H121339   4.085   3.425   0.612
 7132TIP3    H221340   4.138   3.408   0.471
 7133TIP3   OH221341   7.246   3.973   2.150
 7133TIP3    H121342   7.295   4.053   2.171
 7133TIP3    H221343   7.275   3.950   2.061
 7134TIP3   OH221344   3.719   1.684   3.560
 7134TIP3    H121345   3.783   1.662   3.628
 7134TIP3    H221346   3.769   1.735   3.496
 7135TIP3   OH221347   3.681   3.551   1.646
 7135TIP3    H121348   3.664   3.530   1.554
 7135TIP3    H221349   3.776   3.555   1.652
 7136TIP3   OH221350   0.823   4.463   6.218
 7136TIP3    H121351   0.884   4.527   6.257
 7136TIP3    H221352   0.772   4.431   6.293
 7137TIP3   OH221353   8.123   4.495   3.966
 7137TIP3    H121354   8.030   4.506   3.947
 7137TIP3    H221355   8.168   4.541   3.895
 7138TIP3   OH221356   5.789   4.827   5.392
 7138TIP3    H121357   5.785   4.732   5.403
 7138TIP3    H221358   5.781   4.840   5.298
 7139TIP3   OH221359   1.007   4.917   4.635
 7139TIP3    H121360   0.959   4.957   4.563
 7139TIP3    H221361   1.016   4.987   4.700
 7140TIP3   OH221362   5.729   5.922   3.076
 7140TIP3    H121363   5.809   5.943   3.124
 7140TIP3    H221364   5.743   5.833   3.044
 7141TIP3   OH221365   5.158   3.889   5.933
 7141TIP3    H121366   5.162   3.794   5.918
 7141TIP3    H221367   5.221   3.926   5.872
 7142TIP3   OH221368   5.290   4.344   2.373
 7142TIP3    H121369   5.233   4.321   2.300
 7142TIP3    H221370   5.315   4.435   2.355
 7143TIP3   OH221371   2.085   1.067   5.591
 7143TIP3    H121372   2.124   0.987   5.558
 7143TIP3    H221373   1.999   1.071   5.550
 7144TIP3   OH221374   2.292   3.626   4.472
 7144TIP3    H121375   2.260   3.537   4.457
 7144TIP3    H221376   2.339   3.621   4.556
 7145TIP3   OH221377   6.872   4.500   4.361
 7145TIP3    H121378   6.924   4.576   4.335
 7145TIP3    H221379   6.798   4.537   4.410
 7146TIP3   OH221380   0.507   6.560   0.112
 7146TIP3    H121381   0.590   6.524   0.080
 7146TIP3    H221382   0.523   6.574   0.206
 7147TIP3   OH221383   2.130   3.637   3.713
 7147TIP3    H121384   2.113   3.708   3.651
 7147TIP3    H221385   2.089   3.560   3.673
 7148TIP3   OH221386   8.042   0.741   0.917
 7148TIP3    H121387   8.041   0.649   0.891
 7148TIP3    H221388   8.118   0.778   0.872
 7149TIP3   OH221389   6.267   4.296   2.967
 7149TIP3    H121390   6.233   4.377   2.929
 7149TIP3    H221391   6.318   4.324   3.042
 7150TIP3   OH221392   0.311   7.322   6.054
 7150TIP3    H121393   0.401   7.315   6.022
 7150TIP3    H221394   0.285   7.411   6.030
 7151TIP3   OH221395   0.785   2.641   6.581
 7151TIP3    H121396   0.801   2.575   6.649
 7151TIP3    H221397   0.727   2.705   6.623
 7152TIP3   OH221398   5.634   4.830   3.332
 7152TIP3    H121399   5.647   4.746   3.376
 7152TIP3    H221400   5.647   4.895   3.401
 7153TIP3   OH221401   6.603   6.648   5.690
 7153TIP3    H121402   6.637   6.621   5.775
 7153TIP3    H221403   6.649   6.729   5.670
 7154TIP3   OH221404   7.940   4.837   4.431
 7154TIP3    H121405   7.868   4.873   4.483
 7154TIP3    H221406   7.906   4.831   4.342
 7155TIP3   OH221407   2.735   5.071   2.547
 7155TIP3    H121408   2.652   5.035   2.515
 7155TIP3    H221409   2.767   5.127   2.476
 7156TIP3   OH221410   3.732   1.373   1.555
 7156TIP3    H121411   3.720   1.278   1.557
 7156TIP3    H221412   3.822   1.384   1.522
 7157TIP3   OH221413   2.337   6.602   1.460
 7157TIP3    H121414   2.245   6.615   1.482
 7157TIP3    H221415   2.379   6.579   1.543
 7158TIP3   OH221416   3.179   1.419   6.257
 7158TIP3    H121417   3.211   1.346   6.205
 7158TIP3    H221418   3.238   1.422   6.333
 7159TIP3   OH221419   4.531   3.880   4.047
 7159TIP3    H121420   4.526   3.785   4.044
 7159TIP3    H221421   4.452   3.909   4.001
 7160TIP3   OH221422   2.089   1.965   4.869
 7160TIP3    H121423   2.080   1.932   4.959
 7160TIP3    H221424   2.062   1.892   4.814
 7161TIP3   OH221425   6.910   0.522   4.292
 7161TIP3    H121426   6.836   0.463   4.306
 7161TIP3    H221427   6.887   0.572   4.214
 7162TIP3   OH221428   4.741   6.067   0.144
 7162TIP3    H121429   4.777   5.980   0.124
 7162TIP3    H221430   4.677   6.050   0.213
 7163TIP3   OH221431   2.332   2.429   1.286
 7163TIP3    H121432   2.257   2.476   1.248
 7163TIP3    H221433   2.328   2.448   1.379
 7164TIP3   OH221434   8.108   0.978   4.441
 7164TIP3    H121435   8.019   0.942   4.440
 7164TIP3    H221436   8.161   0.912   4.397
 7165TIP3   OH221437   2.816   1.156   3.773
 7165TIP3    H121438   2.783   1.236   3.814
 7165TIP3    H221439   2.802   1.088   3.839
 7166TIP3   OH221440   4.452   2.473  -0.010
 7166TIP3    H121441   4.481   2.495   0.078
 7166TIP3    H221442   4.532   2.468  -0.062
 7167TIP3   OH221443   6.172   3.423   1.807
 7167TIP3    H121444   6.107   3.382   1.864
 7167TIP3    H221445   6.183   3.362   1.735
 7168TIP3   OH221446   2.124   7.294   0.620
 7168TIP3    H121447   2.114   7.348   0.699
 7168TIP3    H221448   2.174   7.349   0.560
 7169TIP3   OH221449   2.741   1.302   0.005
 7169TIP3    H121450   2.801   1.247  -0.044
 7169TIP3    H221451   2.797   1.366   0.049
 7170TIP3   OH221452   2.325   6.229   6.362
 7170TIP3    H121453   2.303   6.314   6.402
 7170TIP3    H221454   2.381   6.251   6.288
 7171TIP3   OH221455   2.525   2.930   2.688
 7171TIP3    H121456   2.585   2.965   2.622
 7171TIP3    H221457   2.501   3.006   2.741
 7172TIP3   OH221458   6.816   0.734   4.472
 7172TIP3    H121459   6.843   0.649   4.438
 7172TIP3    H221460   6.801   0.788   4.394
 7173TIP3   OH221461   4.880   4.029   1.520
 7173TIP3    H121462   4.930   3.958   1.561
 7173TIP3    H221463   4.946   4.092   1.491
 7174TIP3   OH221464   3.086   0.803   3.227
 7174TIP3    H121465   3.069   0.709   3.226
 7174TIP3    H221466   3.141   0.817   3.304
 7175TIP3   OH221467   6.822   0.395   1.339
 7175TIP3    H121468   6.884   0.329   1.372
 7175TIP3    H221469   6.874   0.475   1.331
 7176TIP3   OH221470   4.819   6.391   6.025
 7176TIP3    H121471   4.894   6.415   5.970
 7176TIP3    H221472   4.831   6.298   6.044
 7177TIP3   OH221473   7.729   2.246   5.047
 7177TIP3    H121474   7.731   2.326   5.099
 7177TIP3    H221475   7.819   2.213   5.051
 7178TIP3   OH221476   6.961   3.370   5.650
 7178TIP3    H121477   6.896   3.346   5.716
 7178TIP3    H221478   6.911   3.383   5.570
 7179TIP3   OH221479   2.091   3.481   2.801
 7179TIP3    H121480   2.024   3.491   2.868
 7179TIP3    H221481   2.099   3.387   2.788
 7180TIP3   OH221482   7.175   2.313   6.699
 7180TIP3    H121483   7.206   2.403   6.705
 7180TIP3    H221484   7.231   2.272   6.633
 7181TIP3   OH221485   6.887   7.187   4.578
 7181TIP3    H121486   6.974   7.207   4.545
 7181TIP3    H221487   6.847   7.273   4.595
 7182TIP3   OH221488   7.460   0.234   4.802
 7182TIP3    H121489   7.497   0.147   4.814
 7182TIP3    H221490   7.386   0.222   4.742
 7183TIP3   OH221491   7.409   3.122   2.333
 7183TIP3    H121492   7.391   3.183   2.262
 7183TIP3    H221493   7.396   3.173   2.413
 7184TIP3   OH221494   6.055   2.139   1.207
 7184TIP3    H121495   6.041   2.228   1.175
 7184TIP3    H221496   5.971   2.113   1.244
 7185TIP3   OH221497   0.349   2.186   3.575
 7185TIP3    H121498   0.428   2.160   3.622
 7185TIP3    H221499   0.279   2.176   3.640
 7186TIP3   OH221500   7.532   1.651   4.042
 7186TIP3    H121501   7.535   1.687   3.953
 7186TIP3    H221502   7.548   1.727   4.099
 7187TIP3   OH221503   3.403   0.707   4.614
 7187TIP3    H121504   3.444   0.629   4.649
 7187TIP3    H221505   3.322   0.717   4.663
 7188TIP3   OH221506   4.585   3.663   2.256
 7188TIP3    H121507   4.527   3.633   2.326
 7188TIP3    H221508   4.574   3.598   2.186
 7189TIP3   OH221509   5.780   5.389   6.104
 7189TIP3    H121510   5.695   5.433   6.109
 7189TIP3    H221511   5.784   5.355   6.014
 7190TIP3   OH221512   0.419   7.371   3.371
 7190TIP3    H121513   0.482   7.353   3.440
 7190TIP3    H221514   0.445   7.314   3.299
 7191TIP3   OH221515   3.331   6.584   1.362
 7191TIP3    H121516   3.251   6.604   1.313
 7191TIP3    H221517   3.313   6.613   1.451
 7192TIP3   OH221518   1.030   1.617   3.977
 7192TIP3    H121519   0.958   1.644   3.921
 7192TIP3    H221520   1.029   1.521   3.975
 7193TIP3   OH221521   3.755   3.425   3.709
 7193TIP3    H121522   3.669   3.454   3.680
 7193TIP3    H221523   3.748   3.330   3.714
 7194TIP3   OH221524   0.919   5.369   4.913
 7194TIP3    H121525   0.968   5.314   4.852
 7194TIP3    H221526   0.832   5.329   4.916
 7195TIP3   OH221527   3.231   3.623   1.308
 7195TIP3    H121528   3.139   3.618   1.283
 7195TIP3    H221529   3.236   3.697   1.368
 7196TIP3   OH221530   5.657   4.689   0.955
 7196TIP3    H121531   5.610   4.772   0.943
 7196TIP3    H221532   5.589   4.625   0.976
 7197TIP3   OH221533   1.209   7.171   5.529
 7197TIP3    H121534   1.300   7.190   5.551
 7197TIP3    H221535   1.165   7.159   5.613
 7198TIP3   OH221536   2.123   1.542   2.780
 7198TIP3    H121537   2.186   1.554   2.709
 7198TIP3    H221538   2.100   1.449   2.776
 7199TIP3   OH221539   5.164   6.646   1.853
 7199TIP3    H121540   5.069   6.656   1.866
 7199TIP3    H221541   5.200   6.637   1.941
 7200TIP3   OH221542   4.817   3.679   0.885
 7200TIP3    H121543   4.881   3.744   0.915
 7200TIP3    H221544   4.735   3.707   0.925
 7201TIP3   OH221545   4.202   0.209   1.880
 7201TIP3    H121546   4.119   0.165   1.900
 7201TIP3    H221547   4.260   0.183   1.951
 7202TIP3   OH221548   7.257   0.523   1.031
 7202TIP3    H121549   7.330   0.560   0.980
 7202TIP3    H221550   7.186   0.514   0.968
 7203TIP3   OH221551   3.883   2.306   5.020
 7203TIP3    H121552   3.800   2.258   5.026
 7203TIP3    H221553   3.946   2.251   5.066
 7204TIP3   OH221554   3.451   5.241   0.651
 7204TIP3    H121555   3.430   5.209   0.739
 7204TIP3    H221556   3.388   5.312   0.635
 7205TIP3   OH221557   1.665   7.284   2.468
 7205TIP3    H121558   1.599   7.313   2.405
 7205TIP3    H221559   1.672   7.190   2.455
 7206TIP3   OH221560   0.216   3.991   3.121
 7206TIP3    H121561   0.139   4.037   3.153
 7206TIP3    H221562   0.183   3.906   3.092
 7207TIP3   OH221563   7.399   7.520   0.668
 7207TIP3    H121564   7.490   7.547   0.676
 7207TIP3    H221565   7.350   7.586   0.717
 7208TIP3   OH221566   7.619   7.288   5.411
 7208TIP3    H121567   7.547   7.304   5.350
 7208TIP3    H221568   7.694   7.332   5.371
 7209TIP3   OH221569   2.423   2.296   1.031
 7209TIP3    H121570   2.384   2.297   1.119
 7209TIP3    H221571   2.348   2.302   0.972
 7210TIP3   OH221572   5.286   0.851   2.985
 7210TIP3    H121573   5.292   0.909   3.061
 7210TIP3    H221574   5.198   0.866   2.950
 7211TIP3   OH221575   2.817   0.110   3.325
 7211TIP3    H121576   2.812   0.203   3.303
 7211TIP3    H221577   2.762   0.067   3.260
 7212TIP3   OH221578   4.697   7.463   2.308
 7212TIP3    H121579   4.721   7.371   2.302
 7212TIP3    H221580   4.713   7.487   2.399
 7213TIP3   OH221581   6.666   6.387   0.354
 7213TIP3    H121582   6.739   6.414   0.298
 7213TIP3    H221583   6.709   6.345   0.429
 7214TIP3   OH221584   6.567   2.106   4.559
 7214TIP3    H121585   6.558   2.095   4.654
 7214TIP3    H221586   6.477   2.101   4.526
 7215TIP3   OH221587   7.678   3.116   2.684
 7215TIP3    H121588   7.660   3.022   2.687
 7215TIP3    H221589   7.592   3.156   2.668
 7216TIP3   OH221590   3.628   1.656   4.194
 7216TIP3    H121591   3.559   1.651   4.128
 7216TIP3    H221592   3.647   1.565   4.217
 7217TIP3   OH221593   2.181   2.665   0.985
 7217TIP3    H121594   2.212   2.638   0.898
 7217TIP3    H221595   2.260   2.678   1.036
 7218TIP3   OH221596   7.381   5.696   0.203
 7218TIP3    H121597   7.290   5.668   0.208
 7218TIP3    H221598   7.394   5.749   0.281
 7219TIP3   OH221599   2.469   3.616   0.657
 7219TIP3    H121600   2.545   3.673   0.645
 7219TIP3    H221601   2.494   3.557   0.728
 7220TIP3   OH221602   2.756   6.680   5.738
 7220TIP3    H121603   2.767   6.702   5.645
 7220TIP3    H221604   2.665   6.654   5.745
 7221TIP3   OH221605   7.284   5.941   2.674
 7221TIP3    H121606   7.190   5.938   2.657
 7221TIP3    H221607   7.298   6.023   2.720
 7222TIP3   OH221608   1.130   3.260   5.949
 7222TIP3    H121609   1.205   3.247   6.007
 7222TIP3    H221610   1.152   3.210   5.870
 7223TIP3   OH221611   4.824   6.038   1.744
 7223TIP3    H121612   4.855   6.126   1.766
 7223TIP3    H221613   4.902   5.983   1.750
 7224TIP3   OH221614   0.971   7.685   4.784
 7224TIP3    H121615   0.976   7.680   4.689
 7224TIP3    H221616   1.009   7.602   4.814
 7225TIP3   OH221617   2.845   2.786   0.895
 7225TIP3    H121618   2.922   2.836   0.867
 7225TIP3    H221619   2.853   2.703   0.849
 7226TIP3   OH221620   0.062   5.629   4.640
 7226TIP3    H121621   0.055   5.653   4.548
 7226TIP3    H221622   0.003   5.689   4.685
 7227TIP3   OH221623   3.632   6.601   6.668
 7227TIP3    H121624   3.680   6.519   6.684
 7227TIP3    H221625   3.587   6.587   6.585
 7228TIP3   OH221626   5.002   6.700   4.827
 7228TIP3    H121627   5.076   6.650   4.861
 7228TIP3    H221628   5.041   6.778   4.788
 7229TIP3   OH221629   4.934   6.471   4.515
 7229TIP3    H121630   4.964   6.537   4.577
 7229TIP3    H221631   4.850   6.504   4.484
 7230TIP3   OH221632   3.133   4.031   2.611
 7230TIP3    H121633   3.174   4.015   2.696
 7230TIP3    H221634   3.104   3.945   2.581
 7231TIP3   OH221635   6.466   0.074   4.157
 7231TIP3    H121636   6.471  -0.012   4.116
 7231TIP3    H221637   6.407   0.124   4.100
 7232TIP3   OH221638   5.373   6.465   2.878
 7232TIP3    H121639   5.433   6.397   2.847
 7232TIP3    H221640   5.360   6.446   2.971
 7233TIP3   OH221641   1.049   5.101   2.966
 7233TIP3    H121642   1.108   5.156   3.018
 7233TIP3    H221643   1.025   5.157   2.892
 7234TIP3   OH221644   7.219   4.299   6.524
 7234TIP3    H121645   7.222   4.350   6.443
 7234TIP3    H221646   7.289   4.336   6.579
 7235TIP3   OH221647   1.482   2.839   4.544
 7235TIP3    H121648   1.459   2.764   4.489
 7235TIP3    H221649   1.539   2.892   4.488
 7236TIP3   OH221650   5.481   4.175   3.244
 7236TIP3    H121651   5.508   4.265   3.264
 7236TIP3    H221652   5.554   4.121   3.274
 7237TIP3   OH221653   4.150   7.000   4.658
 7237TIP3    H121654   4.215   7.069   4.641
 7237TIP3    H221655   4.066   7.046   4.653
 7238TIP3   OH221656   7.750   6.750   0.297
 7238TIP3    H121657   7.820   6.815   0.294
 7238TIP3    H221658   7.688   6.785   0.361
 7239TIP3   OH221659   8.045   3.068   1.393
 7239TIP3    H121660   8.046   2.975   1.368
 7239TIP3    H221661   7.953   3.094   1.386
 7240TIP3   OH221662   4.688   5.366   3.212
 7240TIP3    H121663   4.691   5.301   3.142
 7240TIP3    H221664   4.714   5.318   3.291
 7241TIP3   OH221665   0.864   0.028   2.911
 7241TIP3    H121666   0.823   0.101   2.958
 7241TIP3    H221667   0.794  -0.035   2.898
 7242TIP3   OH221668   8.156   5.277   1.680
 7242TIP3    H121669   8.230   5.338   1.683
 7242TIP3    H221670   8.175   5.212   1.748
 7243TIP3   OH221671   0.229   1.948   4.956
 7243TIP3    H121672   0.179   1.869   4.933
 7243TIP3    H221673   0.163   2.017   4.961
 7244TIP3   OH221674   1.562   7.366   3.511
 7244TIP3    H121675   1.481   7.415   3.504
 7244TIP3    H221676   1.544   7.283   3.468
 7245TIP3   OH221677   4.525   6.438   4.731
 7245TIP3    H121678   4.452   6.382   4.707
 7245TIP3    H221679   4.601   6.397   4.691
 7246TIP3   OH221680   6.157   7.752   5.136
 7246TIP3    H121681   6.244   7.712   5.128
 7246TIP3    H221682   6.119   7.713   5.215
 7247TIP3   OH221683   0.516   4.019   6.041
 7247TIP3    H121684   0.424   4.014   6.014
 7247TIP3    H221685   0.523   3.955   6.112
 7248TIP3   OH221686   2.419   5.821   5.187
 7248TIP3    H121687   2.437   5.900   5.237
 7248TIP3    H221688   2.415   5.850   5.096
 7249TIP3   OH221689   3.820   3.532   4.461
 7249TIP3    H121690   3.849   3.480   4.537
 7249TIP3    H221691   3.901   3.568   4.425
 7250TIP3   OH221692   5.435   6.066   2.443
 7250TIP3    H121693   5.431   6.079   2.349
 7250TIP3    H221694   5.525   6.089   2.467
 7251TIP3   OH221695   5.204   0.279   3.278
 7251TIP3    H121696   5.153   0.252   3.355
 7251TIP3    H221697   5.139   0.317   3.219
 7252TIP3   OH221698   8.296   6.677   5.366
 7252TIP3    H121699   8.212   6.718   5.345
 7252TIP3    H221700   8.295   6.668   5.461
 7253TIP3   OH221701   0.664   6.878   1.754
 7253TIP3    H121702   0.735   6.848   1.697
 7253TIP3    H221703   0.601   6.919   1.694
 7254TIP3   OH221704   0.780   0.482   4.734
 7254TIP3    H121705   0.697   0.515   4.701
 7254TIP3    H221706   0.770   0.386   4.734
 7255TIP3   OH221707   3.954   1.188   5.577
 7255TIP3    H121708   4.030   1.245   5.565
 7255TIP3    H221709   3.988   1.100   5.562
 7256TIP3   OH221710   4.361   3.564   3.252
 7256TIP3    H121711   4.320   3.500   3.194
 7256TIP3    H221712   4.441   3.522   3.282
 7257TIP3   OH221713   6.740   7.341   5.216
 7257TIP3    H121714   6.788   7.269   5.257
 7257TIP3    H221715   6.654   7.305   5.196
 7258TIP3   OH221716   5.499   4.637   4.081
 7258TIP3    H121717   5.487   4.717   4.031
 7258TIP3    H221718   5.593   4.617   4.073
 7259TIP3   OH221719   3.945   1.647   3.737
 7259TIP3    H121720   3.921   1.595   3.814
 7259TIP3    H221721   3.997   1.587   3.684
 7260TIP3   OH221722   2.800   7.397   3.767
 7260TIP3    H121723   2.879   7.448   3.747
 7260TIP3    H221724   2.742   7.412   3.693
 7261TIP3   OH221725   4.582   1.086   3.105
 7261TIP3    H121726   4.573   1.180   3.090
 7261TIP3    H221727   4.535   1.071   3.188
 7262TIP3   OH221728   2.354   5.085   2.614
 7262TIP3    H121729   2.409   5.065   2.539
 7262TIP3    H221730   2.305   5.005   2.630
 7263TIP3   OH221731   5.995   5.452   4.040
 7263TIP3    H121732   6.029   5.422   4.124
 7263TIP3    H221733   5.940   5.527   4.061
 7264TIP3   OH221734   2.206   4.100   4.506
 7264TIP3    H121735   2.182   4.144   4.425
 7264TIP3    H221736   2.231   4.011   4.480
 7265TIP3   OH221737   1.172   6.235   2.219
 7265TIP3    H121738   1.264   6.262   2.222
 7265TIP3    H221739   1.166   6.163   2.282
 7266TIP3   OH221740   2.462   1.751   6.408
 7266TIP3    H121741   2.394   1.797   6.358
 7266TIP3    H221742   2.415   1.681   6.454
 7267TIP3   OH221743   7.170   3.455   2.810
 7267TIP3    H121744   7.106   3.410   2.756
 7267TIP3    H221745   7.135   3.544   2.820
 7268TIP3   OH221746   4.390   7.712   1.195
 7268TIP3    H121747   4.406   7.804   1.172
 7268TIP3    H221748   4.327   7.682   1.130
 7269TIP3   OH221749   4.636   5.847   3.248
 7269TIP3    H121750   4.700   5.917   3.261
 7269TIP3    H221751   4.642   5.827   3.154
 7270TIP3   OH221752   0.688   0.946   5.660
 7270TIP3    H121753   0.722   0.885   5.726
 7270TIP3    H221754   0.765   0.971   5.609
 7271TIP3   OH221755   5.716   7.160   2.437
 7271TIP3    H121756   5.697   7.252   2.415
 7271TIP3    H221757   5.763   7.127   2.361
 7272TIP3   OH221758   4.653   3.790   0.041
 7272TIP3    H121759   4.731   3.823  -0.004
 7272TIP3    H221760   4.684   3.714   0.090
 7273TIP3   OH221761   6.563   5.428   0.281
 7273TIP3    H121762   6.532   5.489   0.214
 7273TIP3    H221763   6.589   5.485   0.354
 7274TIP3   OH221764   2.896   3.778   6.338
 7274TIP3    H121765   2.937   3.856   6.301
 7274TIP3    H221766   2.925   3.777   6.430
 7275TIP3   OH221767   3.338   1.121   1.194
 7275TIP3    H121768   3.350   1.149   1.103
 7275TIP3    H221769   3.415   1.153   1.240
 7276TIP3   OH221770   3.167   2.212   5.174
 7276TIP3    H121771   3.242   2.198   5.116
 7276TIP3    H221772   3.176   2.303   5.203
 7277TIP3   OH221773   1.890   6.466   6.626
 7277TIP3    H121774   1.828   6.406   6.584
 7277TIP3    H221775   1.891   6.543   6.569
 7278TIP3   OH221776   1.401   1.124   2.895
 7278TIP3    H121777   1.480   1.082   2.862
 7278TIP3    H221778   1.374   1.183   2.824
 7279TIP3   OH221779   4.614   1.496   0.247
 7279TIP3    H121780   4.519   1.504   0.236
 7279TIP3    H221781   4.628   1.402   0.260
 7280TIP3   OH221782   5.403   1.528   6.431
 7280TIP3    H121783   5.315   1.565   6.441
 7280TIP3    H221784   5.460   1.588   6.479
 7281TIP3   OH221785   2.116   2.677   0.099
 7281TIP3    H121786   2.053   2.607   0.082
 7281TIP3    H221787   2.143   2.708   0.013
 7282TIP3   OH221788   0.229   2.510   4.937
 7282TIP3    H121789   0.174   2.493   4.860
 7282TIP3    H221790   0.316   2.525   4.901
 7283TIP3   OH221791   6.728   7.196   3.809
 7283TIP3    H121792   6.680   7.212   3.891
 7283TIP3    H221793   6.755   7.284   3.781
 7284TIP3   OH221794   2.054   5.988   5.348
 7284TIP3    H121795   2.086   5.920   5.290
 7284TIP3    H221796   2.071   5.955   5.436
 7285TIP3   OH221797   4.650   3.336   1.677
 7285TIP3    H121798   4.571   3.283   1.679
 7285TIP3    H221799   4.714   3.282   1.630
 7286TIP3   OH221800   6.561   1.494   6.242
 7286TIP3    H121801   6.560   1.464   6.151
 7286TIP3    H221802   6.511   1.427   6.290
 7287TIP3   OH221803   2.908   3.836   1.358
 7287TIP3    H121804   2.880   3.760   1.410
 7287TIP3    H221805   2.828   3.887   1.346
 7288TIP3   OH221806   4.641   5.777   2.549
 7288TIP3    H121807   4.715   5.783   2.488
 7288TIP3    H221808   4.629   5.866   2.580
 7289TIP3   OH221809   5.741   5.142   1.978
 7289TIP3    H121810   5.808   5.118   2.041
 7289TIP3    H221811   5.730   5.236   1.988
 7290TIP3   OH221812   5.264   0.685   6.205
 7290TIP3    H121813   5.254   0.696   6.111
 7290TIP3    H221814   5.263   0.590   6.218
 7291TIP3   OH221815   2.195   0.811   2.365
 7291TIP3    H121816   2.290   0.815   2.371
 7291TIP3    H221817   2.165   0.899   2.386
 7292TIP3   OH221818   8.030   4.916   2.556
 7292TIP3    H121819   7.940   4.885   2.558
 7292TIP3    H221820   8.055   4.925   2.648
 7293TIP3   OH221821   4.237   3.709   3.080
 7293TIP3    H121822   4.240   3.629   3.026
 7293TIP3    H221823   4.276   3.683   3.163
 7294TIP3   OH221824   4.068   5.971   1.470
 7294TIP3    H121825   3.993   6.026   1.493
 7294TIP3    H221826   4.109   5.951   1.555
 7295TIP3   OH221827   2.936   7.553   6.288
 7295TIP3    H121828   2.896   7.640   6.287
 7295TIP3    H221829   2.932   7.526   6.380
 7296TIP3   OH221830   5.711   2.126   5.502
 7296TIP3    H121831   5.751   2.055   5.452
 7296TIP3    H221832   5.785   2.166   5.550
 7297TIP3   OH221833   4.894   6.129   6.503
 7297TIP3    H121834   4.853   6.072   6.569
 7297TIP3    H221835   4.981   6.090   6.489
 7298TIP3   OH221836   7.089   6.277   1.410
 7298TIP3    H121837   7.128   6.265   1.496
 7298TIP3    H221838   7.012   6.220   1.411
 7299TIP3   OH221839   8.165   6.026   4.155
 7299TIP3    H121840   8.105   6.072   4.214
 7299TIP3    H221841   8.111   5.959   4.113
 7300TIP3   OH221842   5.261   2.855   5.943
 7300TIP3    H121843   5.272   2.836   6.036
 7300TIP3    H221844   5.167   2.843   5.927
 7301TIP3   OH221845   1.355   0.925   5.161
 7301TIP3    H121846   1.348   0.892   5.071
 7301TIP3    H221847   1.436   0.976   5.161
 7302TIP3   OH221848   2.220   4.693   1.827
 7302TIP3    H121849   2.284   4.710   1.758
 7302TIP3    H221850   2.272   4.657   1.899
 7303TIP3   OH221851   4.433   2.297   0.412
 7303TIP3    H121852   4.365   2.243   0.370
 7303TIP3    H221853   4.415   2.386   0.381
 7304TIP3   OH221854   5.604   4.768   2.230
 7304TIP3    H121855   5.603   4.831   2.158
 7304TIP3    H221856   5.534   4.798   2.288
 7305TIP3   OH221857   6.690   0.755   0.913
 7305TIP3    H121858   6.655   0.685   0.858
 7305TIP3    H221859   6.664   0.731   1.002
 7306TIP3   OH221860   6.293   2.998   4.007
 7306TIP3    H121861   6.230   3.027   4.072
 7306TIP3    H221862   6.320   3.078   3.962
 7307TIP3   OH221863   5.187   5.836   2.243
 7307TIP3    H121864   5.174   5.893   2.167
 7307TIP3    H221865   5.134   5.758   2.224
 7308TIP3   OH221866   1.773   5.339   2.993
 7308TIP3    H121867   1.708   5.345   3.063
 7308TIP3    H221868   1.731   5.383   2.918
 7309TIP3   OH221869   4.102   5.131   4.855
 7309TIP3    H121870   4.101   5.040   4.826
 7309TIP3    H221871   4.058   5.179   4.785
 7310TIP3   OH221872   1.837   5.144   6.236
 7310TIP3    H121873   1.778   5.136   6.310
 7310TIP3    H221874   1.781   5.166   6.162
 7311TIP3   OH221875   2.428   4.120   1.384
 7311TIP3    H121876   2.521   4.107   1.365
 7311TIP3    H221877   2.384   4.100   1.301
 7312TIP3   OH221878   1.720   7.381   5.893
 7312TIP3    H121879   1.759   7.327   5.962
 7312TIP3    H221880   1.755   7.344   5.812
 7313TIP3   OH221881   7.180   0.983   2.226
 7313TIP3    H121882   7.145   1.070   2.204
 7313TIP3    H221883   7.267   0.982   2.186
 7314TIP3   OH221884   7.408   2.855   2.287
 7314TIP3    H121885   7.395   2.946   2.314
 7314TIP3    H221886   7.434   2.810   2.368
 7315TIP3   OH221887   7.403   4.758   5.108
 7315TIP3    H121888   7.318   4.715   5.118
 7315TIP3    H221889   7.401   4.795   5.020
 7316TIP3   OH221890   6.490   1.604   3.636
 7316TIP3    H121891   6.504   1.510   3.651
 7316TIP3    H221892   6.546   1.647   3.701
 7317TIP3   OH221893   1.339   6.838   1.572
 7317TIP3    H121894   1.404   6.799   1.631
 7317TIP3    H221895   1.278   6.767   1.552
 7318TIP3   OH221896   3.213   2.569   1.759
 7318TIP3    H121897   3.175   2.591   1.844
 7318TIP3    H221898   3.307   2.574   1.773
 7319TIP3   OH221899   4.330   0.429   5.435
 7319TIP3    H121900   4.327   0.388   5.349
 7319TIP3    H221901   4.253   0.486   5.437
 7320TIP3   OH221902   1.242   3.093   5.325
 7320TIP3    H121903   1.220   3.185   5.312
 7320TIP3    H221904   1.283   3.067   5.242
 7321TIP3   OH221905   7.670   5.398   2.234
 7321TIP3    H121906   7.585   5.358   2.255
 7321TIP3    H221907   7.662   5.488   2.267
 7322TIP3   OH221908   7.420   6.930   5.710
 7322TIP3    H121909   7.423   6.946   5.615
 7322TIP3    H221910   7.332   6.897   5.725
 7323TIP3   OH221911   0.821   2.200   4.665
 7323TIP3    H121912   0.727   2.219   4.660
 7323TIP3    H221913   0.857   2.234   4.583
 7324TIP3   OH221914   7.973   4.059   2.376
 7324TIP3    H121915   7.922   4.112   2.314
 7324TIP3    H221916   8.015   3.992   2.322
 7325TIP3   OH221917   0.512   6.679   6.056
 7325TIP3    H121918   0.537   6.771   6.050
 7325TIP3    H221919   0.523   6.645   5.967
 7326TIP3   OH221920   3.898   7.381   6.634
 7326TIP3    H121921   3.980   7.335   6.652
 7326TIP3    H221922   3.879   7.428   6.715
 7327TIP3   OH221923   8.170   3.438   6.186
 7327TIP3    H121924   8.241   3.422   6.248
 7327TIP3    H221925   8.090   3.424   6.238
 7328TIP3   OH221926   0.290   3.448   1.141
 7328TIP3    H121927   0.376   3.423   1.175
 7328TIP3    H221928   0.231   3.441   1.216
 7329TIP3   OH221929   4.999   0.738   6.559
 7329TIP3    H121930   5.059   0.757   6.487
 7329TIP3    H221931   4.912   0.739   6.518
 7330TIP3   OH221932   1.144   0.618   6.723
 7330TIP3    H121933   1.154   0.546   6.784
 7330TIP3    H221934   1.083   0.586   6.657
 7331TIP3   OH221935   1.686   3.464   1.842
 7331TIP3    H121936   1.636   3.495   1.766
 7331TIP3    H221937   1.772   3.442   1.806
 7332TIP3   OH221938   1.525   6.402   3.630
 7332TIP3    H121939   1.432   6.419   3.644
 7332TIP3    H221940   1.551   6.345   3.702
 7333TIP3   OH221941   5.032   3.121   1.604
 7333TIP3    H121942   5.038   3.216   1.595
 7333TIP3    H221943   5.110   3.097   1.655
 7334TIP3   OH221944   4.442   6.333   5.386
 7334TIP3    H121945   4.424   6.242   5.365
 7334TIP3    H221946   4.376   6.356   5.452
 7335TIP3   OH221947   2.411   6.081   5.910
 7335TIP3    H121948   2.450   6.008   5.958
 7335TIP3    H221949   2.324   6.091   5.948
 7336TIP3   OH221950   3.535   4.982   0.307
 7336TIP3    H121951   3.442   4.960   0.297
 7336TIP3    H221952   3.545   4.998   0.401
 7337TIP3   OH221953   1.150   2.899   3.056
 7337TIP3    H121954   1.072   2.920   3.006
 7337TIP3    H221955   1.144   2.953   3.135
 7338TIP3   OH221956   3.464   2.536   3.919
 7338TIP3    H121957   3.436   2.461   3.865
 7338TIP3    H221958   3.555   2.517   3.941
 7339TIP3   OH221959   7.370   7.813   0.309
 7339TIP3    H121960   7.302   7.880   0.310
 7339TIP3    H221961   7.347   7.757   0.234
 7340TIP3   OH221962   4.084   1.965   1.756
 7340TIP3    H121963   4.023   1.926   1.692
 7340TIP3    H221964   4.094   2.056   1.727
 7341TIP3   OH221965   4.427   4.365   1.620
 7341TIP3    H121966   4.451   4.458   1.621
 7341TIP3    H221967   4.332   4.365   1.606
 7342TIP3   OH221968   1.427   3.273   4.991
 7342TIP3    H121969   1.475   3.330   5.051
 7342TIP3    H221970   1.419   3.190   5.038
 7343TIP3   OH221971   1.887   4.785   4.128
 7343TIP3    H121972   1.893   4.758   4.036
 7343TIP3    H221973   1.810   4.841   4.131
 7344TIP3   OH221974   1.928   0.455   1.763
 7344TIP3    H121975   1.974   0.425   1.685
 7344TIP3    H221976   1.852   0.503   1.730
 7345TIP3   OH221977   5.444   4.862   0.838
 7345TIP3    H121978   5.381   4.860   0.909
 7345TIP3    H221979   5.439   4.952   0.804
 7346TIP3   OH221980   0.445   6.819   3.602
 7346TIP3    H121981   0.440   6.832   3.697
 7346TIP3    H221982   0.444   6.724   3.591
 7347TIP3   OH221983   2.022   6.356   5.568
 7347TIP3    H121984   1.996   6.326   5.481
 7347TIP3    H221985   1.976   6.440   5.579
 7348TIP3   OH221986   0.394   1.786   4.422
 7348TIP3    H121987   0.451   1.720   4.463
 7348TIP3    H221988   0.340   1.736   4.361
 7349TIP3   OH221989   2.288   7.400   4.564
 7349TIP3    H121990   2.241   7.318   4.577
 7349TIP3    H221991   2.223   7.460   4.528
 7350TIP3   OH221992   3.133   5.332  -0.022
 7350TIP3    H121993   3.064   5.360   0.038
 7350TIP3    H221994   3.114   5.240  -0.039
 7351TIP3   OH221995   7.641   4.400   3.376
 7351TIP3    H121996   7.678   4.484   3.403
 7351TIP3    H221997   7.620   4.355   3.458
 7352TIP3   OH221998   0.407   0.856   6.132
 7352TIP3    H121999   0.492   0.882   6.169
 7352TIP3    H222000   0.398   0.764   6.156
 7353TIP3   OH222001   1.796   5.604   0.841
 7353TIP3    H122002   1.771   5.512   0.830
 7353TIP3    H222003   1.722   5.653   0.804
 7354TIP3   OH222004   3.883   0.889   5.990
 7354TIP3    H122005   3.916   0.803   5.968
 7354TIP3    H222006   3.816   0.873   6.057
 7355TIP3   OH222007   3.116   0.973   4.291
 7355TIP3    H122008   3.195   0.932   4.328
 7355TIP3    H222009   3.047   0.907   4.304
 7356TIP3   OH222010   5.583   0.969   6.195
 7356TIP3    H122011   5.638   0.983   6.118
 7356TIP3    H222012   5.636   1.000   6.268
 7357TIP3   OH222013   0.664   0.085   1.647
 7357TIP3    H122014   0.666   0.146   1.721
 7357TIP3    H222015   0.756   0.066   1.630
 7358TIP3   OH222016   3.625   5.979   1.201
 7358TIP3    H122017   3.608   6.010   1.112
 7358TIP3    H222018   3.645   5.886   1.190
 7359TIP3   OH222019   2.863   7.705   3.386
 7359TIP3    H122020   2.907   7.623   3.410
 7359TIP3    H222021   2.802   7.721   3.458
 7360TIP3   OH222022   7.540   1.945   4.411
 7360TIP3    H122023   7.489   1.879   4.458
 7360TIP3    H222024   7.504   2.029   4.440
 7361TIP3   OH222025   5.534   6.596   6.432
 7361TIP3    H122026   5.477   6.595   6.509
 7361TIP3    H222027   5.495   6.662   6.375
 7362TIP3   OH222028   4.050   0.255   3.114
 7362TIP3    H122029   4.082   0.337   3.076
 7362TIP3    H222030   3.980   0.282   3.173
 7363TIP3   OH222031   3.197   0.154   4.044
 7363TIP3    H122032   3.280   0.200   4.049
 7363TIP3    H222033   3.161   0.160   4.133
 7364TIP3   OH222034   0.758   2.317   2.116
 7364TIP3    H122035   0.778   2.384   2.051
 7364TIP3    H222036   0.836   2.262   2.119
 7365TIP3   OH222037   4.867   1.035   0.986
 7365TIP3    H122038   4.883   1.128   0.998
 7365TIP3    H222039   4.772   1.027   0.990
 7366TIP3   OH222040   7.338   4.472   0.621
 7366TIP3    H122041   7.272   4.409   0.592
 7366TIP3    H222042   7.414   4.418   0.643
 7367TIP3   OH222043   0.634   6.857   0.803
 7367TIP3    H122044   0.564   6.919   0.785
 7367TIP3    H222045   0.612   6.821   0.890
 7368TIP3   OH222046   4.357   7.167   2.148
 7368TIP3    H122047   4.282   7.225   2.163
 7368TIP3    H222048   4.369   7.121   2.231
 7369TIP3   OH222049   8.237   1.601   3.942
 7369TIP3    H122050   8.157   1.628   3.898
 7369TIP3    H222051   8.289   1.559   3.874
 7370TIP3   OH222052   7.686   3.588   2.543
 7370TIP3    H122053   7.703   3.611   2.452
 7370TIP3    H222054   7.770   3.556   2.575
 7371TIP3   OH222055   4.082   5.734   5.389
 7371TIP3    H122056   4.147   5.787   5.436
 7371TIP3    H222057   4.125   5.650   5.375
 7372TIP3   OH222058   2.168   2.167   1.237
 7372TIP3    H122059   2.137   2.250   1.201
 7372TIP3    H222060   2.246   2.190   1.286
 7373TIP3   OH222061   3.115   3.473   4.520
 7373TIP3    H122062   3.036   3.520   4.547
 7373TIP3    H222063   3.082   3.402   4.464
 7374TIP3   OH222064   2.609   1.179   2.890
 7374TIP3    H122065   2.537   1.236   2.915
 7374TIP3    H222066   2.688   1.226   2.917
 7375TIP3   OH222067   7.111   0.898   5.490
 7375TIP3    H122068   7.066   0.815   5.477
 7375TIP3    H222069   7.041   0.961   5.508
 7376TIP3   OH222070   7.016   5.772   1.721
 7376TIP3    H122071   6.940   5.724   1.755
 7376TIP3    H222072   7.019   5.750   1.628
 7377TIP3   OH222073   4.948   4.133   6.373
 7377TIP3    H122074   4.915   4.043   6.374
 7377TIP3    H222075   5.043   4.123   6.381
 7378TIP3   OH222076   1.372   3.846   2.287
 7378TIP3    H122077   1.450   3.840   2.232
 7378TIP3    H222078   1.303   3.875   2.227
 7379TIP3   OH222079   7.530   7.815   3.080
 7379TIP3    H122080   7.621   7.785   3.075
 7379TIP3    H222081   7.482   7.756   3.023
 7380TIP3   OH222082   4.057   1.397   3.676
 7380TIP3    H122083   3.964   1.380   3.692
 7380TIP3    H222084   4.095   1.310   3.660
 7381TIP3   OH222085   7.387   1.711   4.948
 7381TIP3    H122086   7.324   1.747   4.885
 7381TIP3    H222087   7.403   1.622   4.917
 7382TIP3   OH222088   2.953   3.818   2.523
 7382TIP3    H122089   2.924   3.755   2.457
 7382TIP3    H222090   2.930   3.777   2.607
 7383TIP3   OH222091   6.623   1.698   5.228
 7383TIP3    H122092   6.605   1.629   5.292
 7383TIP3    H222093   6.547   1.756   5.232
 7384TIP3   OH222094   0.932   7.376   3.398
 7384TIP3    H122095   0.854   7.322   3.392
 7384TIP3    H222096   0.957   7.392   3.307
 7385TIP3   OH222097   7.198   3.906   1.832
 7385TIP3    H122098   7.271   3.964   1.813
 7385TIP3    H222099   7.220   3.825   1.785
 7386TIP3   OH222100   4.010   6.267   6.187
 7386TIP3    H122101   3.987   6.177   6.210
 7386TIP3    H222102   4.100   6.261   6.156
 7387TIP3   OH222103   5.008   4.714   1.541
 7387TIP3    H122104   5.007   4.629   1.585
 7387TIP3    H222105   4.931   4.713   1.485
 7388TIP3   OH222106   6.740   4.317   1.722
 7388TIP3    H122107   6.664   4.350   1.673
 7388TIP3    H222108   6.814   4.331   1.663
 7389TIP3   OH222109   6.195   0.730   1.841
 7389TIP3    H122110   6.143   0.725   1.921
 7389TIP3    H222111   6.148   0.794   1.786
 7390TIP3   OH222112   1.539   5.492   3.004
 7390TIP3    H122113   1.559   5.568   3.059
 7390TIP3    H222114   1.464   5.519   2.952
 7391TIP3   OH222115   5.805   3.591   4.159
 7391TIP3    H122116   5.858   3.659   4.118
 7391TIP3    H222117   5.723   3.633   4.181
 7392TIP3   OH222118   0.521   1.904   5.663
 7392TIP3    H122119   0.564   1.924   5.579
 7392TIP3    H222120   0.536   1.983   5.716
 7393TIP3   OH222121   3.131   3.321   0.736
 7393TIP3    H122122   3.208   3.326   0.793
 7393TIP3    H222123   3.139   3.396   0.678
 7394TIP3   OH222124   7.288   3.505   1.049
 7394TIP3    H122125   7.368   3.482   1.098
 7394TIP3    H222126   7.318   3.562   0.979
 7395TIP3   OH222127   7.662   1.522   4.254
 7395TIP3    H122128   7.612   1.562   4.182
 7395TIP3    H222129   7.753   1.540   4.232
 7396TIP3   OH222130   2.693   7.795   3.586
 7396TIP3    H122131   2.650   7.881   3.586
 7396TIP3    H222132   2.685   7.765   3.677
 7397TIP3   OH222133   5.856   0.858   1.828
 7397TIP3    H122134   5.936   0.872   1.777
 7397TIP3    H222135   5.793   0.920   1.792
 7398TIP3   OH222136   0.120   1.073   4.550
 7398TIP3    H122137   0.172   0.994   4.537
 7398TIP3    H222138   0.043   1.045   4.599
 7399TIP3   OH222139   0.458   2.638   1.740
 7399TIP3    H122140   0.390   2.657   1.804
 7399TIP3    H222141   0.534   2.689   1.769
 7400TIP3   OH222142   1.082   3.834   5.621
 7400TIP3    H122143   1.072   3.927   5.598
 7400TIP3    H222144   0.995   3.808   5.653
 7401TIP3   OH222145   3.701   1.205   1.781
 7401TIP3    H122146   3.712   1.296   1.809
 7401TIP3    H222147   3.612   1.182   1.808
 7402TIP3   OH222148   3.871   5.487   5.149
 7402TIP3    H122149   3.904   5.576   5.136
 7402TIP3    H222150   3.906   5.459   5.233
 7403TIP3   OH222151   6.129   4.213   0.054
 7403TIP3    H122152   6.060   4.153   0.026
 7403TIP3    H222153   6.202   4.156   0.077
 7404TIP3   OH222154   1.450   4.059   2.789
 7404TIP3    H122155   1.525   4.058   2.730
 7404TIP3    H222156   1.389   3.995   2.752
 7405TIP3   OH222157   1.166   7.675   4.023
 7405TIP3    H122158   1.187   7.688   4.115
 7405TIP3    H222159   1.214   7.745   3.978
 7406TIP3   OH222160   5.886   4.047   4.369
 7406TIP3    H122161   5.794   4.072   4.365
 7406TIP3    H222162   5.911   4.060   4.461
 7407TIP3   OH222163   1.184   1.429   5.959
 7407TIP3    H122164   1.242   1.436   6.035
 7407TIP3    H222165   1.130   1.507   5.962
 7408TIP3   OH222166   5.903   7.460   1.556
 7408TIP3    H122167   5.856   7.492   1.633
 7408TIP3    H222168   5.898   7.531   1.493
 7409TIP3   OH222169   5.448   6.445   5.504
 7409TIP3    H122170   5.403   6.467   5.422
 7409TIP3    H222171   5.410   6.362   5.531
 7410TIP3   OH222172   6.003   7.592   6.037
 7410TIP3    H122173   6.036   7.546   6.115
 7410TIP3    H222174   6.074   7.650   6.012
 7411TIP3   OH222175   4.330   3.905   6.229
 7411TIP3    H122176   4.303   3.996   6.243
 7411TIP3    H222177   4.417   3.911   6.190
 7412TIP3   OH222178   1.433   4.492   3.674
 7412TIP3    H122179   1.493   4.445   3.733
 7412TIP3    H222180   1.384   4.551   3.732
 7413TIP3   OH222181   2.306   4.019   3.456
 7413TIP3    H122182   2.357   3.992   3.532
 7413TIP3    H222183   2.341   4.106   3.433
 7414TIP3   OH222184   5.136   5.304   5.545
 7414TIP3    H122185   5.195   5.314   5.620
 7414TIP3    H222186   5.141   5.211   5.522
 7415TIP3   OH222187   2.916   6.617   4.597
 7415TIP3    H122188   2.978   6.690   4.597
 7415TIP3    H222189   2.970   6.539   4.611
 7416TIP3   OH222190   8.063   6.813   5.283
 7416TIP3    H122191   8.069   6.905   5.309
 7416TIP3    H222192   8.026   6.815   5.195
 7417TIP3   OH222193   4.631   2.843   4.478
 7417TIP3    H122194   4.687   2.766   4.487
 7417TIP3    H222195   4.685   2.906   4.430
 7418TIP3   OH222196   2.177   7.416   0.041
 7418TIP3    H122197   2.199   7.364  -0.036
 7418TIP3    H222198   2.259   7.425   0.089
 7419TIP3   OH222199   3.128   5.458   5.410
 7419TIP3    H122200   3.177   5.539   5.397
 7419TIP3    H222201   3.041   5.486   5.437
 7420TIP3   OH222202   1.744   7.568   3.533
 7420TIP3    H122203   1.687   7.641   3.557
 7420TIP3    H222204   1.684   7.499   3.504
 7421TIP3   OH222205   4.365   2.783   5.416
 7421TIP3    H122206   4.299   2.714   5.406
 7421TIP3    H222207   4.434   2.759   5.355
 7422TIP3   OH222208   5.330   0.672   4.435
 7422TIP3    H122209   5.308   0.655   4.344
 7422TIP3    H222210   5.374   0.757   4.434
 7423TIP3   OH222211   4.249   1.236   6.076
 7423TIP3    H122212   4.301   1.163   6.111
 7423TIP3    H222213   4.203   1.197   6.002
 7424TIP3   OH222214   0.777   6.051   4.720
 7424TIP3    H122215   0.690   6.046   4.681
 7424TIP3    H222216   0.789   5.967   4.764
 7425TIP3   OH222217   5.866   6.540   1.594
 7425TIP3    H122218   5.927   6.468   1.575
 7425TIP3    H222219   5.898   6.613   1.542
 7426TIP3   OH222220   7.184   1.495   5.478
 7426TIP3    H122221   7.275   1.523   5.465
 7426TIP3    H222222   7.180   1.407   5.440
 7427TIP3   OH222223   8.098   7.378   5.395
 7427TIP3    H122224   8.186   7.413   5.412
 7427TIP3    H222225   8.077   7.409   5.307
 7428TIP3   OH222226   3.564   5.266   1.488
 7428TIP3    H122227   3.554   5.246   1.395
 7428TIP3    H222228   3.602   5.354   1.490
 7429TIP3   OH222229   0.672   6.316   5.650
 7429TIP3    H122230   0.598   6.270   5.610
 7429TIP3    H222231   0.740   6.315   5.582
 7430TIP3   OH222232   6.303   4.594   3.364
 7430TIP3    H122233   6.329   4.512   3.405
 7430TIP3    H222234   6.384   4.643   3.354
 7431TIP3   OH222235   2.149   5.267   3.811
 7431TIP3    H122236   2.188   5.218   3.883
 7431TIP3    H222237   2.145   5.357   3.843
 7432TIP3   OH222238   4.370   6.665   1.865
 7432TIP3    H122239   4.324   6.705   1.939
 7432TIP3    H222240   4.301   6.616   1.818
 7433TIP3   OH222241   7.863   4.136   0.707
 7433TIP3    H122242   7.898   4.160   0.620
 7433TIP3    H222243   7.937   4.094   0.751
 7434TIP3   OH222244   3.061   6.237   4.895
 7434TIP3    H122245   3.155   6.224   4.881
 7434TIP3    H222246   3.021   6.166   4.845
 7435TIP3   OH222247   7.969   0.048   5.539
 7435TIP3    H122248   7.883   0.051   5.497
 7435TIP3    H222249   7.951   0.070   5.631
 7436TIP3   OH222250   4.761   2.627   3.023
 7436TIP3    H122251   4.813   2.707   3.024
 7436TIP3    H222252   4.755   2.601   3.115
 7437TIP3   OH222253   3.505   4.549   4.700
 7437TIP3    H122254   3.579   4.514   4.751
 7437TIP3    H222255   3.481   4.478   4.641
 7438TIP3   OH222256   4.727   5.572   4.385
 7438TIP3    H122257   4.745   5.573   4.291
 7438TIP3    H222258   4.789   5.635   4.422
 7439TIP3   OH222259   0.924   4.070   4.580
 7439TIP3    H122260   0.831   4.069   4.603
 7439TIP3    H222261   0.953   3.980   4.592
 7440TIP3   OH222262   5.739   0.616   0.268
 7440TIP3    H122263   5.830   0.603   0.240
 7440TIP3    H222264   5.719   0.537   0.320
 7441TIP3   OH222265   2.022   5.239   0.804
 7441TIP3    H122266   1.981   5.282   0.730
 7441TIP3    H222267   1.961   5.169   0.828
 7442TIP3   OH222268   1.163   0.254   1.552
 7442TIP3    H122269   1.246   0.228   1.590
 7442TIP3    H222270   1.179   0.257   1.458
 7443TIP3   OH222271   4.786   1.958   3.768
 7443TIP3    H122272   4.726   1.886   3.785
 7443TIP3    H222273   4.812   1.990   3.855
 7444TIP3   OH222274   5.765   4.200   2.537
 7444TIP3    H122275   5.825   4.125   2.528
 7444TIP3    H222276   5.713   4.178   2.614
 7445TIP3   OH222277   4.494   5.159   4.030
 7445TIP3    H122278   4.482   5.228   3.964
 7445TIP3    H222279   4.570   5.188   4.081
 7446TIP3   OH222280   1.499   2.861   3.703
 7446TIP3    H122281   1.519   2.772   3.734
 7446TIP3    H222282   1.467   2.907   3.780
 7447TIP3   OH222283   0.692   7.650   1.777
 7447TIP3    H122284   0.680   7.598   1.698
 7447TIP3    H222285   0.779   7.690   1.767
 7448TIP3   OH222286   5.944   6.513   2.927
 7448TIP3    H122287   5.974   6.435   2.881
 7448TIP3    H222288   5.894   6.562   2.862
 7449TIP3   OH222289   3.461   7.268   2.367
 7449TIP3    H122290   3.417   7.324   2.302
 7449TIP3    H222291   3.416   7.184   2.361
 7450TIP3   OH222292   4.820   6.159   5.775
 7450TIP3    H122293   4.817   6.218   5.700
 7450TIP3    H222294   4.869   6.083   5.743
 7451TIP3   OH222295   6.194   6.586   2.809
 7451TIP3    H122296   6.108   6.593   2.851
 7451TIP3    H222297   6.194   6.655   2.743
 7452TIP3   OH222298   7.826   0.361   5.487
 7452TIP3    H122299   7.896   0.375   5.551
 7452TIP3    H222300   7.764   0.303   5.531
 7453TIP3   OH222301   2.589   3.759   5.597
 7453TIP3    H122302   2.590   3.847   5.560
 7453TIP3    H222303   2.538   3.707   5.535
 7454TIP3   OH222304   7.376   2.952   2.940
 7454TIP3    H122305   7.470   2.932   2.937
 7454TIP3    H222306   7.349   2.930   3.029
 7455TIP3   OH222307   7.962   6.968   0.824
 7455TIP3    H122308   7.993   6.896   0.879
 7455TIP3    H222309   7.990   7.047   0.871
 7456TIP3   OH222310   2.399   0.164   1.360
 7456TIP3    H122311   2.493   0.167   1.345
 7456TIP3    H222312   2.371   0.255   1.361
 7457TIP3   OH222313   4.096   0.113   1.223
 7457TIP3    H122314   4.180   0.107   1.269
 7457TIP3    H222315   4.098   0.042   1.159
 7458TIP3   OH222316   6.542   1.912   6.694
 7458TIP3    H122317   6.556   1.820   6.669
 7458TIP3    H222318   6.474   1.943   6.634
 7459TIP3   OH222319   5.817   0.229   1.948
 7459TIP3    H122320   5.885   0.191   2.003
 7459TIP3    H222321   5.839   0.202   1.859
 7460TIP3   OH222322   0.147   2.938   1.377
 7460TIP3    H122323   0.204   3.010   1.405
 7460TIP3    H222324   0.125   2.960   1.286
 7461TIP3   OH222325   0.641   4.406   6.426
 7461TIP3    H122326   0.670   4.446   6.508
 7461TIP3    H222327   0.601   4.323   6.452
 7462TIP3   OH222328   4.560   0.195   3.194
 7462TIP3    H122329   4.590   0.270   3.244
 7462TIP3    H222330   4.638   0.142   3.179
 7463TIP3   OH222331   7.036   5.482   2.374
 7463TIP3    H122332   7.008   5.547   2.309
 7463TIP3    H222333   7.077   5.534   2.443
 7464TIP3   OH222334   7.963   7.667   3.639
 7464TIP3    H122335   7.991   7.725   3.569
 7464TIP3    H222336   7.882   7.627   3.607
 7465TIP3   OH222337   4.203   3.661   6.286
 7465TIP3    H122338   4.252   3.587   6.323
 7465TIP3    H222339   4.271   3.719   6.252
 7466TIP3   OH222340   6.584   5.072   5.761
 7466TIP3    H122341   6.531   5.112   5.691
 7466TIP3    H222342   6.525   5.009   5.803
 7467TIP3   OH222343   0.538   5.613   2.440
 7467TIP3    H122344   0.469   5.679   2.433
 7467TIP3    H222345   0.527   5.577   2.528
 7468TIP3   OH222346   2.444   1.530   2.159
 7468TIP3    H122347   2.520   1.480   2.188
 7468TIP3    H222348   2.456   1.538   2.064
 7469TIP3   OH222349   6.113   5.422   6.574
 7469TIP3    H122350   6.178   5.463   6.517
 7469TIP3    H222351   6.059   5.494   6.605
 7470TIP3   OH222352   8.043   3.146   2.847
 7470TIP3    H122353   8.020   3.226   2.896
 7470TIP3    H222354   7.989   3.078   2.887
 7471TIP3   OH222355   5.222   4.438   1.475
 7471TIP3    H122356   5.317   4.436   1.486
 7471TIP3    H222357   5.188   4.476   1.555
 7472TIP3   OH222358   1.646   4.569   2.182
 7472TIP3    H122359   1.602   4.650   2.156
 7472TIP3    H222360   1.711   4.596   2.247
 7473TIP3   OH222361   3.143   7.722   1.618
 7473TIP3    H122362   3.176   7.800   1.663
 7473TIP3    H222363   3.124   7.660   1.687
 7474TIP3   OH222364   1.795   7.645   1.387
 7474TIP3    H122365   1.803   7.589   1.310
 7474TIP3    H222366   1.851   7.604   1.453
 7475TIP3   OH222367   1.453   3.151   2.998
 7475TIP3    H122368   1.469   3.057   2.988
 7475TIP3    H222369   1.369   3.166   2.956
 7476TIP3   OH222370   0.375   4.625   4.680
 7476TIP3    H122371   0.352   4.579   4.761
 7476TIP3    H222372   0.458   4.584   4.653
 7477TIP3   OH222373   7.521   3.965   3.181
 7477TIP3    H122374   7.507   4.012   3.263
 7477TIP3    H222375   7.486   3.878   3.196
 7478TIP3   OH222376   2.179   1.568   0.984
 7478TIP3    H122377   2.219   1.487   1.016
 7478TIP3    H222378   2.110   1.588   1.047
 7479TIP3   OH222379   4.967   4.458   6.733
 7479TIP3    H122380   4.929   4.422   6.653
 7479TIP3    H222381   4.955   4.389   6.798
 7480TIP3   OH222382   3.789   6.307   1.192
 7480TIP3    H122383   3.757   6.253   1.264
 7480TIP3    H222384   3.722   6.374   1.181
 7481TIP3   OH222385   2.956   4.265   0.874
 7481TIP3    H122386   3.023   4.213   0.829
 7481TIP3    H222387   2.877   4.255   0.821
 7482TIP3   OH222388   4.404   3.542   5.548
 7482TIP3    H122389   4.439   3.459   5.580
 7482TIP3    H222390   4.426   3.543   5.454
 7483TIP3   OH222391   0.827   4.707   6.687
 7483TIP3    H122392   0.807   4.797   6.659
 7483TIP3    H222393   0.741   4.666   6.697
 7484TIP3   OH222394   4.614   2.122   5.943
 7484TIP3    H122395   4.678   2.125   6.014
 7484TIP3    H222396   4.638   2.045   5.891
 7485TIP3   OH222397   5.680   3.449   6.623
 7485TIP3    H122398   5.741   3.523   6.624
 7485TIP3    H222399   5.736   3.373   6.610
 7486TIP3   OH222400   3.572   3.890   6.206
 7486TIP3    H122401   3.614   3.974   6.189
 7486TIP3    H222402   3.581   3.841   6.124
 7487TIP3   OH222403   5.802   7.798   0.380
 7487TIP3    H122404   5.708   7.787   0.397
 7487TIP3    H222405   5.826   7.723   0.326
 7488TIP3   OH222406   3.112   6.731   5.390
 7488TIP3    H122407   3.183   6.764   5.445
 7488TIP3    H222408   3.130   6.765   5.303
 7489TIP3   OH222409   2.534   2.291   2.702
 7489TIP3    H122410   2.539   2.386   2.712
 7489TIP3    H222411   2.460   2.266   2.757
 7490TIP3   OH222412   7.620   7.343   2.582
 7490TIP3    H122413   7.658   7.329   2.495
 7490TIP3    H222414   7.571   7.262   2.600
 7491TIP3   OH222415   1.113   6.714   6.405
 7491TIP3    H122416   1.151   6.773   6.341
 7491TIP3    H222417   1.186   6.658   6.433
 7492TIP3   OH222418   7.857   7.646   2.613
 7492TIP3    H122419   7.772   7.663   2.652
 7492TIP3    H222420   7.917   7.704   2.660
 7493TIP3   OH222421   0.655   4.472   1.581
 7493TIP3    H122422   0.730   4.457   1.638
 7493TIP3    H222423   0.665   4.563   1.553
 7494TIP3   OH222424   3.625   4.650   6.577
 7494TIP3    H122425   3.629   4.555   6.569
 7494TIP3    H222426   3.678   4.671   6.653
 7495TIP3   OH222427   2.795   5.051   2.803
 7495TIP3    H122428   2.736   4.977   2.813
 7495TIP3    H222429   2.779   5.084   2.715
 7496TIP3   OH222430   2.710   1.418   2.163
 7496TIP3    H122431   2.792   1.443   2.205
 7496TIP3    H222432   2.732   1.405   2.071
 7497TIP3   OH222433   3.959   2.929   1.180
 7497TIP3    H122434   4.023   2.963   1.242
 7497TIP3    H222435   4.005   2.927   1.096
 7498TIP3   OH222436   7.778   1.961   0.338
 7498TIP3    H122437   7.847   2.001   0.392
 7498TIP3    H222438   7.704   1.951   0.398
 7499TIP3   OH222439   1.208   5.759   5.717
 7499TIP3    H122440   1.269   5.794   5.782
 7499TIP3    H222441   1.241   5.672   5.695
 7500TIP3   OH222442   4.681   6.510   5.735
 7500TIP3    H122443   4.769   6.484   5.709
 7500TIP3    H222444   4.691   6.546   5.823
 7501TIP3   OH222445   3.556   3.423   6.442
 7501TIP3    H122446   3.582   3.505   6.399
 7501TIP3    H222447   3.564   3.356   6.374
 7502TIP3   OH222448   5.859   2.339   2.003
 7502TIP3    H122449   5.801   2.313   2.075
 7502TIP3    H222450   5.898   2.421   2.032
 7503TIP3   OH222451   6.724   3.408   3.752
 7503TIP3    H122452   6.813   3.406   3.789
 7503TIP3    H222453   6.670   3.366   3.818
 7504TIP3   OH222454   0.155   5.873   2.716
 7504TIP3    H122455   0.118   5.840   2.635
 7504TIP3    H222456   0.087   5.929   2.753
 7505TIP3   OH222457   7.419   5.384   6.175
 7505TIP3    H122458   7.392   5.421   6.091
 7505TIP3    H222459   7.340   5.384   6.228
 7506TIP3   OH222460   5.417   7.097   1.986
 7506TIP3    H122461   5.449   7.150   2.059
 7506TIP3    H222462   5.323   7.117   1.980
 7507TIP3   OH222463  -0.009   1.565   5.645
 7507TIP3    H122464   0.054   1.633   5.667
 7507TIP3    H222465   0.022   1.529   5.562
 7508TIP3   OH222466   5.576   1.136   1.234
 7508TIP3    H122467   5.494   1.108   1.194
 7508TIP3    H222468   5.554   1.216   1.281
 7509TIP3   OH222469   7.013   4.850   6.019
 7509TIP3    H122470   7.030   4.790   5.946
 7509TIP3    H222471   6.920   4.873   6.009
 7510TIP3   OH222472   5.230   6.394   3.165
 7510TIP3    H122473   5.282   6.368   3.241
 7510TIP3    H222474   5.179   6.469   3.195
 7511TIP3   OH222475   1.727   4.093   3.176
 7511TIP3    H122476   1.697   4.146   3.103
 7511TIP3    H222477   1.747   4.008   3.137
 7512TIP3   OH222478   1.791   6.286   1.334
 7512TIP3    H122479   1.763   6.206   1.378
 7512TIP3    H222480   1.853   6.256   1.267
 7513TIP3   OH222481   8.059   0.210   5.308
 7513TIP3    H122482   7.971   0.211   5.270
 7513TIP3    H222483   8.049   0.158   5.388
 7514TIP3   OH222484   6.435   6.152   2.622
 7514TIP3    H122485   6.404   6.142   2.712
 7514TIP3    H222486   6.487   6.232   2.623
 7515TIP3   OH222487   3.195   2.902   1.945
 7515TIP3    H122488   3.216   2.994   1.960
 7515TIP3    H222489   3.279   2.861   1.924
 7516TIP3   OH222490   0.906   0.876   1.299
 7516TIP3    H122491   0.884   0.873   1.206
 7516TIP3    H222492   1.000   0.896   1.301
 7517TIP3   OH222493   0.343   2.118   5.225
 7517TIP3    H122494   0.425   2.124   5.274
 7517TIP3    H222495   0.336   2.025   5.201
 7518TIP3   OH222496   6.376   2.961   4.406
 7518TIP3    H122497   6.328   3.042   4.393
 7518TIP3    H222498   6.316   2.904   4.454
 7519TIP3   OH222499   5.628   0.697   2.567
 7519TIP3    H122500   5.671   0.662   2.646
 7519TIP3    H222501   5.693   0.686   2.498
 7520TIP3   OH222502   7.869   4.939   3.225
 7520TIP3    H122503   7.884   5.022   3.270
 7520TIP3    H222504   7.775   4.934   3.212
 7521TIP3   OH222505   7.213   7.430   6.430
 7521TIP3    H122506   7.258   7.346   6.419
 7521TIP3    H222507   7.121   7.410   6.415
 7522TIP3   OH222508   0.439   3.239   0.161
 7522TIP3    H122509   0.479   3.313   0.208
 7522TIP3    H222510   0.490   3.163   0.189
 7523TIP3   OH222511   3.500   6.077   4.310
 7523TIP3    H122512   3.579   6.060   4.257
 7523TIP3    H222513   3.485   5.994   4.356
 7524TIP3   OH222514   0.064   1.812   6.448
 7524TIP3    H122515   0.068   1.899   6.408
 7524TIP3    H222516   0.153   1.778   6.439
 7525TIP3   OH222517   6.859   2.141   3.917
 7525TIP3    H122518   6.868   2.228   3.880
 7525TIP3    H222519   6.807   2.092   3.853
 7526TIP3   OH222520   3.221   5.444   4.969
 7526TIP3    H122521   3.218   5.537   4.991
 7526TIP3    H222522   3.134   5.412   4.989
 7527TIP3   OH222523   5.218   3.553   4.524
 7527TIP3    H122524   5.253   3.504   4.450
 7527TIP3    H222525   5.128   3.573   4.499
 7528TIP3   OH222526   7.567   2.229   3.972
 7528TIP3    H122527   7.650   2.184   3.983
 7528TIP3    H222528   7.570   2.300   4.036
 7529TIP3   OH222529   7.632   6.719   5.747
 7529TIP3    H122530   7.607   6.637   5.704
 7529TIP3    H222531   7.554   6.773   5.742
 7530TIP3   OH222532   8.120   3.793   5.677
 7530TIP3    H122533   8.183   3.865   5.685
 7530TIP3    H222534   8.065   3.819   5.603
 7531TIP3   OH222535   0.636   6.942   6.051
 7531TIP3    H122536   0.651   7.033   6.025
 7531TIP3    H222537   0.723   6.902   6.050
 7532TIP3   OH222538   5.944   4.877   5.969
 7532TIP3    H122539   5.992   4.921   6.039
 7532TIP3    H222540   5.955   4.934   5.892
 7533TIP3   OH222541   3.457   3.702   2.081
 7533TIP3    H122542   3.387   3.767   2.083
 7533TIP3    H222543   3.448   3.659   1.996
 7534TIP3   OH222544   1.915   3.414   1.496
 7534TIP3    H122545   1.933   3.507   1.510
 7534TIP3    H222546   1.821   3.409   1.483
 7535TIP3   OH222547   1.570   5.884   3.682
 7535TIP3    H122548   1.495   5.914   3.734
 7535TIP3    H222549   1.639   5.867   3.746
 7536TIP3   OH222550   1.430   7.627   2.608
 7536TIP3    H122551   1.501   7.643   2.546
 7536TIP3    H222552   1.375   7.704   2.601
 7537TIP3   OH222553   5.232   7.165   1.065
 7537TIP3    H122554   5.280   7.247   1.053
 7537TIP3    H222555   5.175   7.181   1.140
 7538TIP3   OH222556   6.155   3.932   4.984
 7538TIP3    H122557   6.181   4.005   4.928
 7538TIP3    H222558   6.153   3.856   4.925
 7539TIP3   OH222559   3.585   2.635   0.724
 7539TIP3    H122560   3.649   2.565   0.737
 7539TIP3    H222561   3.570   2.670   0.812
 7540TIP3   OH222562   1.617   7.003   5.381
 7540TIP3    H122563   1.588   7.003   5.290
 7540TIP3    H222564   1.710   6.978   5.376
 7541TIP3   OH222565   1.583   7.726   4.979
 7541TIP3    H122566   1.508   7.684   4.937
 7541TIP3    H222567   1.550   7.752   5.065
 7542TIP3   OH222568   6.348   2.037   1.777
 7542TIP3    H122569   6.392   2.059   1.695
 7542TIP3    H222570   6.368   1.945   1.792
 7543TIP3   OH222571   1.180   7.340   6.179
 7543TIP3    H122572   1.119   7.412   6.194
 7543TIP3    H222573   1.179   7.327   6.085
 7544TIP3   OH222574   7.261   1.422   0.834
 7544TIP3    H122575   7.302   1.454   0.753
 7544TIP3    H222576   7.180   1.473   0.841
 7545TIP3   OH222577   0.954   7.749   1.791
 7545TIP3    H122578   0.969   7.718   1.880
 7545TIP3    H222579   1.001   7.832   1.787
 7546TIP3   OH222580   7.184   7.063   1.495
 7546TIP3    H122581   7.106   7.035   1.542
 7546TIP3    H222582   7.256   7.021   1.541
 7547TIP3   OH222583   4.334   7.275   6.657
 7547TIP3    H122584   4.291   7.342   6.603
 7547TIP3    H222585   4.284   7.273   6.738
 7548TIP3   OH222586   0.538   5.139   0.745
 7548TIP3    H122587   0.547   5.099   0.659
 7548TIP3    H222588   0.475   5.210   0.733
 7549TIP3   OH222589   4.299   4.651   5.993
 7549TIP3    H122590   4.226   4.606   5.952
 7549TIP3    H222591   4.295   4.740   5.959
 7550TIP3   OH222592   2.840   6.278   0.038
 7550TIP3    H122593   2.844   6.374   0.033
 7550TIP3    H222594   2.930   6.250   0.020
 7551TIP3   OH222595   6.158   3.414   5.685
 7551TIP3    H122596   6.211   3.469   5.743
 7551TIP3    H222597   6.200   3.328   5.687
 7552TIP3   OH222598   0.322   1.315   2.646
 7552TIP3    H122599   0.391   1.249   2.651
 7552TIP3    H222600   0.361   1.394   2.682
 7553TIP3   OH222601   4.933   6.948   2.099
 7553TIP3    H122602   4.949   7.014   2.031
 7553TIP3    H222603   4.880   6.882   2.055
 7554TIP3   OH222604   5.428   7.311   0.042
 7554TIP3    H122605   5.453   7.234  -0.009
 7554TIP3    H222606   5.485   7.308   0.119
 7555TIP3   OH222607   1.467   2.937   3.259
 7555TIP3    H122608   1.402   2.916   3.327
 7555TIP3    H222609   1.503   2.852   3.234
 7556TIP3   OH222610   2.332   5.689   3.360
 7556TIP3    H122611   2.328   5.624   3.289
 7556TIP3    H222612   2.388   5.758   3.325
 7557TIP3   OH222613   5.945   0.169   0.965
 7557TIP3    H122614   5.868   0.176   1.021
 7557TIP3    H222615   5.969   0.260   0.946
 7558TIP3   OH222616   7.078   4.927   3.580
 7558TIP3    H122617   7.142   4.896   3.644
 7558TIP3    H222618   7.127   4.931   3.497
 7559TIP3   OH222619   4.198   5.592   1.028
 7559TIP3    H122620   4.245   5.626   1.104
 7559TIP3    H222621   4.106   5.615   1.044
 7560TIP3   OH222622   1.235   4.630   3.841
 7560TIP3    H122623   1.264   4.685   3.913
 7560TIP3    H222624   1.258   4.541   3.867
 7561TIP3   OH222625   2.896   6.516   2.623
 7561TIP3    H122626   2.921   6.566   2.545
 7561TIP3    H222627   2.850   6.579   2.678
 7562TIP3   OH222628   3.569   4.969   2.992
 7562TIP3    H122629   3.545   5.029   3.063
 7562TIP3    H222630   3.613   4.896   3.037
 7563TIP3   OH222631   0.386   1.151   3.192
 7563TIP3    H122632   0.434   1.194   3.263
 7563TIP3    H222633   0.452   1.098   3.146
 7564TIP3   OH222634   1.587   1.284   4.291
 7564TIP3    H122635   1.601   1.264   4.198
 7564TIP3    H222636   1.510   1.232   4.315
 7565TIP3   OH222637   1.138   2.633   4.360
 7565TIP3    H122638   1.096   2.563   4.309
 7565TIP3    H222639   1.187   2.588   4.427
 7566TIP3   OH222640   5.445   6.975   3.398
 7566TIP3    H122641   5.415   7.059   3.433
 7566TIP3    H222642   5.462   6.922   3.475
 7567TIP3   OH222643   5.481   4.910   1.692
 7567TIP3    H122644   5.409   4.906   1.629
 7567TIP3    H222645   5.547   4.965   1.650
 7568TIP3   OH222646   0.797   1.591   2.716
 7568TIP3    H122647   0.818   1.536   2.640
 7568TIP3    H222648   0.743   1.661   2.680
 7569TIP3   OH222649   1.845   2.456   6.669
 7569TIP3    H122650   1.813   2.454   6.759
 7569TIP3    H222651   1.786   2.517   6.624
 7570TIP3   OH222652   7.404   3.744   2.494
 7570TIP3    H122653   7.372   3.801   2.564
 7570TIP3    H222654   7.358   3.661   2.507
 7571TIP3   OH222655   1.631   0.560   4.027
 7571TIP3    H122656   1.677   0.641   4.005
 7571TIP3    H222657   1.566   0.586   4.092
 7572TIP3   OH222658   2.871   7.560   4.908
 7572TIP3    H122659   2.918   7.530   4.830
 7572TIP3    H222660   2.933   7.617   4.953
 7573TIP3   OH222661   3.020   0.500   0.870
 7573TIP3    H122662   2.988   0.439   0.936
 7573TIP3    H222663   2.972   0.477   0.790
 7574TIP3   OH222664   3.843   1.697   4.983
 7574TIP3    H122665   3.812   1.747   4.908
 7574TIP3    H222666   3.823   1.752   5.059
 7575TIP3   OH222667   3.604   6.366   6.108
 7575TIP3    H122668   3.613   6.325   6.022
 7575TIP3    H222669   3.541   6.438   6.094
 7576TIP3   OH222670   6.756   7.082   2.625
 7576TIP3    H122671   6.835   7.028   2.616
 7576TIP3    H222672   6.750   7.131   2.544
 7577TIP3   OH222673   1.618   4.932   4.063
 7577TIP3    H122674   1.652   5.022   4.059
 7577TIP3    H222675   1.524   4.943   4.076
 7578TIP3   OH222676   4.531   0.536   3.563
 7578TIP3    H122677   4.536   0.515   3.656
 7578TIP3    H222678   4.552   0.629   3.558
 7579TIP3   OH222679   6.116   4.378   6.102
 7579TIP3    H122680   6.046   4.438   6.128
 7579TIP3    H222681   6.113   4.308   6.167
 7580TIP3   OH222682   4.317   6.739   1.246
 7580TIP3    H122683   4.361   6.757   1.163
 7580TIP3    H222684   4.367   6.667   1.284
 7581TIP3   OH222685   0.690   6.937   4.136
 7581TIP3    H122686   0.682   7.011   4.196
 7581TIP3    H222687   0.782   6.937   4.110
 7582TIP3   OH222688   4.514   0.733   2.911
 7582TIP3    H122689   4.487   0.821   2.937
 7582TIP3    H222690   4.475   0.676   2.977
 7583TIP3   OH222691   4.417   0.988   6.419
 7583TIP3    H122692   4.505   0.987   6.458
 7583TIP3    H222693   4.432   1.011   6.328
 7584TIP3   OH222694   0.891   0.575   2.862
 7584TIP3    H122695   0.980   0.601   2.889
 7584TIP3    H222696   0.863   0.644   2.802
 7585TIP3   OH222697   0.704   1.522   6.651
 7585TIP3    H122698   0.758   1.564   6.584
 7585TIP3    H222699   0.749   1.542   6.733
 7586TIP3   OH222700   3.858   2.868   3.256
 7586TIP3    H122701   3.815   2.789   3.287
 7586TIP3    H222702   3.852   2.864   3.161
 7587TIP3   OH222703   7.218   4.589   4.529
 7587TIP3    H122704   7.181   4.594   4.618
 7587TIP3    H222705   7.297   4.536   4.539
 7588TIP3   OH222706   6.238   7.506   1.533
 7588TIP3    H122707   6.269   7.502   1.623
 7588TIP3    H222708   6.143   7.510   1.541
 7589TIP3   OH222709   6.730   3.022   0.595
 7589TIP3    H122710   6.749   3.087   0.527
 7589TIP3    H222711   6.747   3.069   0.677
 7590TIP3   OH222712   3.588   4.602   2.850
 7590TIP3    H122713   3.635   4.571   2.773
 7590TIP3    H222714   3.656   4.637   2.908
 7591TIP3   OH222715   3.051   5.392   1.860
 7591TIP3    H122716   3.002   5.414   1.939
 7591TIP3    H222717   3.108   5.468   1.845
 7592TIP3   OH222718   1.487   6.600   0.626
 7592TIP3    H122719   1.481   6.561   0.539
 7592TIP3    H222720   1.502   6.693   0.611
 7593TIP3   OH222721   2.726   0.319   0.773
 7593TIP3    H122722   2.733   0.409   0.802
 7593TIP3    H222723   2.650   0.284   0.819
 7594TIP3   OH222724   1.259   0.821   6.284
 7594TIP3    H122725   1.279   0.744   6.337
 7594TIP3    H222726   1.302   0.805   6.200
 7595TIP3   OH222727   1.477   1.601   3.383
 7595TIP3    H122728   1.552   1.659   3.368
 7595TIP3    H222729   1.430   1.602   3.300
 7596TIP3   OH222730   3.080   7.805   0.699
 7596TIP3    H122731   3.099   7.746   0.771
 7596TIP3    H222732   3.022   7.871   0.737
 7597TIP3   OH222733   6.456   4.394   5.217
 7597TIP3    H122734   6.467   4.300   5.232
 7597TIP3    H222735   6.521   4.435   5.274
 7598TIP3   OH222736   7.706   6.986   1.695
 7598TIP3    H122737   7.656   7.009   1.617
 7598TIP3    H222738   7.764   6.915   1.667
 7599TIP3   OH222739   7.592   0.917   5.770
 7599TIP3    H122740   7.530   0.943   5.702
 7599TIP3    H222741   7.671   0.968   5.752
 7600TIP3   OH222742   1.897   0.258   3.099
 7600TIP3    H122743   1.925   0.286   3.186
 7600TIP3    H222744   1.934   0.171   3.088
 7601TIP3   OH222745   6.281   3.532   0.599
 7601TIP3    H122746   6.345   3.461   0.595
 7601TIP3    H222747   6.240   3.522   0.685
 7602TIP3   OH222748   3.889   1.989   4.088
 7602TIP3    H122749   3.948   1.942   4.029
 7602TIP3    H222750   3.825   2.030   4.029
 7603TIP3   OH222751   0.220   1.046   6.036
 7603TIP3    H122752   0.218   1.025   5.942
 7603TIP3    H222753   0.294   0.994   6.070
 7604TIP3   OH222754   4.944   2.907   4.870
 7604TIP3    H122755   4.937   2.981   4.809
 7604TIP3    H222756   4.963   2.832   4.815
 7605TIP3   OH222757   7.138   0.310   6.351
 7605TIP3    H122758   7.218   0.292   6.301
 7605TIP3    H222759   7.132   0.238   6.413
 7606TIP3   OH222760   3.301   3.889   6.255
 7606TIP3    H122761   3.306   3.879   6.350
 7606TIP3    H222762   3.392   3.898   6.227
 7607TIP3   OH222763   5.303   0.982   0.480
 7607TIP3    H122764   5.267   1.071   0.480
 7607TIP3    H222765   5.229   0.926   0.458
 7608TIP3   OH222766   6.980   1.144   1.272
 7608TIP3    H122767   7.063   1.118   1.312
 7608TIP3    H222768   6.995   1.140   1.178
 7609TIP3   OH222769   3.716   4.221   0.419
 7609TIP3    H122770   3.682   4.145   0.467
 7609TIP3    H222771   3.739   4.187   0.333
 7610TIP3   OH222772   1.725   4.125   4.684
 7610TIP3    H122773   1.785   4.200   4.683
 7610TIP3    H222774   1.759   4.067   4.752
 7611TIP3   OH222775   2.902   0.277   4.045
 7611TIP3    H122776   2.929   0.350   4.101
 7611TIP3    H222777   2.977   0.218   4.046
 7612TIP3   OH222778   7.979   0.622   6.566
 7612TIP3    H122779   8.068   0.606   6.536
 7612TIP3    H222780   7.926   0.553   6.525
 7613TIP3   OH222781   6.133   2.966   5.773
 7613TIP3    H122782   6.175   2.951   5.858
 7613TIP3    H222783   6.155   3.056   5.750
 7614TIP3   OH222784   1.877   5.034   0.855
 7614TIP3    H122785   1.913   4.986   0.930
 7614TIP3    H222786   1.782   5.032   0.869
 7615TIP3   OH222787   5.511   4.382   0.036
 7615TIP3    H122788   5.525   4.445  -0.035
 7615TIP3    H222789   5.427   4.407   0.074
 7616TIP3   OH222790   7.830   7.205   6.351
 7616TIP3    H122791   7.863   7.168   6.269
 7616TIP3    H222792   7.833   7.300   6.337
 7617TIP3   OH222793   6.269   1.977   1.265
 7617TIP3    H122794   6.324   1.998   1.190
 7617TIP3    H222795   6.184   2.016   1.245
 7618TIP3   OH222796   2.372   3.627   0.328
 7618TIP3    H122797   2.367   3.608   0.421
 7618TIP3    H222798   2.461   3.602   0.303
 7619TIP3   OH222799   6.156   5.740   3.455
 7619TIP3    H122800   6.233   5.715   3.405
 7619TIP3    H222801   6.089   5.676   3.431
 7620TIP3   OH222802   7.304   7.480   1.674
 7620TIP3    H122803   7.285   7.568   1.707
 7620TIP3    H222804   7.240   7.467   1.604
 7621TIP3   OH222805   2.342   6.874   6.425
 7621TIP3    H122806   2.252   6.854   6.453
 7621TIP3    H222807   2.379   6.922   6.499
 7622TIP3   OH222808   4.286   1.539   2.369
 7622TIP3    H122809   4.370   1.584   2.357
 7622TIP3    H222810   4.309   1.450   2.394
 7623TIP3   OH222811   1.085   4.822   6.113
 7623TIP3    H122812   0.992   4.838   6.098
 7623TIP3    H222813   1.123   4.910   6.121
 7624TIP3   OH222814   6.452   7.351   0.206
 7624TIP3    H122815   6.435   7.446   0.203
 7624TIP3    H222816   6.482   7.336   0.296
 7625TIP3   OH222817   3.610   1.999   3.422
 7625TIP3    H122818   3.660   2.001   3.340
 7625TIP3    H222819   3.600   1.905   3.440
 7626TIP3   OH222820   3.061   3.561   5.818
 7626TIP3    H122821   3.150   3.592   5.805
 7626TIP3    H222822   3.009   3.610   5.753
 7627TIP3   OH222823   2.707   7.743   6.735
 7627TIP3    H122824   2.793   7.777   6.713
 7627TIP3    H222825   2.651   7.821   6.740
 7628TIP3   OH222826   3.062   6.595   2.265
 7628TIP3    H122827   3.115   6.658   2.313
 7628TIP3    H222828   3.111   6.513   2.268
 7629TIP3   OH222829   2.836   6.462   1.312
 7629TIP3    H122830   2.776   6.522   1.268
 7629TIP3    H222831   2.886   6.421   1.241
 7630TIP3   OH222832   1.450   4.093   3.058
 7630TIP3    H122833   1.457   4.055   2.970
 7630TIP3    H222834   1.383   4.041   3.102
 7631TIP3   OH222835   2.401   6.088   5.082
 7631TIP3    H122836   2.444   6.057   5.002
 7631TIP3    H222837   2.313   6.114   5.053
 7632TIP3   OH222838   0.808   7.164   4.773
 7632TIP3    H122839   0.738   7.226   4.791
 7632TIP3    H222840   0.763   7.084   4.747
 7633TIP3   OH222841   7.566   6.151   6.592
 7633TIP3    H122842   7.555   6.245   6.577
 7633TIP3    H222843   7.476   6.118   6.599
 7634TIP3   OH222844   8.035   5.216   4.484
 7634TIP3    H122845   8.090   5.155   4.435
 7634TIP3    H222846   7.951   5.172   4.490
 7635TIP3   OH222847   3.451   6.600   6.120
 7635TIP3    H122848   3.365   6.640   6.135
 7635TIP3    H222849   3.468   6.614   6.027
 7636TIP3   OH222850   6.821   5.350   4.658
 7636TIP3    H122851   6.865   5.405   4.593
 7636TIP3    H222852   6.888   5.287   4.684
 7637TIP3   OH222853   1.751   0.503   0.483
 7637TIP3    H122854   1.834   0.457   0.491
 7637TIP3    H222855   1.719   0.480   0.396
 7638TIP3   OH222856   5.966   0.382   3.949
 7638TIP3    H122857   6.018   0.331   4.012
 7638TIP3    H222858   5.875   0.357   3.969
 7639TIP3   OH222859   4.379   2.961   3.393
 7639TIP3    H122860   4.409   2.934   3.479
 7639TIP3    H222861   4.343   3.048   3.406
 7640TIP3   OH222862   3.239   0.574   0.454
 7640TIP3    H122863   3.204   0.578   0.365
 7640TIP3    H222864   3.331   0.601   0.445
 7641TIP3   OH222865   0.417   6.104   0.880
 7641TIP3    H122866   0.390   6.071   0.794
 7641TIP3    H222867   0.415   6.199   0.870
 7642TIP3   OH222868   5.403   4.098   2.981
 7642TIP3    H122869   5.441   4.127   3.063
 7642TIP3    H222870   5.404   4.175   2.924
 7643TIP3   OH222871   6.675   3.871   0.054
 7643TIP3    H122872   6.607   3.878  -0.013
 7643TIP3    H222873   6.628   3.844   0.133
 7644TIP3   OH222874   7.731   3.557   4.960
 7644TIP3    H122875   7.803   3.530   4.904
 7644TIP3    H222876   7.758   3.642   4.995
 7645TIP3   OH222877   0.506   0.770   5.908
 7645TIP3    H122878   0.455   0.691   5.890
 7645TIP3    H222879   0.458   0.813   5.979
 7646TIP3   OH222880   3.044   7.705   5.432
 7646TIP3    H122881   2.986   7.776   5.459
 7646TIP3    H222882   3.012   7.679   5.346
 7647TIP3   OH222883   7.803   5.244   1.755
 7647TIP3    H122884   7.871   5.190   1.716
 7647TIP3    H222885   7.729   5.185   1.766
 7648TIP3   OH222886   5.467   5.710   1.159
 7648TIP3    H122887   5.550   5.750   1.186
 7648TIP3    H222888   5.401   5.755   1.212
 7649TIP3   OH222889   5.421   5.158   2.852
 7649TIP3    H122890   5.443   5.184   2.942
 7649TIP3    H222891   5.489   5.199   2.798
 7650TIP3   OH222892   7.739   5.583   0.723
 7650TIP3    H122893   7.807   5.636   0.763
 7650TIP3    H222894   7.785   5.507   0.688
 7651TIP3   OH222895   7.556   1.516   0.515
 7651TIP3    H122896   7.573   1.553   0.429
 7651TIP3    H222897   7.463   1.531   0.530
 7652TIP3   OH222898   1.535   2.842   5.617
 7652TIP3    H122899   1.559   2.934   5.612
 7652TIP3    H222900   1.459   2.833   5.559
 7653TIP3   OH222901   1.994   5.102   3.292
 7653TIP3    H122902   1.986   5.080   3.384
 7653TIP3    H222903   1.916   5.153   3.273
 7654TIP3   OH222904   7.047   3.194   3.727
 7654TIP3    H122905   7.031   3.192   3.821
 7654TIP3    H222906   7.008   3.277   3.698
 7655TIP3   OH222907   3.027   5.797   5.911
 7655TIP3    H122908   3.118   5.818   5.889
 7655TIP3    H222909   2.976   5.863   5.863
 7656TIP3   OH222910   1.007   2.718   1.111
 7656TIP3    H122911   0.933   2.745   1.056
 7656TIP3    H222912   0.996   2.767   1.192
 7657TIP3   OH222913   2.205   4.594   3.079
 7657TIP3    H122914   2.173   4.684   3.082
 7657TIP3    H222915   2.127   4.540   3.088
 7658TIP3   OH222916   2.358   2.412   3.780
 7658TIP3    H122917   2.297   2.477   3.815
 7658TIP3    H222918   2.384   2.360   3.857
 7659TIP3   OH222919   0.850   2.589   3.483
 7659TIP3    H122920   0.780   2.526   3.502
 7659TIP3    H222921   0.824   2.628   3.399
 7660TIP3   OH222922   4.174   2.351   2.956
 7660TIP3    H122923   4.253   2.364   2.904
 7660TIP3    H222924   4.201   2.370   3.046
 7661TIP3   OH222925   4.518   1.821   2.608
 7661TIP3    H122926   4.436   1.790   2.648
 7661TIP3    H222927   4.528   1.769   2.529
 7662TIP3   OH222928   0.083   6.388   4.343
 7662TIP3    H122929   0.025   6.312   4.352
 7662TIP3    H222930   0.139   6.384   4.421
 7663TIP3   OH222931   7.801   2.126   4.004
 7663TIP3    H122932   7.870   2.192   4.008
 7663TIP3    H222933   7.844   2.049   3.966
 7664TIP3   OH222934   6.974   4.646   2.129
 7664TIP3    H122935   7.001   4.627   2.219
 7664TIP3    H222936   6.959   4.740   2.128
 7665TIP3   OH222937   6.692   4.382   5.972
 7665TIP3    H122938   6.622   4.322   5.946
 7665TIP3    H222939   6.746   4.331   6.032
 7666TIP3   OH222940   0.211   2.411   1.330
 7666TIP3    H122941   0.295   2.446   1.358
 7666TIP3    H222942   0.181   2.357   1.403
 7667TIP3   OH222943   5.183   2.021   5.552
 7667TIP3    H122944   5.143   2.030   5.638
 7667TIP3    H222945   5.262   1.970   5.566
 7668TIP3   OH222946   5.213   1.264   2.225
 7668TIP3    H122947   5.186   1.174   2.247
 7668TIP3    H222948   5.269   1.290   2.298
 7669TIP3   OH222949   6.527   2.222   3.769
 7669TIP3    H122950   6.539   2.289   3.702
 7669TIP3    H222951   6.468   2.261   3.832
 7670TIP3   OH222952   1.051   4.922   6.570
 7670TIP3    H122953   1.071   4.910   6.663
 7670TIP3    H222954   0.955   4.927   6.567
 7671TIP3   OH222955   6.183   6.400   0.394
 7671TIP3    H122956   6.261   6.379   0.343
 7671TIP3    H222957   6.146   6.477   0.351
 7672TIP3   OH222958   7.800   0.204   1.681
 7672TIP3    H122959   7.852   0.177   1.757
 7672TIP3    H222960   7.864   0.217   1.611
 7673TIP3   OH222961   3.868   3.104   4.795
 7673TIP3    H122962   3.789   3.073   4.840
 7673TIP3    H222963   3.849   3.089   4.702
 7674TIP3   OH222964   3.421   7.024   4.187
 7674TIP3    H122965   3.340   6.975   4.170
 7674TIP3    H222966   3.463   6.976   4.259
 7675TIP3   OH222967   5.002   5.723   6.323
 7675TIP3    H122968   5.024   5.695   6.412
 7675TIP3    H222969   5.033   5.651   6.267
 7676TIP3   OH222970   7.321   5.282   1.529
 7676TIP3    H122971   7.348   5.234   1.451
 7676TIP3    H222972   7.350   5.372   1.512
 7677TIP3   OH222973   1.166   0.282   0.806
 7677TIP3    H122974   1.221   0.215   0.766
 7677TIP3    H222975   1.177   0.359   0.751
 7678TIP3   OH222976   8.246   7.824   1.853
 7678TIP3    H122977   8.240   7.756   1.920
 7678TIP3    H222978   8.166   7.814   1.802
 7679TIP3   OH222979   4.113   3.684   3.654
 7679TIP3    H122980   4.108   3.743   3.579
 7679TIP3    H222981   4.049   3.616   3.635
 7680TIP3   OH222982   3.289   6.466   6.748
 7680TIP3    H122983   3.196   6.470   6.772
 7680TIP3    H222984   3.327   6.547   6.783
 7681TIP3   OH222985   0.052   1.106   0.183
 7681TIP3    H122986   0.081   1.069   0.100
 7681TIP3    H222987   0.040   1.199   0.165
 7682TIP3   OH222988   8.325   2.074   2.057
 7682TIP3    H122989   8.267   2.035   2.122
 7682TIP3    H222990   8.267   2.126   2.001
 7683TIP3   OH222991   6.903   6.081   1.509
 7683TIP3    H122992   6.891   6.071   1.603
 7683TIP3    H222993   6.836   6.025   1.470
 7684TIP3   OH222994   3.900   7.226   3.236
 7684TIP3    H122995   3.860   7.175   3.307
 7684TIP3    H222996   3.993   7.201   3.238
 7685TIP3   OH222997   5.159   3.265   3.795
 7685TIP3    H122998   5.065   3.263   3.775
 7685TIP3    H222999   5.188   3.175   3.782
 7686TIP3   OH223000   3.997   5.720   5.793
 7686TIP3    H123001   3.951   5.666   5.858
 7686TIP3    H223002   4.043   5.785   5.845
 7687TIP3   OH223003   1.880   4.687   6.799
 7687TIP3    H123004   1.954   4.738   6.766
 7687TIP3    H223005   1.834   4.657   6.720
 7688TIP3   OH223006   3.761   3.020   6.617
 7688TIP3    H123007   3.728   2.951   6.559
 7688TIP3    H223008   3.855   3.023   6.600
 7689TIP3   OH223009   0.279   2.153   6.154
 7689TIP3    H123010   0.293   2.092   6.082
 7689TIP3    H223011   0.271   2.239   6.112
 7690TIP3   OH223012   3.144   1.545   5.983
 7690TIP3    H123013   3.211   1.479   5.960
 7690TIP3    H223014   3.123   1.527   6.074
 7691TIP3   OH223015   4.171   5.370   5.045
 7691TIP3    H123016   4.155   5.439   4.981
 7691TIP3    H223017   4.183   5.290   4.993
 7692TIP3   OH223018   1.496   4.048   4.216
 7692TIP3    H123019   1.550   4.119   4.182
 7692TIP3    H223020   1.430   4.033   4.148
 7693TIP3   OH223021   5.209   3.685   1.433
 7693TIP3    H123022   5.211   3.660   1.341
 7693TIP3    H223023   5.260   3.617   1.478
 7694TIP3   OH223024   1.885   6.378   3.005
 7694TIP3    H123025   1.914   6.455   2.955
 7694TIP3    H223026   1.845   6.414   3.084
 7695TIP3   OH223027   4.235   1.414   4.671
 7695TIP3    H123028   4.202   1.469   4.741
 7695TIP3    H223029   4.214   1.325   4.698
 7696TIP3   OH223030   0.520   0.225   3.374
 7696TIP3    H123031   0.463   0.160   3.332
 7696TIP3    H223032   0.517   0.301   3.315
 7697TIP3   OH223033   1.258   4.196   3.716
 7697TIP3    H123034   1.183   4.228   3.767
 7697TIP3    H223035   1.303   4.276   3.688
 7698TIP3   OH223036   2.701   4.966   2.221
 7698TIP3    H123037   2.758   5.037   2.194
 7698TIP3    H223038   2.648   4.947   2.143
 7699TIP3   OH223039   2.190   4.868   2.244
 7699TIP3    H123040   2.121   4.869   2.310
 7699TIP3    H223041   2.145   4.887   2.162
 7700TIP3   OH223042   0.076   3.229   1.890
 7700TIP3    H123043   0.023   3.166   1.840
 7700TIP3    H223044   0.065   3.312   1.844
 7701TIP3   OH223045   1.926   2.705   0.429
 7701TIP3    H123046   2.011   2.735   0.461
 7701TIP3    H223047   1.947   2.636   0.366
 7702TIP3   OH223048   7.931   0.593   1.694
 7702TIP3    H123049   7.992   0.526   1.665
 7702TIP3    H223050   7.986   0.657   1.739
 7703TIP3   OH223051   0.857   4.858   4.076
 7703TIP3    H123052   0.877   4.771   4.043
 7703TIP3    H223053   0.840   4.911   3.998
 7704TIP3   OH223054   1.203   5.026   0.813
 7704TIP3    H123055   1.284   5.011   0.764
 7704TIP3    H223056   1.133   5.009   0.750
 7705TIP3   OH223057   2.993   4.888   1.399
 7705TIP3    H123058   2.949   4.950   1.457
 7705TIP3    H223059   2.947   4.805   1.414
 7706TIP3   OH223060   7.258   5.286   5.378
 7706TIP3    H123061   7.324   5.216   5.371
 7706TIP3    H223062   7.292   5.355   5.321
 7707TIP3   OH223063   2.733   5.258   6.613
 7707TIP3    H123064   2.664   5.209   6.659
 7707TIP3    H223065   2.687   5.299   6.539
 7708TIP3   OH223066   1.243   0.250   0.160
 7708TIP3    H123067   1.314   0.228   0.100
 7708TIP3    H223068   1.247   0.345   0.168
 7709TIP3   OH223069   6.984   4.505   0.634
 7709TIP3    H123070   6.926   4.469   0.701
 7709TIP3    H223071   7.039   4.431   0.608
 7710TIP3   OH223072   5.135   1.298   3.614
 7710TIP3    H123073   5.157   1.208   3.587
 7710TIP3    H223074   5.215   1.331   3.654
 7711TIP3   OH223075   5.249   6.672   2.740
 7711TIP3    H123076   5.311   6.687   2.668
 7711TIP3    H223077   5.283   6.594   2.784
 7712TIP3   OH223078   7.141   5.597   6.085
 7712TIP3    H123079   7.052   5.588   6.050
 7712TIP3    H223080   7.193   5.534   6.036
 7713TIP3   OH223081   3.749   3.991   1.436
 7713TIP3    H123082   3.808   4.051   1.483
 7713TIP3    H223083   3.801   3.961   1.361
 7714TIP3   OH223084   4.449   4.614   2.255
 7714TIP3    H123085   4.381   4.674   2.287
 7714TIP3    H223086   4.403   4.533   2.237
 7715TIP3   OH223087   5.528   5.475   0.730
 7715TIP3    H123088   5.487   5.540   0.787
 7715TIP3    H223089   5.477   5.395   0.745
 7716TIP3   OH223090   3.263   2.706   4.643
 7716TIP3    H123091   3.184   2.670   4.601
 7716TIP3    H223092   3.321   2.631   4.654
 7717TIP3   OH223093   1.846   5.361   6.399
 7717TIP3    H123094   1.871   5.335   6.311
 7717TIP3    H223095   1.776   5.425   6.387
 7718TIP3   OH223096   0.173   3.286   0.220
 7718TIP3    H123097   0.198   3.317   0.307
 7718TIP3    H223098   0.255   3.255   0.181
 7719TIP3   OH223099   3.626   2.683   3.703
 7719TIP3    H123100   3.719   2.665   3.689
 7719TIP3    H223101   3.610   2.655   3.794
 7720TIP3   OH223102   7.540   1.319   5.559
 7720TIP3    H123103   7.497   1.252   5.611
 7720TIP3    H223104   7.629   1.324   5.595
 7721TIP3   OH223105   0.200   4.934   2.803
 7721TIP3    H123106   0.144   4.974   2.869
 7721TIP3    H223107   0.255   4.873   2.852
 7722TIP3   OH223108   3.994   3.885   5.357
 7722TIP3    H123109   3.948   3.866   5.438
 7722TIP3    H223110   3.933   3.939   5.306
 7723TIP3   OH223111   5.697   2.516   2.545
 7723TIP3    H123112   5.750   2.570   2.487
 7723TIP3    H223113   5.751   2.439   2.562
 7724TIP3   OH223114   5.620   2.983   1.054
 7724TIP3    H123115   5.563   2.931   1.110
 7724TIP3    H223116   5.574   3.066   1.044
 7725TIP3   OH223117   7.339   1.143   0.054
 7725TIP3    H123118   7.333   1.221  -0.002
 7725TIP3    H223119   7.273   1.158   0.121
 7726TIP3   OH223120   4.182   5.490   5.291
 7726TIP3    H123121   4.183   5.446   5.207
 7726TIP3    H223122   4.273   5.493   5.319
 7727TIP3   OH223123   7.897   5.407   1.120
 7727TIP3    H123124   7.868   5.498   1.120
 7727TIP3    H223125   7.817   5.356   1.136
 7728TIP3   OH223126   3.221   2.239   3.079
 7728TIP3    H123127   3.171   2.158   3.075
 7728TIP3    H223128   3.244   2.258   2.988
 7729TIP3   OH223129   8.076   1.727   3.700
 7729TIP3    H123130   8.062   1.822   3.707
 7729TIP3    H223131   8.121   1.716   3.616
 7730TIP3   OH223132   3.180   3.004   4.938
 7730TIP3    H123133   3.118   3.010   5.010
 7730TIP3    H223134   3.133   3.038   4.862
 7731TIP3   OH223135   8.010   0.728   3.731
 7731TIP3    H123136   8.013   0.728   3.826
 7731TIP3    H223137   8.053   0.647   3.705
 7732TIP3   OH223138   4.466   2.759   3.642
 7732TIP3    H123139   4.539   2.708   3.677
 7732TIP3    H223140   4.412   2.695   3.597
 7733TIP3   OH223141   0.759   7.642   3.517
 7733TIP3    H123142   0.709   7.563   3.535
 7733TIP3    H223143   0.850   7.613   3.512
 7734TIP3   OH223144   5.934   2.184   5.277
 7734TIP3    H123145   5.902   2.098   5.304
 7734TIP3    H223146   6.020   2.166   5.238
 7735TIP3   OH223147   1.326   2.957   5.883
 7735TIP3    H123148   1.408   2.931   5.926
 7735TIP3    H223149   1.337   3.051   5.866
 7736TIP3   OH223150   0.079   5.498   1.904
 7736TIP3    H123151   0.135   5.462   1.972
 7736TIP3    H223152   0.139   5.546   1.846
 7737TIP3   OH223153   6.695   2.659   4.970
 7737TIP3    H123154   6.789   2.675   4.955
 7737TIP3    H223155   6.654   2.680   4.886
 7738TIP3   OH223156   0.207   4.387   3.820
 7738TIP3    H123157   0.167   4.301   3.825
 7738TIP3    H223158   0.175   4.433   3.898
 7739TIP3   OH223159   6.692   5.138   2.817
 7739TIP3    H123160   6.768   5.184   2.782
 7739TIP3    H223161   6.706   5.046   2.792
 7740TIP3   OH223162   2.073   4.947   1.969
 7740TIP3    H123163   2.031   4.871   1.930
 7740TIP3    H223164   2.001   5.005   1.994
 7741TIP3   OH223165   4.885   4.814   2.831
 7741TIP3    H123166   4.963   4.825   2.885
 7741TIP3    H223167   4.858   4.723   2.845
 7742TIP3   OH223168   7.390   5.783   6.485
 7742TIP3    H123169   7.316   5.790   6.424
 7742TIP3    H223170   7.397   5.689   6.503
 7743TIP3   OH223171   4.276   4.657   5.491
 7743TIP3    H123172   4.326   4.620   5.563
 7743TIP3    H223173   4.343   4.684   5.428
 7744TIP3   OH223174   4.618   6.909   4.600
 7744TIP3    H123175   4.573   6.948   4.525
 7744TIP3    H223176   4.558   6.842   4.632
 7745TIP3   OH223177   3.447   3.168   1.280
 7745TIP3    H123178   3.537   3.135   1.277
 7745TIP3    H223179   3.442   3.229   1.206
 7746TIP3   OH223180   5.454   4.210   1.813
 7746TIP3    H123181   5.537   4.161   1.812
 7746TIP3    H223182   5.389   4.146   1.783
 7747TIP3   OH223183   4.686   2.579   1.650
 7747TIP3    H123184   4.686   2.604   1.742
 7747TIP3    H223185   4.736   2.647   1.607
 7748TIP3   OH223186   5.833   1.186   4.180
 7748TIP3    H123187   5.915   1.160   4.140
 7748TIP3    H223188   5.766   1.133   4.136
 7749TIP3   OH223189   7.967   0.043   1.271
 7749TIP3    H123190   8.052   0.083   1.252
 7749TIP3    H223191   7.930   0.098   1.340
 7750TIP3   OH223192   5.022   4.478   3.758
 7750TIP3    H123193   5.069   4.452   3.837
 7750TIP3    H223194   5.039   4.572   3.749
 7751TIP3   OH223195   4.169   7.771   5.149
 7751TIP3    H123196   4.122   7.703   5.198
 7751TIP3    H223197   4.251   7.730   5.123
 7752TIP3   OH223198   2.640   3.171   1.846
 7752TIP3    H123199   2.718   3.203   1.892
 7752TIP3    H223200   2.619   3.088   1.890
 7753TIP3   OH223201   0.170   1.724   0.255
 7753TIP3    H123202   0.129   1.810   0.249
 7753TIP3    H223203   0.157   1.698   0.347
 7754TIP3   OH223204   2.751   1.477   1.641
 7754TIP3    H123205   2.744   1.441   1.553
 7754TIP3    H223206   2.780   1.567   1.627
 7755TIP3   OH223207   0.467   3.606   5.360
 7755TIP3    H123208   0.459   3.687   5.311
 7755TIP3    H223209   0.397   3.550   5.327
 7756TIP3   OH223210   6.690   1.232   1.044
 7756TIP3    H123211   6.711   1.158   0.987
 7756TIP3    H223212   6.629   1.285   0.993
 7757TIP3   OH223213   2.504   3.129   6.255
 7757TIP3    H123214   2.562   3.200   6.284
 7757TIP3    H223215   2.544   3.097   6.174
 7758TIP3   OH223216   2.502   5.111   2.953
 7758TIP3    H123217   2.563   5.049   2.913
 7758TIP3    H223218   2.473   5.068   3.033
 7759TIP3   OH223219   1.795   5.537   5.004
 7759TIP3    H123220   1.775   5.457   5.054
 7759TIP3    H223221   1.819   5.505   4.917
 7760TIP3   OH223222   7.851   4.721   1.174
 7760TIP3    H123223   7.826   4.811   1.153
 7760TIP3    H223224   7.847   4.675   1.091
 7761TIP3   OH223225   4.665   5.236   4.752
 7761TIP3    H123226   4.699   5.278   4.673
 7761TIP3    H223227   4.571   5.254   4.750
 7762TIP3   OH223228   3.367   6.611   5.123
 7762TIP3    H123229   3.421   6.690   5.116
 7762TIP3    H223230   3.299   6.624   5.058
 7763TIP3   OH223231   7.443   2.226   5.701
 7763TIP3    H123232   7.489   2.291   5.755
 7763TIP3    H223233   7.385   2.278   5.646
 7764TIP3   OH223234   7.944   0.836   4.705
 7764TIP3    H123235   8.024   0.797   4.670
 7764TIP3    H223236   7.889   0.761   4.729
 7765TIP3   OH223237   7.924   2.954   2.966
 7765TIP3    H123238   7.963   2.894   3.029
 7765TIP3    H223239   7.841   2.981   3.006
 7766TIP3   OH223240   4.914   3.512   5.613
 7766TIP3    H123241   4.934   3.426   5.648
 7766TIP3    H223242   4.830   3.536   5.652
 7767TIP3   OH223243   8.250   5.442   6.756
 7767TIP3    H123244   8.205   5.513   6.710
 7767TIP3    H223245   8.340   5.445   6.722
 7768TIP3   OH223246   5.470   0.045   5.278
 7768TIP3    H123247   5.426   0.035   5.363
 7768TIP3    H223248   5.509   0.132   5.281
 7769TIP3   OH223249   3.869   6.943   3.837
 7769TIP3    H123250   3.825   6.881   3.780
 7769TIP3    H223251   3.801   7.008   3.858
 7770TIP3   OH223252   0.454   6.829   3.867
 7770TIP3    H123253   0.415   6.915   3.852
 7770TIP3    H223254   0.427   6.806   3.956
 7771TIP3   OH223255   3.860   6.624   2.668
 7771TIP3    H123256   3.925   6.590   2.730
 7771TIP3    H223257   3.877   6.576   2.587
 7772TIP3   OH223258   4.752   5.444   5.046
 7772TIP3    H123259   4.697   5.367   5.035
 7772TIP3    H223260   4.692   5.518   5.031
 7773TIP3   OH223261   1.152   6.141   1.730
 7773TIP3    H123262   1.079   6.178   1.780
 7773TIP3    H223263   1.124   6.146   1.639
 7774TIP3   OH223264   6.879   5.987   4.452
 7774TIP3    H123265   6.901   6.070   4.494
 7774TIP3    H223266   6.822   6.011   4.379
 7775TIP3   OH223267   1.778   0.332   4.104
 7775TIP3    H123268   1.824   0.274   4.044
 7775TIP3    H223269   1.778   0.417   4.059
 7776TIP3   OH223270   0.325   6.376   4.226
 7776TIP3    H123271   0.233   6.380   4.253
 7776TIP3    H223272   0.346   6.464   4.197
 7777TIP3   OH223273   2.639   4.866   1.905
 7777TIP3    H123274   2.728   4.874   1.939
 7777TIP3    H223275   2.637   4.781   1.861
 7778TIP3   OH223276   5.214   2.115   3.566
 7778TIP3    H123277   5.223   2.176   3.639
 7778TIP3    H223278   5.292   2.059   3.572
 7779TIP3   OH223279   5.451   4.302   2.761
 7779TIP3    H123280   5.448   4.398   2.753
 7779TIP3    H223281   5.543   4.283   2.780
 7780TIP3   OH223282   1.925   2.364   3.881
 7780TIP3    H123283   1.884   2.319   3.807
 7780TIP3    H223284   2.001   2.310   3.903
 7781TIP3   OH223285   3.728   6.948   1.335
 7781TIP3    H123286   3.738   7.031   1.289
 7781TIP3    H223287   3.637   6.922   1.319
 7782TIP3   OH223288   4.896   6.940   6.711
 7782TIP3    H123289   4.959   6.958   6.640
 7782TIP3    H223290   4.816   6.914   6.665
 7783TIP3   OH223291   1.510   3.261   3.557
 7783TIP3    H123292   1.415   3.263   3.557
 7783TIP3    H223293   1.534   3.257   3.465
 7784TIP3   OH223294   7.054   2.815   5.908
 7784TIP3    H123295   6.989   2.780   5.846
 7784TIP3    H223296   7.025   2.782   5.993
 7785TIP3   OH223297   2.042   2.155   1.856
 7785TIP3    H123298   1.948   2.173   1.851
 7785TIP3    H223299   2.051   2.066   1.820
 7786TIP3   OH223300   7.371   4.089   1.913
 7786TIP3    H123301   7.456   4.108   1.872
 7786TIP3    H223302   7.364   4.153   1.984
 7787TIP3   OH223303   3.309   2.172   1.208
 7787TIP3    H123304   3.305   2.265   1.230
 7787TIP3    H223305   3.341   2.130   1.287
 7788TIP3   OH223306   6.512   5.818   6.102
 7788TIP3    H123307   6.464   5.872   6.039
 7788TIP3    H223308   6.534   5.738   6.054
 7789TIP3   OH223309   4.602   3.446   3.270
 7789TIP3    H123310   4.628   3.356   3.250
 7789TIP3    H223311   4.587   3.447   3.365
 7790TIP3   OH223312   2.782   4.215   5.845
 7790TIP3    H123313   2.796   4.301   5.805
 7790TIP3    H223314   2.817   4.224   5.934
 7791TIP3   OH223315   2.602   4.555   1.373
 7791TIP3    H123316   2.571   4.645   1.365
 7791TIP3    H223317   2.522   4.502   1.365
 7792TIP3   OH223318   4.917   1.445   3.116
 7792TIP3    H123319   4.975   1.436   3.040
 7792TIP3    H223320   4.950   1.381   3.179
 7793TIP3   OH223321   1.825   5.682   1.230
 7793TIP3    H123322   1.914   5.691   1.196
 7793TIP3    H223323   1.838   5.657   1.322
 7794TIP3   OH223324   1.827   1.522   4.484
 7794TIP3    H123325   1.759   1.589   4.476
 7794TIP3    H223326   1.901   1.557   4.435
 7795TIP3   OH223327   3.848   6.755   6.729
 7795TIP3    H123328   3.892   6.698   6.792
 7795TIP3    H223329   3.778   6.701   6.692
 7796TIP3   OH223330   8.179   4.418   2.282
 7796TIP3    H123331   8.145   4.360   2.214
 7796TIP3    H223332   8.106   4.429   2.343
 7797TIP3   OH223333   8.084   6.832   5.627
 7797TIP3    H123334   8.122   6.916   5.654
 7797TIP3    H223335   8.029   6.854   5.552
 7798TIP3   OH223336   2.842   1.364   2.856
 7798TIP3    H123337   2.874   1.279   2.885
 7798TIP3    H223338   2.904   1.393   2.790
 7799TIP3   OH223339   1.501   2.073   3.535
 7799TIP3    H123340   1.542   2.104   3.455
 7799TIP3    H223341   1.503   1.978   3.528
 7800TIP3   OH223342   5.362   3.877   3.974
 7800TIP3    H123343   5.344   3.821   4.050
 7800TIP3    H223344   5.300   3.849   3.908
 7801TIP3   OH223345   3.599   7.832   3.638
 7801TIP3    H123346   3.515   7.858   3.675
 7801TIP3    H223347   3.579   7.803   3.549
 7802TIP3   OH223348   1.535   7.034   6.179
 7802TIP3    H123349   1.481   7.088   6.236
 7802TIP3    H223350   1.610   7.089   6.157
 7803TIP3   OH223351   5.816   3.039   3.567
 7803TIP3    H123352   5.888   3.090   3.530
 7803TIP3    H223353   5.786   2.984   3.494
 7804TIP3   OH223354   5.497   6.987   2.343
 7804TIP3    H123355   5.537   7.047   2.407
 7804TIP3    H223356   5.506   7.032   2.259
 7805TIP3   OH223357   2.717   1.640   0.810
 7805TIP3    H123358   2.633   1.594   0.809
 7805TIP3    H223359   2.734   1.656   0.903
 7806TIP3   OH223360   2.180   2.545   4.870
 7806TIP3    H123361   2.264   2.558   4.827
 7806TIP3    H223362   2.193   2.576   4.959
 7807TIP3   OH223363   4.355   7.164   1.406
 7807TIP3    H123364   4.415   7.089   1.396
 7807TIP3    H223365   4.356   7.183   1.499
 7808TIP3   OH223366   1.654   7.344   4.087
 7808TIP3    H123367   1.724   7.404   4.112
 7808TIP3    H223368   1.589   7.352   4.157
 7809TIP3   OH223369   0.101   4.310   1.595
 7809TIP3    H123370   0.037   4.251   1.554
 7809TIP3    H223371   0.054   4.348   1.670
 7810TIP3   OH223372   5.846   6.871   5.823
 7810TIP3    H123373   5.820   6.822   5.745
 7810TIP3    H223374   5.891   6.807   5.878
 7811TIP3   OH223375   5.033   1.702   1.809
 7811TIP3    H123376   5.107   1.743   1.764
 7811TIP3    H223377   4.964   1.768   1.806
 7812TIP3   OH223378   7.673   5.523   0.367
 7812TIP3    H123379   7.634   5.454   0.422
 7812TIP3    H223380   7.657   5.604   0.415
 7813TIP3   OH223381   6.672   5.786   3.564
 7813TIP3    H123382   6.589   5.801   3.610
 7813TIP3    H223383   6.647   5.784   3.471
 7814TIP3   OH223384   0.127   0.242   4.554
 7814TIP3    H123385   0.047   0.224   4.603
 7814TIP3    H223386   0.195   0.194   4.600
 7815TIP3   OH223387   3.817  -0.024   0.737
 7815TIP3    H123388   3.807   0.036   0.811
 7815TIP3    H223389   3.911  -0.024   0.719
 7816TIP3   OH223390   7.833   2.667   5.878
 7816TIP3    H123391   7.807   2.748   5.922
 7816TIP3    H223392   7.839   2.602   5.948
 7817TIP3   OH223393   3.735   5.631   6.546
 7817TIP3    H123394   3.825   5.602   6.531
 7817TIP3    H223395   3.720   5.698   6.478
 7818TIP3   OH223396   4.652   4.802   4.017
 7818TIP3    H123397   4.639   4.753   3.936
 7818TIP3    H223398   4.746   4.801   4.032
 7819TIP3   OH223399   3.328   0.144   3.193
 7819TIP3    H123400   3.235   0.125   3.180
 7819TIP3    H223401   3.331   0.235   3.221
 7820TIP3   OH223402   1.324   3.391   4.348
 7820TIP3    H123403   1.231   3.412   4.352
 7820TIP3    H223404   1.327   3.310   4.297
 7821TIP3   OH223405   1.452   3.982   1.303
 7821TIP3    H123406   1.543   3.969   1.278
 7821TIP3    H223407   1.413   3.895   1.297
 7822TIP3   OH223408   2.431   6.205   5.667
 7822TIP3    H123409   2.374   6.282   5.667
 7822TIP3    H223410   2.415   6.163   5.751
 7823TIP3   OH223411   2.756   4.776   5.064
 7823TIP3    H123412   2.739   4.720   4.988
 7823TIP3    H223413   2.850   4.790   5.063
 7824TIP3   OH223414   3.230   3.151   4.339
 7824TIP3    H123415   3.270   3.153   4.426
 7824TIP3    H223416   3.142   3.187   4.352
 7825TIP3   OH223417   0.106   5.696   3.936
 7825TIP3    H123418   0.157   5.687   4.016
 7825TIP3    H223419   0.139   5.776   3.895
 7826TIP3   OH223420   2.250   5.814   4.881
 7826TIP3    H123421   2.344   5.812   4.898
 7826TIP3    H223422   2.241   5.868   4.802
 7827TIP3   OH223423   6.684   4.827   5.488
 7827TIP3    H123424   6.774   4.807   5.514
 7827TIP3    H223425   6.656   4.895   5.550
 7828TIP3   OH223426   2.894   1.920   5.672
 7828TIP3    H123427   2.802   1.892   5.669
 7828TIP3    H223428   2.895   2.002   5.621
 7829TIP3   OH223429   3.321   1.385   3.778
 7829TIP3    H123430   3.403   1.355   3.738
 7829TIP3    H223431   3.348   1.451   3.841
 7830TIP3   OH223432   7.415   4.327   4.499
 7830TIP3    H123433   7.434   4.306   4.408
 7830TIP3    H223434   7.362   4.254   4.531
 7831TIP3   OH223435   6.624   6.610   6.234
 7831TIP3    H123436   6.641   6.516   6.239
 7831TIP3    H223437   6.711   6.649   6.224
 7832TIP3   OH223438   2.332   4.693   2.823
 7832TIP3    H123439   2.317   4.660   2.912
 7832TIP3    H223440   2.251   4.675   2.777
 7833TIP3   OH223441   2.342   2.417   0.565
 7833TIP3    H123442   2.422   2.373   0.592
 7833TIP3    H223443   2.308   2.363   0.493
 7834TIP3   OH223444   4.958   3.518   6.366
 7834TIP3    H123445   5.006   3.590   6.325
 7834TIP3    H223446   4.866   3.542   6.358
 7835TIP3   OH223447   1.649   2.655   5.821
 7835TIP3    H123448   1.599   2.709   5.760
 7835TIP3    H223449   1.587   2.634   5.891
 7836TIP3   OH223450   8.010   7.750   1.155
 7836TIP3    H123451   8.023   7.714   1.243
 7836TIP3    H223452   8.034   7.842   1.163
 7837TIP3   OH223453   3.990   3.126   3.125
 7837TIP3    H123454   3.966   3.035   3.144
 7837TIP3    H223455   4.044   3.121   3.046
 7838TIP3   OH223456   7.292   4.919   1.394
 7838TIP3    H123457   7.336   4.887   1.473
 7838TIP3    H223458   7.208   4.951   1.426
 7839TIP3   OH223459   5.888   7.658   1.344
 7839TIP3    H123460   5.839   7.631   1.266
 7839TIP3    H223461   5.962   7.707   1.310
 7840TIP3   OH223462   6.194   0.741   2.845
 7840TIP3    H123463   6.162   0.665   2.797
 7840TIP3    H223464   6.286   0.721   2.863
 7841TIP3   OH223465   1.951   2.831   3.342
 7841TIP3    H123466   1.882   2.855   3.404
 7841TIP3    H223467   2.012   2.904   3.344
 7842TIP3   OH223468   5.466   0.404   0.337
 7842TIP3    H123469   5.559   0.394   0.359
 7842TIP3    H223470   5.466   0.428   0.244
 7843TIP3   OH223471   0.780   2.559   5.438
 7843TIP3    H123472   0.804   2.510   5.359
 7843TIP3    H223473   0.863   2.572   5.484
 7844TIP3   OH223474   6.669   1.125   3.299
 7844TIP3    H123475   6.668   1.210   3.256
 7844TIP3    H223476   6.742   1.131   3.361
 7845TIP3   OH223477   3.489   0.443   0.887
 7845TIP3    H123478   3.421   0.505   0.860
 7845TIP3    H223479   3.493   0.452   0.982
 7846TIP3   OH223480   4.608   7.782   2.026
 7846TIP3    H123481   4.580   7.849   2.088
 7846TIP3    H223482   4.594   7.699   2.071
 7847TIP3   OH223483   3.201   6.156   2.503
 7847TIP3    H123484   3.187   6.062   2.515
 7847TIP3    H223485   3.290   6.162   2.467
 7848TIP3   OH223486   0.081   6.611   5.635
 7848TIP3    H123487   0.095   6.677   5.703
 7848TIP3    H223488   0.134   6.536   5.662
 7849TIP3   OH223489   3.787   7.761   5.020
 7849TIP3    H123490   3.705   7.743   5.067
 7849TIP3    H223491   3.821   7.674   4.998
 7850TIP3   OH223492   2.636   3.744   0.990
 7850TIP3    H123493   2.565   3.755   1.053
 7850TIP3    H223494   2.670   3.832   0.976
 7851TIP3   OH223495   1.279   7.734   3.593
 7851TIP3    H123496   1.197   7.704   3.633
 7851TIP3    H223497   1.271   7.829   3.589
 7852TIP3   OH223498   2.086   4.095   4.959
 7852TIP3    H123499   2.120   4.104   5.048
 7852TIP3    H223500   2.146   4.033   4.916
 7853TIP3   OH223501   0.148   7.328   3.438
 7853TIP3    H123502   0.229   7.377   3.425
 7853TIP3    H223503   0.143   7.271   3.362
 7854TIP3   OH223504   0.539   6.518   5.796
 7854TIP3    H123505   0.445   6.507   5.805
 7854TIP3    H223506   0.568   6.439   5.751
 7855TIP3   OH223507   1.128   6.715   4.222
 7855TIP3    H123508   1.144   6.808   4.212
 7855TIP3    H223509   1.042   6.701   4.181
 7856TIP3   OH223510   4.138   4.385   3.426
 7856TIP3    H123511   4.104   4.321   3.363
 7856TIP3    H223512   4.069   4.394   3.491
 7857TIP3   OH223513   7.309   0.906   6.712
 7857TIP3    H123514   7.254   0.829   6.725
 7857TIP3    H223515   7.296   0.930   6.620
 7858TIP3   OH223516   7.966   4.964   4.877
 7858TIP3    H123517   8.005   5.043   4.841
 7858TIP3    H223518   7.919   4.993   4.955
 7859TIP3   OH223519   2.784   6.143   1.763
 7859TIP3    H123520   2.775   6.215   1.702
 7859TIP3    H223521   2.834   6.077   1.716
 7860TIP3   OH223522   7.592   1.650   0.143
 7860TIP3    H123523   7.664   1.652   0.080
 7860TIP3    H223524   7.522   1.603   0.097
 7861TIP3   OH223525   4.334   4.919   2.586
 7861TIP3    H123526   4.405   4.860   2.560
 7861TIP3    H223527   4.346   4.931   2.680
 7862TIP3   OH223528   0.943   1.383   2.234
 7862TIP3    H123529   0.882   1.425   2.173
 7862TIP3    H223530   0.914   1.411   2.320
 7863TIP3   OH223531   5.982   6.538   4.602
 7863TIP3    H123532   5.897   6.498   4.623
 7863TIP3    H223533   5.965   6.590   4.524
 7864TIP3   OH223534   6.221   5.034   2.030
 7864TIP3    H123535   6.155   4.979   2.072
 7864TIP3    H223536   6.171   5.095   1.977
 7865TIP3   OH223537   4.712   4.365   1.110
 7865TIP3    H123538   4.797   4.358   1.155
 7865TIP3    H223539   4.649   4.378   1.181
 7866TIP3   OH223540   2.608   5.251   0.768
 7866TIP3    H123541   2.639   5.243   0.858
 7866TIP3    H223542   2.603   5.346   0.753
 7867TIP3   OH223543   3.565   2.275   3.986
 7867TIP3    H123544   3.632   2.206   3.981
 7867TIP3    H223545   3.496   2.245   3.927
 7868TIP3   OH223546   4.054   3.610   5.277
 7868TIP3    H123547   4.083   3.595   5.367
 7868TIP3    H223548   3.989   3.679   5.284
 7869TIP3   OH223549   8.201   0.259   3.760
 7869TIP3    H123550   8.149   0.204   3.818
 7869TIP3    H223551   8.240   0.197   3.697
 7870TIP3   OH223552   2.239   4.750   3.888
 7870TIP3    H123553   2.272   4.741   3.977
 7870TIP3    H223554   2.147   4.775   3.899
 7871TIP3   OH223555   1.856   0.591   6.583
 7871TIP3    H123556   1.858   0.505   6.541
 7871TIP3    H223557   1.854   0.653   6.510
 7872TIP3   OH223558   0.942   7.009   4.239
 7872TIP3    H123559   0.953   7.037   4.330
 7872TIP3    H223560   1.032   7.000   4.206
 7873TIP3   OH223561   4.650   0.075   1.551
 7873TIP3    H123562   4.585   0.143   1.564
 7873TIP3    H223563   4.601   0.002   1.513
 7874TIP3   OH223564   6.202   7.659   0.748
 7874TIP3    H123565   6.171   7.595   0.812
 7874TIP3    H223566   6.298   7.659   0.759
 7875TIP3   OH223567   6.895   3.967   0.180
 7875TIP3    H123568   6.960   3.908   0.143
 7875TIP3    H223569   6.811   3.934   0.147
 7876TIP3   OH223570   2.672   3.611   5.221
 7876TIP3    H123571   2.702   3.685   5.275
 7876TIP3    H223572   2.576   3.621   5.220
 7877TIP3   OH223573   6.122   4.658   2.861
 7877TIP3    H123574   6.087   4.611   2.937
 7877TIP3    H223575   6.197   4.706   2.895
 7878TIP3   OH223576   2.904   0.074   1.157
 7878TIP3    H123577   2.972   0.140   1.161
 7878TIP3    H223578   2.870   0.080   1.067
 7879TIP3   OH223579   5.171   5.730   4.647
 7879TIP3    H123580   5.077   5.731   4.660
 7879TIP3    H223581   5.191   5.642   4.615
 7880TIP3   OH223582   1.140   4.390   1.512
 7880TIP3    H123583   1.099   4.303   1.510
 7880TIP3    H223584   1.069   4.451   1.492
 7881TIP3   OH223585   6.604   2.465   6.548
 7881TIP3    H123586   6.669   2.481   6.480
 7881TIP3    H223587   6.611   2.541   6.606
 7882TIP3   OH223588   7.170   6.967   0.481
 7882TIP3    H123589   7.190   7.029   0.551
 7882TIP3    H223590   7.170   6.881   0.524
 7883TIP3   OH223591   7.822   0.587   4.827
 7883TIP3    H123592   7.733   0.621   4.838
 7883TIP3    H223593   7.852   0.572   4.916
 7884TIP3   OH223594   6.708   6.108   3.991
 7884TIP3    H123595   6.716   6.187   4.044
 7884TIP3    H223596   6.699   6.141   3.901
 7885TIP3   OH223597   0.065   7.552   2.690
 7885TIP3    H123598   0.040   7.644   2.681
 7885TIP3    H223599   0.035   7.511   2.609
 7886TIP3   OH223600   4.975   6.121   2.953
 7886TIP3    H123601   4.976   6.190   3.019
 7886TIP3    H223602   5.062   6.126   2.912
 7887TIP3   OH223603   4.615   3.591   3.998
 7887TIP3    H123604   4.639   3.626   3.912
 7887TIP3    H223605   4.643   3.500   3.995
 7888TIP3   OH223606   7.858   2.484   4.385
 7888TIP3    H123607   7.767   2.465   4.407
 7888TIP3    H223608   7.887   2.547   4.451
 7889TIP3   OH223609   7.575   0.453   3.015
 7889TIP3    H123610   7.553   0.488   2.928
 7889TIP3    H223611   7.534   0.366   3.016
 7890TIP3   OH223612   7.469   0.816   4.582
 7890TIP3    H123613   7.494   0.894   4.632
 7890TIP3    H223614   7.484   0.744   4.643
 7891TIP3   OH223615   2.036   4.153   5.974
 7891TIP3    H123616   2.021   4.245   5.992
 7891TIP3    H223617   2.032   4.110   6.059
 7892TIP3   OH223618   1.686   5.803   1.692
 7892TIP3    H123619   1.769   5.779   1.732
 7892TIP3    H223620   1.667   5.731   1.632
 7893TIP3   OH223621   7.317   0.050   4.183
 7893TIP3    H123622   7.293  -0.036   4.216
 7893TIP3    H223623   7.234   0.089   4.153
 7894TIP3   OH223624   0.722   7.416   0.363
 7894TIP3    H123625   0.656   7.348   0.361
 7894TIP3    H223626   0.752   7.418   0.454
 7895TIP3   OH223627   0.494   7.021   1.078
 7895TIP3    H123628   0.542   6.938   1.079
 7895TIP3    H223629   0.549   7.080   1.025
 7896TIP3   OH223630   1.072   0.105   3.429
 7896TIP3    H123631   1.101   0.115   3.339
 7896TIP3    H223632   0.978   0.087   3.423
 7897TIP3   OH223633   4.298   5.469   5.639
 7897TIP3    H123634   4.334   5.395   5.591
 7897TIP3    H223635   4.204   5.456   5.635
 7898TIP3   OH223636   0.308   1.665   1.897
 7898TIP3    H123637   0.331   1.757   1.880
 7898TIP3    H223638   0.369   1.615   1.841
 7899TIP3   OH223639   7.473   1.865   2.464
 7899TIP3    H123640   7.465   1.795   2.529
 7899TIP3    H223641   7.390   1.913   2.470
 7900TIP3   OH223642   2.703   1.802   3.218
 7900TIP3    H123643   2.762   1.800   3.293
 7900TIP3    H223644   2.640   1.872   3.239
 7901TIP3   OH223645   4.034   3.030   0.085
 7901TIP3    H123646   4.051   3.046   0.177
 7901TIP3    H223647   4.002   3.114   0.051
 7902TIP3   OH223648   6.995   2.671   2.156
 7902TIP3    H123649   7.035   2.634   2.078
 7902TIP3    H223650   7.011   2.765   2.149
 7903TIP3   OH223651   5.601   0.938   1.653
 7903TIP3    H123652   5.611   0.846   1.677
 7903TIP3    H223653   5.507   0.949   1.637
 7904TIP3   OH223654   5.670   3.782   0.344
 7904TIP3    H123655   5.660   3.691   0.318
 7904TIP3    H223656   5.582   3.820   0.334
 7905TIP3   OH223657   7.754   0.602   2.307
 7905TIP3    H123658   7.730   0.510   2.297
 7905TIP3    H223659   7.794   0.626   2.223
 7906TIP3   OH223660   3.501   7.195   0.013
 7906TIP3    H123661   3.567   7.141   0.055
 7906TIP3    H223662   3.546   7.276  -0.009
 7907TIP3   OH223663   1.330   5.965   4.649
 7907TIP3    H123664   1.303   5.900   4.715
 7907TIP3    H223665   1.396   5.920   4.597
 7908TIP3   OH223666   2.949   0.738   3.577
 7908TIP3    H123667   2.935   0.788   3.658
 7908TIP3    H223668   2.907   0.791   3.509
 7909TIP3   OH223669   0.729   0.165   4.327
 7909TIP3    H123670   0.790   0.103   4.288
 7909TIP3    H223671   0.713   0.230   4.257
 7910TIP3   OH223672   1.032   1.440   5.212
 7910TIP3    H123673   1.106   1.380   5.203
 7910TIP3    H223674   0.977   1.400   5.279
 7911TIP3   OH223675   4.721   0.845   1.492
 7911TIP3    H123676   4.747   0.754   1.481
 7911TIP3    H223677   4.648   0.842   1.553
 7912TIP3   OH223678   6.030   7.462   5.180
 7912TIP3    H123679   5.950   7.465   5.233
 7912TIP3    H223680   6.099   7.444   5.244
 7913TIP3   OH223681   3.135   2.384   3.326
 7913TIP3    H123682   3.160   2.375   3.234
 7913TIP3    H223683   3.045   2.418   3.323
 7914TIP3   OH223684   2.695   0.285   5.570
 7914TIP3    H123685   2.718   0.194   5.551
 7914TIP3    H223686   2.774   0.334   5.550
 7915TIP3   OH223687   0.584   7.489   5.460
 7915TIP3    H123688   0.640   7.565   5.443
 7915TIP3    H223689   0.617   7.422   5.399
 7916TIP3   OH223690   4.951   2.836   5.151
 7916TIP3    H123691   5.011   2.774   5.193
 7916TIP3    H223692   4.996   2.863   5.071
 7917TIP3   OH223693   2.551   3.513   4.015
 7917TIP3    H123694   2.591   3.433   4.049
 7917TIP3    H223695   2.567   3.510   3.921
 7918TIP3   OH223696   1.198   7.331   1.566
 7918TIP3    H123697   1.121   7.288   1.530
 7918TIP3    H223698   1.181   7.424   1.556
 7919TIP3   OH223699   6.275   3.521   2.872
 7919TIP3    H123700   6.300   3.556   2.787
 7919TIP3    H223701   6.222   3.444   2.851
 7920TIP3   OH223702   7.242   2.767   3.171
 7920TIP3    H123703   7.200   2.793   3.253
 7920TIP3    H223704   7.169   2.760   3.108
 7921TIP3   OH223705   7.765   6.922   5.082
 7921TIP3    H123706   7.855   6.890   5.086
 7921TIP3    H223707   7.728   6.878   5.006
 7922TIP3   OH223708   7.483   7.749   4.449
 7922TIP3    H123709   7.571   7.711   4.441
 7922TIP3    H223710   7.470   7.796   4.367
 7923TIP3   OH223711   7.303   4.573   6.401
 7923TIP3    H123712   7.331   4.649   6.349
 7923TIP3    H223713   7.213   4.594   6.426
 7924TIP3   OH223714   7.219   3.513   2.496
 7924TIP3    H123715   7.223   3.476   2.408
 7924TIP3    H223716   7.245   3.442   2.554
 7925TIP3   OH223717   0.630   0.940   5.326
 7925TIP3    H123718   0.595   0.907   5.409
 7925TIP3    H223719   0.568   0.909   5.260
 7926TIP3   OH223720   1.491   1.984   2.078
 7926TIP3    H123721   1.521   2.046   2.012
 7926TIP3    H223722   1.398   1.972   2.059
 7927TIP3   OH223723   4.513   4.926   6.061
 7927TIP3    H123724   4.436   4.896   6.014
 7927TIP3    H223725   4.567   4.971   5.996
 7928TIP3   OH223726   3.926   1.606   4.217
 7928TIP3    H123727   3.855   1.651   4.262
 7928TIP3    H223728   3.992   1.590   4.285
 7929TIP3   OH223729   5.224   4.015   0.866
 7929TIP3    H123730   5.149   4.023   0.925
 7929TIP3    H223731   5.242   3.921   0.862
 7930TIP3   OH223732   2.315   7.515   1.315
 7930TIP3    H123733   2.390   7.461   1.339
 7930TIP3    H223734   2.242   7.454   1.311
 7931TIP3   OH223735   2.081   6.986   4.430
 7931TIP3    H123736   2.019   7.025   4.491
 7931TIP3    H223737   2.135   6.928   4.484
 7932TIP3   OH223738   0.541   4.683   5.408
 7932TIP3    H123739   0.539   4.652   5.318
 7932TIP3    H223740   0.592   4.764   5.404
 7933TIP3   OH223741   2.507   6.138   3.169
 7933TIP3    H123742   2.499   6.191   3.248
 7933TIP3    H223743   2.597   6.153   3.139
 7934TIP3   OH223744   5.107   0.973   6.665
 7934TIP3    H123745   5.025   0.925   6.657
 7934TIP3    H223746   5.173   0.914   6.629
 7935TIP3   OH223747   6.573   4.687   2.379
 7935TIP3    H123748   6.618   4.603   2.371
 7935TIP3    H223749   6.592   4.716   2.469
 7936TIP3   OH223750   7.717   4.312   0.396
 7936TIP3    H123751   7.761   4.359   0.467
 7936TIP3    H223752   7.759   4.344   0.316
 7937TIP3   OH223753   3.839   1.483   0.790
 7937TIP3    H123754   3.829   1.388   0.794
 7937TIP3    H223755   3.761   1.513   0.743
 7938TIP3   OH223756   2.192   7.766   3.841
 7938TIP3    H123757   2.207   7.858   3.863
 7938TIP3    H223758   2.216   7.759   3.749
 7939TIP3   OH223759   2.986   6.008   5.509
 7939TIP3    H123760   2.897   5.977   5.524
 7939TIP3    H223761   2.991   6.092   5.555
 7940TIP3   OH223762   0.617   0.251   3.688
 7940TIP3    H123763   0.563   0.328   3.673
 7940TIP3    H223764   0.614   0.203   3.606
 7941TIP3   OH223765   2.009   5.755   0.732
 7941TIP3    H123766   1.948   5.691   0.769
 7941TIP3    H223767   2.019   5.729   0.640
 7942TIP3   OH223768   5.881   4.162   6.380
 7942TIP3    H123769   5.837   4.246   6.372
 7942TIP3    H223770   5.930   4.152   6.299
 7943TIP3   OH223771   4.111   5.286   0.462
 7943TIP3    H123772   4.069   5.334   0.391
 7943TIP3    H223773   4.205   5.302   0.449
 7944TIP3   OH223774   1.247   7.523   5.718
 7944TIP3    H123775   1.286   7.530   5.631
 7944TIP3    H223776   1.322   7.529   5.777
 7945TIP3   OH223777   5.026   0.474   0.735
 7945TIP3    H123778   5.073   0.416   0.675
 7945TIP3    H223779   5.070   0.462   0.819
 7946TIP3   OH223780   7.696   7.604   5.966
 7946TIP3    H123781   7.781   7.608   6.009
 7946TIP3    H223782   7.665   7.515   5.983
 7947TIP3   OH223783   3.673   5.441   6.759
 7947TIP3    H123784   3.598   5.393   6.725
 7947TIP3    H223785   3.701   5.496   6.687
 7948TIP3   OH223786   1.806   1.057   3.536
 7948TIP3    H123787   1.851   0.998   3.595
 7948TIP3    H223788   1.752   1.000   3.480
 7949TIP3   OH223789   8.141   2.344   4.077
 7949TIP3    H123790   8.120   2.350   4.171
 7949TIP3    H223791   8.236   2.355   4.074
 7950TIP3   OH223792   5.754   3.106   2.734
 7950TIP3    H123793   5.779   3.085   2.824
 7950TIP3    H223794   5.754   3.021   2.689
 7951TIP3   OH223795   2.719   1.698   6.778
 7951TIP3    H123796   2.723   1.784   6.736
 7951TIP3    H223797   2.757   1.639   6.714
 7952TIP3   OH223798   4.527   0.448   6.006
 7952TIP3    H123799   4.614   0.471   5.972
 7952TIP3    H223800   4.467   0.474   5.937
 7953TIP3   OH223801   0.836   1.060   0.850
 7953TIP3    H123802   0.907   1.122   0.831
 7953TIP3    H223803   0.778   1.068   0.774
 7954TIP3   OH223804   0.832   3.841   6.707
 7954TIP3    H123805   0.867   3.825   6.795
 7954TIP3    H223806   0.830   3.754   6.667
 7955TIP3   OH223807   8.273   4.537   6.638
 7955TIP3    H123808   8.351   4.592   6.642
 7955TIP3    H223809   8.201   4.598   6.620
 7956TIP3   OH223810   2.967   5.419   0.213
 7956TIP3    H123811   3.010   5.344   0.255
 7956TIP3    H223812   2.990   5.494   0.268
 7957TIP3   OH223813   6.562   2.027   5.844
 7957TIP3    H123814   6.646   1.992   5.873
 7957TIP3    H223815   6.513   2.043   5.925
 7958TIP3   OH223816   8.248   5.776   3.709
 7958TIP3    H123817   8.254   5.863   3.749
 7958TIP3    H223818   8.293   5.718   3.771
 7959TIP3   OH223819   4.079   0.472   2.421
 7959TIP3    H123820   4.069   0.482   2.327
 7959TIP3    H223821   4.049   0.556   2.457
 7960TIP3   OH223822   1.031   0.940   0.658
 7960TIP3    H123823   1.050   0.984   0.741
 7960TIP3    H223824   0.967   0.873   0.680
 7961TIP3   OH223825   4.126   5.934   0.473
 7961TIP3    H123826   4.179   5.854   0.473
 7961TIP3    H223827   4.036   5.903   0.464
 7962TIP3   OH223828   7.611   4.611   1.236
 7962TIP3    H123829   7.705   4.623   1.249
 7962TIP3    H223830   7.599   4.614   1.141
 7963TIP3   OH223831   4.011   7.289   1.764
 7963TIP3    H123832   4.024   7.321   1.675
 7963TIP3    H223833   4.046   7.200   1.762
 7964TIP3   OH223834   7.640   6.808   4.032
 7964TIP3    H123835   7.655   6.875   3.966
 7964TIP3    H223836   7.720   6.808   4.085
 7965TIP3   OH223837   8.195   4.596   4.190
 7965TIP3    H123838   8.154   4.682   4.184
 7965TIP3    H223839   8.182   4.557   4.104
 7966TIP3   OH223840   0.811   6.122   3.334
 7966TIP3    H123841   0.795   6.093   3.245
 7966TIP3    H223842   0.834   6.042   3.382
 7967TIP3   OH223843   3.365   0.418   3.017
 7967TIP3    H123844   3.363   0.466   2.934
 7967TIP3    H223845   3.455   0.425   3.047
 7968TIP3   OH223846   1.490   4.526   2.550
 7968TIP3    H123847   1.582   4.550   2.549
 7968TIP3    H223848   1.447   4.596   2.501
 7969TIP3   OH223849   4.762   7.272   1.909
 7969TIP3    H123850   4.698   7.228   1.965
 7969TIP3    H223851   4.718   7.282   1.825
 7970TIP3   OH223852   3.476   7.223   6.505
 7970TIP3    H123853   3.503   7.248   6.593
 7970TIP3    H223854   3.529   7.146   6.485
 7971TIP3   OH223855   6.908   6.809   3.969
 7971TIP3    H123856   6.826   6.759   3.973
 7971TIP3    H223857   6.914   6.853   4.054
 7972TIP3   OH223858   6.340   0.858   5.447
 7972TIP3    H123859   6.249   0.844   5.473
 7972TIP3    H223860   6.362   0.781   5.395
 7973TIP3   OH223861   6.751   3.426   6.198
 7973TIP3    H123862   6.719   3.340   6.226
 7973TIP3    H223863   6.671   3.477   6.182
 7974TIP3   OH223864   1.350   2.978   5.077
 7974TIP3    H123865   1.437   2.987   5.036
 7974TIP3    H223866   1.304   2.916   5.020
 7975TIP3   OH223867   7.804   7.311   0.277
 7975TIP3    H123868   7.720   7.300   0.233
 7975TIP3    H223869   7.830   7.223   0.303
 7976TIP3   OH223870   1.506   0.390   3.822
 7976TIP3    H123871   1.509   0.310   3.875
 7976TIP3    H223872   1.532   0.460   3.882
 7977TIP3   OH223873   7.551   4.661   5.644
 7977TIP3    H123874   7.629   4.612   5.619
 7977TIP3    H223875   7.570   4.694   5.732
 7978TIP3   OH223876   5.313   5.141   1.075
 7978TIP3    H123877   5.315   5.185   1.160
 7978TIP3    H223878   5.405   5.139   1.047
 7979TIP3   OH223879   3.170   2.787   6.397
 7979TIP3    H123880   3.153   2.880   6.409
 7979TIP3    H223881   3.085   2.751   6.370
 7980TIP3   OH223882   7.606   1.850   3.095
 7980TIP3    H123883   7.683   1.891   3.054
 7980TIP3    H223884   7.588   1.773   3.041
 7981TIP3   OH223885   0.495   5.452   0.484
 7981TIP3    H123886   0.509   5.530   0.432
 7981TIP3    H223887   0.474   5.384   0.420
 7982TIP3   OH223888   6.485   6.179   3.792
 7982TIP3    H123889   6.539   6.101   3.775
 7982TIP3    H223890   6.396   6.151   3.772
 7983TIP3   OH223891   4.689   6.442   2.720
 7983TIP3    H123892   4.645   6.358   2.706
 7983TIP3    H223893   4.630   6.506   2.681
 7984TIP3   OH223894   3.278   3.126   4.632
 7984TIP3    H123895   3.327   3.184   4.690
 7984TIP3    H223896   3.187   3.135   4.661
 7985TIP3   OH223897   1.299   0.527   0.159
 7985TIP3    H123898   1.294   0.604   0.103
 7985TIP3    H223899   1.315   0.562   0.247
 7986TIP3   OH223900   5.134   5.379   4.306
 7986TIP3    H123901   5.183   5.400   4.386
 7986TIP3    H223902   5.157   5.288   4.287
 7987TIP3   OH223903   4.694   4.510   2.380
 7987TIP3    H123904   4.619   4.555   2.340
 7987TIP3    H223905   4.727   4.453   2.311
 7988TIP3   OH223906   6.691   3.464   3.212
 7988TIP3    H123907   6.702   3.424   3.299
 7988TIP3    H223908   6.666   3.391   3.155
 7989TIP3   OH223909   0.770   4.888   0.572
 7989TIP3    H123910   0.740   4.869   0.661
 7989TIP3    H223911   0.823   4.968   0.582
 7990TIP3   OH223912   2.589   4.862   2.857
 7990TIP3    H123913   2.551   4.872   2.945
 7990TIP3    H223914   2.517   4.828   2.804
 7991TIP3   OH223915   6.479   3.900   0.828
 7991TIP3    H123916   6.503   3.979   0.878
 7991TIP3    H223917   6.422   3.851   0.888
 7992TIP3   OH223918   5.386   4.138   2.537
 7992TIP3    H123919   5.398   4.197   2.611
 7992TIP3    H223920   5.373   4.197   2.462
 7993TIP3   OH223921   2.336   1.585   0.174
 7993TIP3    H123922   2.278   1.509   0.170
 7993TIP3    H223923   2.424   1.548   0.167
 7994TIP3   OH223924   0.811   3.238   4.053
 7994TIP3    H123925   0.823   3.328   4.024
 7994TIP3    H223926   0.735   3.207   4.003
 7995TIP3   OH223927   4.006   1.583   0.124
 7995TIP3    H123928   3.936   1.631   0.078
 7995TIP3    H223929   3.986   1.598   0.217
 7996TIP3   OH223930   4.725   2.116   3.524
 7996TIP3    H123931   4.769   2.051   3.580
 7996TIP3    H223932   4.633   2.092   3.527
 7997TIP3   OH223933   1.424   7.144   1.783
 7997TIP3    H123934   1.490   7.086   1.747
 7997TIP3    H223935   1.389   7.097   1.859
 7998TIP3   OH223936   0.755   4.412   2.283
 7998TIP3    H123937   0.685   4.378   2.227
 7998TIP3    H223938   0.819   4.340   2.287
 7999TIP3   OH223939   0.046   7.202   0.072
 7999TIP3    H123940   0.041   7.275   0.011
 7999TIP3    H223941   0.138   7.197   0.097
 8000TIP3   OH223942   2.611   7.207   4.789
 8000TIP3    H123943   2.595   7.292   4.746
 8000TIP3    H223944   2.557   7.145   4.739
 8001TIP3   OH223945   5.882   7.652   2.767
 8001TIP3    H123946   5.797   7.674   2.806
 8001TIP3    H223947   5.924   7.737   2.753
 8002TIP3   OH223948   0.198   2.361   0.489
 8002TIP3    H123949   0.138   2.389   0.557
 8002TIP3    H223950   0.267   2.313   0.537
 8003TIP3   OH223951   4.985   4.590   4.181
 8003TIP3    H123952   4.992   4.494   4.183
 8003TIP3    H223953   5.073   4.621   4.202
 8004TIP3   OH223954   4.350   5.521   2.200
 8004TIP3    H123955   4.268   5.473   2.213
 8004TIP3    H223956   4.326   5.613   2.213
 8005TIP3   OH223957   5.726   5.921   5.972
 8005TIP3    H123958   5.705   5.834   6.007
 8005TIP3    H223959   5.660   5.936   5.904
 8006TIP3   OH223960   0.514   0.048   2.741
 8006TIP3    H123961   0.596   0.059   2.692
 8006TIP3    H223962   0.536   0.073   2.830
 8007TIP3   OH223963   1.497   5.466   5.077
 8007TIP3    H123964   1.483   5.472   4.982
 8007TIP3    H223965   1.514   5.373   5.092
 8008TIP3   OH223966   3.487   2.738   1.408
 8008TIP3    H123967   3.511   2.675   1.476
 8008TIP3    H223968   3.424   2.691   1.353
 8009TIP3   OH223969   3.711   5.843   0.729
 8009TIP3    H123970   3.786   5.903   0.739
 8009TIP3    H223971   3.736   5.766   0.781
 8010TIP3   OH223972   6.176   0.094   2.743
 8010TIP3    H123973   6.128   0.109   2.824
 8010TIP3    H223974   6.114   0.050   2.685
 8011TIP3   OH223975   5.271   4.808   1.504
 8011TIP3    H123976   5.182   4.773   1.503
 8011TIP3    H223977   5.273   4.868   1.429
 8012TIP3   OH223978   6.112   4.316   6.697
 8012TIP3    H123979   6.064   4.379   6.643
 8012TIP3    H223980   6.164   4.370   6.756
 8013TIP3   OH223981   4.417   0.622   6.599
 8013TIP3    H123982   4.456   0.678   6.531
 8013TIP3    H223983   4.429   0.670   6.680
 8014TIP3   OH223984   7.109   3.960   5.078
 8014TIP3    H123985   7.161   3.882   5.059
 8014TIP3    H223986   7.159   4.008   5.143
 8015TIP3   OH223987   7.271   0.133   2.253
 8015TIP3    H123988   7.314   0.157   2.335
 8015TIP3    H223989   7.254   0.217   2.209
 8016TIP3   OH223990   2.236   1.145   0.386
 8016TIP3    H123991   2.306   1.175   0.444
 8016TIP3    H223992   2.278   1.085   0.326
 8017TIP3   OH223993   1.450   1.016   0.739
 8017TIP3    H123994   1.356   1.034   0.738
 8017TIP3    H223995   1.490   1.099   0.765
 8018TIP3   OH223996   7.228   2.320   5.054
 8018TIP3    H123997   7.275   2.371   5.120
 8018TIP3    H223998   7.151   2.372   5.033
 8019TIP3   OH223999   5.273   0.419   5.792
 8019TIP3    H124000   5.305   0.489   5.849
 8019TIP3    H224001   5.311   0.339   5.829
 8020TIP3   OH224002   7.595   4.234   3.600
 8020TIP3    H124003   7.524   4.171   3.587
 8020TIP3    H224004   7.673   4.189   3.568
 8021TIP3   OH224005   5.826   1.711   6.607
 8021TIP3    H124006   5.897   1.766   6.573
 8021TIP3    H224007   5.851   1.692   6.697
 8022TIP3   OH224008   8.028   2.804   1.253
 8022TIP3    H124009   7.965   2.764   1.193
 8022TIP3    H224010   8.107   2.751   1.244
 8023TIP3   OH224011   2.437   7.413   2.051
 8023TIP3    H124012   2.423   7.374   1.964
 8023TIP3    H224013   2.362   7.383   2.103
 8024TIP3   OH224014   1.601   7.298   0.869
 8024TIP3    H124015   1.676   7.345   0.831
 8024TIP3    H224016   1.540   7.288   0.797
 8025TIP3   OH224017   4.601   2.312   4.916
 8025TIP3    H124018   4.571   2.388   4.966
 8025TIP3    H224019   4.529   2.293   4.855
 8026TIP3   OH224020   2.159   4.125   4.235
 8026TIP3    H124021   2.161   4.042   4.187
 8026TIP3    H224022   2.077   4.166   4.208
 8027TIP3   OH224023   2.750   3.254   4.529
 8027TIP3    H124024   2.701   3.315   4.584
 8027TIP3    H224025   2.742   3.170   4.575
 8028TIP3   OH224026   1.726   1.449   5.621
 8028TIP3    H124027   1.689   1.517   5.565
 8028TIP3    H224028   1.800   1.491   5.665
 8029TIP3   OH224029   3.293   6.634   3.964
 8029TIP3    H124030   3.356   6.694   3.924
 8029TIP3    H224031   3.323   6.547   3.938
 8030TIP3   OH224032   5.449   6.412   1.268
 8030TIP3    H124033   5.379   6.398   1.332
 8030TIP3    H224034   5.522   6.447   1.319
 8031TIP3   OH224035   1.915   0.580   4.710
 8031TIP3    H124036   1.923   0.485   4.722
 8031TIP3    H224037   1.998   0.615   4.742
 8032TIP3   OH224038   1.796   5.789   5.138
 8032TIP3    H124039   1.718   5.800   5.193
 8032TIP3    H224040   1.786   5.703   5.098
 8033TIP3   OH224041   5.520   0.470   0.080
 8033TIP3    H124042   5.594   0.411   0.086
 8033TIP3    H224043   5.533   0.517  -0.003
 8034TIP3   OH224044   5.089   0.500   0.410
 8034TIP3    H124045   5.132   0.439   0.351
 8034TIP3    H224046   5.001   0.463   0.423
 8035TIP3   OH224047   5.831   1.749   0.130
 8035TIP3    H124048   5.806   1.819   0.069
 8035TIP3    H224049   5.747   1.714   0.161
 8036TIP3   OH224050   7.216   6.910   6.457
 8036TIP3    H124051   7.267   6.830   6.445
 8036TIP3    H224052   7.173   6.924   6.372
 8037TIP3   OH224053   2.474   0.746   6.702
 8037TIP3    H124054   2.541   0.803   6.738
 8037TIP3    H224055   2.468   0.673   6.763
 8038TIP3   OH224056   5.802   1.543   6.388
 8038TIP3    H124057   5.809   1.598   6.466
 8038TIP3    H224058   5.717   1.564   6.351
 8039TIP3   OH224059   3.799   4.793   1.256
 8039TIP3    H124060   3.736   4.852   1.216
 8039TIP3    H224061   3.767   4.705   1.236
 8040TIP3   OH224062   5.042   4.475   2.636
 8040TIP3    H124063   5.017   4.408   2.572
 8040TIP3    H224064   5.091   4.539   2.585
 8041TIP3   OH224065   4.742   7.167   3.025
 8041TIP3    H124066   4.656   7.131   3.049
 8041TIP3    H224067   4.796   7.156   3.103
 8042TIP3   OH224068   6.035   3.664   2.453
 8042TIP3    H124069   5.959   3.607   2.463
 8042TIP3    H224070   6.072   3.641   2.368
 8043TIP3   OH224071   2.956   4.480   4.506
 8043TIP3    H124072   2.904   4.526   4.441
 8043TIP3    H224073   2.901   4.406   4.532
 8044TIP3   OH224074   3.009   0.561   1.550
 8044TIP3    H124075   3.094   0.521   1.529
 8044TIP3    H224076   3.006   0.560   1.646
 8045TIP3   OH224077   3.024   6.551   1.514
 8045TIP3    H124078   3.016   6.647   1.513
 8045TIP3    H224079   2.966   6.521   1.445
 8046TIP3   OH224080   6.857   6.155   0.398
 8046TIP3    H124081   6.889   6.154   0.488
 8046TIP3    H224082   6.936   6.160   0.344
 8047TIP3   OH224083   6.766   6.865   5.716
 8047TIP3    H124084   6.785   6.870   5.622
 8047TIP3    H224085   6.805   6.943   5.753
 8048TIP3   OH224086   7.694   5.075   1.393
 8048TIP3    H124087   7.704   5.011   1.464
 8048TIP3    H224088   7.681   5.158   1.439
 8049TIP3   OH224089   2.297   1.844   6.191
 8049TIP3    H124090   2.325   1.805   6.108
 8049TIP3    H224091   2.288   1.937   6.171
 8050TIP3   OH224092   3.145   6.537   0.783
 8050TIP3    H124093   3.186   6.613   0.823
 8050TIP3    H224094   3.081   6.573   0.722
 8051TIP3   OH224095   4.754   2.401   2.512
 8051TIP3    H124096   4.790   2.418   2.599
 8051TIP3    H224097   4.769   2.307   2.498
 8052TIP3   OH224098   2.186   7.442   0.382
 8052TIP3    H124099   2.127   7.510   0.349
 8052TIP3    H224100   2.254   7.435   0.314
 8053TIP3   OH224101   7.474   3.522   5.016
 8053TIP3    H124102   7.436   3.601   5.054
 8053TIP3    H224103   7.557   3.552   4.978
 8054TIP3   OH224104   1.165   1.805   2.111
 8054TIP3    H124105   1.185   1.891   2.146
 8054TIP3    H224106   1.087   1.818   2.058
 8055TIP3   OH224107   5.964   6.239   3.958
 8055TIP3    H124108   5.945   6.240   3.864
 8055TIP3    H224109   5.988   6.148   3.977
 8056TIP3   OH224110   6.197   0.343   3.512
 8056TIP3    H124111   6.207   0.278   3.582
 8056TIP3    H224112   6.112   0.323   3.473
 8057TIP3   OH224113   1.196   4.229   5.145
 8057TIP3    H124114   1.241   4.272   5.218
 8057TIP3    H224115   1.142   4.161   5.186
 8058TIP3   OH224116   4.424   0.916   1.265
 8058TIP3    H124117   4.491   0.915   1.334
 8058TIP3    H224118   4.392   1.006   1.265
 8059TIP3   OH224119   5.105   5.593   3.536
 8059TIP3    H124120   5.074   5.503   3.545
 8059TIP3    H224121   5.103   5.611   3.442
 8060TIP3   OH224122   6.941   3.374   1.629
 8060TIP3    H124123   6.951   3.376   1.724
 8060TIP3    H224124   6.951   3.466   1.602
 8061TIP3   OH224125   0.218   6.994   6.719
 8061TIP3    H124126   0.164   6.917   6.738
 8061TIP3    H224127   0.235   7.033   6.805
 8062TIP3   OH224128   0.550   3.999   0.290
 8062TIP3    H124129   0.637   4.006   0.252
 8062TIP3    H224130   0.504   3.936   0.234
 8063TIP3   OH224131   6.894   6.988   3.748
 8063TIP3    H124132   6.889   6.928   3.822
 8063TIP3    H224133   6.840   7.063   3.773
 8064TIP3   OH224134   2.032   5.781   0.077
 8064TIP3    H124135   1.992   5.854   0.123
 8064TIP3    H224136   2.001   5.703   0.123
 8065TIP3   OH224137   7.198   4.014   3.121
 8065TIP3    H124138   7.225   3.924   3.102
 8065TIP3    H224139   7.105   4.017   3.100
 8066TIP3   OH224140   4.047   4.069   1.981
 8066TIP3    H124141   4.078   4.109   1.900
 8066TIP3    H224142   4.000   4.140   2.026
 8067TIP3   OH224143   7.121   6.578   6.610
 8067TIP3    H124144   7.204   6.618   6.587
 8067TIP3    H224145   7.144   6.489   6.636
 8068TIP3   OH224146   5.595   5.721   6.166
 8068TIP3    H124147   5.534   5.794   6.158
 8068TIP3    H224148   5.634   5.731   6.253
 8069TIP3   OH224149   7.514   7.342   2.869
 8069TIP3    H124150   7.525   7.319   2.961
 8069TIP3    H224151   7.581   7.293   2.823
 8070TIP3   OH224152   3.665   1.936   6.334
 8070TIP3    H124153   3.630   1.901   6.416
 8070TIP3    H224154   3.754   1.962   6.355
 8071TIP3   OH224155   7.638   0.380   2.208
 8071TIP3    H124156   7.574   0.367   2.138
 8071TIP3    H224157   7.642   0.295   2.252
 8072TIP3   OH224158   5.034   5.055   2.746
 8072TIP3    H124159   4.951   5.010   2.731
 8072TIP3    H224160   5.024   5.139   2.701
 8073TIP3   OH224161   2.094   1.308   4.268
 8073TIP3    H124162   2.017   1.255   4.287
 8073TIP3    H224163   2.061   1.380   4.215
 8074TIP3   OH224164   2.887   7.121   4.346
 8074TIP3    H124165   2.801   7.159   4.359
 8074TIP3    H224166   2.947   7.195   4.346
 8075TIP3   OH224167   3.742   6.285   6.589
 8075TIP3    H124168   3.766   6.317   6.502
 8075TIP3    H224169   3.756   6.190   6.584
 8076TIP3   OH224170   3.271   4.975   2.937
 8076TIP3    H124171   3.366   4.971   2.946
 8076TIP3    H224172   3.247   4.890   2.900
 8077TIP3   OH224173   3.134   3.574   4.210
 8077TIP3    H124174   3.103   3.486   4.191
 8077TIP3    H224175   3.227   3.563   4.231
 8078TIP3   OH224176   2.630   7.398   1.606
 8078TIP3    H124177   2.692   7.358   1.667
 8078TIP3    H224178   2.547   7.400   1.654
 8079TIP3   OH224179   2.673   0.708   2.001
 8079TIP3    H124180   2.760   0.746   2.013
 8079TIP3    H224181   2.638   0.751   1.923
 8080TIP3   OH224182   3.643   5.688   1.152
 8080TIP3    H124183   3.591   5.675   1.073
 8080TIP3    H224184   3.680   5.602   1.171
 8081TIP3   OH224185   6.603   3.651   4.960
 8081TIP3    H124186   6.560   3.736   4.959
 8081TIP3    H224187   6.693   3.670   4.986
 8082TIP3   OH224188   7.749   4.663   3.455
 8082TIP3    H124189   7.813   4.717   3.409
 8082TIP3    H224190   7.772   4.671   3.548
 8083TIP3   OH224191   1.912   6.981   0.972
 8083TIP3    H124192   1.920   6.934   1.055
 8083TIP3    H224193   1.835   7.038   0.985
 8084TIP3   OH224194   7.215   3.597   6.007
 8084TIP3    H124195   7.205   3.570   5.916
 8084TIP3    H224196   7.304   3.571   6.030
 8085TIP3   OH224197   2.962   1.724   5.425
 8085TIP3    H124198   2.983   1.817   5.439
 8085TIP3    H224199   3.044   1.679   5.444
 8086TIP3   OH224200   2.107   1.039   4.974
 8086TIP3    H124201   2.126   1.037   4.880
 8086TIP3    H224202   2.175   1.095   5.010
 8087TIP3   OH224203   3.426   3.597   5.173
 8087TIP3    H124204   3.442   3.640   5.089
 8087TIP3    H224205   3.355   3.647   5.212
 8088TIP3   OH224206   7.760   6.871   2.250
 8088TIP3    H124207   7.716   6.853   2.167
 8088TIP3    H224208   7.847   6.832   2.239
 8089TIP3   OH224209   5.786   5.267   1.144
 8089TIP3    H124210   5.815   5.337   1.085
 8089TIP3    H224211   5.703   5.299   1.179
 8090TIP3   OH224212   0.045   2.110   6.356
 8090TIP3    H124213   0.076   2.170   6.288
 8090TIP3    H224214  -0.037   2.075   6.322
 8091TIP3   OH224215   6.668   3.300   1.501
 8091TIP3    H124216   6.753   3.257   1.486
 8091TIP3    H224217   6.680   3.348   1.583
 8092TIP3   OH224218   3.101   5.341   1.257
 8092TIP3    H124219   3.026   5.297   1.216
 8092TIP3    H224220   3.074   5.353   1.348
 8093TIP3   OH224221   5.708   2.452   0.381
 8093TIP3    H124222   5.729   2.465   0.289
 8093TIP3    H224223   5.777   2.396   0.415
 8094TIP3   OH224224   3.421   1.231   0.945
 8094TIP3    H124225   3.339   1.234   0.895
 8094TIP3    H224226   3.464   1.314   0.926
 8095TIP3   OH224227   0.636   6.897   5.216
 8095TIP3    H124228   0.683   6.887   5.133
 8095TIP3    H224229   0.665   6.824   5.270
 8096TIP3   OH224230   0.354   6.523   0.826
 8096TIP3    H124231   0.296   6.480   0.763
 8096TIP3    H224232   0.324   6.492   0.911
 8097TIP3   OH224233   1.942   0.304   3.361
 8097TIP3    H124234   1.906   0.373   3.418
 8097TIP3    H224235   1.943   0.226   3.416
 8098TIP3   OH224236   6.050   1.309  -0.037
 8098TIP3    H124237   6.001   1.380   0.004
 8098TIP3    H224238   6.111   1.279   0.030
 8099TIP3   OH224239   7.645   2.295   1.142
 8099TIP3    H124240   7.693   2.347   1.207
 8099TIP3    H224241   7.627   2.356   1.071
 8100TIP3   OH224242   7.737   2.064   3.698
 8100TIP3    H124243   7.803   2.011   3.653
 8100TIP3    H224244   7.654   2.023   3.676
 8101TIP3   OH224245   3.399   7.615   0.694
 8101TIP3    H124246   3.359   7.668   0.763
 8101TIP3    H224247   3.450   7.678   0.643
 8102TIP3   OH224248   0.842   3.572   4.713
 8102TIP3    H124249   0.897   3.559   4.790
 8102TIP3    H224250   0.835   3.667   4.704
 8103TIP3   OH224251   0.606   7.658   5.178
 8103TIP3    H124252   0.641   7.685   5.094
 8103TIP3    H224253   0.618   7.734   5.235
 8104TIP3   OH224254   7.478   6.396   5.878
 8104TIP3    H124255   7.393   6.440   5.878
 8104TIP3    H224256   7.535   6.457   5.926
 8105TIP3   OH224257   3.356   3.548   1.863
 8105TIP3    H124258   3.287   3.565   1.799
 8105TIP3    H224259   3.404   3.474   1.827
 8106TIP3   OH224260   5.720   6.745   2.715
 8106TIP3    H124261   5.751   6.835   2.726
 8106TIP3    H224262   5.714   6.711   2.804
 8107TIP3   OH224263   6.316   5.863   1.686
 8107TIP3    H124264   6.343   5.898   1.771
 8107TIP3    H224265   6.269   5.935   1.644
 8108TIP3   OH224266   2.238   1.828   1.939
 8108TIP3    H124267   2.263   1.758   1.877
 8108TIP3    H224268   2.322   1.862   1.971
 8109TIP3   OH224269   2.479   0.388   4.810
 8109TIP3    H124270   2.418   0.444   4.762
 8109TIP3    H224271   2.436   0.371   4.894
 8110TIP3   OH224272   4.119   0.822   0.655
 8110TIP3    H124273   4.084   0.746   0.702
 8110TIP3    H224274   4.198   0.845   0.704
 8111TIP3   OH224275   6.444   1.904   5.285
 8111TIP3    H124276   6.484   1.963   5.349
 8111TIP3    H224277   6.370   1.865   5.331
 8112TIP3   OH224278   6.881   0.501   4.725
 8112TIP3    H124279   6.915   0.432   4.669
 8112TIP3    H224280   6.837   0.455   4.796
 8113TIP3   OH224281   6.870   2.977   3.536
 8113TIP3    H124282   6.850   3.065   3.503
 8113TIP3    H224283   6.963   2.965   3.517
 8114TIP3   OH224284   5.993   4.389   2.775
 8114TIP3    H124285   5.971   4.296   2.782
 8114TIP3    H224286   5.928   4.434   2.828
 8115TIP3   OH224287   1.837   2.091   4.290
 8115TIP3    H124288   1.852   2.044   4.372
 8115TIP3    H224289   1.925   2.111   4.258
 8116TIP3   OH224290   4.912   6.719   6.223
 8116TIP3    H124291   4.872   6.778   6.287
 8116TIP3    H224292   4.879   6.748   6.138
 8117TIP3   OH224293   8.051   4.708   0.788
 8117TIP3    H124294   7.960   4.726   0.808
 8117TIP3    H224295   8.049   4.637   0.724
 8118TIP3   OH224296   3.424   6.963   3.475
 8118TIP3    H124297   3.455   6.892   3.419
 8118TIP3    H224298   3.363   7.012   3.420
 8119TIP3   OH224299   5.973   5.962   4.736
 8119TIP3    H124300   6.017   5.895   4.788
 8119TIP3    H224301   6.043   6.018   4.704
 8120TIP3   OH224302   1.093   1.619   6.282
 8120TIP3    H124303   1.168   1.575   6.243
 8120TIP3    H224304   1.092   1.706   6.241
 8121TIP3   OH224305   1.699   5.452   0.445
 8121TIP3    H124306   1.664   5.530   0.402
 8121TIP3    H224307   1.737   5.400   0.374
 8122TIP3   OH224308   0.768   0.917   1.820
 8122TIP3    H124309   0.788   0.907   1.727
 8122TIP3    H224310   0.854   0.922   1.862
 8123TIP3   OH224311   0.332   4.173   2.922
 8123TIP3    H124312   0.317   4.080   2.939
 8123TIP3    H224313   0.246   4.208   2.902
 8124TIP3   OH224314   3.822   5.964   5.159
 8124TIP3    H124315   3.820   5.987   5.252
 8124TIP3    H224316   3.875   5.885   5.156
 8125TIP3   OH224317   3.902   6.723   5.399
 8125TIP3    H124318   3.837   6.761   5.457
 8125TIP3    H224319   3.879   6.756   5.312
 8126TIP3   OH224320   2.077   1.854   3.201
 8126TIP3    H124321   2.096   1.777   3.147
 8126TIP3    H224322   2.097   1.928   3.144
 8127TIP3   OH224323   1.704   0.136   1.211
 8127TIP3    H124324   1.726   0.201   1.145
 8127TIP3    H224325   1.654   0.184   1.277
 8128TIP3   OH224326   1.572   0.353   4.695
 8128TIP3    H124327   1.567   0.293   4.769
 8128TIP3    H224328   1.642   0.319   4.640
 8129TIP3   OH224329   7.702   5.615   3.758
 8129TIP3    H124330   7.624   5.643   3.710
 8129TIP3    H224331   7.746   5.554   3.699
 8130TIP3   OH224332   2.254   3.321   0.061
 8130TIP3    H124333   2.242   3.387   0.129
 8130TIP3    H224334   2.253   3.238   0.107
 8131TIP3   OH224335   7.159   2.864   0.888
 8131TIP3    H124336   7.115   2.808   0.824
 8131TIP3    H224337   7.095   2.932   0.908
 8132TIP3   OH224338   2.447   3.799   1.553
 8132TIP3    H124339   2.447   3.717   1.603
 8132TIP3    H224340   2.397   3.779   1.474
 8133TIP3   OH224341   2.441   4.891   2.139
 8133TIP3    H124342   2.438   4.815   2.081
 8133TIP3    H224343   2.366   4.880   2.198
 8134TIP3   OH224344   2.545   1.001   6.432
 8134TIP3    H124345   2.498   0.985   6.351
 8134TIP3    H224346   2.525   1.092   6.455
 8135TIP3   OH224347   5.825   2.170   0.830
 8135TIP3    H124348   5.800   2.247   0.881
 8135TIP3    H224349   5.910   2.193   0.792
 8136TIP3   OH224350   5.892   0.655   5.498
 8136TIP3    H124351   5.830   0.714   5.455
 8136TIP3    H224352   5.838   0.601   5.555
 8137TIP3   OH224353   5.855   1.869   3.031
 8137TIP3    H124354   5.771   1.886   3.074
 8137TIP3    H224355   5.847   1.780   2.997
 8138TIP3   OH224356   1.799   3.426   4.562
 8138TIP3    H124357   1.888   3.452   4.583
 8138TIP3    H224358   1.800   3.414   4.467
 8139TIP3   OH224359   7.394   1.306   4.666
 8139TIP3    H124360   7.366   1.321   4.576
 8139TIP3    H224361   7.489   1.322   4.665
 8140TIP3   OH224362   0.944   5.784   4.093
 8140TIP3    H124363   0.861   5.830   4.081
 8140TIP3    H224364   1.010   5.841   4.054
 8141TIP3   OH224365   1.567   2.343   1.224
 8141TIP3    H124366   1.526   2.304   1.301
 8141TIP3    H224367   1.659   2.316   1.230
 8142TIP3   OH224368   4.168   2.282   3.666
 8142TIP3    H124369   4.135   2.210   3.612
 8142TIP3    H224370   4.263   2.275   3.659
 8143TIP3   OH224371   3.374   2.594   2.918
 8143TIP3    H124372   3.338   2.505   2.911
 8143TIP3    H224373   3.386   2.622   2.827
 8144TIP3   OH224374   5.980   5.978   4.029
 8144TIP3    H124375   6.020   5.903   4.073
 8144TIP3    H224376   5.962   5.947   3.940
 8145TIP3   OH224377   6.678   4.086   1.549
 8145TIP3    H124378   6.698   4.129   1.632
 8145TIP3    H224379   6.616   4.017   1.571
 8146TIP3   OH224380   3.186   6.761   5.790
 8146TIP3    H124381   3.139   6.735   5.711
 8146TIP3    H224382   3.118   6.769   5.857
 8147TIP3   OH224383   4.543   7.470   1.469
 8147TIP3    H124384   4.452   7.499   1.479
 8147TIP3    H224385   4.569   7.499   1.382
 8148TIP3   OH224386   8.164   5.741   2.254
 8148TIP3    H124387   8.188   5.792   2.177
 8148TIP3    H224388   8.155   5.651   2.221
 8149TIP3   OH224389   2.125   3.702   1.647
 8149TIP3    H124390   2.183   3.712   1.572
 8149TIP3    H224391   2.116   3.790   1.683
 8150TIP3   OH224392   2.479   3.926   5.950
 8150TIP3    H124393   2.431   3.986   5.894
 8150TIP3    H224394   2.539   3.880   5.891
 8151TIP3   OH224395   4.188   1.292   1.602
 8151TIP3    H124396   4.254   1.349   1.563
 8151TIP3    H224397   4.138   1.349   1.661
 8152TIP3   OH224398   2.328   7.443   5.857
 8152TIP3    H124399   2.300   7.521   5.810
 8152TIP3    H224400   2.419   7.430   5.831
 8153TIP3   OH224401   0.427   5.714   5.136
 8153TIP3    H124402   0.382   5.629   5.143
 8153TIP3    H224403   0.372   5.765   5.076
 8154TIP3   OH224404   3.587   2.885   0.308
 8154TIP3    H124405   3.663   2.940   0.326
 8154TIP3    H224406   3.561   2.850   0.393
 8155TIP3   OH224407   5.483   3.374   5.403
 8155TIP3    H124408   5.399   3.392   5.362
 8155TIP3    H224409   5.538   3.342   5.331
 8156TIP3   OH224410   4.243   7.480   2.215
 8156TIP3    H124411   4.254   7.522   2.301
 8156TIP3    H224412   4.205   7.549   2.160
 8157TIP3   OH224413   2.496   0.206   0.006
 8157TIP3    H124414   2.428   0.201  -0.061
 8157TIP3    H224415   2.473   0.138   0.069
 8158TIP3   OH224416   4.792   6.318   6.768
 8158TIP3    H124417   4.823   6.352   6.684
 8158TIP3    H224418   4.771   6.226   6.751
 8159TIP3   OH224419   1.798   4.805   3.209
 8159TIP3    H124420   1.794   4.841   3.120
 8159TIP3    H224421   1.772   4.877   3.265
 8160TIP3   OH224422   3.608   5.037   2.593
 8160TIP3    H124423   3.618   5.111   2.533
 8160TIP3    H224424   3.532   4.988   2.561
 8161TIP3   OH224425   5.929   2.261   5.592
 8161TIP3    H124426   6.019   2.230   5.581
 8161TIP3    H224427   5.932   2.314   5.672
 8162TIP3   OH224428   5.074   1.452   1.689
 8162TIP3    H124429   5.095   1.514   1.620
 8162TIP3    H224430   5.054   1.506   1.766
 8163TIP3   OH224431   5.026   6.801   2.330
 8163TIP3    H124432   5.024   6.856   2.409
 8163TIP3    H224433   4.996   6.859   2.260
 8164TIP3   OH224434   5.065   4.405   6.074
 8164TIP3    H124435   5.050   4.334   6.011
 8164TIP3    H224436   5.135   4.457   6.035
 8165TIP3   OH224437   7.691   6.214   5.296
 8165TIP3    H124438   7.770   6.256   5.263
 8165TIP3    H224439   7.620   6.273   5.271
 8166TIP3   OH224440   5.561   3.538   5.770
 8166TIP3    H124441   5.653   3.511   5.768
 8166TIP3    H224442   5.517   3.467   5.817
 8167TIP3   OH224443   6.807   0.454   6.465
 8167TIP3    H124444   6.834   0.533   6.418
 8167TIP3    H224445   6.803   0.482   6.557
 8168TIP3   OH224446   6.357   0.671   2.331
 8168TIP3    H124447   6.319   0.665   2.418
 8168TIP3    H224448   6.429   0.733   2.340
 8169TIP3   OH224449   0.913   4.352   6.580
 8169TIP3    H124450   0.979   4.417   6.603
 8169TIP3    H224451   0.961   4.286   6.531
 8170TIP3   OH224452   7.272   6.121   2.908
 8170TIP3    H124453   7.310   6.155   2.989
 8170TIP3    H224454   7.326   6.044   2.887
 8171TIP3   OH224455   0.637   2.365   1.398
 8171TIP3    H124456   0.705   2.423   1.364
 8171TIP3    H224457   0.566   2.423   1.426
 8172TIP3   OH224458   7.159   4.644   5.354
 8172TIP3    H124459   7.157   4.667   5.262
 8172TIP3    H224460   7.191   4.722   5.399
 8173TIP3   OH224461   3.404   7.393   2.858
 8173TIP3    H124462   3.416   7.312   2.809
 8173TIP3    H224463   3.492   7.430   2.865
 8174TIP3   OH224464   6.354   6.468   5.106
 8174TIP3    H124465   6.428   6.518   5.139
 8174TIP3    H224466   6.356   6.482   5.011
 8175TIP3   OH224467   7.342   3.687   4.402
 8175TIP3    H124468   7.251   3.668   4.380
 8175TIP3    H224469   7.373   3.739   4.327
 8176TIP3   OH224470   7.177   3.189   5.486
 8176TIP3    H124471   7.126   3.192   5.405
 8176TIP3    H224472   7.140   3.258   5.541
 8177TIP3   OH224473   1.657   6.923   3.778
 8177TIP3    H124474   1.743   6.960   3.797
 8177TIP3    H224475   1.601   6.999   3.761
 8178TIP3   OH224476   8.248   0.487   3.147
 8178TIP3    H124477   8.302   0.562   3.124
 8178TIP3    H224478   8.166   0.500   3.099
 8179TIP3   OH224479   6.308   3.866   4.510
 8179TIP3    H124480   6.385   3.879   4.566
 8179TIP3    H224481   6.269   3.953   4.502
 8180TIP3   OH224482   8.206   5.903   0.284
 8180TIP3    H124483   8.152   5.857   0.220
 8180TIP3    H224484   8.289   5.855   0.285
 8181TIP3   OH224485   3.853   3.723   1.487
 8181TIP3    H124486   3.822   3.741   1.398
 8181TIP3    H224487   3.824   3.798   1.538
 8182TIP3   OH224488   4.340   4.030   5.087
 8182TIP3    H124489   4.289   4.099   5.044
 8182TIP3    H224490   4.421   4.074   5.115
 8183TIP3   OH224491   0.718   7.650   2.261
 8183TIP3    H124492   0.774   7.575   2.241
 8183TIP3    H224493   0.720   7.658   2.356
 8184TIP3   OH224494   3.204   4.284   5.828
 8184TIP3    H124495   3.293   4.307   5.855
 8184TIP3    H224496   3.182   4.207   5.879
 8185TIP3   OH224497   5.426   1.615   5.455
 8185TIP3    H124498   5.418   1.590   5.547
 8185TIP3    H224499   5.484   1.549   5.417
 8186TIP3   OH224500   2.887   6.092   1.315
 8186TIP3    H124501   2.885   6.001   1.344
 8186TIP3    H224502   2.833   6.139   1.379
 8187TIP3   OH224503   1.331   7.252   6.584
 8187TIP3    H124504   1.400   7.317   6.570
 8187TIP3    H224505   1.293   7.274   6.668
 8188TIP3   OH224506   3.017   6.917   4.221
 8188TIP3    H124507   3.104   6.898   4.255
 8188TIP3    H224508   2.982   6.984   4.280
 8189TIP3   OH224509   0.060   5.045   1.399
 8189TIP3    H124510  -0.034   5.032   1.388
 8189TIP3    H224511   0.096   4.957   1.408
 8190TIP3   OH224512   3.166   7.741   0.130
 8190TIP3    H124513   3.214   7.787   0.060
 8190TIP3    H224514   3.142   7.811   0.192
 8191TIP3   OH224515   1.281   6.892   6.281
 8191TIP3    H124516   1.321   6.835   6.217
 8191TIP3    H224517   1.319   6.978   6.265
 8192TIP3   OH224518   3.461   7.505   4.875
 8192TIP3    H124519   3.381   7.456   4.896
 8192TIP3    H224520   3.529   7.438   4.866
 8193TIP3   OH224521   8.164   1.183   3.281
 8193TIP3    H124522   8.134   1.094   3.297
 8193TIP3    H224523   8.256   1.183   3.308
 8194TIP3   OH224524   0.566   3.480   4.678
 8194TIP3    H124525   0.561   3.393   4.718
 8194TIP3    H224526   0.648   3.516   4.710
 8195TIP3   OH224527   2.977   2.649   1.360
 8195TIP3    H124528   3.022   2.565   1.372
 8195TIP3    H224529   2.957   2.678   1.449
 8196TIP3   OH224530   0.479   2.276   4.305
 8196TIP3    H124531   0.481   2.364   4.344
 8196TIP3    H224532   0.480   2.292   4.211
 8197TIP3   OH224533   5.383   0.959   4.996
 8197TIP3    H124534   5.430   0.901   4.935
 8197TIP3    H224535   5.306   0.987   4.946
 8198TIP3   OH224536   0.045   5.525   3.180
 8198TIP3    H124537   0.046   5.579   3.101
 8198TIP3    H224538   0.091   5.577   3.246
 8199TIP3   OH224539   1.300   3.609   2.509
 8199TIP3    H124540   1.393   3.587   2.505
 8199TIP3    H224541   1.262   3.542   2.566
 8200TIP3   OH224542   6.357   0.523   3.379
 8200TIP3    H124543   6.301   0.459   3.423
 8200TIP3    H224544   6.314   0.538   3.294
 8201TIP3   OH224545   2.368   5.268   0.275
 8201TIP3    H124546   2.381   5.259   0.370
 8201TIP3    H224547   2.456   5.284   0.241
 8202TIP3   OH224548   4.804   7.567   4.558
 8202TIP3    H124549   4.796   7.491   4.501
 8202TIP3    H224550   4.714   7.586   4.587
 8203TIP3   OH224551   7.148   3.116   4.598
 8203TIP3    H124552   7.159   3.125   4.693
 8203TIP3    H224553   7.233   3.140   4.562
 8204TIP3   OH224554   3.997   5.349   3.778
 8204TIP3    H124555   3.935   5.329   3.708
 8204TIP3    H224556   3.951   5.324   3.859
 8205TIP3   OH224557   1.425   2.201   2.519
 8205TIP3    H124558   1.434   2.258   2.443
 8205TIP3    H224559   1.350   2.146   2.499
 8206TIP3   OH224560   4.095   6.464   2.645
 8206TIP3    H124561   4.089   6.388   2.588
 8206TIP3    H224562   4.162   6.441   2.709
 8207TIP3   OH224563   0.131   2.143   4.227
 8207TIP3    H124564   0.123   2.212   4.162
 8207TIP3    H224565   0.099   2.183   4.308
 8208TIP3   OH224566   2.371   5.759   1.126
 8208TIP3    H124567   2.290   5.712   1.147
 8208TIP3    H224568   2.395   5.801   1.209
 8209TIP3   OH224569   6.966   2.685   0.753
 8209TIP3    H124570   7.033   2.634   0.799
 8209TIP3    H224571   6.943   2.632   0.677
 8210TIP3   OH224572   2.994   2.402   0.374
 8210TIP3    H124573   2.946   2.463   0.317
 8210TIP3    H224574   3.072   2.450   0.400
 8211TIP3   OH224575   4.437   7.652   5.107
 8211TIP3    H124576   4.467   7.580   5.051
 8211TIP3    H224577   4.498   7.723   5.089
 8212TIP3   OH224578   3.531   0.947   5.288
 8212TIP3    H124579   3.603   1.001   5.323
 8212TIP3    H224580   3.452   0.989   5.321
 8213TIP3   OH224581   4.973   5.716   5.353
 8213TIP3    H124582   4.886   5.755   5.343
 8213TIP3    H224583   4.956   5.623   5.366
 8214TIP3   OH224584   6.548   2.577   4.046
 8214TIP3    H124585   6.622   2.548   3.994
 8214TIP3    H224586   6.556   2.530   4.129
 8215TIP3   OH224587   2.438   5.668   0.824
 8215TIP3    H124588   2.475   5.585   0.853
 8215TIP3    H224589   2.356   5.676   0.872
 8216TIP3   OH224590   3.304   1.618   1.656
 8216TIP3    H124591   3.286   1.676   1.730
 8216TIP3    H224592   3.219   1.582   1.632
 8217TIP3   OH224593   2.428   7.665   3.051
 8217TIP3    H124594   2.487   7.710   3.110
 8217TIP3    H224595   2.463   7.576   3.045
 8218TIP3   OH224596   2.620   4.358   5.331
 8218TIP3    H124597   2.634   4.400   5.246
 8218TIP3    H224598   2.708   4.340   5.364
 8219TIP3   OH224599   5.983   2.079   2.917
 8219TIP3    H124600   6.059   2.028   2.945
 8219TIP3    H224601   5.907   2.031   2.951
 8220TIP3   OH224602   3.466   5.575   1.806
 8220TIP3    H124603   3.373   5.590   1.824
 8220TIP3    H224604   3.466   5.517   1.730
 8221TIP3   OH224605   6.266   0.388   3.024
 8221TIP3    H124606   6.231   0.323   3.085
 8221TIP3    H224607   6.243   0.472   3.062
 8222TIP3   OH224608   6.267   7.687   2.029
 8222TIP3    H124609   6.180   7.647   2.029
 8222TIP3    H224610   6.327   7.613   2.016
 8223TIP3   OH224611   3.095   3.072   0.258
 8223TIP3    H124612   3.072   3.059   0.350
 8223TIP3    H224613   3.169   3.013   0.243
 8224TIP3   OH224614   3.992   3.037   6.020
 8224TIP3    H124615   4.030   3.115   5.980
 8224TIP3    H224616   3.915   3.018   5.967
 8225TIP3   OH224617   2.718   2.302   5.659
 8225TIP3    H124618   2.690   2.226   5.710
 8225TIP3    H224619   2.665   2.374   5.693
 8226TIP3   OH224620   2.219   1.744   1.305
 8226TIP3    H124621   2.135   1.701   1.293
 8226TIP3    H224622   2.280   1.672   1.323
 8227TIP3   OH224623   6.772   5.915   3.034
 8227TIP3    H124624   6.729   5.969   3.100
 8227TIP3    H224625   6.834   5.975   2.991
 8228TIP3   OH224626   1.258   4.566   0.268
 8228TIP3    H124627   1.320   4.633   0.295
 8228TIP3    H224628   1.313   4.494   0.236
 8229TIP3   OH224629   3.744   2.600   5.740
 8229TIP3    H124630   3.810   2.659   5.778
 8229TIP3    H224631   3.722   2.541   5.811
 8230TIP3   OH224632   6.090   7.502   6.271
 8230TIP3    H124633   6.027   7.430   6.264
 8230TIP3    H224634   6.170   7.460   6.305
 8231TIP3   OH224635   8.184   7.607   1.993
 8231TIP3    H124636   8.141   7.563   1.920
 8231TIP3    H224637   8.238   7.540   2.033
 8232TIP3   OH224638   0.997   6.451   3.371
 8232TIP3    H124639   0.982   6.526   3.428
 8232TIP3    H224640   0.976   6.375   3.426
 8233TIP3   OH224641   5.637   0.837   0.160
 8233TIP3    H124642   5.646   0.746   0.187
 8233TIP3    H224643   5.555   0.840   0.111
 8234TIP3   OH224644   4.331   3.885   2.894
 8234TIP3    H124645   4.278   3.831   2.953
 8234TIP3    H224646   4.419   3.882   2.932
 8235TIP3   OH224647   0.539   4.339   0.329
 8235TIP3    H124648   0.621   4.293   0.345
 8235TIP3    H224649   0.518   4.318   0.238
 8236TIP3   OH224650   6.229   2.167   4.906
 8236TIP3    H124651   6.158   2.126   4.956
 8236TIP3    H224652   6.303   2.169   4.967
 8237TIP3   OH224653   6.439   5.644   1.520
 8237TIP3    H124654   6.343   5.643   1.517
 8237TIP3    H224655   6.462   5.733   1.547
 8238TIP3   OH224656   6.419   3.803   1.438
 8238TIP3    H124657   6.370   3.723   1.457
 8238TIP3    H224658   6.483   3.777   1.372
 8239TIP3   OH224659   3.757   7.449   3.301
 8239TIP3    H124660   3.796   7.380   3.248
 8239TIP3    H224661   3.672   7.465   3.261
 8240TIP3   OH224662   5.450   2.284   6.601
 8240TIP3    H124663   5.385   2.259   6.536
 8240TIP3    H224664   5.522   2.321   6.550
 8241TIP3   OH224665   0.970   1.973   1.649
 8241TIP3    H124666   0.978   2.066   1.669
 8241TIP3    H224667   1.019   1.962   1.568
 8242TIP3   OH224668   2.895   2.334   3.494
 8242TIP3    H124669   2.944   2.306   3.571
 8242TIP3    H224670   2.822   2.386   3.530
 8243TIP3   OH224671   4.421   5.046   2.038
 8243TIP3    H124672   4.509   5.064   2.072
 8243TIP3    H224673   4.414   4.951   2.040
 8244TIP3   OH224674   3.146   6.780   3.649
 8244TIP3    H124675   3.177   6.704   3.698
 8244TIP3    H224676   3.114   6.743   3.566
 8245TIP3   OH224677   0.553   7.421   1.921
 8245TIP3    H124678   0.591   7.484   1.859
 8245TIP3    H224679   0.576   7.335   1.886
 8246TIP3   OH224680   3.849   5.373   4.895
 8246TIP3    H124681   3.796   5.295   4.906
 8246TIP3    H224682   3.857   5.409   4.983
 8247TIP3   OH224683   1.192   3.835   1.072
 8247TIP3    H124684   1.258   3.771   1.043
 8247TIP3    H224685   1.181   3.818   1.165
 8248TIP3   OH224686   7.277   3.081   0.182
 8248TIP3    H124687   7.338   3.049   0.116
 8248TIP3    H224688   7.230   3.003   0.211
 8249TIP3   OH224689   7.822   2.587   6.188
 8249TIP3    H124690   7.769   2.658   6.223
 8249TIP3    H224691   7.794   2.509   6.237
 8250TIP3   OH224692   0.306   2.833   5.097
 8250TIP3    H124693   0.339   2.903   5.153
 8250TIP3    H224694   0.380   2.773   5.088
 8251TIP3   OH224695   2.697   3.790   4.450
 8251TIP3    H124696   2.691   3.864   4.389
 8251TIP3    H224697   2.674   3.713   4.396
 8252TIP3   OH224698   2.937   2.155   0.265
 8252TIP3    H124699   2.949   2.244   0.299
 8252TIP3    H224700   3.005   2.104   0.308
 8253TIP3   OH224701   0.928   5.622   5.463
 8253TIP3    H124702   0.961   5.683   5.397
 8253TIP3    H224703   0.833   5.625   5.453
 8254TIP3   OH224704   7.985   7.380   1.528
 8254TIP3    H124705   7.910   7.414   1.578
 8254TIP3    H224706   7.945   7.334   1.454
 8255TIP3   OH224707   2.084   2.953   1.138
 8255TIP3    H124708   2.001   2.915   1.167
 8255TIP3    H224709   2.151   2.903   1.185
 8256TIP3   OH224710   2.454   0.305   1.711
 8256TIP3    H124711   2.471   0.398   1.721
 8256TIP3    H224712   2.414   0.279   1.794
 8257TIP3   OH224713   7.652   7.787   6.693
 8257TIP3    H124714   7.711   7.787   6.617
 8257TIP3    H224715   7.623   7.877   6.701
 8258TIP3   OH224716   7.877   4.448   6.488
 8258TIP3    H124717   7.911   4.390   6.421
 8258TIP3    H224718   7.787   4.468   6.460
 8259TIP3   OH224719   6.762   7.183   4.282
 8259TIP3    H124720   6.755   7.152   4.372
 8259TIP3    H224721   6.740   7.276   4.287
 8260TIP3   OH224722   1.116   4.823   1.393
 8260TIP3    H124723   1.194   4.868   1.425
 8260TIP3    H224724   1.077   4.884   1.331
 8261TIP3   OH224725   2.852   7.210   0.696
 8261TIP3    H124726   2.809   7.242   0.617
 8261TIP3    H224727   2.806   7.128   0.716
 8262TIP3   OH224728   6.975   5.671   2.141
 8262TIP3    H124729   7.051   5.720   2.172
 8262TIP3    H224730   7.010   5.588   2.110
 8263TIP3   OH224731   7.684   0.101   5.521
 8263TIP3    H124732   7.625   0.075   5.450
 8263TIP3    H224733   7.647   0.059   5.599
 8264TIP3   OH224734   7.803   2.729   4.217
 8264TIP3    H124735   7.832   2.791   4.149
 8264TIP3    H224736   7.858   2.652   4.204
 8265TIP3   OH224737   4.865   1.701   5.831
 8265TIP3    H124738   4.815   1.671   5.907
 8265TIP3    H224739   4.800   1.708   5.761
 8266TIP3   OH224740   8.106   1.837   1.680
 8266TIP3    H124741   8.175   1.784   1.720
 8266TIP3    H224742   8.153   1.902   1.628
 8267TIP3   OH224743   6.290   2.458   2.143
 8267TIP3    H124744   6.263   2.437   2.054
 8267TIP3    H224745   6.384   2.438   2.145
 8268TIP3   OH224746   5.362   6.998   0.860
 8268TIP3    H124747   5.326   7.065   0.917
 8268TIP3    H224748   5.381   7.044   0.778
 8269TIP3   OH224749   0.610   7.221   0.084
 8269TIP3    H124750   0.671   7.165   0.035
 8269TIP3    H224751   0.611   7.186   0.173
 8270TIP3   OH224752   5.686   6.766   2.994
 8270TIP3    H124753   5.608   6.810   3.029
 8270TIP3    H224754   5.758   6.827   3.010
 8271TIP3   OH224755   2.011   6.489   6.067
 8271TIP3    H124756   2.101   6.460   6.080
 8271TIP3    H224757   1.964   6.457   6.145
 8272TIP3   OH224758   1.000   6.231   3.562
 8272TIP3    H124759   0.966   6.177   3.634
 8272TIP3    H224760   1.050   6.169   3.507
 8273TIP3   OH224761   6.790   7.735   3.935
 8273TIP3    H124762   6.810   7.791   4.010
 8273TIP3    H224763   6.857   7.757   3.870
 8274TIP3   OH224764   6.538   6.092   6.146
 8274TIP3    H124765   6.457   6.125   6.108
 8274TIP3    H224766   6.532   5.997   6.139
 8275TIP3   OH224767   2.400   2.322   5.947
 8275TIP3    H124768   2.379   2.409   5.911
 8275TIP3    H224769   2.493   2.327   5.968
 8276TIP3   OH224770   6.321   0.386   0.077
 8276TIP3    H124771   6.338   0.384  -0.017
 8276TIP3    H224772   6.361   0.468   0.107
 8277TIP3   OH224773   1.898   0.378   3.731
 8277TIP3    H124774   1.902   0.306   3.794
 8277TIP3    H224775   1.985   0.419   3.736
 8278TIP3   OH224776   1.347   5.136   2.152
 8278TIP3    H124777   1.297   5.132   2.233
 8278TIP3    H224778   1.299   5.079   2.092
 8279TIP3   OH224779   5.443   7.284   6.524
 8279TIP3    H124780   5.411   7.231   6.451
 8279TIP3    H224781   5.363   7.313   6.569
 8280TIP3   OH224782   5.132   6.158   2.518
 8280TIP3    H124783   5.122   6.213   2.596
 8280TIP3    H224784   5.226   6.138   2.515
 8281TIP3   OH224785   7.684   1.185   1.382
 8281TIP3    H124786   7.664   1.187   1.476
 8281TIP3    H224787   7.598   1.182   1.340
 8282TIP3   OH224788   4.283   2.107   0.274
 8282TIP3    H124789   4.357   2.135   0.219
 8282TIP3    H224790   4.261   2.020   0.241
 8283TIP3   OH224791   5.037   4.572   4.988
 8283TIP3    H124792   5.107   4.537   5.044
 8283TIP3    H224793   5.077   4.647   4.945
 8284TIP3   OH224794   6.484   3.116   1.594
 8284TIP3    H124795   6.549   3.166   1.544
 8284TIP3    H224796   6.486   3.029   1.554
 8285TIP3   OH224797   3.539   0.510   0.105
 8285TIP3    H124798   3.510   0.597   0.077
 8285TIP3    H224799   3.618   0.527   0.156
 8286TIP3   OH224800   1.833   1.333   1.037
 8286TIP3    H124801   1.877   1.267   0.983
 8286TIP3    H224802   1.804   1.400   0.975
 8287TIP3   OH224803   3.511   3.230   5.615
 8287TIP3    H124804   3.465   3.167   5.560
 8287TIP3    H224805   3.465   3.226   5.699
 8288TIP3   OH224806   7.476   4.885   1.051
 8288TIP3    H124807   7.407   4.829   1.085
 8288TIP3    H224808   7.430   4.955   1.005
 8289TIP3   OH224809   2.392   4.951   1.823
 8289TIP3    H124810   2.318   4.920   1.875
 8289TIP3    H224811   2.469   4.920   1.871
 8290TIP3   OH224812   5.628   2.879   2.193
 8290TIP3    H124813   5.698   2.851   2.135
 8290TIP3    H224814   5.638   2.825   2.271
 8291TIP3   OH224815   0.384   6.713   4.811
 8291TIP3    H124816   0.396   6.776   4.740
 8291TIP3    H224817   0.308   6.661   4.783
 8292TIP3   OH224818   4.156   1.917   2.208
 8292TIP3    H124819   4.161   1.984   2.276
 8292TIP3    H224820   4.246   1.885   2.199
 8293TIP3   OH224821   4.989   3.761   1.580
 8293TIP3    H124822   4.932   3.686   1.561
 8293TIP3    H224823   5.077   3.732   1.555
 8294TIP3   OH224824   1.792   2.262   2.884
 8294TIP3    H124825   1.782   2.352   2.853
 8294TIP3    H224826   1.734   2.211   2.828
 8295TIP3   OH224827   6.029   2.477   3.525
 8295TIP3    H124828   6.002   2.536   3.454
 8295TIP3    H224829   6.107   2.434   3.492
 8296TIP3   OH224830   5.607   5.291   0.260
 8296TIP3    H124831   5.637   5.381   0.264
 8296TIP3    H224832   5.527   5.290   0.314
 8297TIP3   OH224833   2.487   1.807   5.099
 8297TIP3    H124834   2.573   1.782   5.063
 8297TIP3    H224835   2.486   1.902   5.095
 8298TIP3   OH224836   4.989   5.797   2.976
 8298TIP3    H124837   5.018   5.881   2.940
 8298TIP3    H224838   5.068   5.757   3.012
 8299TIP3   OH224839   3.789   1.025   0.172
 8299TIP3    H124840   3.782   1.093   0.105
 8299TIP3    H224841   3.803   1.072   0.254
 8300TIP3   OH224842   4.645   0.206   4.194
 8300TIP3    H124843   4.685   0.285   4.159
 8300TIP3    H224844   4.634   0.149   4.118
 8301TIP3   OH224845   5.165   3.824   5.085
 8301TIP3    H124846   5.186   3.860   4.999
 8301TIP3    H224847   5.232   3.757   5.100
 8302TIP3   OH224848   4.845   3.230   6.250
 8302TIP3    H124849   4.880   3.235   6.339
 8302TIP3    H224850   4.873   3.312   6.209
 8303TIP3   OH224851   1.120   4.489   0.491
 8303TIP3    H124852   1.168   4.540   0.426
 8303TIP3    H224853   1.186   4.467   0.557
 8304TIP3   OH224854   5.297   5.473   1.399
 8304TIP3    H124855   5.231   5.520   1.450
 8304TIP3    H224856   5.377   5.525   1.410
 8305TIP3   OH224857   4.222   7.698   2.787
 8305TIP3    H124858   4.237   7.678   2.694
 8305TIP3    H224859   4.131   7.728   2.791
 8306TIP3   OH224860   7.883   6.509   6.108
 8306TIP3    H124861   7.868   6.509   6.013
 8306TIP3    H224862   7.931   6.428   6.125
 8307TIP3   OH224863   0.483   5.604   3.026
 8307TIP3    H124864   0.558   5.648   3.067
 8307TIP3    H224865   0.455   5.664   2.957
 8308TIP3   OH224866   1.600   5.859   6.560
 8308TIP3    H124867   1.650   5.840   6.639
 8308TIP3    H224868   1.513   5.823   6.578
 8309TIP3   OH224869   5.955   3.945   2.451
 8309TIP3    H124870   6.007   3.957   2.372
 8309TIP3    H224871   5.937   3.851   2.454
 8310TIP3   OH224872   2.546   2.773   2.128
 8310TIP3    H124873   2.549   2.809   2.039
 8310TIP3    H224874   2.632   2.791   2.164
 8311TIP3   OH224875   1.836   2.951   6.676
 8311TIP3    H124876   1.769   2.904   6.626
 8311TIP3    H224877   1.815   2.932   6.767
 8312TIP3   OH224878   1.918   7.837   3.678
 8312TIP3    H124879   1.946   7.749   3.652
 8312TIP3    H224880   1.952   7.895   3.609
 8313TIP3   OH224881   4.197   7.633   4.238
 8313TIP3    H124882   4.214   7.576   4.163
 8313TIP3    H224883   4.105   7.617   4.259
 8314TIP3   OH224884   3.437   7.191   3.313
 8314TIP3    H124885   3.486   7.268   3.342
 8314TIP3    H224886   3.467   7.176   3.223
 8315TIP3   OH224887   1.303   2.097   4.116
 8315TIP3    H124888   1.320   2.144   4.035
 8315TIP3    H224889   1.387   2.059   4.140
 8316TIP3   OH224890   6.381   6.878   0.094
 8316TIP3    H124891   6.417   6.925   0.019
 8316TIP3    H224892   6.295   6.916   0.108
 8317TIP3   OH224893   1.251   1.610   3.209
 8317TIP3    H124894   1.188   1.679   3.188
 8317TIP3    H224895   1.231   1.586   3.300
 8318TIP3   OH224896   2.988   3.167   1.659
 8318TIP3    H124897   3.036   3.233   1.708
 8318TIP3    H224898   3.030   3.084   1.682
 8319TIP3   OH224899   3.207   1.108   6.063
 8319TIP3    H124900   3.229   1.075   6.150
 8319TIP3    H224901   3.136   1.050   6.033
 8320TIP3   OH224902   3.274   1.477   1.144
 8320TIP3    H124903   3.356   1.437   1.174
 8320TIP3    H224904   3.299   1.526   1.066
 8321TIP3   OH224905   5.428   1.876   5.609
 8321TIP3    H124906   5.480   1.838   5.680
 8321TIP3    H224907   5.444   1.819   5.534
 8322TIP3   OH224908   5.500   2.206   3.722
 8322TIP3    H124909   5.489   2.198   3.817
 8322TIP3    H224910   5.485   2.298   3.704
 8323TIP3   OH224911   8.094   2.012   2.533
 8323TIP3    H124912   8.001   1.995   2.542
 8323TIP3    H224913   8.128   2.006   2.623
 8324TIP3   OH224914   5.185   4.210   1.134
 8324TIP3    H124915   5.262   4.171   1.093
 8324TIP3    H224916   5.111   4.168   1.091
 8325TIP3   OH224917   6.831   4.241   1.986
 8325TIP3    H124918   6.829   4.282   1.899
 8325TIP3    H224919   6.813   4.148   1.969
 8326TIP3   OH224920   4.832   0.219   5.848
 8326TIP3    H124921   4.863   0.292   5.794
 8326TIP3    H224922   4.906   0.159   5.853
 8327TIP3   OH224923   2.801   5.228   2.985
 8327TIP3    H124924   2.856   5.179   3.046
 8327TIP3    H224925   2.790   5.170   2.909
 8328TIP3   OH224926   4.640   3.730   3.250
 8328TIP3    H124927   4.629   3.642   3.285
 8328TIP3    H224928   4.583   3.733   3.173
 8329TIP3   OH224929   5.194   2.154   2.229
 8329TIP3    H124930   5.165   2.138   2.319
 8329TIP3    H224931   5.169   2.074   2.182
 8330TIP3   OH224932   1.491   6.855   5.683
 8330TIP3    H124933   1.524   6.875   5.770
 8330TIP3    H224934   1.441   6.774   5.694
 8331TIP3   OH224935   4.101   3.853   0.766
 8331TIP3    H124936   4.096   3.878   0.858
 8331TIP3    H224937   4.194   3.863   0.744
 8332TIP3   OH224938   0.256   0.538   3.313
 8332TIP3    H124939   0.167   0.552   3.280
 8332TIP3    H224940   0.302   0.620   3.294
 8333TIP3   OH224941   1.154   7.397   5.363
 8333TIP3    H124942   1.158   7.301   5.368
 8333TIP3    H224943   1.079   7.421   5.417
 8334TIP3   OH224944   2.999   4.878   2.893
 8334TIP3    H124945   3.042   4.940   2.952
 8334TIP3    H224946   2.936   4.931   2.845
 8335TIP3   OH224947   6.948   3.958   3.653
 8335TIP3    H124948   7.002   3.988   3.726
 8335TIP3    H224949   6.967   3.864   3.646
 8336TIP3   OH224950   0.560   3.951   6.674
 8336TIP3    H124951   0.528   3.892   6.605
 8336TIP3    H224952   0.645   3.916   6.699
 8337TIP3   OH224953   6.509   0.455   4.801
 8337TIP3    H124954   6.602   0.437   4.819
 8337TIP3    H224955   6.510   0.535   4.749
 8338TIP3   OH224956   2.681   4.249   2.637
 8338TIP3    H124957   2.768   4.279   2.608
 8338TIP3    H224958   2.699   4.170   2.689
 8339TIP3   OH224959   5.631   3.613   0.730
 8339TIP3    H124960   5.656   3.705   0.738
 8339TIP3    H224961   5.701   3.574   0.678
 8340TIP3   OH224962   6.071   1.481   3.922
 8340TIP3    H124963   5.991   1.471   3.871
 8340TIP3    H224964   6.079   1.398   3.970
 8341TIP3   OH224965   2.791   2.890   2.216
 8341TIP3    H124966   2.809   2.916   2.126
 8341TIP3    H224967   2.867   2.919   2.266
 8342TIP3   OH224968   4.108   6.890   5.483
 8342TIP3    H124969   4.043   6.823   5.461
 8342TIP3    H224970   4.105   6.951   5.409
 8343TIP3   OH224971   0.762   5.946   3.867
 8343TIP3    H124972   0.721   5.940   3.781
 8343TIP3    H224973   0.690   5.940   3.929
 8344TIP3   OH224974   4.041   7.656   0.722
 8344TIP3    H124975   4.087   7.611   0.651
 8344TIP3    H224976   4.104   7.655   0.795
 8345TIP3   OH224977   4.754   5.742   1.847
 8345TIP3    H124978   4.692   5.735   1.920
 8345TIP3    H224979   4.825   5.796   1.881
 8346TIP3   OH224980   8.020   5.483   2.208
 8346TIP3    H124981   8.004   5.388   2.209
 8346TIP3    H224982   8.014   5.507   2.115
 8347TIP3   OH224983   3.015   5.453   3.091
 8347TIP3    H124984   3.063   5.370   3.090
 8347TIP3    H224985   3.083   5.520   3.079
 8348TIP3   OH224986   5.100   2.432   2.997
 8348TIP3    H124987   5.085   2.518   3.036
 8348TIP3    H224988   5.027   2.379   3.028
 8349TIP3   OH224989   7.400   3.506   3.536
 8349TIP3    H124990   7.335   3.535   3.473
 8349TIP3    H224991   7.376   3.415   3.556
 8350TIP3   OH224992   1.214   4.921   1.062
 8350TIP3    H124993   1.205   4.955   0.973
 8350TIP3    H224994   1.137   4.864   1.072
 8351TIP3   OH224995   3.142   0.254   1.242
 8351TIP3    H124996   3.184   0.174   1.272
 8351TIP3    H224997   3.193   0.281   1.166
 8352TIP3   OH224998   5.618   4.329   6.090
 8352TIP3    H124999   5.589   4.391   6.157
 8352TIP3    H225000   5.541   4.276   6.071
 8353TIP3   OH225001   7.436   4.922   2.950
 8353TIP3    H125002   7.366   4.857   2.949
 8353TIP3    H225003   7.468   4.924   2.860
 8354TIP3   OH225004   6.223   0.873   6.524
 8354TIP3    H125005   6.143   0.839   6.482
 8354TIP3    H225006   6.195   0.955   6.565
 8355TIP3   OH225007   4.287   6.246   6.075
 8355TIP3    H125008   4.337   6.276   5.998
 8355TIP3    H225009   4.317   6.303   6.145
 8356TIP3   OH225010   0.983   6.062   3.773
 8356TIP3    H125011   1.059   6.005   3.756
 8356TIP3    H225012   0.918   6.003   3.811
 8357TIP3   OH225013   1.192   3.601   5.754
 8357TIP3    H125014   1.125   3.586   5.820
 8357TIP3    H225015   1.169   3.684   5.714
 8358TIP3   OH225016   2.893   6.021   3.740
 8358TIP3    H125017   2.878   6.066   3.656
 8358TIP3    H225018   2.976   5.974   3.727
 8359TIP3   OH225019   7.510   2.826   5.748
 8359TIP3    H125020   7.562   2.757   5.707
 8359TIP3    H225021   7.492   2.888   5.677
 8360TIP3   OH225022   7.073   4.764   0.709
 8360TIP3    H125023   7.042   4.687   0.661
 8360TIP3    H225024   7.002   4.786   0.769
 8361TIP3   OH225025   6.473   6.088   5.148
 8361TIP3    H125026   6.491   5.994   5.148
 8361TIP3    H225027   6.482   6.115   5.239
 8362TIP3   OH225028   0.225   1.533   1.004
 8362TIP3    H125029   0.209   1.458   1.062
 8362TIP3    H225030   0.319   1.550   1.011
 8363TIP3   OH225031   0.553   6.269   0.576
 8363TIP3    H125032   0.645   6.273   0.549
 8363TIP3    H225033   0.530   6.360   0.595
 8364TIP3   OH225034   3.617   6.986   3.965
 8364TIP3    H125035   3.571   6.960   4.044
 8364TIP3    H225036   3.602   6.915   3.903
 8365TIP3   OH225037   6.855   4.276   4.567
 8365TIP3    H125038   6.837   4.199   4.514
 8365TIP3    H225039   6.864   4.347   4.504
 8366TIP3   OH225040   7.291   2.387   0.379
 8366TIP3    H125041   7.278   2.314   0.440
 8366TIP3    H225042   7.378   2.371   0.342
 8367TIP3   OH225043   5.234   6.505   3.707
 8367TIP3    H125044   5.244   6.410   3.716
 8367TIP3    H225045   5.199   6.533   3.792
 8368TIP3   OH225046   7.964   5.976   2.223
 8368TIP3    H125047   7.930   5.979   2.313
 8368TIP3    H225048   8.004   5.889   2.215
 8369TIP3   OH225049   7.529   2.599   0.565
 8369TIP3    H125050   7.617   2.615   0.531
 8369TIP3    H225051   7.472   2.606   0.488
 8370TIP3   OH225052   7.937   3.841   3.889
 8370TIP3    H125053   8.016   3.788   3.876
 8370TIP3    H225054   7.893   3.838   3.804
 8371TIP3   OH225055   6.113   4.607   0.527
 8371TIP3    H125056   6.100   4.701   0.543
 8371TIP3    H225057   6.101   4.566   0.612
 8372TIP3   OH225058   6.784   2.536   3.530
 8372TIP3    H125059   6.834   2.596   3.585
 8372TIP3    H225060   6.752   2.591   3.458
 8373TIP3   OH225061   6.935   2.708   0.148
 8373TIP3    H125062   6.864   2.670   0.200
 8373TIP3    H225063   7.014   2.688   0.198
 8374TIP3   OH225064   4.820   7.312   4.445
 8374TIP3    H125065   4.899   7.340   4.397
 8374TIP3    H225066   4.844   7.228   4.483
 8375TIP3   OH225067   5.864   4.241   1.923
 8375TIP3    H125068   5.952   4.272   1.900
 8375TIP3    H225069   5.871   4.214   2.014
 8376TIP3   OH225070   6.640   6.802   3.864
 8376TIP3    H125071   6.625   6.711   3.836
 8376TIP3    H225072   6.567   6.851   3.825
 8377TIP3   OH225073   1.637   6.077   2.876
 8377TIP3    H125074   1.614   6.106   2.964
 8377TIP3    H225075   1.575   6.006   2.857
 8378TIP3   OH225076   1.684   0.651   1.748
 8378TIP3    H125077   1.635   0.577   1.714
 8378TIP3    H225078   1.721   0.694   1.671
 8379TIP3   OH225079   4.138   4.967   1.077
 8379TIP3    H125080   4.077   5.027   1.035
 8379TIP3    H225081   4.114   4.881   1.042
 8380TIP3   OH225082   4.767   1.819   2.719
 8380TIP3    H125083   4.680   1.826   2.679
 8380TIP3    H225084   4.811   1.750   2.670
 8381TIP3   OH225085   1.271   6.918   5.445
 8381TIP3    H125086   1.212   6.993   5.442
 8381TIP3    H225087   1.355   6.954   5.474
 8382TIP3   OH225088   7.159   0.097   3.272
 8382TIP3    H125089   7.088   0.053   3.319
 8382TIP3    H225090   7.208   0.025   3.231
 8383TIP3   OH225091   1.227   0.946   4.004
 8383TIP3    H125092   1.169   0.992   3.944
 8383TIP3    H225093   1.204   0.854   3.994
 8384TIP3   OH225094   2.303   6.729   4.879
 8384TIP3    H125095   2.245   6.653   4.874
 8384TIP3    H225096   2.389   6.692   4.895
 8385TIP3   OH225097   2.005   2.951   1.738
 8385TIP3    H125098   2.095   2.921   1.722
 8385TIP3    H225099   1.968   2.961   1.650
 8386TIP3   OH225100   5.083   3.854   5.413
 8386TIP3    H125101   5.173   3.878   5.390
 8386TIP3    H225102   5.087   3.761   5.435
 8387TIP3   OH225103   3.232   1.389   2.330
 8387TIP3    H125104   3.291   1.416   2.259
 8387TIP3    H225105   3.286   1.333   2.385
 8388TIP3   OH225106   1.675   0.945   3.328
 8388TIP3    H125107   1.746   0.962   3.267
 8388TIP3    H225108   1.623   0.875   3.287
 8389TIP3   OH225109   1.708   3.725   5.384
 8389TIP3    H125110   1.678   3.788   5.319
 8389TIP3    H225111   1.744   3.653   5.333
 8390TIP3   OH225112   3.885   3.781   5.848
 8390TIP3    H125113   3.855   3.700   5.889
 8390TIP3    H225114   3.880   3.846   5.918
 8391TIP3   OH225115   6.918   7.490   3.541
 8391TIP3    H125116   6.912   7.396   3.521
 8391TIP3    H225117   6.845   7.506   3.601
 8392TIP3   OH225118   1.879   3.193   4.198
 8392TIP3    H125119   1.973   3.184   4.213
 8392TIP3    H225120   1.840   3.118   4.242
 8393TIP3   OH225121   0.243   0.997   2.035
 8393TIP3    H125122   0.304   0.965   1.968
 8393TIP3    H225123   0.290   0.987   2.117
 8394TIP3   OH225124   1.510   1.695   2.151
 8394TIP3    H125125   1.548   1.658   2.072
 8394TIP3    H225126   1.513   1.790   2.137
 8395TIP3   OH225127   0.446   7.677   5.621
 8395TIP3    H125128   0.518   7.698   5.680
 8395TIP3    H225129   0.479   7.605   5.568
 8396TIP3   OH225130   6.159   1.995   3.959
 8396TIP3    H125131   6.140   1.979   4.051
 8396TIP3    H225132   6.166   1.907   3.921
 8397TIP3   OH225133   4.001   7.515   0.136
 8397TIP3    H125134   4.076   7.462   0.162
 8397TIP3    H225135   3.931   7.489   0.197
 8398TIP3   OH225136   6.285   1.601   4.418
 8398TIP3    H125137   6.210   1.550   4.390
 8398TIP3    H225138   6.360   1.542   4.409
 8399TIP3   OH225139   6.884   4.327   5.040
 8399TIP3    H125140   6.922   4.290   4.960
 8399TIP3    H225141   6.960   4.345   5.096
 8400TIP3   OH225142   7.883   6.935   1.135
 8400TIP3    H125143   7.854   6.844   1.123
 8400TIP3    H225144   7.803   6.986   1.135
 8401TIP3   OH225145   2.298   2.313   6.425
 8401TIP3    H125146   2.297   2.368   6.504
 8401TIP3    H225147   2.216   2.265   6.429
 8402TIP3   OH225148   6.663   2.133   0.091
 8402TIP3    H125149   6.686   2.177   0.173
 8402TIP3    H225150   6.619   2.201   0.039
 8403TIP3   OH225151   1.000   5.100   0.556
 8403TIP3    H125152   1.093   5.106   0.534
 8403TIP3    H225153   0.969   5.190   0.558
 8404TIP3   OH225154   5.506   0.219   0.982
 8404TIP3    H125155   5.534   0.157   0.915
 8404TIP3    H225156   5.587   0.254   1.019
 8405TIP3   OH225157   1.459   1.251   0.252
 8405TIP3    H125158   1.554   1.250   0.244
 8405TIP3    H225159   1.427   1.257   0.162
 8406TIP3   OH225160   4.204   6.541   0.919
 8406TIP3    H125161   4.112   6.538   0.895
 8406TIP3    H225162   4.211   6.487   0.998
 8407TIP3   OH225163   0.625   5.240   1.519
 8407TIP3    H125164   0.698   5.214   1.575
 8407TIP3    H225165   0.549   5.197   1.557
 8408TIP3   OH225166   4.072   6.727   6.272
 8408TIP3    H125167   4.045   6.792   6.338
 8408TIP3    H225168   4.113   6.779   6.203
 8409TIP3   OH225169   0.755   6.215   1.211
 8409TIP3    H125170   0.694   6.255   1.273
 8409TIP3    H225171   0.704   6.203   1.131
 8410TIP3   OH225172   3.115   0.766   6.095
 8410TIP3    H125173   3.047   0.742   6.159
 8410TIP3    H225174   3.088   0.851   6.062
 8411TIP3   OH225175   2.921   7.481   5.617
 8411TIP3    H125176   2.990   7.438   5.668
 8411TIP3    H225177   2.939   7.455   5.527
 8412TIP3   OH225178   7.082   5.184   4.139
 8412TIP3    H125179   7.099   5.095   4.167
 8412TIP3    H225180   7.055   5.230   4.218
 8413TIP3   OH225181   7.426   1.658   0.959
 8413TIP3    H125182   7.380   1.612   0.889
 8413TIP3    H225183   7.472   1.589   1.007
 8414TIP3   OH225184   2.383   1.079   3.300
 8414TIP3    H125185   2.400   1.129   3.380
 8414TIP3    H225186   2.373   1.145   3.232
 8415TIP3   OH225187   3.328   1.930   2.521
 8415TIP3    H125188   3.423   1.917   2.517
 8415TIP3    H225189   3.291   1.842   2.517
 8416TIP3   OH225190   0.429   0.837   2.480
 8416TIP3    H125191   0.356   0.788   2.441
 8416TIP3    H225192   0.467   0.886   2.406
 8417TIP3   OH225193   1.596   4.321   3.043
 8417TIP3    H125194   1.555   4.395   3.087
 8417TIP3    H225195   1.533   4.250   3.051
 8418TIP3   OH225196   0.059   5.415   4.883
 8418TIP3    H125197  -0.001   5.451   4.817
 8418TIP3    H225198   0.027   5.451   4.966
 8419TIP3   OH225199   4.129   7.049   3.265
 8419TIP3    H125200   4.067   6.980   3.286
 8419TIP3    H225201   4.188   7.010   3.201
 8420TIP3   OH225202   6.433   5.820   2.351
 8420TIP3    H125203   6.371   5.892   2.362
 8420TIP3    H225204   6.434   5.804   2.256
 8421TIP3   OH225205   6.106   6.565   3.961
 8421TIP3    H125206   6.197   6.565   3.991
 8421TIP3    H225207   6.072   6.480   3.990
 8422TIP3   OH225208   5.221   5.867   4.886
 8422TIP3    H125209   5.146   5.889   4.941
 8422TIP3    H225210   5.188   5.800   4.826
 8423TIP3   OH225211   2.389   0.684   2.789
 8423TIP3    H125212   2.473   0.695   2.834
 8423TIP3    H225213   2.328   0.739   2.839
 8424TIP3   OH225214   6.059   1.566   2.196
 8424TIP3    H125215   6.113   1.492   2.224
 8424TIP3    H225216   6.122   1.632   2.168
 8425TIP3   OH225217   5.113   0.079   4.695
 8425TIP3    H125218   5.114   0.071   4.599
 8425TIP3    H225219   5.106  -0.011   4.726
 8426TIP3   OH225220   8.174   2.461   0.848
 8426TIP3    H125221   8.093   2.445   0.895
 8426TIP3    H225222   8.173   2.555   0.829
 8427TIP3   OH225223   3.650   3.977   0.542
 8427TIP3    H125224   3.673   4.000   0.632
 8427TIP3    H225225   3.682   3.888   0.531
 8428TIP3   OH225226   6.999   5.622   0.867
 8428TIP3    H125227   7.027   5.611   0.958
 8428TIP3    H225228   6.930   5.557   0.855
 8429TIP3   OH225229   4.135   0.501   2.128
 8429TIP3    H125230   4.215   0.480   2.081
 8429TIP3    H225231   4.084   0.554   2.066
 8430TIP3   OH225232   8.224   5.729   0.929
 8430TIP3    H125233   8.190   5.641   0.912
 8430TIP3    H225234   8.236   5.767   0.842
 8431TIP3   OH225235   3.685   7.287   4.939
 8431TIP3    H125236   3.764   7.240   4.964
 8431TIP3    H225237   3.619   7.259   5.002
 8432TIP3   OH225238   6.934   5.285   3.465
 8432TIP3    H125239   6.929   5.214   3.401
 8432TIP3    H225240   6.998   5.255   3.529
 8433TIP3   OH225241   8.292   5.032   5.043
 8433TIP3    H125242   8.281   4.973   4.969
 8433TIP3    H225243   8.236   4.995   5.112
 8434TIP3   OH225244   5.310   0.966   2.380
 8434TIP3    H125245   5.330   0.911   2.456
 8434TIP3    H225246   5.376   1.035   2.382
 8435TIP3   OH225247   4.063   6.227   2.924
 8435TIP3    H125248   4.038   6.245   3.015
 8435TIP3    H225249   4.158   6.220   2.926
 8436TIP3   OH225250   5.054   5.660   2.730
 8436TIP3    H125251   5.029   5.709   2.808
 8436TIP3    H225252   5.120   5.598   2.762
 8437TIP3   OH225253   3.000   5.578   3.812
 8437TIP3    H125254   3.023   5.651   3.869
 8437TIP3    H225255   3.015   5.611   3.723
 8438TIP3   OH225256   8.214   5.334   3.590
 8438TIP3    H125257   8.271   5.270   3.548
 8438TIP3    H225258   8.264   5.364   3.666
 8439TIP3   OH225259   4.826   3.854   0.452
 8439TIP3    H125260   4.734   3.828   0.463
 8439TIP3    H225261   4.822   3.947   0.430
 8440TIP3   OH225262   6.929   3.869   0.780
 8440TIP3    H125263   6.971   3.826   0.706
 8440TIP3    H225264   6.853   3.913   0.742
 8441TIP3   OH225265   5.827   0.541   2.993
 8441TIP3    H125266   5.911   0.516   2.954
 8441TIP3    H225267   5.766   0.474   2.963
 8442TIP3   OH225268   0.680   4.008   1.309
 8442TIP3    H125269   0.609   4.009   1.373
 8442TIP3    H225270   0.719   4.095   1.314
 8443TIP3   OH225271  -0.030   3.898   0.474
 8443TIP3    H125272   0.042   3.864   0.421
 8443TIP3    H225273   0.008   3.912   0.560
 8444TIP3   OH225274   3.129   2.420   1.364
 8444TIP3    H125275   3.216   2.461   1.361
 8444TIP3    H225276   3.122   2.383   1.452
 8445TIP3   OH225277   6.959   7.223   0.526
 8445TIP3    H125278   6.912   7.262   0.599
 8445TIP3    H225279   7.004   7.297   0.485
 8446TIP3   OH225280   7.245   3.445   2.223
 8446TIP3    H125281   7.311   3.383   2.191
 8446TIP3    H225282   7.247   3.517   2.161
 8447TIP3   OH225283   8.312   2.698   3.589
 8447TIP3    H125284   8.223   2.675   3.565
 8447TIP3    H225285   8.366   2.669   3.515
 8448TIP3   OH225286   3.534   5.518   6.232
 8448TIP3    H125287   3.551   5.607   6.202
 8448TIP3    H225288   3.445   5.499   6.204
 8449TIP3   OH225289   1.749   6.049   3.500
 8449TIP3    H125290   1.705   6.095   3.429
 8449TIP3    H225291   1.683   6.041   3.569
 8450TIP3   OH225292   0.556   3.588   3.953
 8450TIP3    H125293   0.541   3.586   4.047
 8450TIP3    H225294   0.626   3.653   3.941
 8451TIP3   OH225295   4.017   5.815   6.749
 8451TIP3    H125296   4.098   5.768   6.768
 8451TIP3    H225297   4.032   5.855   6.663
 8452TIP3   OH225298   4.542   1.365   6.472
 8452TIP3    H125299   4.453   1.389   6.447
 8452TIP3    H225300   4.532   1.316   6.553
 8453TIP3   OH225301   1.116   5.555   1.846
 8453TIP3    H125302   1.164   5.616   1.791
 8453TIP3    H225303   1.028   5.553   1.808
 8454TIP3   OH225304   2.105   0.613   5.852
 8454TIP3    H125305   2.143   0.550   5.914
 8454TIP3    H225306   2.177   0.634   5.793
 8455TIP3   OH225307   2.832   1.242   0.469
 8455TIP3    H125308   2.852   1.181   0.397
 8455TIP3    H225309   2.887   1.213   0.541
 8456TIP3   OH225310   0.337   3.105   2.246
 8456TIP3    H125311   0.293   3.022   2.228
 8456TIP3    H225312   0.273   3.156   2.296
 8457TIP3   OH225313   4.633   7.194   5.353
 8457TIP3    H125314   4.697   7.128   5.325
 8457TIP3    H225315   4.687   7.270   5.376
 8458TIP3   OH225316   1.134   5.470   3.328
 8458TIP3    H125317   1.092   5.393   3.367
 8458TIP3    H225318   1.158   5.442   3.240
 8459TIP3   OH225319   1.756   0.789   4.767
 8459TIP3    H125320   1.803   0.710   4.743
 8459TIP3    H225321   1.800   0.859   4.718
 8460TIP3   OH225322   6.001   0.237   5.499
 8460TIP3    H125323   5.945   0.190   5.437
 8460TIP3    H225324   5.946   0.250   5.576
 8461TIP3   OH225325   5.428   7.292   3.389
 8461TIP3    H125326   5.485   7.325   3.320
 8461TIP3    H225327   5.342   7.284   3.347
 8462TIP3   OH225328   4.850   3.662   2.581
 8462TIP3    H125329   4.862   3.753   2.553
 8462TIP3    H225330   4.901   3.654   2.661
 8463TIP3   OH225331   0.914   3.415   0.363
 8463TIP3    H125332   0.832   3.393   0.407
 8463TIP3    H225333   0.961   3.469   0.427
 8464TIP3   OH225334   6.098   1.124   6.306
 8464TIP3    H125335   6.050   1.048   6.337
 8464TIP3    H225336   6.079   1.193   6.370
 8465TIP3   OH225337   3.709   2.232   5.308
 8465TIP3    H125338   3.757   2.152   5.326
 8465TIP3    H225339   3.713   2.243   5.213
 8466TIP3   OH225340   7.021   5.849   2.804
 8466TIP3    H125341   7.105   5.810   2.831
 8466TIP3    H225342   6.995   5.903   2.879
 8467TIP3   OH225343   5.939   1.633   1.823
 8467TIP3    H125344   5.990   1.592   1.753
 8467TIP3    H225345   5.974   1.722   1.829
 8468TIP3   OH225346   1.777   4.660   3.669
 8468TIP3    H125347   1.705   4.675   3.731
 8468TIP3    H225348   1.804   4.570   3.685
 8469TIP3   OH225349   0.074   7.024   5.456
 8469TIP3    H125350   0.121   6.941   5.463
 8469TIP3    H225351   0.049   7.029   5.363
 8470TIP3   OH225352   3.891   4.713   0.934
 8470TIP3    H125353   3.816   4.658   0.954
 8470TIP3    H225354   3.916   4.751   1.019
 8471TIP3   OH225355   0.357   5.703   4.413
 8471TIP3    H125356   0.401   5.639   4.469
 8471TIP3    H225357   0.313   5.762   4.474
 8472TIP3   OH225358   6.994   0.666   0.384
 8472TIP3    H125359   7.075   0.715   0.370
 8472TIP3    H225360   7.011   0.580   0.346
 8473TIP3   OH225361   7.409   4.601   1.957
 8473TIP3    H125362   7.396   4.561   2.043
 8473TIP3    H225363   7.466   4.539   1.911
 8474TIP3   OH225364   3.552   5.541   0.296
 8474TIP3    H125365   3.490   5.500   0.236
 8474TIP3    H225366   3.590   5.467   0.345
 8475TIP3   OH225367   7.766   1.083   3.250
 8475TIP3    H125368   7.725   1.117   3.330
 8475TIP3    H225369   7.756   0.988   3.256
 8476TIP3   OH225370   0.336   1.287   5.843
 8476TIP3    H125371   0.278   1.263   5.915
 8476TIP3    H225372   0.405   1.221   5.844
 8477TIP3   OH225373   0.588   4.743   0.254
 8477TIP3    H125374   0.653   4.719   0.320
 8477TIP3    H225375   0.623   4.708   0.172
 8478TIP3   OH225376   0.878   6.175   0.174
 8478TIP3    H125377   0.803   6.202   0.226
 8478TIP3    H225378   0.947   6.237   0.197
 8479TIP3   OH225379   6.970   6.115   5.088
 8479TIP3    H125380   7.033   6.161   5.143
 8479TIP3    H225381   6.886   6.156   5.109
 8480TIP3   OH225382   0.945   6.943   5.207
 8480TIP3    H125383   0.974   6.856   5.233
 8480TIP3    H225384   0.876   6.927   5.143
 8481TIP3   OH225385   0.082   7.073   2.381
 8481TIP3    H125386   0.042   7.003   2.329
 8481TIP3    H225387   0.144   7.114   2.321
 8482TIP3   OH225388   5.892   2.322   2.498
 8482TIP3    H125389   5.932   2.348   2.581
 8482TIP3    H225390   5.963   2.280   2.450
 8483TIP3   OH225391   1.290   6.635   5.374
 8483TIP3    H125392   1.204   6.594   5.370
 8483TIP3    H225393   1.273   6.727   5.394
 8484TIP3   OH225394   3.307   6.204   2.749
 8484TIP3    H125395   3.277   6.118   2.777
 8484TIP3    H225396   3.269   6.216   2.662
 8485TIP3   OH225397   3.963   4.877   2.826
 8485TIP3    H125398   3.925   4.893   2.913
 8485TIP3    H225399   3.996   4.963   2.798
 8486TIP3   OH225400   6.154   1.007   2.705
 8486TIP3    H125401   6.118   1.059   2.777
 8486TIP3    H225402   6.194   0.931   2.748
 8487TIP3   OH225403   7.904   3.015   6.465
 8487TIP3    H125404   7.991   2.995   6.498
 8487TIP3    H225405   7.863   3.064   6.536
 8488TIP3   OH225406   3.345   5.514   6.442
 8488TIP3    H125407   3.295   5.505   6.360
 8488TIP3    H225408   3.437   5.515   6.414
 8489TIP3   OH225409   6.541   2.359   2.178
 8489TIP3    H125410   6.629   2.387   2.155
 8489TIP3    H225411   6.531   2.273   2.137
 8490TIP3   OH225412   6.110   7.735   4.371
 8490TIP3    H125413   6.141   7.700   4.454
 8490TIP3    H225414   6.135   7.827   4.372
 8491TIP3   OH225415   3.943   6.342   0.554
 8491TIP3    H125416   4.021   6.291   0.535
 8491TIP3    H225417   3.895   6.344   0.471
 8492TIP3   OH225418   4.711   0.192   0.214
 8492TIP3    H125419   4.709   0.288   0.222
 8492TIP3    H225420   4.740   0.176   0.125
 8493TIP3   OH225421   6.884   2.023   4.823
 8493TIP3    H125422   6.928   2.003   4.740
 8493TIP3    H225423   6.930   1.970   4.888
 8494TIP3   OH225424   2.392   5.186   1.662
 8494TIP3    H125425   2.302   5.196   1.692
 8494TIP3    H225426   2.427   5.114   1.714
 8495TIP3   OH225427   0.895   4.460   5.744
 8495TIP3    H125428   0.908   4.430   5.834
 8495TIP3    H225429   0.816   4.414   5.715
 8496TIP3   OH225430   5.019   4.673   1.142
 8496TIP3    H125431   4.975   4.667   1.227
 8496TIP3    H225432   5.087   4.605   1.146
 8497TIP3   OH225433   5.935   2.686   3.354
 8497TIP3    H125434   5.994   2.727   3.417
 8497TIP3    H225435   5.883   2.759   3.320
 8498TIP3   OH225436   2.398   3.542   2.578
 8498TIP3    H125437   2.380   3.451   2.555
 8498TIP3    H225438   2.357   3.593   2.508
 8499TIP3   OH225439   4.479   5.945   2.836
 8499TIP3    H125440   4.406   5.942   2.898
 8499TIP3    H225441   4.554   5.913   2.886
 8500TIP3   OH225442   5.128   6.027   2.063
 8500TIP3    H125443   5.148   6.091   2.131
 8500TIP3    H225444   5.152   6.071   1.981
 8501TIP3   OH225445   5.273   3.605   6.087
 8501TIP3    H125446   5.196   3.590   6.032
 8501TIP3    H225447   5.260   3.548   6.162
 8502TIP3   OH225448   3.669   4.787   1.777
 8502TIP3    H125449   3.681   4.713   1.718
 8502TIP3    H225450   3.654   4.747   1.863
 8503TIP3   OH225451   7.783   5.958   4.796
 8503TIP3    H125452   7.721   5.886   4.803
 8503TIP3    H225453   7.829   5.959   4.880
 8504TIP3   OH225454   7.804   3.727   2.304
 8504TIP3    H125455   7.898   3.709   2.310
 8504TIP3    H225456   7.799   3.818   2.276
 8505TIP3   OH225457   7.501   6.508   1.477
 8505TIP3    H125458   7.450   6.578   1.435
 8505TIP3    H225459   7.566   6.483   1.411
 8506TIP3   OH225460   5.512   0.136   1.295
 8506TIP3    H125461   5.601   0.156   1.267
 8506TIP3    H225462   5.490   0.055   1.249
 8507TIP3   OH225463   1.059   1.317   3.960
 8507TIP3    H125464   1.147   1.311   3.998
 8507TIP3    H225465   1.022   1.230   3.973
 8508TIP3   OH225466   5.508   4.576   2.652
 8508TIP3    H125467   5.524   4.670   2.640
 8508TIP3    H225468   5.587   4.533   2.619
 8509TIP3   OH225469   0.830   2.055   3.387
 8509TIP3    H125470   0.754   2.005   3.415
 8509TIP3    H225471   0.796   2.114   3.319
 8510TIP3   OH225472   5.442   6.038   6.644
 8510TIP3    H125473   5.455   6.046   6.550
 8510TIP3    H225474   5.530   6.025   6.680
 8511TIP3   OH225475   6.837   2.100   5.649
 8511TIP3    H125476   6.932   2.106   5.654
 8511TIP3    H225477   6.820   2.006   5.636
 8512TIP3   OH225478   0.268   5.200   1.302
 8512TIP3    H125479   0.218   5.279   1.320
 8512TIP3    H225480   0.228   5.133   1.358
 8513TIP3   OH225481   0.572   6.106   5.198
 8513TIP3    H125482   0.554   6.044   5.269
 8513TIP3    H225483   0.617   6.179   5.240
 8514TIP3   OH225484   7.740   1.530   2.968
 8514TIP3    H125485   7.689   1.452   2.944
 8514TIP3    H225486   7.699   1.601   2.919
 8515TIP3   OH225487   7.395   5.863   1.160
 8515TIP3    H125488   7.390   5.845   1.067
 8515TIP3    H225489   7.402   5.777   1.202
 8516TIP3   OH225490   2.656   7.012   2.719
 8516TIP3    H125491   2.605   7.037   2.797
 8516TIP3    H225492   2.593   6.968   2.662
 8517TIP3   OH225493   0.196   4.400   6.154
 8517TIP3    H125494   0.290   4.420   6.152
 8517TIP3    H225495   0.156   4.480   6.188
 8518TIP3   OH225496   3.814   1.516   2.215
 8518TIP3    H125497   3.763   1.596   2.219
 8518TIP3    H225498   3.888   1.538   2.158
 8519TIP3   OH225499   2.052   2.396   4.677
 8519TIP3    H125500   2.096   2.464   4.729
 8519TIP3    H225501   2.047   2.321   4.735
 8520TIP3   OH225502   3.543   0.975   0.478
 8520TIP3    H125503   3.507   0.991   0.565
 8520TIP3    H225504   3.636   0.995   0.486
 8521TIP3   OH225505   0.516   0.435   1.330
 8521TIP3    H125506   0.599   0.473   1.303
 8521TIP3    H225507   0.451   0.475   1.272
 8522TIP3   OH225508   3.710   1.279   0.108
 8522TIP3    H125509   3.731   1.342   0.040
 8522TIP3    H225510   3.687   1.332   0.184
 8523TIP3   OH225511   6.828   3.380   5.407
 8523TIP3    H125512   6.798   3.423   5.328
 8523TIP3    H225513   6.907   3.332   5.380
 8524TIP3   OH225514   6.658   0.167   1.080
 8524TIP3    H125515   6.723   0.228   1.046
 8524TIP3    H225516   6.709   0.090   1.106
 8525TIP3   OH225517   6.515   4.940   4.466
 8525TIP3    H125518   6.585   4.984   4.515
 8525TIP3    H225519   6.505   4.993   4.387
 8526TIP3   OH225520   4.655   5.660   4.062
 8526TIP3    H125521   4.628   5.722   3.994
 8526TIP3    H225522   4.724   5.608   4.020
 8527TIP3   OH225523   4.212   3.141   4.008
 8527TIP3    H125524   4.211   3.147   3.912
 8527TIP3    H225525   4.212   3.047   4.026
 8528TIP3   OH225526   0.763   7.425   0.801
 8528TIP3    H125527   0.833   7.427   0.867
 8528TIP3    H225528   0.803   7.383   0.725
 8529TIP3   OH225529   6.035   1.300   1.997
 8529TIP3    H125530   6.063   1.210   2.014
 8529TIP3    H225531   6.091   1.329   1.924
 8530TIP3   OH225532   7.757   5.178   2.424
 8530TIP3    H125533   7.805   5.221   2.353
 8530TIP3    H225534   7.697   5.245   2.457
 8531TIP3   OH225535   2.650   1.881   5.476
 8531TIP3    H125536   2.715   1.912   5.413
 8531TIP3    H225537   2.597   1.958   5.496
 8532TIP3   OH225538   4.684   1.220   0.243
 8532TIP3    H125539   4.656   1.222   0.151
 8532TIP3    H225540   4.711   1.129   0.257
 8533TIP3   OH225541   6.394   1.136   3.251
 8533TIP3    H125542   6.361   1.096   3.331
 8533TIP3    H225543   6.489   1.125   3.256
 8534TIP3   OH225544   5.635   7.213   3.554
 8534TIP3    H125545   5.571   7.241   3.488
 8534TIP3    H225546   5.666   7.128   3.522
 8535TIP3   OH225547   0.990   2.407   4.924
 8535TIP3    H125548   0.937   2.350   4.979
 8535TIP3    H225549   1.056   2.444   4.984
 8536TIP3   OH225550   6.840   6.437   0.136
 8536TIP3    H125551   6.782   6.412   0.064
 8536TIP3    H225552   6.842   6.532   0.135
 8537TIP3   OH225553   2.147   6.193   5.109
 8537TIP3    H125554   2.067   6.148   5.086
 8537TIP3    H225555   2.161   6.172   5.202
 8538TIP3   OH225556   4.439   0.559   1.261
 8538TIP3    H125557   4.513   0.604   1.220
 8538TIP3    H225558   4.466   0.547   1.352
 8539TIP3   OH225559   5.158   1.833   2.238
 8539TIP3    H125560   5.165   1.746   2.199
 8539TIP3    H225561   5.126   1.889   2.167
 8540TIP3   OH225562   7.446   1.541   5.428
 8540TIP3    H125563   7.479   1.463   5.473
 8540TIP3    H225564   7.482   1.535   5.340
 8541TIP3   OH225565   1.201   1.858   5.558
 8541TIP3    H125566   1.272   1.876   5.496
 8541TIP3    H225567   1.245   1.833   5.639
 8542TIP3   OH225568   5.164   4.592   0.445
 8542TIP3    H125569   5.212   4.588   0.528
 8542TIP3    H225570   5.086   4.643   0.465
 8543TIP3   OH225571   0.201   4.120   6.193
 8543TIP3    H125572   0.200   4.216   6.192
 8543TIP3    H225573   0.201   4.098   6.286
 8544TIP3   OH225574   3.476   6.302   0.341
 8544TIP3    H125575   3.488   6.240   0.413
 8544TIP3    H225576   3.408   6.264   0.287
 8545TIP3   OH225577   2.670   4.059   4.599
 8545TIP3    H125578   2.662   4.014   4.515
 8545TIP3    H225579   2.724   4.002   4.653
 8546TIP3   OH225580   0.495   0.548   4.086
 8546TIP3    H125581   0.514   0.564   3.993
 8546TIP3    H225582   0.550   0.473   4.109
 8547TIP3   OH225583   2.385   6.908   6.136
 8547TIP3    H125584   2.446   6.837   6.117
 8547TIP3    H225585   2.389   6.918   6.231
 8548TIP3   OH225586   4.323   4.858   4.958
 8548TIP3    H125587   4.370   4.929   4.915
 8548TIP3    H225588   4.392   4.798   4.987
 8549TIP3   OH225589   3.723   0.130   0.525
 8549TIP3    H125590   3.700   0.212   0.568
 8549TIP3    H225591   3.751   0.072   0.597
 8550TIP3   OH225592   7.317   7.175   5.896
 8550TIP3    H125593   7.381   7.149   5.961
 8550TIP3    H225594   7.363   7.238   5.840
 8551TIP3   OH225595   1.890   3.680   3.864
 8551TIP3    H125596   1.952   3.614   3.832
 8551TIP3    H225597   1.920   3.699   3.953
 8552TIP3   OH225598   2.657   4.184   3.801
 8552TIP3    H125599   2.577   4.147   3.839
 8552TIP3    H225600   2.728   4.147   3.852
 8553TIP3   OH225601   1.675   5.376   1.468
 8553TIP3    H125602   1.720   5.307   1.420
 8553TIP3    H225603   1.737   5.449   1.467
 8554TIP3   OH225604   1.816   6.715   2.565
 8554TIP3    H125605   1.761   6.714   2.486
 8554TIP3    H225606   1.820   6.623   2.592
 8555TIP3   OH225607   2.779   5.955   3.981
 8555TIP3    H125608   2.822   5.985   3.902
 8555TIP3    H225609   2.687   5.944   3.956
 8556TIP3   OH225610   1.002   2.824   1.367
 8556TIP3    H125611   0.985   2.801   1.459
 8556TIP3    H225612   1.068   2.893   1.372
 8557TIP3   OH225613   3.566   5.789   1.941
 8557TIP3    H125614   3.628   5.818   1.874
 8557TIP3    H225615   3.528   5.709   1.906
 8558TIP3   OH225616   3.370   1.611   4.874
 8558TIP3    H125617   3.420   1.658   4.808
 8558TIP3    H225618   3.353   1.676   4.943
 8559TIP3   OH225619   0.277   4.113   0.307
 8559TIP3    H125620   0.358   4.163   0.291
 8559TIP3    H225621   0.307   4.026   0.334
 8560TIP3   OH225622   4.367   3.455   0.759
 8560TIP3    H125623   4.276   3.477   0.780
 8560TIP3    H225624   4.417   3.488   0.834
 8561TIP3   OH225625   6.149   6.452   6.311
 8561TIP3    H125626   6.233   6.411   6.331
 8561TIP3    H225627   6.097   6.382   6.271
 8562TIP3   OH225628   0.627   0.614   2.507
 8562TIP3    H125629   0.584   0.680   2.561
 8562TIP3    H225630   0.564   0.593   2.438
 8563TIP3   OH225631   7.297   2.788   3.713
 8563TIP3    H125632   7.382   2.761   3.747
 8563TIP3    H225633   7.267   2.857   3.772
 8564TIP3   OH225634   0.090   7.656   3.392
 8564TIP3    H125635   0.080   7.751   3.383
 8564TIP3    H225636   0.054   7.636   3.479
 8565TIP3   OH225637   4.190   6.679   6.617
 8565TIP3    H125638   4.114   6.622   6.610
 8565TIP3    H225639   4.255   6.641   6.558
 8566TIP3   OH225640   1.745   4.552   3.970
 8566TIP3    H125641   1.691   4.624   3.938
 8566TIP3    H225642   1.719   4.540   4.061
 8567TIP3   OH225643   2.342   1.227   1.550
 8567TIP3    H125644   2.353   1.237   1.456
 8567TIP3    H225645   2.431   1.214   1.584
 8568TIP3   OH225646   0.120   0.455   0.697
 8568TIP3    H125647   0.067   0.457   0.617
 8568TIP3    H225648   0.209   0.474   0.668
 8569TIP3   OH225649   1.899   0.335   5.947
 8569TIP3    H125650   1.843   0.274   5.996
 8569TIP3    H225651   1.892   0.418   5.995
 8570TIP3   OH225652   2.624   5.571   0.343
 8570TIP3    H125653   2.634   5.476   0.349
 8570TIP3    H225654   2.660   5.594   0.257
 8571TIP3   OH225655   5.631   1.312   2.346
 8571TIP3    H125656   5.602   1.361   2.269
 8571TIP3    H225657   5.707   1.360   2.379
 8572TIP3   OH225658   4.327   4.155   3.098
 8572TIP3    H125659   4.290   4.243   3.097
 8572TIP3    H225660   4.272   4.105   3.038
 8573TIP3   OH225661   3.334   3.970   5.329
 8573TIP3    H125662   3.312   3.895   5.273
 8573TIP3    H225663   3.346   4.042   5.268
 8574TIP3   OH225664   2.281   1.647   3.339
 8574TIP3    H125665   2.359   1.693   3.370
 8574TIP3    H225666   2.212   1.713   3.340
 8575TIP3   OH225667   6.105   5.689   2.447
 8575TIP3    H125668   6.092   5.609   2.395
 8575TIP3    H225669   6.193   5.679   2.485
 8576TIP3   OH225670   2.869   6.008   5.820
 8576TIP3    H125671   2.812   5.959   5.762
 8576TIP3    H225672   2.869   6.097   5.785
 8577TIP3   OH225673   1.827   4.121   6.556
 8577TIP3    H125674   1.805   4.155   6.469
 8577TIP3    H225675   1.797   4.189   6.616
 8578TIP3   OH225676   1.527   2.705   2.394
 8578TIP3    H125677   1.565   2.770   2.453
 8578TIP3    H225678   1.434   2.702   2.417
 8579TIP3   OH225679   3.732   7.017   5.777
 8579TIP3    H125680   3.733   6.976   5.863
 8579TIP3    H225681   3.818   7.058   5.769
 8580TIP3   OH225682   3.173   2.816   5.170
 8580TIP3    H125683   3.241   2.869   5.129
 8580TIP3    H225684   3.141   2.872   5.241
 8581TIP3   OH225685   8.018   4.064   0.476
 8581TIP3    H125686   8.081   3.995   0.456
 8581TIP3    H225687   7.985   4.091   0.390
 8582TIP3   OH225688   0.654   5.825   6.005
 8582TIP3    H125689   0.741   5.827   5.965
 8582TIP3    H225690   0.670   5.797   6.095
 8583TIP3   OH225691   2.790   1.440   1.092
 8583TIP3    H125692   2.844   1.518   1.102
 8583TIP3    H225693   2.852   1.371   1.067
 8584TIP3   OH225694   5.105   1.697   3.817
 8584TIP3    H125695   5.121   1.769   3.756
 8584TIP3    H225696   5.174   1.707   3.883
 8585TIP3   OH225697   1.523   7.356   4.346
 8585TIP3    H125698   1.550   7.288   4.409
 8585TIP3    H225699   1.487   7.425   4.401
 8586TIP3   OH225700   1.968   0.833   6.700
 8586TIP3    H125701   2.026   0.808   6.772
 8586TIP3    H225702   1.935   0.750   6.666
 8587TIP3   OH225703   3.130   2.133   4.619
 8587TIP3    H125704   3.059   2.069   4.612
 8587TIP3    H225705   3.137   2.170   4.531
 8588TIP3   OH225706   5.448   6.697   1.952
 8588TIP3    H125707   5.360   6.700   1.991
 8588TIP3    H225708   5.450   6.772   1.892
 8589TIP3   OH225709   4.022   7.226   3.687
 8589TIP3    H125710   3.929   7.237   3.709
 8589TIP3    H225711   4.030   7.133   3.664
 8590TIP3   OH225712   5.920   5.767   0.112
 8590TIP3    H125713   5.999   5.819   0.120
 8590TIP3    H225714   5.851   5.821   0.150
 8591TIP3   OH225715   4.854   7.393   0.431
 8591TIP3    H125716   4.872   7.427   0.519
 8591TIP3    H225717   4.907   7.314   0.424
 8592TIP3   OH225718   2.745   5.443   5.800
 8592TIP3    H125719   2.783   5.500   5.733
 8592TIP3    H225720   2.758   5.489   5.882
 8593TIP3   OH225721   5.424   4.569   3.025
 8593TIP3    H125722   5.513   4.603   3.028
 8593TIP3    H225723   5.374   4.638   2.980
 8594TIP3   OH225724   6.856   4.236   6.127
 8594TIP3    H125725   6.887   4.185   6.052
 8594TIP3    H225726   6.846   4.171   6.197
 8595TIP3   OH225727   6.811   4.902   3.578
 8595TIP3    H125728   6.901   4.934   3.581
 8595TIP3    H225729   6.780   4.926   3.490
 8596TIP3   OH225730   7.303   1.880   0.675
 8596TIP3    H125731   7.231   1.942   0.658
 8596TIP3    H225732   7.314   1.882   0.770
 8597TIP3   OH225733   4.441   5.769   2.007
 8597TIP3    H125734   4.462   5.843   1.950
 8597TIP3    H225735   4.426   5.809   2.093
 8598TIP3   OH225736   6.816   1.824   5.654
 8598TIP3    H125737   6.745   1.766   5.678
 8598TIP3    H225738   6.848   1.790   5.570
 8599TIP3   OH225739   7.122   3.261   0.019
 8599TIP3    H125740   7.179   3.215   0.081
 8599TIP3    H225741   7.046   3.203   0.008
 8600TIP3   OH225742   6.846   1.809   0.497
 8600TIP3    H125743   6.751   1.817   0.500
 8600TIP3    H225744   6.862   1.739   0.434
 8601TIP3   OH225745   7.794   5.977   3.738
 8601TIP3    H125746   7.851   5.906   3.709
 8601TIP3    H225747   7.734   5.935   3.800
 8602TIP3   OH225748   2.950   0.396   5.566
 8602TIP3    H125749   2.950   0.442   5.482
 8602TIP3    H225750   3.043   0.377   5.583
 8603TIP3   OH225751   4.888   7.746   3.529
 8603TIP3    H125752   4.831   7.760   3.453
 8603TIP3    H225753   4.936   7.828   3.539
 8604TIP3   OH225754   0.649   2.500   0.630
 8604TIP3    H125755   0.722   2.452   0.668
 8604TIP3    H225756   0.641   2.466   0.541
 8605TIP3   OH225757   1.309   4.861   2.845
 8605TIP3    H125758   1.303   4.766   2.840
 8605TIP3    H225759   1.402   4.880   2.828
 8606TIP3   OH225760   1.436   6.155   6.488
 8606TIP3    H125761   1.502   6.194   6.431
 8606TIP3    H225762   1.463   6.179   6.576
 8607TIP3   OH225763   2.221   5.123   0.961
 8607TIP3    H125764   2.234   5.051   0.900
 8607TIP3    H225765   2.164   5.184   0.914
 8608TIP3   OH225766   5.888   3.250   2.520
 8608TIP3    H125767   5.836   3.221   2.595
 8608TIP3    H225768   5.927   3.170   2.486
 8609TIP3   OH225769   2.254   6.948   0.774
 8609TIP3    H125770   2.266   7.043   0.779
 8609TIP3    H225771   2.289   6.915   0.857
 8610TIP3   OH225772   2.367   1.295   4.185
 8610TIP3    H125773   2.402   1.383   4.198
 8610TIP3    H225774   2.288   1.292   4.238
 8611TIP3   OH225775   1.545   1.296   0.732
 8611TIP3    H125776   1.567   1.382   0.767
 8611TIP3    H225777   1.519   1.313   0.641
 8612TIP3   OH225778   2.910   5.413   2.094
 8612TIP3    H125779   2.838   5.434   2.152
 8612TIP3    H225780   2.984   5.463   2.128
 8613TIP3   OH225781   7.253   4.831   3.780
 8613TIP3    H125782   7.198   4.847   3.856
 8613TIP3    H225783   7.281   4.740   3.789
 8614TIP3   OH225784   5.996   7.736   6.427
 8614TIP3    H125785   6.005   7.664   6.365
 8614TIP3    H225786   6.085   7.769   6.439
 8615TIP3   OH225787   3.405   0.435   6.154
 8615TIP3    H125788   3.465   0.395   6.091
 8615TIP3    H225789   3.430   0.398   6.238
 8616TIP3   OH225790   1.135   6.620   0.374
 8616TIP3    H125791   1.088   6.686   0.426
 8616TIP3    H225792   1.195   6.579   0.436
 8617TIP3   OH225793   1.777   5.886   6.361
 8617TIP3    H125794   1.738   5.878   6.448
 8617TIP3    H225795   1.756   5.975   6.333
 8618TIP3   OH225796   3.916   1.969   6.413
 8618TIP3    H125797   3.902   1.937   6.502
 8618TIP3    H225798   4.005   1.941   6.391
 8619TIP3   OH225799   6.379   6.809   5.299
 8619TIP3    H125800   6.351   6.868   5.229
 8619TIP3    H225801   6.308   6.745   5.307
 8620TIP3   OH225802   7.861   3.165   5.891
 8620TIP3    H125803   7.903   3.103   5.951
 8620TIP3    H225804   7.821   3.230   5.948
 8621TIP3   OH225805   0.458   4.620   1.362
 8621TIP3    H125806   0.408   4.554   1.410
 8621TIP3    H225807   0.515   4.659   1.429
 8622TIP3   OH225808   4.484   7.828   2.917
 8622TIP3    H125809   4.514   7.774   2.989
 8622TIP3    H225810   4.402   7.787   2.888
 8623TIP3   OH225811   5.640   2.948   3.104
 8623TIP3    H125812   5.580   3.023   3.102
 8623TIP3    H225813   5.611   2.892   3.031
 8624TIP3   OH225814   2.719   6.495   1.722
 8624TIP3    H125815   2.768   6.577   1.713
 8624TIP3    H225816   2.771   6.431   1.674
 8625TIP3   OH225817   0.172   3.510   0.061
 8625TIP3    H125818   0.177   3.484  -0.032
 8625TIP3    H225819   0.149   3.429   0.107
 8626TIP3   OH225820   0.733   0.754   4.035
 8626TIP3    H125821   0.674   0.827   4.014
 8626TIP3    H225822   0.727   0.697   3.958
 8627TIP3   OH225823   6.534   0.922   6.249
 8627TIP3    H125824   6.627   0.909   6.230
 8627TIP3    H225825   6.496   0.946   6.165
 8628TIP3   OH225826   5.110   5.989   6.378
 8628TIP3    H125827   5.138   6.028   6.296
 8628TIP3    H225828   5.088   5.898   6.356
 8629TIP3   OH225829   1.364   3.590   1.054
 8629TIP3    H125830   1.402   3.507   1.025
 8629TIP3    H225831   1.427   3.656   1.024
 8630TIP3   OH225832   3.530   2.492   5.322
 8630TIP3    H125833   3.619   2.501   5.354
 8630TIP3    H225834   3.533   2.525   5.232
 8631TIP3   OH225835   2.750   5.762   3.045
 8631TIP3    H125836   2.688   5.817   2.995
 8631TIP3    H225837   2.734   5.673   3.013
 8632TIP3   OH225838   3.361   5.318   3.318
 8632TIP3    H125839   3.313   5.395   3.349
 8632TIP3    H225840   3.305   5.244   3.340
 8633TIP3   OH225841   5.603   6.456   0.023
 8633TIP3    H125842   5.594   6.531   0.083
 8633TIP3    H225843   5.694   6.460  -0.007
 8634TIP3   OH225844   2.722   2.049   6.288
 8634TIP3    H125845   2.728   1.986   6.217
 8634TIP3    H225846   2.715   2.134   6.244
 8635TIP3   OH225847   6.094   2.457   2.344
 8635TIP3    H125848   6.151   2.490   2.275
 8635TIP3    H225849   6.117   2.364   2.352
 8636TIP3   OH225850   7.658   5.757   0.537
 8636TIP3    H125851   7.666   5.688   0.602
 8636TIP3    H225852   7.745   5.798   0.533
 8637TIP3   OH225853   5.745   0.727   2.803
 8637TIP3    H125854   5.759   0.669   2.878
 8637TIP3    H225855   5.826   0.777   2.796
 8638TIP3   OH225856   5.178   1.602   2.531
 8638TIP3    H125857   5.169   1.507   2.536
 8638TIP3    H225858   5.267   1.616   2.499
 8639TIP3   OH225859   1.637   2.436   2.536
 8639TIP3    H125860   1.544   2.457   2.548
 8639TIP3    H225861   1.681   2.472   2.613
 8640TIP3   OH225862   6.349   7.161   6.606
 8640TIP3    H125863   6.353   7.118   6.521
 8640TIP3    H225864   6.270   7.214   6.602
 8641TIP3   OH225865   6.301   4.604   1.740
 8641TIP3    H125866   6.226   4.654   1.710
 8641TIP3    H225867   6.265   4.538   1.798
 8642TIP3   OH225868   3.810   6.193   0.945
 8642TIP3    H125869   3.806   6.222   1.036
 8642TIP3    H225870   3.735   6.135   0.935
 8643TIP3   OH225871   2.380   6.527   0.987
 8643TIP3    H125872   2.389   6.578   0.906
 8643TIP3    H225873   2.461   6.477   0.993
 8644TIP3   OH225874   6.969   5.306   0.459
 8644TIP3    H125875   6.911   5.364   0.509
 8644TIP3    H225876   6.997   5.241   0.523
 8645TIP3   OH225877   5.120   2.392   4.065
 8645TIP3    H125878   5.152   2.462   4.008
 8645TIP3    H225879   5.169   2.315   4.038
 8646TIP3   OH225880   6.839   5.735   6.036
 8646TIP3    H125881   6.770   5.681   5.996
 8646TIP3    H225882   6.811   5.744   6.127
 8647TIP3   OH225883   7.616   7.726   0.971
 8647TIP3    H125884   7.629   7.774   1.053
 8647TIP3    H225885   7.613   7.634   0.997
 8648TIP3   OH225886   0.200   2.690   6.282
 8648TIP3    H125887   0.183   2.768   6.229
 8648TIP3    H225888   0.292   2.669   6.263
 8649TIP3   OH225889   6.766   3.783   4.190
 8649TIP3    H125890   6.692   3.831   4.228
 8649TIP3    H225891   6.787   3.830   4.110
 8650TIP3   OH225892   7.116   2.150   0.036
 8650TIP3    H125893   7.196   2.153   0.087
 8650TIP3    H225894   7.088   2.059   0.041
 8651TIP3   OH225895   5.036   1.922   3.620
 8651TIP3    H125896   5.105   1.979   3.588
 8651TIP3    H225897   4.985   1.977   3.679
 8652TIP3   OH225898   7.147   4.944   5.106
 8652TIP3    H125899   7.202   5.019   5.086
 8652TIP3    H225900   7.159   4.928   5.199
 8653TIP3   OH225901   7.331   0.241   1.734
 8653TIP3    H125902   7.396   0.170   1.730
 8653TIP3    H225903   7.248   0.198   1.711
 8654TIP3   OH225904   7.649   7.093   1.189
 8654TIP3    H125905   7.583   7.137   1.137
 8654TIP3    H225906   7.608   7.079   1.275
 8655TIP3   OH225907   5.011   0.292   0.127
 8655TIP3    H125908   5.099   0.319   0.099
 8655TIP3    H225909   5.025   0.205   0.165
 8656TIP3   OH225910   3.100   1.130   6.501
 8656TIP3    H125911   3.017   1.174   6.521
 8656TIP3    H225912   3.114   1.070   6.574
 8657TIP3   OH225913   0.994   4.778   1.118
 8657TIP3    H125914   0.962   4.777   1.028
 8657TIP3    H225915   0.929   4.729   1.168
 8658TIP3   OH225916   0.147   0.071   2.726
 8658TIP3    H125917   0.167   0.126   2.650
 8658TIP3    H225918   0.157   0.130   2.801
 8659TIP3   OH225919   6.061   4.085   6.174
 8659TIP3    H125920   5.991   4.120   6.118
 8659TIP3    H225921   6.037   3.993   6.187
 8660TIP3   OH225922   3.702   4.287   0.049
 8660TIP3    H125923   3.781   4.274   0.101
 8660TIP3    H225924   3.711   4.225  -0.024
 8661TIP3   OH225925   5.757   2.661   2.768
 8661TIP3    H125926   5.728   2.591   2.709
 8661TIP3    H225927   5.676   2.704   2.796
 8662TIP3   OH225928   0.858   6.542   5.005
 8662TIP3    H125929   0.796   6.470   5.015
 8662TIP3    H225930   0.807   6.614   4.970
 8663TIP3   OH225931   4.883   5.849   0.392
 8663TIP3    H125932   4.975   5.827   0.408
 8663TIP3    H225933   4.873   5.937   0.428
 8664TIP3   OH225934   4.347   1.494   1.514
 8664TIP3    H125935   4.337   1.482   1.419
 8664TIP3    H225936   4.371   1.586   1.524
 8665TIP3   OH225937   3.628   1.795   6.554
 8665TIP3    H125938   3.696   1.743   6.512
 8665TIP3    H225939   3.553   1.736   6.562
 8666TIP3   OH225940   7.131   4.223   4.311
 8666TIP3    H125941   7.128   4.167   4.388
 8666TIP3    H225942   7.217   4.264   4.314
 8667TIP3   OH225943   4.858   0.120   4.358
 8667TIP3    H125944   4.785   0.159   4.310
 8667TIP3    H225945   4.923   0.099   4.291
 8668TIP3   OH225946   1.319   1.107   5.541
 8668TIP3    H125947   1.358   1.183   5.498
 8668TIP3    H225948   1.376   1.089   5.616
 8669TIP3   OH225949   5.076   5.106   0.452
 8669TIP3    H125950   5.022   5.185   0.446
 8669TIP3    H225951   5.014   5.035   0.466
 8670TIP3   OH225952   0.422   5.314   3.609
 8670TIP3    H125953   0.502   5.363   3.628
 8670TIP3    H225954   0.415   5.251   3.681
 8671TIP3   OH225955   5.369   7.661   3.046
 8671TIP3    H125956   5.303   7.696   3.106
 8671TIP3    H225957   5.412   7.591   3.096
 8672TIP3   OH225958   3.006   0.814   6.345
 8672TIP3    H125959   2.986   0.725   6.375
 8672TIP3    H225960   2.952   0.870   6.401
 8673TIP3   OH225961   0.152   1.678   2.832
 8673TIP3    H125962   0.074   1.667   2.887
 8673TIP3    H225963   0.123   1.737   2.762
 8674TIP3   OH225964   0.849   2.707   5.736
 8674TIP3    H125965   0.944   2.694   5.746
 8674TIP3    H225966   0.840   2.800   5.714
 8675TIP3   OH225967   7.498   0.491   3.782
 8675TIP3    H125968   7.574   0.438   3.804
 8675TIP3    H225969   7.434   0.429   3.747
 8676TIP3   OH225970   2.538   1.673   3.466
 8676TIP3    H125971   2.569   1.662   3.376
 8676TIP3    H225972   2.602   1.626   3.519
 8677TIP3   OH225973   2.200   1.211   5.773
 8677TIP3    H125974   2.147   1.201   5.853
 8677TIP3    H225975   2.162   1.147   5.712
 8678TIP3   OH225976   4.746   2.089   4.385
 8678TIP3    H125977   4.685   2.091   4.310
 8678TIP3    H225978   4.820   2.037   4.354
 8679TIP3   OH225979   7.307   6.739   1.390
 8679TIP3    H125980   7.229   6.758   1.442
 8679TIP3    H225981   7.275   6.740   1.299
 8680TIP3   OH225982   1.677   6.351   5.651
 8680TIP3    H125983   1.722   6.420   5.699
 8680TIP3    H225984   1.622   6.307   5.717
 8681TIP3   OH225985   4.006   2.556   1.674
 8681TIP3    H125986   4.013   2.461   1.674
 8681TIP3    H225987   4.036   2.582   1.761
 8682TIP3   OH225988   1.090   4.738   0.649
 8682TIP3    H125989   1.164   4.771   0.599
 8682TIP3    H225990   1.080   4.647   0.621
 8683TIP3   OH225991   5.419   7.765   1.765
 8683TIP3    H125992   5.472   7.755   1.686
 8683TIP3    H225993   5.476   7.736   1.836
 8684TIP3   OH225994   0.207   6.081   3.619
 8684TIP3    H125995   0.211   6.008   3.558
 8684TIP3    H225996   0.130   6.131   3.591
 8685TIP3   OH225997   7.517   3.690   3.821
 8685TIP3    H125998   7.496   3.687   3.728
 8685TIP3    H225999   7.538   3.781   3.838
 8686TIP3   OH226000   3.337   6.414   3.806
 8686TIP3    H126001   3.383   6.441   3.726
 8686TIP3    H226002   3.388   6.340   3.840
 8687TIP3   OH226003   4.098   6.263   6.493
 8687TIP3    H126004   4.049   6.181   6.484
 8687TIP3    H226005   4.183   6.244   6.455
 8688TIP3   OH226006   3.704   6.590   1.556
 8688TIP3    H126007   3.710   6.677   1.595
 8688TIP3    H226008   3.720   6.604   1.463
 8689TIP3   OH226009   5.969   4.361   4.919
 8689TIP3    H126010   5.996   4.302   4.989
 8689TIP3    H226011   5.991   4.448   4.951
 8690TIP3   OH226012   2.524   4.122   2.370
 8690TIP3    H126013   2.512   4.136   2.275
 8690TIP3    H226014   2.494   4.033   2.385
 8691TIP3   OH226015   4.142   7.542   5.890
 8691TIP3    H126016   4.147   7.563   5.797
 8691TIP3    H226017   4.048   7.528   5.906
 8692TIP3   OH226018   2.261   4.470   4.927
 8692TIP3    H126019   2.280   4.562   4.908
 8692TIP3    H226020   2.277   4.424   4.845
 8693TIP3   OH226021   0.410   0.066   5.561
 8693TIP3    H126022   0.344   0.098   5.623
 8693TIP3    H226023   0.406  -0.030   5.570
 8694TIP3   OH226024   2.572   1.437   5.872
 8694TIP3    H126025   2.565   1.511   5.932
 8694TIP3    H226026   2.525   1.365   5.915
 8695TIP3   OH226027   0.080   4.798   1.627
 8695TIP3    H126028   0.128   4.823   1.549
 8695TIP3    H226029   0.030   4.721   1.602
 8696TIP3   OH226030   2.500   7.535   5.535
 8696TIP3    H126031   2.498   7.453   5.486
 8696TIP3    H226032   2.571   7.585   5.496
 8697TIP3   OH226033   4.707   5.828   2.975
 8697TIP3    H126034   4.802   5.825   2.984
 8697TIP3    H226035   4.681   5.736   2.964
 8698TIP3   OH226036   4.285   3.612   3.882
 8698TIP3    H126037   4.347   3.674   3.843
 8698TIP3    H226038   4.206   3.620   3.828
 8699TIP3   OH226039   5.060   2.735   0.209
 8699TIP3    H126040   5.055   2.666   0.275
 8699TIP3    H226041   5.055   2.689   0.126
 8700TIP3   OH226042   3.111   1.988   2.959
 8700TIP3    H126043   3.173   1.971   2.889
 8700TIP3    H226044   3.033   1.938   2.934
 8701TIP3   OH226045   6.270   5.736   5.336
 8701TIP3    H126046   6.248   5.826   5.362
 8701TIP3    H226047   6.216   5.720   5.259
 8702TIP3   OH226048   1.086   4.637   2.061
 8702TIP3    H126049   1.067   4.581   2.136
 8702TIP3    H226050   1.003   4.681   2.043
 8703TIP3   OH226051   1.053   5.541   0.506
 8703TIP3    H126052   1.147   5.521   0.511
 8703TIP3    H226053   1.049   5.622   0.455
 8704TIP3   OH226054   6.855   5.305   3.114
 8704TIP3    H126055   6.921   5.237   3.102
 8704TIP3    H226056   6.787   5.284   3.049
 8705TIP3   OH226057   4.837   0.707   0.165
 8705TIP3    H126058   4.844   0.715   0.070
 8705TIP3    H226059   4.908   0.762   0.199
 8706TIP3   OH226060   2.956   5.114   4.255
 8706TIP3    H126061   2.868   5.140   4.228
 8706TIP3    H226062   3.011   5.136   4.179
 8707TIP3   OH226063   6.183   4.444   0.772
 8707TIP3    H126064   6.107   4.404   0.815
 8707TIP3    H226065   6.210   4.514   0.831
 8708TIP3   OH226066   5.212   7.777   2.443
 8708TIP3    H126067   5.256   7.702   2.484
 8708TIP3    H226068   5.146   7.804   2.507
 8709TIP3   OH226069   1.675   2.902   2.082
 8709TIP3    H126070   1.720   2.857   2.153
 8709TIP3    H226071   1.741   2.960   2.045
 8710TIP3   OH226072   4.755   4.941   4.983
 8710TIP3    H126073   4.750   4.925   4.888
 8710TIP3    H226074   4.847   4.961   4.999
 8711TIP3   OH226075   1.552   7.768   3.566
 8711TIP3    H126076   1.552   7.859   3.534
 8711TIP3    H226077   1.461   7.750   3.588
 8712TIP3   OH226078   0.581   1.893   6.137
 8712TIP3    H126079   0.506   1.836   6.119
 8712TIP3    H226080   0.642   1.876   6.065
 8713TIP3   OH226081   2.321   3.474   4.825
 8713TIP3    H126082   2.261   3.406   4.793
 8713TIP3    H226083   2.267   3.553   4.832
 8714TIP3   OH226084   6.669   7.814   3.148
 8714TIP3    H126085   6.688   7.736   3.201
 8714TIP3    H226086   6.603   7.785   3.085
 8715TIP3   OH226087   5.422   3.849   5.508
 8715TIP3    H126088   5.379   3.881   5.428
 8715TIP3    H226089   5.515   3.871   5.495
 8716TIP3   OH226090   1.429   5.123   5.752
 8716TIP3    H126091   1.506   5.165   5.713
 8716TIP3    H226092   1.371   5.106   5.678
 8717TIP3   OH226093   3.599   6.872   1.033
 8717TIP3    H126094   3.636   6.783   1.032
 8717TIP3    H226095   3.534   6.870   1.103
 8718TIP3   OH226096   7.776   1.196   2.402
 8718TIP3    H126097   7.826   1.273   2.376
 8718TIP3    H226098   7.842   1.134   2.433
 8719TIP3   OH226099   4.331   2.139   2.730
 8719TIP3    H126100   4.366   2.215   2.776
 8719TIP3    H226101   4.338   2.067   2.793
 8720TIP3   OH226102   0.206   7.241   5.561
 8720TIP3    H126103   0.182   7.171   5.500
 8720TIP3    H226104   0.182   7.207   5.647
 8721TIP3   OH226105   7.198   4.769   2.936
 8721TIP3    H126106   7.137   4.837   2.910
 8721TIP3    H226107   7.143   4.693   2.955
 8722TIP3   OH226108   7.659   2.939   0.053
 8722TIP3    H126109   7.667   3.032   0.074
 8722TIP3    H226110   7.719   2.895   0.114
 8723TIP3   OH226111   4.721   0.902   2.774
 8723TIP3    H126112   4.652   0.854   2.819
 8723TIP3    H226113   4.715   0.873   2.683
 8724TIP3   OH226114   2.117   4.941   5.506
 8724TIP3    H126115   2.178   4.868   5.518
 8724TIP3    H226116   2.112   4.982   5.593
 8725TIP3   OH226117   2.908   2.562   5.729
 8725TIP3    H126118   2.871   2.553   5.642
 8725TIP3    H226119   2.832   2.561   5.788
 8726TIP3   OH226120   0.587   3.122   3.301
 8726TIP3    H126121   0.568   3.135   3.394
 8726TIP3    H226122   0.550   3.199   3.258
 8727TIP3   OH226123   4.909   5.055   6.293
 8727TIP3    H126124   4.918   5.019   6.381
 8727TIP3    H226125   4.917   5.150   6.305
 8728TIP3   OH226126   6.788   5.098   4.338
 8728TIP3    H126127   6.790   5.058   4.425
 8728TIP3    H226128   6.737   5.037   4.284
 8729TIP3   OH226129   4.140   6.702   0.604
 8729TIP3    H126130   4.206   6.731   0.667
 8729TIP3    H226131   4.058   6.703   0.653
 8730TIP3   OH226132   3.024   2.650   2.739
 8730TIP3    H126133   3.040   2.745   2.747
 8730TIP3    H226134   3.097   2.618   2.686
 8731TIP3   OH226135   3.394   2.287   3.740
 8731TIP3    H126136   3.448   2.258   3.667
 8731TIP3    H226137   3.305   2.290   3.705
 8732TIP3   OH226138   6.909   6.277   4.491
 8732TIP3    H126139   6.969   6.328   4.436
 8732TIP3    H226140   6.826   6.326   4.487
 8733TIP3   OH226141   0.091   1.738   1.378
 8733TIP3    H126142   0.143   1.819   1.382
 8733TIP3    H226143   0.100   1.708   1.288
 8734TIP3   OH226144   5.809   4.702   0.731
 8734TIP3    H126145   5.731   4.698   0.787
 8734TIP3    H226146   5.829   4.610   0.712
 8735TIP3   OH226147   1.993   0.261   2.516
 8735TIP3    H126148   2.054   0.205   2.467
 8735TIP3    H226149   1.927   0.202   2.550
 8736TIP3   OH226150   8.156   2.614   5.728
 8736TIP3    H126151   8.148   2.532   5.777
 8736TIP3    H226152   8.247   2.617   5.701
 8737TIP3   OH226153   0.867   5.279   6.544
 8737TIP3    H126154   0.944   5.312   6.500
 8737TIP3    H226155   0.822   5.226   6.478
 8738TIP3   OH226156   5.236   1.263   2.518
 8738TIP3    H126157   5.176   1.205   2.471
 8738TIP3    H226158   5.273   1.208   2.587
 8739TIP3   OH226159   7.671   1.664   4.982
 8739TIP3    H126160   7.604   1.597   4.963
 8739TIP3    H226161   7.695   1.648   5.074
 8740TIP3   OH226162   0.625   3.461   1.869
 8740TIP3    H126163   0.616   3.366   1.877
 8740TIP3    H226164   0.641   3.492   1.958
 8741TIP3   OH226165   6.962   7.258   6.117
 8741TIP3    H126166   6.975   7.306   6.036
 8741TIP3    H226167   6.916   7.319   6.175
 8742TIP3   OH226168   0.180   6.761   3.409
 8742TIP3    H126169   0.243   6.828   3.435
 8742TIP3    H226170   0.135   6.737   3.491
 8743TIP3   OH226171   4.514   5.654   3.633
 8743TIP3    H126172   4.424   5.624   3.620
 8743TIP3    H226173   4.563   5.575   3.655
 8744TIP3   OH226174   1.557   5.122   1.937
 8744TIP3    H126175   1.530   5.192   1.996
 8744TIP3    H226176   1.590   5.167   1.859
 8745TIP3   OH226177   0.883   1.347   5.411
 8745TIP3    H126178   0.942   1.271   5.414
 8745TIP3    H226179   0.796   1.310   5.423
 8746TIP3   OH226180   5.426   1.159   4.092
 8746TIP3    H126181   5.485   1.200   4.030
 8746TIP3    H226182   5.442   1.065   4.084
 8747TIP3   OH226183   3.782   1.846   4.754
 8747TIP3    H126184   3.866   1.868   4.715
 8747TIP3    H226185   3.727   1.923   4.739
 8748TIP3   OH226186   7.527   0.628   6.322
 8748TIP3    H126187   7.530   0.686   6.398
 8748TIP3    H226188   7.467   0.671   6.261
 8749TIP3   OH226189   3.606   2.375   6.520
 8749TIP3    H126190   3.590   2.313   6.450
 8749TIP3    H226191   3.629   2.457   6.475
 8750TIP3   OH226192   4.723   2.480   0.633
 8750TIP3    H126193   4.631   2.456   0.644
 8750TIP3    H226194   4.749   2.516   0.718
 8751TIP3   OH226195   3.437   1.952   4.143
 8751TIP3    H126196   3.388   2.006   4.081
 8751TIP3    H226197   3.427   1.863   4.111
 8752TIP3   OH226198   5.523   4.133   0.165
 8752TIP3    H126199   5.514   4.197   0.095
 8752TIP3    H226200   5.578   4.176   0.231
 8753TIP3   OH226201   2.718   1.122   0.748
 8753TIP3    H126202   2.715   1.034   0.712
 8753TIP3    H226203   2.812   1.143   0.753
 8754TIP3   OH226204   3.031   1.214   0.155
 8754TIP3    H126205   2.988   1.296   0.179
 8754TIP3    H226206   3.122   1.237   0.141
 8755TIP3   OH226207   6.223   3.240   1.619
 8755TIP3    H126208   6.189   3.166   1.569
 8755TIP3    H226209   6.318   3.230   1.615
 8756TIP3   OH226210   3.202   0.472   3.863
 8756TIP3    H126211   3.130   0.417   3.834
 8756TIP3    H226212   3.171   0.513   3.944
 8757TIP3   OH226213   2.372   2.562   2.303
 8757TIP3    H126214   2.290   2.608   2.285
 8757TIP3    H226215   2.440   2.620   2.269
 8758TIP3   OH226216   1.589   3.026   6.003
 8758TIP3    H126217   1.594   3.120   6.017
 8758TIP3    H226218   1.588   2.988   6.091
 8759TIP3   OH226219   7.392   2.211   1.626
 8759TIP3    H126220   7.481   2.186   1.602
 8759TIP3    H226221   7.389   2.200   1.721
 8760TIP3   OH226222   7.811   7.716   3.278
 8760TIP3    H126223   7.773   7.706   3.365
 8760TIP3    H226224   7.905   7.725   3.292
 8761TIP3   OH226225   1.819   1.569   3.854
 8761TIP3    H126226   1.888   1.568   3.921
 8761TIP3    H226227   1.854   1.626   3.785
 8762TIP3   OH226228   0.081   0.855   5.862
 8762TIP3    H126229   0.047   0.903   5.938
 8762TIP3    H226230   0.071   0.763   5.886
 8763TIP3   OH226231   5.554   1.003   5.245
 8763TIP3    H126232   5.598   0.930   5.201
 8763TIP3    H226233   5.494   1.038   5.179
 8764TIP3   OH226234   7.344   5.423   2.295
 8764TIP3    H126235   7.276   5.466   2.348
 8764TIP3    H226236   7.372   5.490   2.233
 8765TIP3   OH226237   5.358   0.220   3.624
 8765TIP3    H126238   5.263   0.216   3.616
 8765TIP3    H226239   5.378   0.313   3.632
 8766TIP3   OH226240   7.368   6.628   5.168
 8766TIP3    H126241   7.457   6.657   5.150
 8766TIP3    H226242   7.323   6.707   5.198
 8767TIP3   OH226243   2.415   7.300   1.793
 8767TIP3    H126244   2.373   7.344   1.720
 8767TIP3    H226245   2.363   7.220   1.806
 8768TIP3   OH226246   0.771   6.908   4.707
 8768TIP3    H126247   0.855   6.903   4.663
 8768TIP3    H226248   0.717   6.843   4.662
 8769TIP3   OH226249   6.628   6.917   5.404
 8769TIP3    H126250   6.676   6.897   5.324
 8769TIP3    H226251   6.540   6.883   5.389
 8770TIP3   OH226252   7.592   6.569   3.605
 8770TIP3    H126253   7.610   6.596   3.515
 8770TIP3    H226254   7.654   6.497   3.620
 8771TIP3   OH226255   2.445   2.561   2.757
 8771TIP3    H126256   2.535   2.576   2.727
 8771TIP3    H226257   2.445   2.592   2.848
 8772TIP3   OH226258   4.935   5.950   1.196
 8772TIP3    H126259   4.846   5.947   1.231
 8772TIP3    H226260   4.971   6.033   1.229
 8773TIP3   OH226261   0.773   1.264   4.216
 8773TIP3    H126262   0.697   1.300   4.262
 8773TIP3    H226263   0.782   1.321   4.139
 8774TIP3   OH226264   4.874   7.741   4.318
 8774TIP3    H126265   4.839   7.827   4.339
 8774TIP3    H226266   4.958   7.759   4.276
 8775TIP3   OH226267   7.671   6.136   6.313
 8775TIP3    H126268   7.755   6.177   6.334
 8775TIP3    H226269   7.635   6.111   6.398
 8776TIP3   OH226270   7.408   0.213   3.679
 8776TIP3    H126271   7.325   0.234   3.722
 8776TIP3    H226272   7.466   0.186   3.750
 8777TIP3   OH226273   2.518   4.456   5.074
 8777TIP3    H126274   2.529   4.540   5.031
 8777TIP3    H226275   2.426   4.433   5.059
 8778TIP3   OH226276   7.780   2.888   6.043
 8778TIP3    H126277   7.828   2.935   6.111
 8778TIP3    H226278   7.705   2.946   6.023
 8779TIP3   OH226279   3.275   4.703   3.655
 8779TIP3    H126280   3.354   4.750   3.628
 8779TIP3    H226281   3.276   4.623   3.602
 8780TIP3   OH226282   4.513   5.031   3.134
 8780TIP3    H126283   4.466   4.957   3.097
 8780TIP3    H226284   4.484   5.107   3.084
 8781TIP3   OH226285   2.098   6.168   2.505
 8781TIP3    H126286   2.160   6.116   2.556
 8781TIP3    H226287   2.042   6.209   2.571
 8782TIP3   OH226288   1.123   3.244   0.358
 8782TIP3    H126289   1.102   3.166   0.308
 8782TIP3    H226290   1.050   3.304   0.342
 8783TIP3   OH226291   6.461   7.784   1.659
 8783TIP3    H126292   6.499   7.702   1.627
 8783TIP3    H226293   6.518   7.810   1.731
 8784TIP3   OH226294   0.697   6.714   1.292
 8784TIP3    H126295   0.752   6.727   1.370
 8784TIP3    H226296   0.610   6.739   1.321
 8785TIP3   OH226297   3.700   5.008   5.315
 8785TIP3    H126298   3.657   5.012   5.230
 8785TIP3    H226299   3.635   4.969   5.373
 8786TIP3   OH226300   0.172   7.613   0.375
 8786TIP3    H126301   0.216   7.688   0.415
 8786TIP3    H226302   0.079   7.627   0.394
 8787TIP3   OH226303   6.244   1.944   0.332
 8787TIP3    H126304   6.292   1.862   0.342
 8787TIP3    H226305   6.152   1.919   0.337
 8788TIP3   OH226306   5.175   7.459   4.029
 8788TIP3    H126307   5.096   7.454   3.975
 8788TIP3    H226308   5.245   7.480   3.968
 8789TIP3   OH226309   1.982   2.904   0.172
 8789TIP3    H126310   2.009   2.948   0.091
 8789TIP3    H226311   2.006   2.812   0.159
 8790TIP3   OH226312   2.474   2.858   6.368
 8790TIP3    H126313   2.561   2.819   6.359
 8790TIP3    H226314   2.484   2.947   6.335
 8791TIP3   OH226315   4.589   7.571   6.643
 8791TIP3    H126316   4.568   7.641   6.705
 8791TIP3    H226317   4.605   7.494   6.698
 8792TIP3   OH226318   6.373   3.928   2.152
 8792TIP3    H126319   6.369   3.905   2.059
 8792TIP3    H226320   6.285   3.911   2.186
 8793TIP3   OH226321   1.251   2.938   2.181
 8793TIP3    H126322   1.259   2.936   2.085
 8793TIP3    H226323   1.326   2.991   2.210
 8794TIP3   OH226324   2.123   0.308   0.797
 8794TIP3    H126325   2.054   0.367   0.827
 8794TIP3    H226326   2.163   0.275   0.878
 8795TIP3   OH226327   4.782   2.592   5.098
 8795TIP3    H126328   4.687   2.594   5.090
 8795TIP3    H226329   4.813   2.666   5.046
 8796TIP3   OH226330   4.452   6.367   0.153
 8796TIP3    H126331   4.369   6.340   0.114
 8796TIP3    H226332   4.440   6.354   0.247
 8797TIP3   OH226333   3.793   4.664   3.398
 8797TIP3    H126334   3.819   4.673   3.489
 8797TIP3    H226335   3.872   4.639   3.352
 8798TIP3   OH226336   0.747   0.849   5.061
 8798TIP3    H126337   0.835   0.812   5.074
 8798TIP3    H226338   0.763   0.938   5.028
 8799TIP3   OH226339   5.876   0.208   6.791
 8799TIP3    H126340   5.801   0.170   6.745
 8799TIP3    H226341   5.932   0.133   6.811
 8800TIP3   OH226342   2.231   3.353   0.336
 8800TIP3    H126343   2.223   3.258   0.329
 8800TIP3    H226344   2.299   3.368   0.401
 8801TIP3   OH226345   0.473   3.908   2.010
 8801TIP3    H126346   0.426   3.858   2.077
 8801TIP3    H226347   0.524   3.842   1.963
 8802TIP3   OH226348   0.949   3.038   5.846
 8802TIP3    H126349   0.997   3.095   5.905
 8802TIP3    H226350   0.956   2.951   5.885
 8803TIP3   OH226351   2.868   2.014   3.416
 8803TIP3    H126352   2.943   1.964   3.385
 8803TIP3    H226353   2.848   1.977   3.502
 8804TIP3   OH226354   0.550   4.508   0.554
 8804TIP3    H126355   0.560   4.459   0.472
 8804TIP3    H226356   0.477   4.568   0.536
 8805TIP3   OH226357   5.393   3.023   4.146
 8805TIP3    H126358   5.417   3.058   4.060
 8805TIP3    H226359   5.349   3.096   4.190
 8806TIP3   OH226360   5.309   7.559   2.574
 8806TIP3    H126361   5.311   7.571   2.669
 8806TIP3    H226362   5.242   7.493   2.559
 8807TIP3   OH226363   7.510   0.988   1.787
 8807TIP3    H126364   7.539   0.897   1.783
 8807TIP3    H226365   7.461   1.001   1.706
 8808TIP3   OH226366   5.580   1.633   0.234
 8808TIP3    H126367   5.517   1.670   0.296
 8808TIP3    H226368   5.526   1.594   0.165
 8809TIP3   OH226369   2.339   1.602   5.022
 8809TIP3    H126370   2.355   1.695   5.032
 8809TIP3    H226371   2.316   1.591   4.930
 8810TIP3   OH226372   7.396   6.701   4.718
 8810TIP3    H126373   7.302   6.688   4.705
 8810TIP3    H226374   7.433   6.613   4.719
 8811TIP3   OH226375   2.557   4.484   0.299
 8811TIP3    H126376   2.502   4.531   0.237
 8811TIP3    H226377   2.595   4.412   0.248
 8812TIP3   OH226378   0.216   6.868   6.128
 8812TIP3    H126379   0.288   6.871   6.191
 8812TIP3    H226380   0.247   6.920   6.054
 8813TIP3   OH226381   1.900   3.968   2.762
 8813TIP3    H126382   1.809   3.944   2.742
 8813TIP3    H226383   1.931   3.899   2.820
 8814TIP3   OH226384   0.327   4.431   5.114
 8814TIP3    H126385   0.323   4.335   5.111
 8814TIP3    H226386   0.338   4.451   5.207
 8815TIP3   OH226387   4.818   4.974   3.121
 8815TIP3    H126388   4.802   4.926   3.202
 8815TIP3    H226389   4.730   4.995   3.088
 8816TIP3   OH226390   2.952   7.442   6.550
 8816TIP3    H126391   2.977   7.354   6.520
 8816TIP3    H226392   3.031   7.477   6.589
 8817TIP3   OH226393   4.578   6.163   3.388
 8817TIP3    H126394   4.658   6.117   3.364
 8817TIP3    H226395   4.592   6.188   3.480
 8818TIP3   OH226396   3.824   0.070   6.481
 8818TIP3    H126397   3.753   0.035   6.534
 8818TIP3    H226398   3.843   0.155   6.520
 8819TIP3   OH226399   4.691   0.715   6.503
 8819TIP3    H126400   4.677   0.661   6.425
 8819TIP3    H226401   4.712   0.802   6.468
 8820TIP3   OH226402   0.207   7.615   1.113
 8820TIP3    H126403   0.273   7.630   1.046
 8820TIP3    H226404   0.203   7.697   1.163
 8821TIP3   OH226405   4.387   2.536   0.268
 8821TIP3    H126406   4.475   2.559   0.298
 8821TIP3    H226407   4.351   2.619   0.236
 8822TIP3   OH226408   2.743   3.316   3.509
 8822TIP3    H126409   2.748   3.373   3.432
 8822TIP3    H226410   2.712   3.232   3.475
 8823TIP3   OH226411   7.659   0.942   2.096
 8823TIP3    H126412   7.669   0.890   2.016
 8823TIP3    H226413   7.566   0.934   2.119
 8824TIP3   OH226414   2.912   3.770   5.959
 8824TIP3    H126415   2.977   3.701   5.944
 8824TIP3    H226416   2.927   3.796   6.050
 8825TIP3   OH226417   0.253   2.031   0.494
 8825TIP3    H126418   0.314   2.033   0.419
 8825TIP3    H226419   0.167   2.026   0.454
 8826TIP3   OH226420   5.395   1.599   4.383
 8826TIP3    H126421   5.388   1.508   4.354
 8826TIP3    H226422   5.475   1.631   4.341
 8827TIP3   OH226423   4.505   0.975   3.819
 8827TIP3    H126424   4.422   0.965   3.772
 8827TIP3    H226425   4.484   0.956   3.910
 8828TIP3   OH226426   8.122   1.603   0.066
 8828TIP3    H126427   8.070   1.684   0.062
 8828TIP3    H226428   8.087   1.556   0.142
 8829TIP3   OH226429   5.677   5.409   2.001
 8829TIP3    H126430   5.596   5.459   2.013
 8829TIP3    H226431   5.743   5.458   2.049
 8830TIP3   OH226432   0.815   6.856   4.977
 8830TIP3    H126433   0.902   6.818   4.972
 8830TIP3    H226434   0.809   6.912   4.899
 8831TIP3   OH226435   7.553   2.639   4.124
 8831TIP3    H126436   7.484   2.632   4.190
 8831TIP3    H226437   7.632   2.662   4.174
 8832TIP3   OH226438   7.382   6.929   6.149
 8832TIP3    H126439   7.426   6.978   6.219
 8832TIP3    H226440   7.450   6.915   6.083
 8833TIP3   OH226441   7.940   4.054   4.892
 8833TIP3    H126442   7.887   4.043   4.813
 8833TIP3    H226443   7.983   3.969   4.904
 8834TIP3   OH226444   7.203   1.945   3.234
 8834TIP3    H126445   7.225   1.944   3.327
 8834TIP3    H226446   7.271   1.999   3.194
 8835TIP3   OH226447   7.923   1.309   3.440
 8835TIP3    H126448   7.881   1.369   3.502
 8835TIP3    H226449   7.888   1.336   3.354
 8836TIP3   OH226450   3.783   6.668   3.128
 8836TIP3    H126451   3.721   6.610   3.083
 8836TIP3    H226452   3.846   6.693   3.061
 8837TIP3   OH226453   2.548   1.145   1.364
 8837TIP3    H126454   2.572   1.211   1.429
 8837TIP3    H226455   2.582   1.179   1.282
 8838TIP3   OH226456   4.335   5.348   6.276
 8838TIP3    H126457   4.349   5.269   6.225
 8838TIP3    H226458   4.423   5.382   6.292
 8839TIP3   OH226459   5.523   2.134   4.155
 8839TIP3    H126460   5.565   2.050   4.175
 8839TIP3    H226461   5.567   2.197   4.213
 8840TIP3   OH226462   5.897   7.296   6.218
 8840TIP3    H126463   5.912   7.231   6.286
 8840TIP3    H226464   5.946   7.263   6.142
 8841TIP3   OH226465   5.573   2.650   6.328
 8841TIP3    H126466   5.508   2.582   6.312
 8841TIP3    H226467   5.557   2.678   6.418
 8842TIP3   OH226468   6.685   0.634   5.861
 8842TIP3    H126469   6.687   0.539   5.857
 8842TIP3    H226470   6.653   0.654   5.949
 8843TIP3   OH226471   7.896   1.265   3.836
 8843TIP3    H126472   7.835   1.248   3.764
 8843TIP3    H226473   7.862   1.344   3.878
 8844TIP3   OH226474   0.040   2.400   3.669
 8844TIP3    H126475   0.084   2.484   3.684
 8844TIP3    H226476   0.104   2.335   3.699
 8845TIP3   OH226477   3.797   2.016   5.931
 8845TIP3    H126478   3.837   1.942   5.976
 8845TIP3    H226479   3.870   2.077   5.915
 8846TIP3   OH226480   3.966   3.044   6.395
 8846TIP3    H126481   4.004   3.045   6.483
 8846TIP3    H226482   4.025   2.987   6.345
 8847TIP3   OH226483   8.058   2.938   5.940
 8847TIP3    H126484   7.970   2.903   5.955
 8847TIP3    H226485   8.100   2.937   6.026
 8848TIP3   OH226486   5.063   1.460   4.688
 8848TIP3    H126487   5.157   1.478   4.696
 8848TIP3    H226488   5.028   1.475   4.775
 8849TIP3   OH226489   2.207   1.418   3.515
 8849TIP3    H126490   2.241   1.439   3.427
 8849TIP3    H226491   2.112   1.417   3.504
 8850TIP3   OH226492   1.643   3.545   0.668
 8850TIP3    H126493   1.580   3.478   0.642
 8850TIP3    H226494   1.714   3.497   0.709
 8851TIP3   OH226495   4.638   1.149   1.863
 8851TIP3    H126496   4.592   1.180   1.785
 8851TIP3    H226497   4.710   1.096   1.829
 8852TIP3   OH226498   5.242   3.092   4.386
 8852TIP3    H126499   5.168   3.042   4.352
 8852TIP3    H226500   5.228   3.094   4.481
 8853TIP3   OH226501   6.698   1.302   6.574
 8853TIP3    H126502   6.732   1.368   6.515
 8853TIP3    H226503   6.754   1.307   6.651
 8854TIP3   OH226504   4.542   2.587   4.706
 8854TIP3    H126505   4.595   2.664   4.727
 8854TIP3    H226506   4.454   2.609   4.737
 8855TIP3   OH226507   6.095   0.394   1.484
 8855TIP3    H126508   6.115   0.327   1.549
 8855TIP3    H226509   6.142   0.366   1.406
 8856TIP3   OH226510   3.475   4.073   4.508
 8856TIP3    H126511   3.452   4.072   4.416
 8856TIP3    H226512   3.548   4.011   4.515
 8857TIP3   OH226513   4.563   2.492   1.003
 8857TIP3    H126514   4.519   2.574   0.982
 8857TIP3    H226515   4.642   2.493   0.949
 8858TIP3   OH226516   5.623   2.690   1.626
 8858TIP3    H126517   5.662   2.774   1.603
 8858TIP3    H226518   5.693   2.626   1.612
 8859TIP3   OH226519   2.126   4.233   6.663
 8859TIP3    H126520   2.057   4.298   6.676
 8859TIP3    H226521   2.087   4.150   6.690
 8860TIP3   OH226522   4.586   5.149   4.340
 8860TIP3    H126523   4.647   5.079   4.362
 8860TIP3    H226524   4.502   5.118   4.373
 8861TIP3   OH226525   4.711   3.400   4.550
 8861TIP3    H126526   4.707   3.399   4.646
 8861TIP3    H226527   4.727   3.492   4.528
 8862TIP3   OH226528   5.873   0.312   3.634
 8862TIP3    H126529   5.919   0.296   3.716
 8862TIP3    H226530   5.784   0.282   3.650
 8863TIP3   OH226531   1.479   0.256   5.760
 8863TIP3    H126532   1.458   0.174   5.803
 8863TIP3    H226533   1.462   0.239   5.667
 8864TIP3   OH226534   4.513   4.907   0.254
 8864TIP3    H126535   4.441   4.906   0.317
 8864TIP3    H226536   4.524   4.816   0.228
 8865TIP3   OH226537   0.999   6.409   4.732
 8865TIP3    H126538   0.923   6.406   4.790
 8865TIP3    H226539   1.031   6.318   4.730
 8866TIP3   OH226540   0.413   6.088   2.660
 8866TIP3    H126541   0.481   6.153   2.642
 8866TIP3    H226542   0.444   6.042   2.738
 8867TIP3   OH226543   2.994   2.459   4.974
 8867TIP3    H126544   2.963   2.538   5.018
 8867TIP3    H226545   2.934   2.390   5.005
 8868TIP3   OH226546   8.298   5.251   0.550
 8868TIP3    H126547   8.333   5.330   0.592
 8868TIP3    H226548   8.246   5.208   0.619
 8869TIP3   OH226549   2.367   3.706   5.183
 8869TIP3    H126550   2.403   3.750   5.106
 8869TIP3    H226551   2.302   3.645   5.147
 8870TIP3   OH226552   7.796   7.040   5.874
 8870TIP3    H126553   7.828   7.128   5.859
 8870TIP3    H226554   7.807   7.026   5.968
 8871TIP3   OH226555   5.555   1.825   6.245
 8871TIP3    H126556   5.513   1.901   6.205
 8871TIP3    H226557   5.482   1.774   6.281
 8872TIP3   OH226558   6.633   3.722   0.557
 8872TIP3    H126559   6.666   3.808   0.531
 8872TIP3    H226560   6.539   3.735   0.568
 8873TIP3   OH226561   4.434   4.648   1.426
 8873TIP3    H126562   4.346   4.683   1.442
 8873TIP3    H226563   4.474   4.643   1.513
 8874TIP3   OH226564   1.768   3.565   6.217
 8874TIP3    H126565   1.820   3.541   6.140
 8874TIP3    H226566   1.829   3.556   6.290
 8875TIP3   OH226567   5.204   5.003   2.950
 8875TIP3    H126568   5.145   5.060   2.901
 8875TIP3    H226569   5.290   5.017   2.909
 8876TIP3   OH226570   3.796   6.137   0.303
 8876TIP3    H126571   3.702   6.115   0.303
 8876TIP3    H226572   3.839   6.058   0.270
 8877TIP3   OH226573   1.800   3.451   4.282
 8877TIP3    H126574   1.707   3.474   4.290
 8877TIP3    H226575   1.799   3.362   4.245
 8878TIP3   OH226576   5.521   2.858   1.884
 8878TIP3    H126577   5.533   2.791   1.951
 8878TIP3    H226578   5.571   2.826   1.809
 8879TIP3   OH226579   4.842   7.020   4.842
 8879TIP3    H126580   4.861   7.026   4.749
 8879TIP3    H226581   4.774   6.952   4.848
 8880TIP3   OH226582   3.324   6.116   6.661
 8880TIP3    H126583   3.353   6.177   6.594
 8880TIP3    H226584   3.231   6.101   6.642
 8881TIP3   OH226585   4.357   7.780   1.897
 8881TIP3    H126586   4.449   7.753   1.894
 8881TIP3    H226587   4.333   7.775   1.989
 8882TIP3   OH226588   7.415   7.621   2.911
 8882TIP3    H126589   7.346   7.635   2.846
 8882TIP3    H226590   7.456   7.539   2.887
 8883TIP3   OH226591   0.375   4.874   1.874
 8883TIP3    H126592   0.337   4.795   1.913
 8883TIP3    H226593   0.370   4.940   1.944
 8884TIP3   OH226594   4.549   1.501   5.561
 8884TIP3    H126595   4.570   1.432   5.499
 8884TIP3    H226596   4.508   1.456   5.634
 8885TIP3   OH226597   7.762   3.018   1.111
 8885TIP3    H126598   7.780   3.058   1.196
 8885TIP3    H226599   7.847   3.017   1.066
 8886TIP3   OH226600   3.718   6.613   0.957
 8886TIP3    H126601   3.718   6.530   0.909
 8886TIP3    H226602   3.803   6.614   1.002
 8887TIP3   OH226603   2.856   0.639   4.181
 8887TIP3    H126604   2.770   0.677   4.170
 8887TIP3    H226605   2.891   0.680   4.260
 8888TIP3   OH226606   1.216   0.184   0.452
 8888TIP3    H126607   1.204   0.197   0.358
 8888TIP3    H226608   1.301   0.225   0.471
 8889TIP3   OH226609   4.972   5.328   6.619
 8889TIP3    H126610   4.937   5.299   6.704
 8889TIP3    H226611   5.065   5.344   6.636
 8890TIP3   OH226612   0.395   1.467   4.963
 8890TIP3    H126613   0.303   1.461   4.988
 8890TIP3    H226614   0.406   1.556   4.930
 8891TIP3   OH226615   1.410   0.158   1.622
 8891TIP3    H126616   1.374   0.087   1.675
 8891TIP3    H226617   1.454   0.114   1.549
 8892TIP3   OH226618   3.764   7.227   3.759
 8892TIP3    H126619   3.740   7.243   3.851
 8892TIP3    H226620   3.685   7.190   3.721
 8893TIP3   OH226621   3.283   5.139   1.223
 8893TIP3    H126622   3.362   5.192   1.209
 8893TIP3    H226623   3.216   5.202   1.251
 8894TIP3   OH226624   7.531   0.179   4.387
 8894TIP3    H126625   7.443   0.198   4.356
 8894TIP3    H226626   7.549   0.248   4.451
 8895TIP3   OH226627   3.651   3.664   0.440
 8895TIP3    H126628   3.743   3.658   0.414
 8895TIP3    H226629   3.613   3.581   0.413
 8896TIP3   OH226630   0.601   2.583   3.064
 8896TIP3    H126631   0.671   2.594   3.129
 8896TIP3    H226632   0.558   2.669   3.060
 8897TIP3   OH226633   7.529   1.815   5.225
 8897TIP3    H126634   7.607   1.759   5.228
 8897TIP3    H226635   7.512   1.837   5.317
 8898TIP3   OH226636   7.309   6.354   6.505
 8898TIP3    H126637   7.248   6.286   6.478
 8898TIP3    H226638   7.373   6.358   6.433
 8899TIP3   OH226639   3.471   3.897   2.491
 8899TIP3    H126640   3.380   3.886   2.463
 8899TIP3    H226641   3.466   3.899   2.587
 8900TIP3   OH226642   1.427   4.871   4.280
 8900TIP3    H126643   1.516   4.850   4.306
 8900TIP3    H226644   1.415   4.963   4.307
 8901TIP3   OH226645   2.165   6.291   3.128
 8901TIP3    H126646   2.157   6.198   3.109
 8901TIP3    H226647   2.158   6.334   3.043
 8902TIP3   OH226648   2.208   2.023   4.494
 8902TIP3    H126649   2.199   1.938   4.536
 8902TIP3    H226650   2.201   2.086   4.566
 8903TIP3   OH226651   2.164   1.971   5.842
 8903TIP3    H126652   2.100   1.933   5.902
 8903TIP3    H226653   2.231   1.903   5.830
 8904TIP3   OH226654   1.479   7.009   2.176
 8904TIP3    H126655   1.506   6.968   2.094
 8904TIP3    H226656   1.385   6.994   2.182
 8905TIP3   OH226657   4.972   7.051   0.580
 8905TIP3    H126658   4.926   6.969   0.564
 8905TIP3    H226659   4.955   7.071   0.672
 8906TIP3   OH226660   2.217   6.321   1.111
 8906TIP3    H126661   2.247   6.338   1.201
 8906TIP3    H226662   2.265   6.384   1.057
 8907TIP3   OH226663   2.290   2.792   5.390
 8907TIP3    H126664   2.197   2.802   5.368
 8907TIP3    H226665   2.332   2.866   5.346
 8908TIP3   OH226666   8.142   5.402   0.232
 8908TIP3    H126667   8.123   5.403   0.139
 8908TIP3    H226668   8.087   5.333   0.268
 8909TIP3   OH226669   6.423   3.062   0.715
 8909TIP3    H126670   6.416   2.992   0.649
 8909TIP3    H226671   6.506   3.044   0.759
 8910TIP3   OH226672   4.108   6.535   6.038
 8910TIP3    H126673   4.046   6.534   5.965
 8910TIP3    H226674   4.058   6.501   6.112
 8911TIP3   OH226675   0.007   3.986   5.198
 8911TIP3    H126676   0.025   4.075   5.168
 8911TIP3    H226677   0.059   3.977   5.278
 8912TIP3   OH226678   4.185   7.795   3.412
 8912TIP3    H126679   4.220   7.727   3.470
 8912TIP3    H226680   4.107   7.755   3.373
 8913TIP3   OH226681   7.102   1.720   5.650
 8913TIP3    H126682   7.105   1.679   5.563
 8913TIP3    H226683   7.147   1.803   5.639
 8914TIP3   OH226684   0.605   5.535   4.570
 8914TIP3    H126685   0.543   5.495   4.631
 8914TIP3    H226686   0.649   5.603   4.622
 8915TIP3   OH226687   3.169   4.180   2.197
 8915TIP3    H126688   3.264   4.193   2.204
 8915TIP3    H226689   3.155   4.089   2.225
 8916TIP3   OH226690   8.211   7.092   5.674
 8916TIP3    H126691   8.277   7.108   5.741
 8916TIP3    H226692   8.261   7.059   5.599
 8917TIP3   OH226693   7.922   7.058   6.139
 8917TIP3    H126694   7.906   7.134   6.084
 8917TIP3    H226695   8.016   7.040   6.128
 8918TIP3   OH226696   0.519   1.267   1.971
 8918TIP3    H126697   0.591   1.326   1.948
 8918TIP3    H226698   0.559   1.203   2.029
 8919TIP3   OH226699   0.096   7.089   0.434
 8919TIP3    H126700   0.120   7.182   0.432
 8919TIP3    H226701   0.180   7.043   0.445
 8920TIP3   OH226702   1.071   1.165   5.412
 8920TIP3    H126703   1.086   1.087   5.359
 8920TIP3    H226704   1.154   1.177   5.460
 8921TIP3   OH226705   5.489   4.126   4.907
 8921TIP3    H126706   5.455   4.193   4.966
 8921TIP3    H226707   5.447   4.144   4.823
 8922TIP3   OH226708   5.010   7.520   4.756
 8922TIP3    H126709   4.970   7.507   4.842
 8922TIP3    H226710   4.938   7.546   4.699
 8923TIP3   OH226711   3.668   0.141   1.475
 8923TIP3    H126712   3.590   0.170   1.522
 8923TIP3    H226713   3.740   0.163   1.534
 8924TIP3   OH226714   2.756   6.232   3.160
 8924TIP3    H126715   2.778   6.283   3.082
 8924TIP3    H226716   2.833   6.241   3.217
 8925TIP3   OH226717   1.813   1.821   3.523
 8925TIP3    H126718   1.799   1.791   3.433
 8925TIP3    H226719   1.725   1.819   3.562
 8926TIP3   OH226720   7.109   5.668   0.245
 8926TIP3    H126721   7.042   5.729   0.213
 8926TIP3    H226722   7.098   5.669   0.340
 8927TIP3   OH226723   3.934   5.728   1.076
 8927TIP3    H126724   3.914   5.677   1.154
 8927TIP3    H226725   3.850   5.736   1.030
 8928TIP3   OH226726   5.495   2.731   0.662
 8928TIP3    H126727   5.439   2.725   0.740
 8928TIP3    H226728   5.443   2.782   0.600
 8929TIP3   OH226729   3.590   2.857   1.208
 8929TIP3    H126730   3.556   2.797   1.274
 8929TIP3    H226731   3.644   2.919   1.256
 8930TIP3   OH226732   4.498   0.027   0.488
 8930TIP3    H126733   4.407   0.003   0.508
 8930TIP3    H226734   4.498   0.044   0.394
 8931TIP3   OH226735   4.894   2.586   3.352
 8931TIP3    H126736   4.988   2.576   3.340
 8931TIP3    H226737   4.857   2.500   3.330
 8932TIP3   OH226738   3.877   0.796   2.919
 8932TIP3    H126739   3.949   0.780   2.858
 8932TIP3    H226740   3.906   0.870   2.973
 8933TIP3   OH226741   7.738   3.942   0.568
 8933TIP3    H126742   7.775   4.009   0.626
 8933TIP3    H226743   7.748   3.978   0.480
 8934TIP3   OH226744   0.858   4.692   1.890
 8934TIP3    H126745   0.796   4.667   1.821
 8934TIP3    H226746   0.943   4.666   1.856
 8935TIP3   OH226747   0.430   4.595   3.236
 8935TIP3    H126748   0.345   4.556   3.215
 8935TIP3    H226749   0.414   4.690   3.233
 8936TIP3   OH226750   1.005   4.140   0.552
 8936TIP3    H126751   0.948   4.064   0.547
 8936TIP3    H226752   1.089   4.105   0.581
 8937TIP3   OH226753   8.071   4.993   6.228
 8937TIP3    H126754   8.085   5.058   6.297
 8937TIP3    H226755   8.034   5.044   6.156
 8938TIP3   OH226756   7.211   0.836   4.962
 8938TIP3    H126757   7.248   0.922   4.979
 8938TIP3    H226758   7.186   0.838   4.870
 8939TIP3   OH226759   7.079   3.768   0.162
 8939TIP3    H126760   7.004   3.710   0.173
 8939TIP3    H226761   7.094   3.769   0.068
 8940TIP3   OH226762   7.693   4.112   5.161
 8940TIP3    H126763   7.735   4.182   5.211
 8940TIP3    H226764   7.669   4.154   5.078
 8941TIP3   OH226765   2.491   0.534   6.320
 8941TIP3    H126766   2.462   0.625   6.333
 8941TIP3    H226767   2.525   0.533   6.230
 8942TIP3   OH226768   1.084   7.620   2.850
 8942TIP3    H126769   1.130   7.627   2.933
 8942TIP3    H226770   0.998   7.583   2.873
 8943TIP3   OH226771   6.291   1.648   1.585
 8943TIP3    H126772   6.341   1.649   1.504
 8943TIP3    H226773   6.204   1.678   1.561
 8944TIP3   OH226774   1.674   2.661   1.427
 8944TIP3    H126775   1.736   2.731   1.409
 8944TIP3    H226776   1.703   2.589   1.371
 8945TIP3   OH226777   8.136   7.318   6.473
 8945TIP3    H126778   8.158   7.269   6.552
 8945TIP3    H226779   8.213   7.371   6.455
 8946TIP3   OH226780   0.952   3.294   1.441
 8946TIP3    H126781   0.934   3.370   1.496
 8946TIP3    H226782   0.975   3.224   1.502
 8947TIP3   OH226783   6.170   3.148   2.376
 8947TIP3    H126784   6.200   3.239   2.367
 8947TIP3    H226785   6.184   3.127   2.468
 8948TIP3   OH226786   6.128   5.977   0.054
 8948TIP3    H126787   6.217   5.972   0.090
 8948TIP3    H226788   6.112   6.070   0.041
 8949TIP3   OH226789   3.598   1.943   2.438
 8949TIP3    H126790   3.656   2.010   2.403
 8949TIP3    H226791   3.656   1.885   2.488
 8950TIP3   OH226792   8.203   1.408   4.689
 8950TIP3    H126793   8.254   1.422   4.608
 8950TIP3    H226794   8.163   1.323   4.677
 8951TIP3   OH226795   0.547   1.257   3.410
 8951TIP3    H126796   0.632   1.299   3.404
 8951TIP3    H226797   0.508   1.291   3.490
 8952TIP3   OH226798   0.749   6.723   5.406
 8952TIP3    H126799   0.754   6.752   5.497
 8952TIP3    H226800   0.781   6.633   5.408
 8953TIP3   OH226801   0.670   2.343   2.581
 8953TIP3    H126802   0.613   2.404   2.628
 8953TIP3    H226803   0.688   2.273   2.645
 8954TIP3   OH226804   0.314   6.786   0.910
 8954TIP3    H126805   0.389   6.760   0.962
 8954TIP3    H226806   0.315   6.727   0.835
 8955TIP3   OH226807   3.627   3.270   3.039
 8955TIP3    H126808   3.709   3.245   2.996
 8955TIP3    H226809   3.621   3.211   3.114
 8956TIP3   OH226810   3.925   7.289   4.281
 8956TIP3    H126811   3.940   7.367   4.228
 8956TIP3    H226812   3.987   7.297   4.353
 8957TIP3   OH226813   3.267   4.552   4.837
 8957TIP3    H126814   3.187   4.504   4.856
 8957TIP3    H226815   3.259   4.577   4.745
 8958TIP3   OH226816   6.384   1.255   6.291
 8958TIP3    H126817   6.297   1.274   6.328
 8958TIP3    H226818   6.380   1.162   6.268
 8959TIP3   OH226819   5.909   3.742   0.764
 8959TIP3    H126820   5.885   3.755   0.672
 8959TIP3    H226821   6.004   3.734   0.763
 8960TIP3   OH226822   4.457   3.097   6.600
 8960TIP3    H126823   4.528   3.156   6.578
 8960TIP3    H226824   4.380   3.153   6.607
 8961TIP3   OH226825   3.176   5.807   1.646
 8961TIP3    H126826   3.148   5.764   1.565
 8961TIP3    H226827   3.132   5.892   1.644
 8962TIP3   OH226828   5.996   6.745   6.015
 8962TIP3    H126829   5.941   6.762   6.091
 8962TIP3    H226830   6.066   6.810   6.022
 8963TIP3   OH226831   7.258   2.722   4.051
 8963TIP3    H126832   7.292   2.784   3.987
 8963TIP3    H226833   7.336   2.679   4.086
 8964TIP3   OH226834   5.239   0.051   2.669
 8964TIP3    H126835   5.179  -0.014   2.707
 8964TIP3    H226836   5.293   0.002   2.608
 8965TIP3   OH226837   0.091   7.435   2.102
 8965TIP3    H126838   0.136   7.393   2.175
 8965TIP3    H226839   0.160   7.476   2.050
 8966TIP3   OH226840   2.240   6.001   3.413
 8966TIP3    H126841   2.243   6.094   3.387
 8966TIP3    H226842   2.332   5.976   3.422
 8967TIP3   OH226843   0.615   2.580   1.207
 8967TIP3    H126844   0.658   2.663   1.187
 8967TIP3    H226845   0.543   2.603   1.265
 8968TIP3   OH226846   2.369   1.815   5.739
 8968TIP3    H126847   2.313   1.737   5.740
 8968TIP3    H226848   2.454   1.783   5.707
 8969TIP3   OH226849   0.273   3.475   4.364
 8969TIP3    H126850   0.340   3.505   4.425
 8969TIP3    H226851   0.228   3.555   4.336
 8970TIP3   OH226852   6.978   6.169   2.075
 8970TIP3    H126853   7.051   6.148   2.135
 8970TIP3    H226854   6.903   6.182   2.133
 8971TIP3   OH226855   3.787   5.927   3.606
 8971TIP3    H126856   3.806   5.845   3.652
 8971TIP3    H226857   3.716   5.905   3.546
 8972TIP3   OH226858   2.222   0.802   4.538
 8972TIP3    H126859   2.129   0.782   4.526
 8972TIP3    H226860   2.265   0.763   4.462
 8973TIP3   OH226861   6.883   3.300   4.743
 8973TIP3    H126862   6.924   3.221   4.709
 8973TIP3    H226863   6.823   3.327   4.673
 8974TIP3   OH226864   5.090   2.919   3.745
 8974TIP3    H126865   5.052   2.938   3.659
 8974TIP3    H226866   5.183   2.940   3.734
 8975TIP3   OH226867   6.972   2.175   1.658
 8975TIP3    H126868   7.049   2.139   1.701
 8975TIP3    H226869   6.931   2.231   1.724
 8976TIP3   OH226870   2.668   2.871   1.871
 8976TIP3    H126871   2.757   2.906   1.879
 8976TIP3    H226872   2.681   2.779   1.847
 8977TIP3   OH226873   1.648   3.010   4.355
 8977TIP3    H126874   1.623   3.050   4.272
 8977TIP3    H226875   1.630   3.078   4.420
 8978TIP3   OH226876   6.525   3.790   0.270
 8978TIP3    H126877   6.432   3.810   0.259
 8978TIP3    H226878   6.536   3.776   0.364
 8979TIP3   OH226879   3.366   7.303   4.198
 8979TIP3    H126880   3.453   7.312   4.236
 8979TIP3    H226881   3.360   7.212   4.169
 8980TIP3   OH226882   0.580   4.223   0.953
 8980TIP3    H126883   0.654   4.283   0.954
 8980TIP3    H226884   0.523   4.253   1.023
 8981TIP3   OH226885   5.187   5.053   0.763
 8981TIP3    H126886   5.241   5.120   0.722
 8981TIP3    H226887   5.111   5.044   0.704
 8982TIP3   OH226888   3.154   3.063   6.397
 8982TIP3    H126889   3.150   3.114   6.316
 8982TIP3    H226890   3.117   3.121   6.464
 8983TIP3   OH226891   6.865   6.270   3.814
 8983TIP3    H126892   6.947   6.237   3.849
 8983TIP3    H226893   6.886   6.299   3.725
 8984TIP3   OH226894   1.623   4.452   1.649
 8984TIP3    H126895   1.556   4.394   1.685
 8984TIP3    H226896   1.704   4.403   1.657
 8985TIP3   OH226897   0.141   5.908   3.188
 8985TIP3    H126898   0.072   5.895   3.253
 8985TIP3    H226899   0.200   5.833   3.200
 8986TIP3   OH226900   3.791   0.730   1.142
 8986TIP3    H126901   3.732   0.779   1.199
 8986TIP3    H226902   3.800   0.644   1.183
 8987TIP3   OH226903   3.008   4.807   5.357
 8987TIP3    H126904   2.923   4.843   5.383
 8987TIP3    H226905   3.050   4.876   5.306
 8988TIP3   OH226906   0.192   4.198   6.743
 8988TIP3    H126907   0.217   4.206   6.651
 8988TIP3    H226908   0.256   4.251   6.791
 8989TIP3   OH226909   7.752   0.196   0.563
 8989TIP3    H126910   7.683   0.138   0.530
 8989TIP3    H226911   7.832   0.163   0.521
 8990TIP3   OH226912   4.646   2.158   6.628
 8990TIP3    H126913   4.720   2.098   6.618
 8990TIP3    H226914   4.576   2.117   6.578
 8991TIP3   OH226915   6.536   3.417   2.867
 8991TIP3    H126916   6.487   3.487   2.908
 8991TIP3    H226917   6.546   3.445   2.776
 8992TIP3   OH226918   2.915   4.722   6.412
 8992TIP3    H126919   2.970   4.791   6.449
 8992TIP3    H226920   2.953   4.705   6.325
 8993TIP3   OH226921   3.131   2.496   6.132
 8993TIP3    H126922   3.063   2.538   6.185
 8993TIP3    H226923   3.213   2.524   6.172
 8994TIP3   OH226924   7.344   7.205   0.565
 8994TIP3    H126925   7.427   7.237   0.532
 8994TIP3    H226926   7.278   7.265   0.530
 8995TIP3   OH226927   7.126   5.789   4.091
 8995TIP3    H126928   7.048   5.786   4.146
 8995TIP3    H226929   7.093   5.775   4.002
 8996TIP3   OH226930   3.110   1.575   6.685
 8996TIP3    H126931   3.127   1.500   6.742
 8996TIP3    H226932   3.116   1.651   6.742
 8997TIP3   OH226933   2.697   2.863   1.103
 8997TIP3    H126934   2.766   2.843   1.039
 8997TIP3    H226935   2.653   2.940   1.067
 8998TIP3   OH226936   0.830   1.842   4.480
 8998TIP3    H126937   0.806   1.749   4.476
 8998TIP3    H226938   0.751   1.889   4.453
 8999TIP3   OH226939   0.331   2.923   3.435
 8999TIP3    H126940   0.280   2.919   3.516
 8999TIP3    H226941   0.402   2.984   3.454
 9000TIP3   OH226942   4.213   2.758   5.860
 9000TIP3    H126943   4.244   2.830   5.915
 9000TIP3    H226944   4.294   2.719   5.824
 9001TIP3   OH226945   5.195   0.712   3.381
 9001TIP3    H126946   5.111   0.727   3.338
 9001TIP3    H226947   5.219   0.797   3.418
 9002TIP3   OH226948   1.311   1.360   2.555
 9002TIP3    H126949   1.263   1.296   2.607
 9002TIP3    H226950   1.258   1.441   2.562
 9003TIP3   OH226951   0.507   5.866   6.670
 9003TIP3    H126952   0.551   5.917   6.737
 9003TIP3    H226953   0.420   5.849   6.706
 9004TIP3   OH226954   2.637   1.464   2.424
 9004TIP3    H126955   2.638   1.383   2.474
 9004TIP3    H226956   2.662   1.438   2.335
 9005TIP3   OH226957   8.238   1.253   0.421
 9005TIP3    H126958   8.290   1.176   0.443
 9005TIP3    H226959   8.204   1.235   0.334
 9006TIP3   OH226960   6.029   6.495   4.895
 9006TIP3    H126961   5.994   6.470   4.809
 9006TIP3    H226962   6.114   6.534   4.877
 9007TIP3   OH226963   5.628   6.700   0.159
 9007TIP3    H126964   5.672   6.681   0.242
 9007TIP3    H226965   5.549   6.747   0.184
 9008TIP3   OH226966   7.513   3.475   5.948
 9008TIP3    H126967   7.600   3.496   5.982
 9008TIP3    H226968   7.509   3.520   5.863
 9009TIP3   OH226969   4.717   2.988   2.278
 9009TIP3    H126970   4.757   3.065   2.320
 9009TIP3    H226971   4.707   3.013   2.187
 9010TIP3   OH226972   6.235   0.669   3.864
 9010TIP3    H126973   6.257   0.700   3.777
 9010TIP3    H226974   6.278   0.584   3.871
 9011TIP3   OH226975   6.027   5.020   6.189
 9011TIP3    H126976   5.967   5.092   6.208
 9011TIP3    H226977   6.095   5.027   6.257
 9012TIP3   OH226978   5.751   6.139   4.942
 9012TIP3    H126979   5.669   6.101   4.973
 9012TIP3    H226980   5.752   6.121   4.848
 9013TIP3   OH226981   7.979   0.033   0.494
 9013TIP3    H126982   8.002  -0.058   0.512
 9013TIP3    H226983   7.990   0.044   0.400
 9014TIP3   OH226984   7.699   1.096   4.207
 9014TIP3    H126985   7.786   1.096   4.168
 9014TIP3    H226986   7.650   1.030   4.157
 9015TIP3   OH226987   1.086   4.035   0.235
 9015TIP3    H126988   1.086   4.115   0.287
 9015TIP3    H226989   1.174   4.030   0.199
 9016TIP3   OH226990   1.642   4.371   3.773
 9016TIP3    H126991   1.708   4.339   3.710
 9016TIP3    H226992   1.691   4.428   3.832
 9017TIP3   OH226993   6.303   4.821   3.078
 9017TIP3    H126994   6.274   4.845   3.166
 9017TIP3    H226995   6.398   4.828   3.080
 9018TIP3   OH226996   4.355   3.450   6.360
 9018TIP3    H126997   4.312   3.383   6.412
 9018TIP3    H226998   4.405   3.401   6.294
 9019TIP3   OH226999   7.396   0.234   6.347
 9019TIP3    H127000   7.367   0.150   6.384
 9019TIP3    H227001   7.490   0.238   6.366
 9020TIP3   OH227002   4.492   3.472   0.510
 9020TIP3    H127003   4.432   3.531   0.464
 9020TIP3    H227004   4.456   3.464   0.598
 9021TIP3   OH227005   7.823   5.173   4.220
 9021TIP3    H127006   7.773   5.098   4.253
 9021TIP3    H227007   7.866   5.141   4.142
 9022TIP3   OH227008   4.771   3.012   5.879
 9022TIP3    H127009   4.772   3.024   5.784
 9022TIP3    H227010   4.715   3.082   5.911
 9023TIP3   OH227011   6.096   0.377   1.772
 9023TIP3    H127012   6.103   0.283   1.754
 9023TIP3    H227013   6.185   0.410   1.764
 9024TIP3   OH227014   6.619   5.990   0.436
 9024TIP3    H127015   6.623   5.917   0.374
 9024TIP3    H227016   6.682   6.054   0.404
 9025TIP3   OH227017   2.279   4.131   5.850
 9025TIP3    H127018   2.217   4.083   5.795
 9025TIP3    H227019   2.234   4.141   5.934
 9026TIP3   OH227020   7.160   1.017   3.437
 9026TIP3    H127021   7.208   0.962   3.500
 9026TIP3    H227022   7.077   1.037   3.480
 9027TIP3   OH227023   2.118   0.050   0.346
 9027TIP3    H127024   2.151   0.043   0.436
 9027TIP3    H227025   2.023   0.050   0.356
 9028TIP3   OH227026   5.749   4.250   4.751
 9028TIP3    H127027   5.828   4.287   4.790
 9028TIP3    H227028   5.737   4.167   4.797
 9029TIP3   OH227029   1.438   3.321   0.637
 9029TIP3    H127030   1.400   3.370   0.564
 9029TIP3    H227031   1.421   3.229   0.615
 9030TIP3   OH227032   0.337   5.370   6.242
 9030TIP3    H127033   0.243   5.386   6.237
 9030TIP3    H227034   0.370   5.435   6.304
 9031TIP3   OH227035   3.338   4.636   6.519
 9031TIP3    H127036   3.344   4.609   6.610
 9031TIP3    H227037   3.429   4.637   6.488
 9032TIP3   OH227038   3.678   3.902   5.116
 9032TIP3    H127039   3.637   3.962   5.054
 9032TIP3    H227040   3.751   3.863   5.067
 9033TIP3   OH227041   8.015   3.615   6.673
 9033TIP3    H127042   7.960   3.558   6.726
 9033TIP3    H227043   8.011   3.700   6.716
 9034TIP3   OH227044   5.990   0.558   2.404
 9034TIP3    H127045   5.918   0.621   2.405
 9034TIP3    H227046   5.948   0.472   2.412
 9035TIP3   OH227047   1.121   0.306   5.118
 9035TIP3    H127048   1.059   0.344   5.056
 9035TIP3    H227049   1.195   0.278   5.064
 9036TIP3   OH227050   1.002   7.234   4.944
 9036TIP3    H127051   0.940   7.210   4.875
 9036TIP3    H227052   0.954   7.295   4.999
 9037TIP3   OH227053   0.197   1.582   4.619
 9037TIP3    H127054   0.105   1.578   4.591
 9037TIP3    H227055   0.224   1.672   4.601
 9038TIP3   OH227056   6.244   6.061   1.545
 9038TIP3    H127057   6.159   6.059   1.500
 9038TIP3    H227058   6.307   6.074   1.475
 9039TIP3   OH227059   4.416   1.618   4.680
 9039TIP3    H127060   4.346   1.561   4.649
 9039TIP3    H227061   4.497   1.571   4.658
 9040TIP3   OH227062   4.122   3.949   5.773
 9040TIP3    H127063   4.202   3.932   5.723
 9040TIP3    H227064   4.066   3.874   5.753
 9041TIP3   OH227065   0.500   6.916   2.663
 9041TIP3    H127066   0.414   6.911   2.621
 9041TIP3    H227067   0.498   6.848   2.730
 9042TIP3   OH227068   5.716   1.373   3.272
 9042TIP3    H127069   5.659   1.302   3.243
 9042TIP3    H227070   5.802   1.334   3.281
 9043TIP3   OH227071   5.348   4.308   3.833
 9043TIP3    H127072   5.430   4.337   3.794
 9043TIP3    H227073   5.362   4.317   3.928
 9044TIP3   OH227074   1.611   4.312   0.988
 9044TIP3    H127075   1.640   4.353   0.906
 9044TIP3    H227076   1.517   4.331   0.991
 9045TIP3   OH227077   0.923   7.059   2.582
 9045TIP3    H127078   0.953   6.968   2.586
 9045TIP3    H227079   0.968   7.102   2.655
 9046TIP3   OH227080   7.790   1.929   5.485
 9046TIP3    H127081   7.823   1.900   5.400
 9046TIP3    H227082   7.869   1.946   5.536
 9047TIP3   OH227083   2.497   3.240   1.325
 9047TIP3    H127084   2.534   3.267   1.409
 9047TIP3    H227085   2.529   3.305   1.263
 9048TIP3   OH227086   4.568   1.596   6.657
 9048TIP3    H127087   4.501   1.530   6.676
 9048TIP3    H227088   4.639   1.575   6.718
 9049TIP3   OH227089   7.588   3.708   6.344
 9049TIP3    H127090   7.535   3.762   6.402
 9049TIP3    H227091   7.609   3.765   6.270
 9050TIP3   OH227092   7.631   4.818   5.877
 9050TIP3    H127093   7.721   4.844   5.895
 9050TIP3    H227094   7.595   4.890   5.825
 9051TIP3   OH227095   2.714   6.387   4.709
 9051TIP3    H127096   2.773   6.427   4.773
 9051TIP3    H227097   2.670   6.462   4.667
 9052TIP3   OH227098   1.810   4.269   0.640
 9052TIP3    H127099   1.882   4.214   0.610
 9052TIP3    H227100   1.842   4.359   0.628
 9053TIP3   OH227101   4.949   4.093   1.027
 9053TIP3    H127102   4.916   4.160   0.968
 9053TIP3    H227103   4.894   4.100   1.105
 9054TIP3   OH227104   6.872   6.654   3.708
 9054TIP3    H127105   6.957   6.694   3.692
 9054TIP3    H227106   6.828   6.713   3.769
 9055TIP3   OH227107   5.647   1.439   0.998
 9055TIP3    H127108   5.584   1.405   0.935
 9055TIP3    H227109   5.642   1.534   0.990
 9056TIP3   OH227110   4.298   4.934   6.739
 9056TIP3    H127111   4.340   4.920   6.655
 9056TIP3    H227112   4.220   4.987   6.719
 9057TIP3   OH227113   4.331   3.094   0.188
 9057TIP3    H127114   4.312   3.048   0.106
 9057TIP3    H227115   4.421   3.069   0.209
 9058TIP3   OH227116   6.954   5.926   3.879
 9058TIP3    H127117   6.872   5.976   3.886
 9058TIP3    H227118   7.022   5.990   3.900
 9059TIP3   OH227119   2.029   3.323   0.707
 9059TIP3    H127120   2.006   3.306   0.798
 9059TIP3    H227121   1.994   3.410   0.689
 9060TIP3   OH227122   7.078   4.435   3.423
 9060TIP3    H127123   7.073   4.357   3.367
 9060TIP3    H227124   7.062   4.403   3.511
 9061TIP3   OH227125   0.106   0.374   6.683
 9061TIP3    H127126   0.148   0.360   6.598
 9061TIP3    H227127   0.178   0.386   6.744
 9062TIP3   OH227128   4.254   3.711   0.507
 9062TIP3    H127129   4.223   3.620   0.508
 9062TIP3    H227130   4.273   3.730   0.599
 9063TIP3   OH227131   3.699   2.621   4.099
 9063TIP3    H127132   3.794   2.621   4.086
 9063TIP3    H227133   3.674   2.713   4.097
 9064TIP3   OH227134   6.112   4.059   2.639
 9064TIP3    H127135   6.068   4.023   2.562
 9064TIP3    H227136   6.040   4.075   2.701
 9065TIP3   OH227137   6.206   0.677   2.565
 9065TIP3    H127138   6.195   0.772   2.561
 9065TIP3    H227139   6.125   0.643   2.526
 9066TIP3   OH227140   5.746   0.903   6.668
 9066TIP3    H127141   5.756   0.997   6.682
 9066TIP3    H227142   5.824   0.864   6.708
 9067TIP3   OH227143   2.559   4.778   5.282
 9067TIP3    H127144   2.600   4.854   5.322
 9067TIP3    H227145   2.601   4.770   5.197
 9068TIP3   OH227146   3.665   6.873   5.549
 9068TIP3    H127147   3.695   6.929   5.621
 9068TIP3    H227148   3.571   6.891   5.543
 9069TIP3   OH227149   4.429   4.136   3.739
 9069TIP3    H127150   4.442   4.045   3.711
 9069TIP3    H227151   4.351   4.164   3.692
 9070TIP3   OH227152   4.504   0.636   0.861
 9070TIP3    H127153   4.597   0.656   0.866
 9070TIP3    H227154   4.495   0.552   0.906
 9071TIP3   OH227155   7.359   1.598   3.308
 9071TIP3    H127156   7.402   1.681   3.329
 9071TIP3    H227157   7.428   1.544   3.271
 9072TIP3   OH227158   0.779   4.880   3.307
 9072TIP3    H127159   0.812   4.927   3.229
 9072TIP3    H227160   0.857   4.869   3.362
 9073TIP3   OH227161   7.439   2.056   2.846
 9073TIP3    H127162   7.440   2.086   2.755
 9073TIP3    H227163   7.525   2.082   2.880
 9074TIP3   OH227164   4.765   0.076   6.496
 9074TIP3    H127165   4.770   0.172   6.488
 9074TIP3    H227166   4.733   0.046   6.412
 9075TIP3   OH227167   8.064   0.132   4.460
 9075TIP3    H127168   8.143   0.083   4.437
 9075TIP3    H227169   8.036   0.095   4.544
 9076TIP3   OH227170   5.437   7.414   6.211
 9076TIP3    H127171   5.462   7.322   6.208
 9076TIP3    H227172   5.342   7.413   6.225
 9077TIP3   OH227173   4.601   0.971   5.278
 9077TIP3    H127174   4.619   1.018   5.196
 9077TIP3    H227175   4.686   0.943   5.310
 9078TIP3   OH227176   6.867   4.683   3.761
 9078TIP3    H127177   6.830   4.754   3.708
 9078TIP3    H227178   6.889   4.725   3.844
 9079TIP3   OH227179   7.260   7.345   3.894
 9079TIP3    H127180   7.255   7.327   3.800
 9079TIP3    H227181   7.318   7.422   3.900
 9080TIP3   OH227182   0.229   6.456   0.284
 9080TIP3    H127183   0.205   6.511   0.358
 9080TIP3    H227184   0.319   6.482   0.264
 9081TIP3   OH227185   0.624   5.895   3.619
 9081TIP3    H127186   0.609   5.876   3.526
 9081TIP3    H227187   0.549   5.855   3.663
 9082TIP3   OH227188   0.175   5.005   3.640
 9082TIP3    H127189   0.182   4.912   3.618
 9082TIP3    H227190   0.264   5.031   3.662
 9083TIP3   OH227191   6.825   6.298   2.362
 9083TIP3    H127192   6.755   6.258   2.413
 9083TIP3    H227193   6.791   6.384   2.337
 9084TIP3   OH227194   0.137   3.705   6.595
 9084TIP3    H127195   0.095   3.674   6.676
 9084TIP3    H227196   0.215   3.751   6.624
 9085TIP3   OH227197   3.196   1.968   5.299
 9085TIP3    H127198   3.212   2.063   5.299
 9085TIP3    H227199   3.266   1.932   5.353
 9086TIP3   OH227200   1.925   4.906   1.322
 9086TIP3    H127201   1.891   4.825   1.285
 9086TIP3    H227202   1.985   4.941   1.256
 9087TIP3   OH227203   0.948   6.187   4.505
 9087TIP3    H127204   0.906   6.123   4.563
 9087TIP3    H227205   1.041   6.179   4.525
 9088TIP3   OH227206   6.717   0.556   1.965
 9088TIP3    H127207   6.718   0.573   1.871
 9088TIP3    H227208   6.685   0.467   1.974
 9089TIP3   OH227209   3.805   5.912   5.695
 9089TIP3    H127210   3.868   5.841   5.703
 9089TIP3    H227211   3.732   5.886   5.751
 9090TIP3   OH227212   4.321   6.984   5.193
 9090TIP3    H127213   4.229   6.977   5.221
 9090TIP3    H227214   4.321   6.953   5.103
 9091TIP3   OH227215   0.371   6.450   2.979
 9091TIP3    H127216   0.293   6.429   2.929
 9091TIP3    H227217   0.338   6.479   3.064
 9092TIP3   OH227218   2.867   3.689   2.748
 9092TIP3    H127219   2.781   3.649   2.754
 9092TIP3    H227220   2.928   3.616   2.748
 9093TIP3   OH227221   1.269   4.540   4.485
 9093TIP3    H127222   1.246   4.447   4.485
 9093TIP3    H227223   1.197   4.582   4.438
 9094TIP3   OH227224   0.274   0.785   5.636
 9094TIP3    H127225   0.207   0.783   5.568
 9094TIP3    H227226   0.227   0.806   5.717
 9095TIP3   OH227227   5.595   5.888   1.597
 9095TIP3    H127228   5.619   5.973   1.633
 9095TIP3    H227229   5.500   5.891   1.590
 9096TIP3   OH227230   3.052   2.630   5.359
 9096TIP3    H127231   3.064   2.697   5.291
 9096TIP3    H227232   3.121   2.566   5.342
 9097TIP3   OH227233   6.999   2.178   1.230
 9097TIP3    H127234   7.021   2.152   1.140
 9097TIP3    H227235   7.077   2.156   1.281
 9098TIP3   OH227236   1.329   1.191   4.340
 9098TIP3    H127237   1.337   1.096   4.337
 9098TIP3    H227238   1.239   1.209   4.312
 9099TIP3   OH227239   4.606   4.274   0.890
 9099TIP3    H127240   4.650   4.305   0.969
 9099TIP3    H227241   4.603   4.179   0.901
 9100TIP3   OH227242   5.044   4.757   3.489
 9100TIP3    H127243   5.088   4.702   3.425
 9100TIP3    H227244   5.113   4.812   3.525
 9101TIP3   OH227245   1.800   2.994   1.212
 9101TIP3    H127246   1.789   3.089   1.206
 9101TIP3    H227247   1.776   2.962   1.125
 9102TIP3   OH227248   3.449   0.142   0.720
 9102TIP3    H127249   3.536   0.154   0.681
 9102TIP3    H227250   3.427   0.228   0.755
 9103TIP3   OH227251   4.520   2.764   6.482
 9103TIP3    H127252   4.549   2.681   6.519
 9103TIP3    H227253   4.447   2.741   6.425
 9104TIP3   OH227254   7.388   5.568   2.766
 9104TIP3    H127255   7.360   5.488   2.721
 9104TIP3    H227256   7.453   5.539   2.830
 9105TIP3   OH227257   5.961   7.226   5.037
 9105TIP3    H127258   5.969   7.302   5.094
 9105TIP3    H227259   6.007   7.250   4.957
 9106TIP3   OH227260   0.210   2.229   4.987
 9106TIP3    H127261   0.264   2.202   5.061
 9106TIP3    H227262   0.216   2.324   4.986
 9107TIP3   OH227263   2.681   3.536   2.520
 9107TIP3    H127264   2.586   3.546   2.514
 9107TIP3    H227265   2.695   3.506   2.610
 9108TIP3   OH227266   1.639   5.174   4.625
 9108TIP3    H127267   1.689   5.093   4.639
 9108TIP3    H227268   1.548   5.150   4.644
 9109TIP3   OH227269   7.234   7.387   2.553
 9109TIP3    H127270   7.325   7.389   2.520
 9109TIP3    H227271   7.219   7.296   2.576
 9110TIP3   OH227272   7.764   6.056   1.654
 9110TIP3    H127273   7.736   6.135   1.701
 9110TIP3    H227274   7.844   6.029   1.700
 9111TIP3   OH227275   1.625   6.810   5.962
 9111TIP3    H127276   1.700   6.782   6.016
 9111TIP3    H227277   1.579   6.874   6.016
 9112TIP3   OH227278   1.861   1.739   4.856
 9112TIP3    H127279   1.782   1.784   4.884
 9112TIP3    H227280   1.894   1.697   4.936
 9113TIP3   OH227281   1.077   7.637   0.168
 9113TIP3    H127282   1.037   7.706   0.221
 9113TIP3    H227283   1.023   7.560   0.184
 9114TIP3   OH227284   3.269   6.913   0.852
 9114TIP3    H127285   3.260   7.000   0.813
 9114TIP3    H227286   3.285   6.855   0.777
 9115TIP3   OH227287   5.441   0.431   4.452
 9115TIP3    H127288   5.417   0.417   4.543
 9115TIP3    H227289   5.436   0.526   4.440
 9116TIP3   OH227290   0.923   0.547   4.110
 9116TIP3    H127291   0.994   0.564   4.047
 9116TIP3    H227292   0.867   0.624   4.104
 9117TIP3   OH227293   5.759   1.122   1.764
 9117TIP3    H127294   5.704   1.063   1.712
 9117TIP3    H227295   5.714   1.206   1.759
 9118TIP3   OH227296   1.365   3.625   1.850
 9118TIP3    H127297   1.369   3.534   1.819
 9118TIP3    H227298   1.347   3.618   1.944
 9119TIP3   OH227299   5.760   5.270   0.591
 9119TIP3    H127300   5.745   5.364   0.585
 9119TIP3    H227301   5.695   5.230   0.533
 9120TIP3   OH227302   4.928   0.680   0.609
 9120TIP3    H127303   4.851   0.631   0.578
 9120TIP3    H227304   4.983   0.613   0.651
 9121TIP3   OH227305   5.007   4.221   4.989
 9121TIP3    H127306   4.962   4.137   4.994
 9121TIP3    H227307   4.955   4.273   4.928
 9122TIP3   OH227308   5.286   3.145   5.983
 9122TIP3    H127309   5.283   3.059   5.942
 9122TIP3    H227310   5.199   3.183   5.968
 9123TIP3   OH227311   0.613   3.539   0.076
 9123TIP3    H127312   0.616   3.631   0.104
 9123TIP3    H227313   0.589   3.491   0.155
 9124TIP3   OH227314   2.685   0.035   5.915
 9124TIP3    H127315   2.722   0.106   5.863
 9124TIP3    H227316   2.592   0.035   5.892
 9125TIP3   OH227317   8.171   5.041   6.520
 9125TIP3    H127318   8.194   4.976   6.586
 9125TIP3    H227319   8.086   5.014   6.486
 9126TIP3   OH227320   4.100   2.187   0.445
 9126TIP3    H127321   4.115   2.280   0.463
 9126TIP3    H227322   4.153   2.168   0.368
 9127TIP3   OH227323   2.893   0.376   4.956
 9127TIP3    H127324   2.927   0.297   4.915
 9127TIP3    H227325   2.883   0.353   5.048
 9128TIP3   OH227326   2.028   1.542   2.232
 9128TIP3    H127327   2.052   1.473   2.170
 9128TIP3    H227328   2.111   1.572   2.268
 9129TIP3   OH227329   6.923   3.996   3.310
 9129TIP3    H127330   6.841   3.981   3.357
 9129TIP3    H227331   6.936   3.917   3.258
 9130TIP3   OH227332   5.555   2.793   2.881
 9130TIP3    H127333   5.485   2.736   2.915
 9130TIP3    H227334   5.520   2.826   2.798
 9131TIP3   OH227335   5.014   7.313   5.758
 9131TIP3    H127336   5.075   7.384   5.738
 9131TIP3    H227337   5.068   7.233   5.753
 9132TIP3   OH227338   6.239   5.640   0.806
 9132TIP3    H127339   6.294   5.624   0.883
 9132TIP3    H227340   6.182   5.713   0.832
 9133TIP3   OH227341   5.717   6.124   0.668
 9133TIP3    H127342   5.737   6.120   0.575
 9133TIP3    H227343   5.702   6.217   0.686
 9134TIP3   OH227344   0.150   5.982   4.285
 9134TIP3    H127345   0.142   5.967   4.379
 9134TIP3    H227346   0.074   6.036   4.263
 9135TIP3   OH227347   2.385   4.673   5.858
 9135TIP3    H127348   2.475   4.667   5.826
 9135TIP3    H227349   2.372   4.766   5.877
 9136TIP3   OH227350   1.612   6.490   2.630
 9136TIP3    H127351   1.542   6.518   2.688
 9136TIP3    H227352   1.618   6.395   2.643
 9137TIP3   OH227353   4.850   3.574   2.141
 9137TIP3    H127354   4.905   3.504   2.174
 9137TIP3    H227355   4.783   3.587   2.208
 9138TIP3   OH227356   2.558   2.952   5.310
 9138TIP3    H127357   2.653   2.942   5.312
 9138TIP3    H227358   2.544   3.044   5.289
 9139TIP3   OH227359   2.565   7.238   5.057
 9139TIP3    H127360   2.561   7.229   4.962
 9139TIP3    H227361   2.511   7.315   5.075
 9140TIP3   OH227362   0.928   6.440   2.550
 9140TIP3    H127363   0.928   6.474   2.639
 9140TIP3    H227364   1.016   6.456   2.518
 9141TIP3   OH227365   0.956   4.830   0.858
 9141TIP3    H127366   0.864   4.816   0.836
 9141TIP3    H227367   1.004   4.800   0.781
 9142TIP3   OH227368   5.347   1.650   0.414
 9142TIP3    H127369   5.337   1.565   0.455
 9142TIP3    H227370   5.266   1.662   0.364
 9143TIP3   OH227371   0.800   2.630   3.753
 9143TIP3    H127372   0.799   2.593   3.665
 9143TIP3    H227373   0.763   2.718   3.743
 9144TIP3   OH227374   3.436   1.704   2.784
 9144TIP3    H127375   3.350   1.687   2.746
 9144TIP3    H227376   3.417   1.750   2.866
 9145TIP3   OH227377   5.105   5.526   2.237
 9145TIP3    H127378   5.168   5.461   2.270
 9145TIP3    H227379   5.056   5.552   2.315
 9146TIP3   OH227380   2.422   2.089   2.513
 9146TIP3    H127381   2.407   2.151   2.441
 9146TIP3    H227382   2.363   2.016   2.495
 9147TIP3   OH227383   3.927   2.257   5.675
 9147TIP3    H127384   3.950   2.300   5.758
 9147TIP3    H227385   3.840   2.289   5.653
 9148TIP3   OH227386   4.969   2.170   3.881
 9148TIP3    H127387   5.029   2.212   3.819
 9148TIP3    H227388   4.964   2.231   3.955
 9149TIP3   OH227389   5.847   2.636   4.012
 9149TIP3    H127390   5.761   2.599   4.032
 9149TIP3    H227391   5.864   2.609   3.921
 9150TIP3   OH227392   7.556   5.521   2.985
 9150TIP3    H127393   7.624   5.479   2.931
 9150TIP3    H227394   7.546   5.462   3.059
 9151TIP3   OH227395   7.813   4.476   0.197
 9151TIP3    H127396   7.800   4.440   0.109
 9151TIP3    H227397   7.903   4.450   0.220
 9152TIP3   OH227398   6.883   4.543   4.705
 9152TIP3    H127399   6.828   4.494   4.643
 9152TIP3    H227400   6.953   4.483   4.727
 9153TIP3   OH227401   3.478   2.898   1.887
 9153TIP3    H127402   3.482   2.966   1.954
 9153TIP3    H227403   3.514   2.939   1.808
 9154TIP3   OH227404   3.878   3.722   3.331
 9154TIP3    H127405   3.813   3.789   3.308
 9154TIP3    H227406   3.828   3.654   3.375
 9155TIP3   OH227407   1.238   1.563   2.202
 9155TIP3    H127408   1.216   1.644   2.154
 9155TIP3    H227409   1.326   1.578   2.236
 9156TIP3   OH227410   5.257   7.067   2.478
 9156TIP3    H127411   5.343   7.030   2.457
 9156TIP3    H227412   5.274   7.125   2.553
 9157TIP3   OH227413   3.953   7.232   6.346
 9157TIP3    H127414   3.985   7.319   6.370
 9157TIP3    H227415   3.890   7.249   6.275
 9158TIP3   OH227416   1.310   5.912   0.245
 9158TIP3    H127417   1.300   5.817   0.240
 9158TIP3    H227418   1.229   5.947   0.206
 9159TIP3   OH227419   4.010   7.044   5.688
 9159TIP3    H127420   4.050   7.002   5.613
 9159TIP3    H227421   4.006   7.137   5.664
 9160TIP3   OH227422   2.450   1.907   3.562
 9160TIP3    H127423   2.478   1.821   3.530
 9160TIP3    H227424   2.499   1.920   3.643
 9161TIP3   OH227425   4.579   4.401   3.798
 9161TIP3    H127426   4.659   4.350   3.814
 9161TIP3    H227427   4.523   4.342   3.748
 9162TIP3   OH227428   6.725   6.284   5.169
 9162TIP3    H127429   6.734   6.336   5.089
 9162TIP3    H227430   6.649   6.228   5.153
 9163TIP3   OH227431   7.152   5.588   5.311
 9163TIP3    H127432   7.077   5.579   5.369
 9163TIP3    H227433   7.184   5.677   5.327
 9164TIP3   OH227434   7.832   0.354   2.630
 9164TIP3    H127435   7.833   0.445   2.599
 9164TIP3    H227436   7.881   0.356   2.712
 9165TIP3   OH227437   6.777   6.608   2.350
 9165TIP3    H127438   6.867   6.624   2.379
 9165TIP3    H227439   6.782   6.605   2.255
 9166TIP3   OH227440   0.784   4.249   1.356
 9166TIP3    H127441   0.769   4.343   1.369
 9166TIP3    H227442   0.871   4.234   1.391
 9167TIP3   OH227443   7.248   4.088   4.524
 9167TIP3    H127444   7.288   4.043   4.450
 9167TIP3    H227445   7.198   4.020   4.570
 9168TIP3   OH227446   4.160   2.983   0.369
 9168TIP3    H127447   4.241   3.009   0.326
 9168TIP3    H227448   4.120   3.065   0.397
 9169TIP3   OH227449   7.288   0.873   2.478
 9169TIP3    H127450   7.349   0.898   2.409
 9169TIP3    H227451   7.226   0.814   2.436
 9170TIP3   OH227452   3.414   0.345   5.312
 9170TIP3    H127453   3.487   0.295   5.274
 9170TIP3    H227454   3.371   0.283   5.371
 9171TIP3   OH227455   2.243   2.806   0.310
 9171TIP3    H127456   2.208   2.741   0.250
 9171TIP3    H227457   2.324   2.836   0.269
 9172TIP3   OH227458   4.431   1.580   6.044
 9172TIP3    H127459   4.421   1.673   6.023
 9172TIP3    H227460   4.345   1.554   6.078
 9173TIP3   OH227461   6.542   1.487   1.669
 9173TIP3    H127462   6.519   1.408   1.718
 9173TIP3    H227463   6.464   1.542   1.677
 9174TIP3   OH227464   6.923   1.186   4.883
 9174TIP3    H127465   6.905   1.145   4.798
 9174TIP3    H227466   6.864   1.262   4.885
 9175TIP3   OH227467   3.596   2.443   4.879
 9175TIP3    H127468   3.656   2.511   4.848
 9175TIP3    H227469   3.515   2.460   4.831
 9176TIP3   OH227470   2.281   3.248   0.851
 9176TIP3    H127471   2.215   3.261   0.783
 9176TIP3    H227472   2.363   3.279   0.810
 9177TIP3   OH227473   5.943   3.234   0.171
 9177TIP3    H127474   5.965   3.140   0.167
 9177TIP3    H227475   5.953   3.265   0.082
 9178TIP3   OH227476   4.352   0.870   0.799
 9178TIP3    H127477   4.401   0.789   0.812
 9178TIP3    H227478   4.419   0.934   0.773
 9179TIP3   OH227479   7.372   4.969   3.431
 9179TIP3    H127480   7.302   4.941   3.372
 9179TIP3    H227481   7.408   4.887   3.465
 9180TIP3   OH227482   1.291   0.271   1.048
 9180TIP3    H127483   1.228   0.263   0.976
 9180TIP3    H227484   1.363   0.214   1.023
 9181TIP3   OH227485   7.008   0.600   3.144
 9181TIP3    H127486   7.102   0.613   3.131
 9181TIP3    H227487   6.969   0.615   3.058
 9182TIP3   OH227488   4.470   2.554   5.031
 9182TIP3    H127489   4.393   2.522   5.079
 9182TIP3    H227490   4.448   2.644   5.008
 9183TIP3   OH227491   5.413   4.176   3.520
 9183TIP3    H127492   5.382   4.165   3.430
 9183TIP3    H227493   5.460   4.095   3.539
 9184TIP3   OH227494   7.850   7.540   4.000
 9184TIP3    H127495   7.816   7.618   3.956
 9184TIP3    H227496   7.891   7.490   3.930
 9185TIP3   OH227497   5.294   0.749   3.950
 9185TIP3    H127498   5.205   0.769   3.977
 9185TIP3    H227499   5.349   0.810   3.999
 9186TIP3   OH227500   1.049   7.645   2.019
 9186TIP3    H127501   0.983   7.602   2.073
 9186TIP3    H227502   1.123   7.583   2.017
 9187TIP3   OH227503   4.017   0.550   3.804
 9187TIP3    H127504   3.981   0.513   3.723
 9187TIP3    H227505   3.994   0.642   3.801
 9188TIP3   OH227506   3.506   3.452   0.295
 9188TIP3    H127507   3.498   3.471   0.202
 9188TIP3    H227508   3.560   3.373   0.299
 9189TIP3   OH227509   4.918   2.600   6.557
 9189TIP3    H127510   4.915   2.676   6.499
 9189TIP3    H227511   4.939   2.637   6.643
 9190TIP3   OH227512   3.390   6.222   5.812
 9190TIP3    H127513   3.405   6.316   5.808
 9190TIP3    H227514   3.394   6.193   5.720
 9191TIP3   OH227515   5.455   6.378   0.666
 9191TIP3    H127516   5.538   6.372   0.713
 9191TIP3    H227517   5.470   6.331   0.584
 9192TIP3   OH227518   2.189   3.851   4.149
 9192TIP3    H127519   2.255   3.829   4.083
 9192TIP3    H227520   2.111   3.803   4.122
 9193TIP3   OH227521   4.811   3.245   2.015
 9193TIP3    H127522   4.754   3.170   1.999
 9193TIP3    H227523   4.852   3.227   2.100
 9194TIP3   OH227524   0.714   6.365   6.623
 9194TIP3    H127525   0.701   6.435   6.687
 9194TIP3    H227526   0.630   6.359   6.577
 9195TIP3   OH227527   3.731   1.479   5.817
 9195TIP3    H127528   3.642   1.463   5.849
 9195TIP3    H227529   3.776   1.395   5.826
 9196TIP3   OH227530   2.960   0.745   2.110
 9196TIP3    H127531   3.022   0.674   2.097
 9196TIP3    H227532   2.939   0.741   2.204
 9197TIP3   OH227533   4.047   5.176   1.872
 9197TIP3    H127534   3.975   5.117   1.853
 9197TIP3    H227535   4.075   5.152   1.961
 9198TIP3   OH227536   2.908   6.498   3.256
 9198TIP3    H127537   2.989   6.447   3.259
 9198TIP3    H227538   2.907   6.545   3.340
 9199TIP3   OH227539   3.135   1.718   2.699
 9199TIP3    H127540   3.047   1.749   2.681
 9199TIP3    H227541   3.175   1.706   2.613
 9200TIP3   OH227542   6.768   7.352   5.686
 9200TIP3    H127543   6.783   7.263   5.655
 9200TIP3    H227544   6.673   7.357   5.697
 9201TIP3   OH227545   3.580   6.032   0.920
 9201TIP3    H127546   3.588   5.976   0.843
 9201TIP3    H227547   3.489   6.061   0.919
 9202TIP3   OH227548   0.240   4.685   2.078
 9202TIP3    H127549   0.222   4.624   2.007
 9202TIP3    H227550   0.155   4.728   2.093
 9203TIP3   OH227551   6.934   7.819   5.293
 9203TIP3    H127552   6.983   7.737   5.303
 9203TIP3    H227553   6.843   7.792   5.290
 9204TIP3   OH227554   0.098   5.976   0.924
 9204TIP3    H127555   0.118   5.943   0.837
 9204TIP3    H227556   0.066   5.899   0.972
 9205TIP3   OH227557   2.289   1.233   6.535
 9205TIP3    H127558   2.269   1.232   6.441
 9205TIP3    H227559   2.268   1.144   6.564
 9206TIP3   OH227560   2.727   5.920   5.608
 9206TIP3    H127561   2.719   5.906   5.514
 9206TIP3    H227562   2.713   5.834   5.647
 9207TIP3   OH227563   2.191   1.175   1.996
 9207TIP3    H127564   2.177   1.199   1.904
 9207TIP3    H227565   2.192   1.258   2.043
 9208TIP3   OH227566   0.716   6.053   4.319
 9208TIP3    H127567   0.779   6.082   4.384
 9208TIP3    H227568   0.635   6.100   4.342
 9209TIP3   OH227569   1.051   2.985   0.252
 9209TIP3    H127570   1.093   2.947   0.329
 9209TIP3    H227571   1.099   2.948   0.177
 9210TIP3   OH227572   6.523   3.589   2.050
 9210TIP3    H127573   6.432   3.614   2.065
 9210TIP3    H227574   6.518   3.505   2.003
 9211TIP3   OH227575   5.847   6.996   2.620
 9211TIP3    H127576   5.801   7.021   2.540
 9211TIP3    H227577   5.940   7.006   2.598
 9212TIP3   OH227578   5.219   0.636   2.681
 9212TIP3    H127579   5.155   0.643   2.752
 9212TIP3    H227580   5.217   0.544   2.655
 9213TIP3   OH227581   5.869   3.010   1.157
 9213TIP3    H127582   5.789   3.014   1.104
 9213TIP3    H227583   5.853   3.069   1.230
 9214TIP3   OH227584   4.009   7.787   3.960
 9214TIP3    H127585   4.071   7.823   3.897
 9214TIP3    H227586   3.924   7.793   3.917
 9215TIP3   OH227587   8.180   2.632   1.109
 9215TIP3    H127588   8.167   2.658   1.018
 9215TIP3    H227589   8.251   2.567   1.105
 9216TIP3   OH227590   5.345   3.024   3.738
 9216TIP3    H127591   5.415   2.999   3.798
 9216TIP3    H227592   5.370   3.111   3.707
 9217TIP3   OH227593   7.695   0.649   5.318
 9217TIP3    H127594   7.774   0.698   5.342
 9217TIP3    H227595   7.646   0.640   5.400
 9218TIP3   OH227596   0.810   2.176   2.368
 9218TIP3    H127597   0.796   2.110   2.299
 9218TIP3    H227598   0.757   2.145   2.441
 9219TIP3   OH227599   3.183   6.629   3.036
 9219TIP3    H127600   3.087   6.628   3.029
 9219TIP3    H227601   3.204   6.551   3.088
 9220TIP3   OH227602   3.097   4.168   0.519
 9220TIP3    H127603   3.012   4.211   0.514
 9220TIP3    H227604   3.108   4.145   0.611
 9221TIP3   OH227605   1.500   1.555   2.383
 9221TIP3    H127606   1.416   1.573   2.425
 9221TIP3    H227607   1.500   1.610   2.304
 9222TIP3   OH227608   6.377   1.734   5.965
 9222TIP3    H127609   6.396   1.698   6.052
 9222TIP3    H227610   6.344   1.822   5.983
 9223TIP3   OH227611   2.979   3.097   5.117
 9223TIP3    H127612   3.034   3.175   5.120
 9223TIP3    H227613   2.969   3.072   5.209
 9224TIP3   OH227614   0.682   3.841   2.265
 9224TIP3    H127615   0.616   3.888   2.214
 9224TIP3    H227616   0.761   3.843   2.211
 9225TIP3   OH227617   7.157   5.376   0.688
 9225TIP3    H127618   7.081   5.359   0.744
 9225TIP3    H227619   7.221   5.309   0.712
 9226TIP3   OH227620   2.351   1.533   6.518
 9226TIP3    H127621   2.347   1.455   6.574
 9226TIP3    H227622   2.260   1.547   6.490
 9227TIP3   OH227623   1.662   1.473   2.968
 9227TIP3    H127624   1.674   1.380   2.987
 9227TIP3    H227625   1.720   1.490   2.894
 9228TIP3   OH227626   3.779   5.037   3.380
 9228TIP3    H127627   3.840   4.963   3.382
 9228TIP3    H227628   3.704   5.008   3.431
 9229TIP3   OH227629   5.992   4.100   1.605
 9229TIP3    H127630   5.907   4.128   1.638
 9229TIP3    H227631   6.014   4.022   1.656
 9230TIP3   OH227632   2.637   3.101   5.995
 9230TIP3    H127633   2.592   3.019   5.974
 9230TIP3    H227634   2.729   3.082   5.981
 9231TIP3   OH227635   4.453   1.700   0.773
 9231TIP3    H127636   4.537   1.744   0.781
 9231TIP3    H227637   4.444   1.680   0.680
 9232TIP3   OH227638   4.291  -0.023   5.249
 9232TIP3    H127639   4.230   0.044   5.279
 9232TIP3    H227640   4.378   0.013   5.269
 9233TIP3   OH227641   5.827   1.731   1.535
 9233TIP3    H127642   5.878   1.808   1.564
 9233TIP3    H227643   5.854   1.718   1.444
 9234TIP3   OH227644   0.210   6.050   1.169
 9234TIP3    H127645   0.284   6.110   1.165
 9234TIP3    H227646   0.191   6.029   1.077
 9235TIP3   OH227647   3.477   0.716   0.344
 9235TIP3    H127648   3.505   0.780   0.409
 9235TIP3    H227649   3.498   0.756   0.260
 9236TIP3   OH227650   7.074   6.982   1.779
 9236TIP3    H127651   6.994   7.031   1.761
 9236TIP3    H227652   7.083   6.985   1.875
 9237TIP3   OH227653   0.056   6.269   6.454
 9237TIP3    H127654   0.053   6.348   6.400
 9237TIP3    H227655  -0.033   6.257   6.485
 9238TIP3   OH227656   7.515   7.346   1.499
 9238TIP3    H127657   7.506   7.422   1.556
 9238TIP3    H227658   7.454   7.362   1.427
 9239TIP3   OH227659   6.966   2.117   6.486
 9239TIP3    H127660   6.961   2.022   6.494
 9239TIP3    H227661   6.879   2.143   6.455
 9240TIP3   OH227662   7.619   1.881   4.143
 9240TIP3    H127663   7.590   1.901   4.232
 9240TIP3    H227664   7.714   1.895   4.146
 9241TIP3   OH227665   1.659   0.272   1.930
 9241TIP3    H127666   1.660   0.337   2.000
 9241TIP3    H227667   1.639   0.189   1.974
 9242TIP3   OH227668   0.388   7.366   1.506
 9242TIP3    H127669   0.402   7.373   1.412
 9242TIP3    H227670   0.301   7.401   1.521
 9243TIP3   OH227671   4.132   0.452   1.431
 9243TIP3    H127672   4.134   0.546   1.410
 9243TIP3    H227673   4.057   0.418   1.383
 9244TIP3   OH227674   2.784   6.248   0.296
 9244TIP3    H127675   2.813   6.235   0.205
 9244TIP3    H227676   2.692   6.272   0.288
 9245TIP3   OH227677   7.598   5.074   5.693
 9245TIP3    H127678   7.548   5.079   5.611
 9245TIP3    H227679   7.577   5.155   5.739
 9246TIP3   OH227680   3.583   5.158   3.202
 9246TIP3    H127681   3.519   5.187   3.267
 9246TIP3    H227682   3.660   5.132   3.253
 9247TIP3   OH227683   7.566   2.750   0.814
 9247TIP3    H127684   7.576   2.842   0.788
 9247TIP3    H227685   7.523   2.709   0.739
 9248TIP3   OH227686   7.954   1.832   5.300
 9248TIP3    H127687   8.031   1.833   5.357
 9248TIP3    H227688   7.959   1.914   5.251
 9249TIP3   OH227689   7.660   1.073   4.529
 9249TIP3    H127690   7.602   1.106   4.460
 9249TIP3    H227691   7.600   1.038   4.595
 9250TIP3   OH227692   3.346   7.490   2.275
 9250TIP3    H127693   3.254   7.513   2.260
 9250TIP3    H227694   3.384   7.487   2.187
 9251TIP3   OH227695   5.852   5.200   6.284
 9251TIP3    H127696   5.839   5.275   6.226
 9251TIP3    H227697   5.765   5.164   6.297
 9252TIP3   OH227698   1.725   2.965   4.769
 9252TIP3    H127699   1.690   2.877   4.788
 9252TIP3    H227700   1.663   3.001   4.705
 9253TIP3   OH227701   5.433   5.071   4.747
 9253TIP3    H127702   5.348   5.067   4.791
 9253TIP3    H227703   5.431   5.154   4.699
 9254TIP3   OH227704   5.084   7.313   2.824
 9254TIP3    H127705   5.090   7.219   2.811
 9254TIP3    H227706   5.154   7.333   2.887
 9255TIP3   OH227707   6.987   2.298   2.006
 9255TIP3    H127708   7.027   2.210   2.008
 9255TIP3    H227709   7.058   2.355   1.976
 9256TIP3   OH227710   3.603   0.140   3.186
 9256TIP3    H127711   3.513   0.108   3.177
 9256TIP3    H227712   3.595   0.236   3.178
 9257TIP3   OH227713   8.103   5.380   1.290
 9257TIP3    H127714   8.062   5.391   1.376
 9257TIP3    H227715   8.030   5.371   1.229
 9258TIP3   OH227716   5.007   4.719   4.577
 9258TIP3    H127717   5.082   4.660   4.575
 9258TIP3    H227718   4.932   4.663   4.556
 9259TIP3   OH227719   8.064   2.304   4.386
 9259TIP3    H127720   7.984   2.358   4.383
 9259TIP3    H227721   8.096   2.312   4.476
 9260TIP3   OH227722   3.822   4.951   4.629
 9260TIP3    H127723   3.747   4.895   4.608
 9260TIP3    H227724   3.885   4.893   4.672
 9261TIP3   OH227725   0.419   5.519   3.418
 9261TIP3    H127726   0.375   5.441   3.451
 9261TIP3    H227727   0.512   5.505   3.439
 9262TIP3   OH227728   1.905   2.519   0.229
 9262TIP3    H127729   1.828   2.464   0.241
 9262TIP3    H227730   1.952   2.480   0.156
 9263TIP3   OH227731   2.476   3.995   3.951
 9263TIP3    H127732   2.542   3.943   3.997
 9263TIP3    H227733   2.447   4.061   4.014
 9264TIP3   OH227734   2.668   0.169   1.275
 9264TIP3    H127735   2.721   0.205   1.346
 9264TIP3    H227736   2.732   0.125   1.219
 9265TIP3   OH227737   3.433  -0.015   4.284
 9265TIP3    H127738   3.436   0.075   4.316
 9265TIP3    H227739   3.509  -0.057   4.323
 9266TIP3   OH227740   4.645   0.718   1.158
 9266TIP3    H127741   4.675   0.808   1.170
 9266TIP3    H227742   4.713   0.677   1.105
 9267TIP3   OH227743   1.672   3.699   6.483
 9267TIP3    H127744   1.765   3.678   6.471
 9267TIP3    H227745   1.639   3.717   6.395
 9268TIP3   OH227746   1.451   2.639   2.852
 9268TIP3    H127747   1.368   2.594   2.870
 9268TIP3    H227748   1.481   2.600   2.770
 9269TIP3   OH227749   1.331   5.952   0.535
 9269TIP3    H127750   1.313   5.939   0.442
 9269TIP3    H227751   1.281   5.883   0.579
 9270TIP3   OH227752   5.829   0.301   2.429
 9270TIP3    H127753   5.800   0.247   2.356
 9270TIP3    H227754   5.758   0.294   2.493
 9271TIP3   OH227755   0.374   5.843   2.526
 9271TIP3    H127756   0.440   5.899   2.485
 9271TIP3    H227757   0.336   5.898   2.595
 9272TIP3   OH227758   3.536   2.893   3.081
 9272TIP3    H127759   3.507   2.944   3.005
 9272TIP3    H227760   3.466   2.830   3.096
 9273TIP3   OH227761   6.991   3.101   1.817
 9273TIP3    H127762   7.040   3.137   1.891
 9273TIP3    H227763   7.040   3.129   1.740
 9274TIP3   OH227764   6.880   4.639   3.414
 9274TIP3    H127765   6.880   4.681   3.500
 9274TIP3    H227766   6.945   4.569   3.423
 9275TIP3   OH227767   8.165   0.741   6.255
 9275TIP3    H127768   8.247   0.778   6.290
 9275TIP3    H227769   8.171   0.647   6.273
 9276TIP3   OH227770   3.073   2.898   1.674
 9276TIP3    H127771   3.131   2.870   1.603
 9276TIP3    H227772   3.124   2.887   1.754
 9277TIP3   OH227773   0.853   2.185   5.605
 9277TIP3    H127774   0.928   2.204   5.549
 9277TIP3    H227775   0.792   2.137   5.548
 9278TIP3   OH227776   8.222   0.549   4.884
 9278TIP3    H127777   8.316   0.540   4.872
 9278TIP3    H227778   8.203   0.638   4.855
 9279TIP3   OH227779   2.720   5.032   0.420
 9279TIP3    H127780   2.666   5.010   0.344
 9279TIP3    H227781   2.795   4.973   0.413
 9280TIP3   OH227782   1.310   0.123   2.483
 9280TIP3    H127783   1.345   0.177   2.412
 9280TIP3    H227784   1.387   0.095   2.532
 9281TIP3   OH227785   2.774   5.580   3.511
 9281TIP3    H127786   2.828   5.513   3.553
 9281TIP3    H227787   2.764   5.551   3.421
 9282TIP3   OH227788   0.427   2.685   6.146
 9282TIP3    H127789   0.460   2.625   6.214
 9282TIP3    H227790   0.410   2.628   6.071
 9283TIP3   OH227791   5.441   3.132   6.647
 9283TIP3    H127792   5.463   3.181   6.725
 9283TIP3    H227793   5.387   3.191   6.595
 9284TIP3   OH227794   3.736   6.641   2.253
 9284TIP3    H127795   3.766   6.731   2.265
 9284TIP3    H227796   3.649   6.639   2.293
 9285TIP3   OH227797   2.043   6.456   1.389
 9285TIP3    H127798   2.112   6.391   1.407
 9285TIP3    H227799   1.974   6.405   1.347
 9286TIP3   OH227800   8.065   6.811   2.454
 9286TIP3    H127801   8.058   6.888   2.510
 9286TIP3    H227802   8.112   6.843   2.376
 9287TIP3   OH227803   2.524   7.485   4.440
 9287TIP3    H127804   2.590   7.468   4.508
 9287TIP3    H227805   2.450   7.431   4.466
 9288TIP3   OH227806   5.756   7.677   6.574
 9288TIP3    H127807   5.825   7.654   6.512
 9288TIP3    H227808   5.686   7.614   6.558
 9289TIP3   OH227809   0.021   7.029   3.414
 9289TIP3    H127810  -0.030   6.960   3.371
 9289TIP3    H227811   0.107   7.025   3.371
 9290TIP3   OH227812   3.751   0.038   5.714
 9290TIP3    H127813   3.681   0.084   5.761
 9290TIP3    H227814   3.748   0.075   5.625
 9291TIP3   OH227815   6.144   1.438   1.203
 9291TIP3    H127816   6.164   1.531   1.214
 9291TIP3    H227817   6.084   1.436   1.129
 9292TIP3   OH227818   7.958   1.093   4.076
 9292TIP3    H127819   8.000   1.143   4.146
 9292TIP3    H227820   7.974   1.145   3.997
 9293TIP3   OH227821   5.629   6.654   5.937
 9293TIP3    H127822   5.593   6.728   5.888
 9293TIP3    H227823   5.701   6.622   5.883
 9294TIP3   OH227824   6.111   2.076   3.644
 9294TIP3    H127825   6.207   2.070   3.649
 9294TIP3    H227826   6.092   2.073   3.550
 9295TIP3   OH227827   7.195   7.625   2.709
 9295TIP3    H127828   7.125   7.646   2.646
 9295TIP3    H227829   7.264   7.586   2.656
 9296TIP3   OH227830   6.386   5.520   1.853
 9296TIP3    H127831   6.303   5.491   1.813
 9296TIP3    H227832   6.379   5.615   1.856
 9297TIP3   OH227833   0.982   0.698   5.153
 9297TIP3    H127834   1.039   0.672   5.226
 9297TIP3    H227835   1.022   0.659   5.076
 9298TIP3   OH227836   5.803   6.265   6.561
 9298TIP3    H127837   5.738   6.283   6.493
 9298TIP3    H227838   5.883   6.242   6.513
 9299TIP3   OH227839   2.310   0.367   5.695
 9299TIP3    H127840   2.223   0.339   5.724
 9299TIP3    H227841   2.349   0.287   5.659
 9300TIP3   OH227842   3.425   6.931   5.301
 9300TIP3    H127843   3.464   6.887   5.226
 9300TIP3    H227844   3.400   6.860   5.360
 9301TIP3   OH227845   5.706   2.152   6.738
 9301TIP3    H127846   5.786   2.170   6.689
 9301TIP3    H227847   5.699   2.226   6.799
 9302TIP3   OH227848   1.289   6.199   0.703
 9302TIP3    H127849   1.242   6.151   0.770
 9302TIP3    H227850   1.309   6.134   0.636
 9303TIP3   OH227851   5.752   2.339   4.496
 9303TIP3    H127852   5.674   2.343   4.551
 9303TIP3    H227853   5.794   2.424   4.507
 9304TIP3   OH227854   4.846   0.907   5.668
 9304TIP3    H127855   4.939   0.908   5.643
 9304TIP3    H227856   4.842   0.963   5.745
 9305TIP3   OH227857   2.646   1.912   6.566
 9305TIP3    H127858   2.700   1.952   6.498
 9305TIP3    H227859   2.579   1.864   6.518
 9306TIP3   OH227860   4.980   6.950   1.410
 9306TIP3    H127861   4.993   6.967   1.503
 9306TIP3    H227862   4.916   6.879   1.407
 9307TIP3   OH227863   1.975   2.136   1.468
 9307TIP3    H127864   1.998   2.064   1.528
 9307TIP3    H227865   2.052   2.145   1.412
 9308TIP3   OH227866   1.266   7.355   3.060
 9308TIP3    H127867   1.347   7.307   3.074
 9308TIP3    H227868   1.261   7.365   2.964
 9309TIP3   OH227869   3.326   3.062   5.476
 9309TIP3    H127870   3.285   2.983   5.512
 9309TIP3    H227871   3.400   3.030   5.424
 9310TIP3   OH227872   7.824   3.991   3.189
 9310TIP3    H127873   7.837   4.051   3.116
 9310TIP3    H227874   7.775   3.917   3.151
 9311TIP3   OH227875   0.877   3.904   0.648
 9311TIP3    H127876   0.890   3.812   0.626
 9311TIP3    H227877   0.816   3.903   0.721
 9312TIP3   OH227878   1.985   0.851   3.573
 9312TIP3    H127879   2.024   0.899   3.500
 9312TIP3    H227880   2.020   0.894   3.651
 9313TIP3   OH227881   6.403   2.767   0.876
 9313TIP3    H127882   6.358   2.786   0.794
 9313TIP3    H227883   6.493   2.748   0.849
 9314TIP3   OH227884   1.682   6.541   6.285
 9314TIP3    H127885   1.688   6.636   6.284
 9314TIP3    H227886   1.773   6.511   6.284
 9315TIP3   OH227887   5.421   0.106   4.732
 9315TIP3    H127888   5.331   0.080   4.712
 9315TIP3    H227889   5.474   0.031   4.708
 9316TIP3   OH227890   1.086   3.253   6.641
 9316TIP3    H127891   1.041   3.168   6.636
 9316TIP3    H227892   1.147   3.252   6.568
 9317TIP3   OH227893   3.612   4.304   5.470
 9317TIP3    H127894   3.695   4.346   5.490
 9317TIP3    H227895   3.603   4.313   5.375
 9318TIP3   OH227896   8.268   4.700   3.063
 9318TIP3    H127897   8.221   4.757   3.123
 9318TIP3    H227898   8.217   4.618   3.063
 9319TIP3   OH227899   0.387   2.588   5.833
 9319TIP3    H127900   0.396   2.559   5.742
 9319TIP3    H227901   0.457   2.653   5.844
 9320TIP3   OH227902   1.038   1.175   4.256
 9320TIP3    H127903   1.038   1.087   4.218
 9320TIP3    H227904   0.948   1.207   4.245
 9321TIP3   OH227905   6.042   3.342   5.142
 9321TIP3    H127906   6.005   3.297   5.066
 9321TIP3    H227907   6.070   3.427   5.108
 9322TIP3   OH227908   3.474   5.758   4.084
 9322TIP3    H127909   3.479   5.714   4.169
 9322TIP3    H227910   3.563   5.755   4.050
 9323TIP3   OH227911   6.681   1.632   3.020
 9323TIP3    H127912   6.714   1.655   2.933
 9323TIP3    H227913   6.586   1.636   3.012
 9324TIP3   OH227914   6.633   2.364   4.223
 9324TIP3    H127915   6.650   2.274   4.248
 9324TIP3    H227916   6.699   2.384   4.156
 9325TIP3   OH227917   8.163   2.815   3.812
 9325TIP3    H127918   8.201   2.758   3.746
 9325TIP3    H227919   8.200   2.785   3.895
 9326TIP3   OH227920   6.356   2.612   5.369
 9326TIP3    H127921   6.438   2.610   5.418
 9326TIP3    H227922   6.293   2.652   5.429
 9327TIP3   OH227923   4.341   2.001   1.130
 9327TIP3    H127924   4.319   1.964   1.044
 9327TIP3    H227925   4.399   2.074   1.110
 9328TIP3   OH227926   5.338   1.595   2.892
 9328TIP3    H127927   5.411   1.616   2.951
 9328TIP3    H227928   5.354   1.505   2.866
 9329TIP3   OH227929   6.152   1.696   5.804
 9329TIP3    H127930   6.125   1.784   5.776
 9329TIP3    H227931   6.239   1.708   5.841
 9330TIP3   OH227932   8.002   2.697   5.004
 9330TIP3    H127933   8.065   2.769   5.004
 9330TIP3    H227934   7.934   2.726   5.065
 9331TIP3   OH227935   4.181   1.499   6.105
 9331TIP3    H127936   4.194   1.406   6.092
 9331TIP3    H227937   4.142   1.506   6.193
 9332TIP3   OH227938   0.821   5.730   3.566
 9332TIP3    H127939   0.814   5.757   3.474
 9332TIP3    H227940   0.757   5.785   3.611
 9333TIP3   OH227941   3.712   5.308   0.943
 9333TIP3    H127942   3.771   5.233   0.940
 9333TIP3    H227943   3.632   5.273   0.983
 9334TIP3   OH227944   1.816   7.339   1.408
 9334TIP3    H127945   1.764   7.342   1.488
 9334TIP3    H227946   1.752   7.318   1.339
 9335TIP3   OH227947   3.647   6.872   6.025
 9335TIP3    H127948   3.558   6.851   6.051
 9335TIP3    H227949   3.702   6.818   6.083
 9336TIP3   OH227950   1.639   1.866   0.637
 9336TIP3    H127951   1.593   1.801   0.690
 9336TIP3    H227952   1.729   1.865   0.670
 9337TIP3   OH227953   4.057   4.148   2.858
 9337TIP3    H127954   4.064   4.078   2.923
 9337TIP3    H227955   4.146   4.157   2.823
 9338TIP3   OH227956   1.780   4.470   6.270
 9338TIP3    H127957   1.794   4.555   6.228
 9338TIP3    H227958   1.777   4.490   6.363
 9339TIP3   OH227959   7.593   6.857   1.019
 9339TIP3    H127960   7.558   6.933   1.066
 9339TIP3    H227961   7.585   6.785   1.081
 9340TIP3   OH227962   1.355   3.364   0.370
 9340TIP3    H127963   1.273   3.315   0.356
 9340TIP3    H227964   1.423   3.308   0.333
 9341TIP3   OH227965   6.153   0.122   3.740
 9341TIP3    H127966   6.068   0.100   3.702
 9341TIP3    H227967   6.162   0.062   3.815
 9342TIP3   OH227968   7.800   1.903   2.465
 9342TIP3    H127969   7.795   1.933   2.374
 9342TIP3    H227970   7.776   1.810   2.461
 9343TIP3   OH227971   2.807   6.676   4.238
 9343TIP3    H127972   2.882   6.733   4.223
 9343TIP3    H227973   2.837   6.589   4.213
 9344TIP3   OH227974   7.305   1.943   5.613
 9344TIP3    H127975   7.392   1.913   5.587
 9344TIP3    H227976   7.271   1.988   5.535
 9345TIP3   OH227977   7.013   1.459   1.415
 9345TIP3    H127978   7.023   1.419   1.328
 9345TIP3    H227979   6.919   1.453   1.433
 9346TIP3   OH227980   3.775   4.060   5.328
 9346TIP3    H127981   3.696   4.090   5.372
 9346TIP3    H227982   3.743   4.009   5.253
 9347TIP3   OH227983   7.807   1.891   3.485
 9347TIP3    H127984   7.845   1.822   3.432
 9347TIP3    H227985   7.741   1.847   3.539
 9348TIP3   OH227986   7.598   7.230   3.839
 9348TIP3    H127987   7.525   7.202   3.894
 9348TIP3    H227988   7.663   7.161   3.849
 9349TIP3   OH227989   1.319   2.446   1.945
 9349TIP3    H127990   1.230   2.478   1.958
 9349TIP3    H227991   1.339   2.399   2.026
 9350TIP3   OH227992   7.786   6.989   3.126
 9350TIP3    H127993   7.717   7.055   3.121
 9350TIP3    H227994   7.740   6.906   3.140
 9351TIP3   OH227995   2.662   7.769   3.178
 9351TIP3    H127996   2.660   7.857   3.215
 9351TIP3    H227997   2.731   7.724   3.227
 9352TIP3   OH227998   1.920   4.399   6.682
 9352TIP3    H127999   1.843   4.454   6.666
 9352TIP3    H228000   1.970   4.448   6.747
 9353TIP3   OH228001   1.948   1.575   5.023
 9353TIP3    H128002   1.953   1.582   5.118
 9353TIP3    H228003   2.016   1.511   5.000
 9354TIP3   OH228004   0.387   0.720   6.532
 9354TIP3    H128005   0.327   0.748   6.601
 9354TIP3    H228006   0.413   0.631   6.558
 9355TIP3   OH228007   7.035   5.983   3.425
 9355TIP3    H128008   7.085   5.948   3.351
 9355TIP3    H228009   6.999   5.905   3.468
 9356TIP3   OH228010   0.085   5.255   2.465
 9356TIP3    H128011   0.165   5.264   2.412
 9356TIP3    H228012   0.063   5.345   2.489
 9357TIP3   OH228013   1.317   3.928   1.880
 9357TIP3    H128014   1.263   3.969   1.812
 9357TIP3    H228015   1.308   3.834   1.864
 9358TIP3   OH228016   1.009   2.201   2.113
 9358TIP3    H128017   1.030   2.257   2.188
 9358TIP3    H228018   1.079   2.136   2.111
 9359TIP3   OH228019   1.296   5.223   4.963
 9359TIP3    H128020   1.348   5.277   4.903
 9359TIP3    H228021   1.356   5.202   5.034
 9360TIP3   OH228022   4.189   1.167   3.571
 9360TIP3    H128023   4.227   1.083   3.544
 9360TIP3    H228024   4.139   1.196   3.495
 9361TIP3   OH228025   6.617   0.556   0.757
 9361TIP3    H128026   6.543   0.496   0.768
 9361TIP3    H228027   6.687   0.502   0.722
 9362TIP3   OH228028   6.836   7.779   6.395
 9362TIP3    H128029   6.793   7.741   6.319
 9362TIP3    H228030   6.776   7.762   6.468
 9363TIP3   OH228031   2.315   7.160   5.964
 9363TIP3    H128032   2.372   7.148   6.040
 9363TIP3    H228033   2.260   7.081   5.963
 9364TIP3   OH228034   2.250   3.137   3.827
 9364TIP3    H128035   2.255   3.058   3.880
 9364TIP3    H228036   2.156   3.153   3.817
 9365TIP3   OH228037   6.521   3.983   4.651
 9365TIP3    H128038   6.573   3.916   4.696
 9365TIP3    H228039   6.578   4.014   4.581
 9366TIP3   OH228040   4.473   4.132   3.317
 9366TIP3    H128041   4.516   4.217   3.326
 9366TIP3    H228042   4.426   4.137   3.234
 9367TIP3   OH228043   5.901   3.220   1.853
 9367TIP3    H128044   5.852   3.301   1.839
 9367TIP3    H228045   5.835   3.153   1.864
 9368TIP3   OH228046   6.958   5.641   6.703
 9368TIP3    H128047   7.029   5.584   6.675
 9368TIP3    H228048   6.939   5.696   6.627
 9369TIP3   OH228049   0.034   1.888   0.807
 9369TIP3    H128050   0.127   1.865   0.811
 9369TIP3    H228051   0.034   1.981   0.784
 9370TIP3   OH228052   2.990   4.348   4.775
 9370TIP3    H128053   3.022   4.381   4.691
 9370TIP3    H228054   2.918   4.407   4.798
 9371TIP3   OH228055   4.156   3.963   2.223
 9371TIP3    H128056   4.093   3.981   2.293
 9371TIP3    H228057   4.111   3.988   2.143
 9372TIP3   OH228058   0.370   3.758   5.974
 9372TIP3    H128059   0.366   3.782   5.881
 9372TIP3    H228060   0.280   3.731   5.995
 9373TIP3   OH228061   2.380   6.268   4.501
 9373TIP3    H128062   2.288   6.279   4.525
 9373TIP3    H228063   2.422   6.351   4.524
 9374TIP3   OH228064   7.177   0.284   0.062
 9374TIP3    H128065   7.241   0.245   0.122
 9374TIP3    H228066   7.182   0.378   0.081
 9375TIP3   OH228067   6.686   5.282   4.041
 9375TIP3    H128068   6.781   5.285   4.049
 9375TIP3    H228069   6.654   5.348   4.104
 9376TIP3   OH228070   0.354   2.719   1.257
 9376TIP3    H128071   0.337   2.706   1.164
 9376TIP3    H228072   0.387   2.809   1.262
 9377TIP3   OH228073   4.626   5.748  -0.018
 9377TIP3    H128074   4.696   5.743   0.048
 9377TIP3    H228075   4.546   5.750   0.033
 9378TIP3   OH228076   2.443   5.235   3.371
 9378TIP3    H128077   2.400   5.153   3.348
 9378TIP3    H228078   2.389   5.272   3.441
 9379TIP3   OH228079   6.697   4.604   2.785
 9379TIP3    H128080   6.774   4.592   2.840
 9379TIP3    H228081   6.722   4.567   2.700
 9380TIP3   OH228082   4.392   4.425   2.854
 9380TIP3    H128083   4.403   4.330   2.845
 9380TIP3    H228084   4.365   4.455   2.768
 9381TIP3   OH228085   5.660   1.346   1.453
 9381TIP3    H128086   5.675   1.369   1.544
 9381TIP3    H228087   5.566   1.333   1.447
 9382TIP3   OH228088   5.999   3.868   5.525
 9382TIP3    H128089   6.035   3.787   5.490
 9382TIP3    H228090   5.912   3.876   5.486
 9383TIP3   OH228091   7.729   3.257   5.370
 9383TIP3    H128092   7.694   3.197   5.436
 9383TIP3    H228093   7.819   3.274   5.399
 9384TIP3   OH228094   4.102   4.189   5.028
 9384TIP3    H128095   4.026   4.196   4.971
 9384TIP3    H228096   4.069   4.209   5.116
 9385TIP3   OH228097   4.485   7.186   3.491
 9385TIP3    H128098   4.540   7.254   3.528
 9385TIP3    H228099   4.396   7.213   3.510
 9386TIP3   OH228100   5.545   1.129   3.266
 9386TIP3    H128101   5.461   1.100   3.231
 9386TIP3    H228102   5.604   1.054   3.253
 9387TIP3   OH228103   1.178   4.355   2.622
 9387TIP3    H128104   1.178   4.269   2.578
 9387TIP3    H228105   1.154   4.417   2.553
 9388TIP3   OH228106   0.433   5.482   5.377
 9388TIP3    H128107   0.352   5.462   5.331
 9388TIP3    H228108   0.429   5.430   5.457
 9389TIP3   OH228109   2.826   4.289   6.671
 9389TIP3    H128110   2.844   4.380   6.651
 9389TIP3    H228111   2.768   4.260   6.600
 9390TIP3   OH228112   3.911   0.207   2.457
 9390TIP3    H128113   3.830   0.199   2.506
 9390TIP3    H228114   3.949   0.290   2.485
 9391TIP3   OH228115   2.602   2.040   5.801
 9391TIP3    H128116   2.510   2.014   5.800
 9391TIP3    H228117   2.650   1.957   5.809
 9392TIP3   OH228118   7.458   0.756   2.015
 9392TIP3    H128119   7.397   0.753   1.942
 9392TIP3    H228120   7.420   0.697   2.080
 9393TIP3   OH228121   6.126   2.773   0.606
 9393TIP3    H128122   6.121   2.693   0.658
 9393TIP3    H228123   6.117   2.745   0.516
 9394TIP3   OH228124   2.097   2.302   5.946
 9394TIP3    H128125   2.148   2.368   5.993
 9394TIP3    H228126   2.110   2.221   5.997
 9395TIP3   OH228127   0.631   5.099   4.498
 9395TIP3    H128128   0.583   5.168   4.545
 9395TIP3    H228129   0.572   5.073   4.427
 9396TIP3   OH228130   7.187   2.964   2.614
 9396TIP3    H128131   7.282   2.955   2.611
 9396TIP3    H228132   7.154   2.896   2.556
 9397TIP3   OH228133   4.491   7.225   4.153
 9397TIP3    H128134   4.536   7.173   4.087
 9397TIP3    H228135   4.561   7.276   4.195
 9398TIP3   OH228136   4.898   6.570   2.559
 9398TIP3    H128137   4.854   6.505   2.614
 9398TIP3    H228138   4.872   6.655   2.597
 9399TIP3   OH228139   5.408   3.698   5.196
 9399TIP3    H128140   5.480   3.705   5.133
 9399TIP3    H228141   5.442   3.641   5.265
 9400TIP3   OH228142   3.190   0.105   1.620
 9400TIP3    H128143   3.119   0.124   1.682
 9400TIP3    H228144   3.243   0.039   1.664
 9401TIP3   OH228145   2.399   6.879   1.506
 9401TIP3    H128146   2.388   6.885   1.601
 9401TIP3    H228147   2.379   6.788   1.485
 9402TIP3   OH228148   5.164   7.421   2.301
 9402TIP3    H128149   5.216   7.411   2.381
 9402TIP3    H228150   5.108   7.343   2.300
 9403TIP3   OH228151   3.321   4.225   2.483
 9403TIP3    H128152   3.259   4.297   2.493
 9403TIP3    H228153   3.277   4.150   2.524
 9404TIP3   OH228154   5.857   3.687   2.079
 9404TIP3    H128155   5.870   3.594   2.099
 9404TIP3    H228156   5.764   3.702   2.093
 9405TIP3   OH228157   6.826   3.619   1.287
 9405TIP3    H128158   6.805   3.687   1.351
 9405TIP3    H228159   6.910   3.646   1.250
 9406TIP3   OH228160   1.073   2.507   0.045
 9406TIP3    H128161   1.035   2.475  -0.037
 9406TIP3    H228162   1.070   2.432   0.105
 9407TIP3   OH228163   1.516   1.957   3.270
 9407TIP3    H128164   1.535   2.037   3.221
 9407TIP3    H228165   1.420   1.955   3.276
 9408TIP3   OH228166   1.998   0.983   1.457
 9408TIP3    H128167   1.994   1.052   1.391
 9408TIP3    H228168   1.943   1.016   1.528
 9409TIP3   OH228169   5.977   4.456   4.021
 9409TIP3    H128170   6.043   4.471   3.954
 9409TIP3    H228171   6.001   4.371   4.059
 9410TIP3   OH228172   2.584   4.378   4.315
 9410TIP3    H128173   2.638   4.457   4.319
 9410TIP3    H228174   2.618   4.322   4.385
 9411TIP3   OH228175   7.061   5.405   0.205
 9411TIP3    H128176   7.085   5.498   0.208
 9411TIP3    H228177   7.016   5.389   0.288
 9412TIP3   OH228178   7.998   1.176   5.890
 9412TIP3    H128179   8.076   1.232   5.894
 9412TIP3    H228180   7.944   1.207   5.963
 9413TIP3   OH228181   0.594   1.609   2.907
 9413TIP3    H128182   0.682   1.596   2.873
 9413TIP3    H228183   0.573   1.528   2.954
 9414TIP3   OH228184   2.717   5.493   2.924
 9414TIP3    H128185   2.774   5.416   2.917
 9414TIP3    H228186   2.635   5.458   2.959
 9415TIP3   OH228187   7.333   5.794   1.637
 9415TIP3    H128188   7.385   5.849   1.696
 9415TIP3    H228189   7.284   5.737   1.695
 9416TIP3   OH228190   1.279   6.278   5.357
 9416TIP3    H128191   1.339   6.308   5.289
 9416TIP3    H228192   1.292   6.183   5.360
 9417TIP3   OH228193   1.495   6.158   1.901
 9417TIP3    H128194   1.427   6.180   1.965
 9417TIP3    H228195   1.465   6.075   1.863
 9418TIP3   OH228196   4.296   0.914   3.465
 9418TIP3    H128197   4.382   0.872   3.452
 9418TIP3    H228198   4.250   0.856   3.525
 9419TIP3   OH228199   1.104   3.244   1.833
 9419TIP3    H128200   1.150   3.206   1.907
 9419TIP3    H228201   1.019   3.270   1.868
 9420TIP3   OH228202   6.971   3.538   0.765
 9420TIP3    H128203   7.003   3.475   0.701
 9420TIP3    H228204   6.973   3.622   0.720
 9421TIP3   OH228205   0.695   0.422   2.040
 9421TIP3    H128206   0.769   0.374   2.001
 9421TIP3    H228207   0.700   0.401   2.133
 9422TIP3   OH228208   2.205   0.459   6.055
 9422TIP3    H128209   2.197   0.524   6.125
 9422TIP3    H228210   2.299   0.450   6.042
 9423TIP3   OH228211   4.180   3.970   2.635
 9423TIP3    H128212   4.241   4.042   2.619
 9423TIP3    H228213   4.224   3.916   2.700
 9424TIP3   OH228214   0.243   2.921   2.566
 9424TIP3    H128215   0.156   2.913   2.605
 9424TIP3    H228216   0.237   2.996   2.507
 9425TIP3   OH228217   7.948   7.164   1.280
 9425TIP3    H128218   7.954   7.100   1.209
 9425TIP3    H228219   7.860   7.200   1.272
 9426TIP3   OH228220   6.409   0.008   2.667
 9426TIP3    H128221   6.453   0.015   2.752
 9426TIP3    H228222   6.334   0.067   2.674
 9427TIP3   OH228223   0.811   4.125   2.740
 9427TIP3    H128224   0.726   4.131   2.786
 9427TIP3    H228225   0.811   4.037   2.702
 9428TIP3   OH228226   2.420   2.536   4.722
 9428TIP3    H128227   2.439   2.449   4.689
 9428TIP3    H228228   2.483   2.593   4.678
 9429TIP3   OH228229   0.620   3.144   6.584
 9429TIP3    H128230   0.658   3.180   6.665
 9429TIP3    H228231   0.622   3.216   6.522
 9430TIP3   OH228232   1.665   6.740   1.629
 9430TIP3    H128233   1.602   6.690   1.682
 9430TIP3    H228234   1.747   6.692   1.638
 9431TIP3   OH228235   2.099   1.197   1.717
 9431TIP3    H128236   2.179   1.197   1.665
 9431TIP3    H228237   2.096   1.110   1.757
 9432TIP3   OH228238   7.076   7.419   0.799
 9432TIP3    H128239   7.021   7.397   0.874
 9432TIP3    H228240   7.137   7.345   0.792
 9433TIP3   OH228241   1.067   7.484   6.612
 9433TIP3    H128242   1.145   7.461   6.662
 9433TIP3    H228243   1.094   7.557   6.557
 9434TIP3   OH228244   2.280   0.256   1.948
 9434TIP3    H128245   2.274   0.328   2.010
 9434TIP3    H228246   2.189   0.234   1.927
 9435TIP3   OH228247   0.790   0.492   1.501
 9435TIP3    H128248   0.697   0.513   1.509
 9435TIP3    H228249   0.823   0.495   1.591
 9436TIP3   OH228250   7.239   3.186   6.695
 9436TIP3    H128251   7.281   3.252   6.641
 9436TIP3    H228252   7.266   3.102   6.657
 9437TIP3   OH228253   1.367   2.119   5.859
 9437TIP3    H128254   1.288   2.123   5.805
 9437TIP3    H228255   1.384   2.210   5.882
 9438TIP3   OH228256   4.012   3.363   5.083
 9438TIP3    H128257   4.080   3.406   5.135
 9438TIP3    H228258   3.939   3.425   5.083
 9439TIP3   OH228259   2.067   5.077   3.587
 9439TIP3    H128260   1.978   5.048   3.605
 9439TIP3    H228261   2.086   5.141   3.656
 9440TIP3   OH228262   1.617   4.197   0.195
 9440TIP3    H128263   1.651   4.153   0.273
 9440TIP3    H228264   1.667   4.161   0.123
 9441TIP3   OH228265   4.282   7.589   1.528
 9441TIP3    H128266   4.300   7.560   1.617
 9441TIP3    H228267   4.188   7.573   1.516
 9442TIP3   OH228268   0.188   2.617   5.389
 9442TIP3    H128269   0.216   2.544   5.333
 9442TIP3    H228270   0.247   2.613   5.465
 9443TIP3   OH228271   5.357   0.562   4.940
 9443TIP3    H128272   5.319   0.625   5.001
 9443TIP3    H228273   5.348   0.603   4.854
 9444TIP3   OH228274   7.205   4.901   0.005
 9444TIP3    H128275   7.126   4.911  -0.048
 9444TIP3    H228276   7.274   4.945  -0.045
 9445TIP3   OH228277   1.703   1.584   0.018
 9445TIP3    H128278   1.630   1.608   0.076
 9445TIP3    H228279   1.781   1.603   0.070
 9446TIP3   OH228280   5.530   7.554   6.530
 9446TIP3    H128281   5.507   7.461   6.521
 9446TIP3    H228282   5.452   7.595   6.567
 9447TIP3   OH228283   1.576   2.119   4.203
 9447TIP3    H128284   1.529   2.109   4.286
 9447TIP3    H228285   1.667   2.099   4.224
 9448TIP3   OH228286   6.625   2.903   5.582
 9448TIP3    H128287   6.642   2.967   5.513
 9448TIP3    H228288   6.638   2.818   5.540
 9449TIP3   OH228289   7.741   4.061   0.321
 9449TIP3    H128290   7.786   4.076   0.238
 9449TIP3    H228291   7.727   4.148   0.357
 9450TIP3   OH228292   0.318   4.524   6.524
 9450TIP3    H128293   0.377   4.563   6.460
 9450TIP3    H228294   0.263   4.596   6.553
 9451TIP3   OH228295   0.994   2.822   1.839
 9451TIP3    H128296   1.068   2.882   1.824
 9451TIP3    H228297   1.005   2.792   1.929
 9452TIP3   OH228298   1.370   4.420   1.352
 9452TIP3    H128299   1.335   4.465   1.275
 9452TIP3    H228300   1.295   4.414   1.412
 9453TIP3   OH228301   1.940   2.620   0.714
 9453TIP3    H128302   1.933   2.669   0.632
 9453TIP3    H228303   2.028   2.639   0.746
 9454TIP3   OH228304   5.923   0.930   4.915
 9454TIP3    H128305   6.015   0.917   4.891
 9454TIP3    H228306   5.919   0.909   5.008
 9455TIP3   OH228307   3.334   1.218   1.728
 9455TIP3    H128308   3.282   1.262   1.795
 9455TIP3    H228309   3.401   1.170   1.777
 9456TIP3   OH228310   6.962   4.391   5.344
 9456TIP3    H128311   6.952   4.309   5.394
 9456TIP3    H228312   7.028   4.370   5.278
 9457TIP3   OH228313   1.897   5.262   1.131
 9457TIP3    H128314   1.870   5.171   1.147
 9457TIP3    H228315   1.821   5.314   1.155
 9458TIP3   OH228316   2.497   5.727   4.413
 9458TIP3    H128317   2.514   5.811   4.456
 9458TIP3    H228318   2.483   5.749   4.321
 9459TIP3   OH228319   5.978   0.999   4.362
 9459TIP3    H128320   5.899   1.031   4.319
 9459TIP3    H228321   5.947   0.926   4.417
 9460TIP3   OH228322   7.030   3.616   1.516
 9460TIP3    H128323   6.965   3.686   1.520
 9460TIP3    H228324   7.105   3.651   1.564
 9461TIP3   OH228325   8.022   5.222   2.282
 9461TIP3    H128326   8.015   5.127   2.281
 9461TIP3    H228327   8.008   5.246   2.374
 9462TIP3   OH228328   2.584   3.182   3.932
 9462TIP3    H128329   2.673   3.213   3.912
 9462TIP3    H228330   2.559   3.130   3.856
 9463TIP3   OH228331   6.130   3.008   4.200
 9463TIP3    H128332   6.036   2.990   4.197
 9463TIP3    H228333   6.170   2.923   4.218
 9464TIP3   OH228334   6.916   5.305   2.754
 9464TIP3    H128335   6.976   5.369   2.792
 9464TIP3    H228336   6.861   5.356   2.694
 9465TIP3   OH228337   3.192   7.321   2.001
 9465TIP3    H128338   3.146   7.267   1.937
 9465TIP3    H228339   3.168   7.284   2.086
 9466TIP3   OH228340   2.798   0.676   6.624
 9466TIP3    H128341   2.887   0.662   6.657
 9466TIP3    H228342   2.791   0.771   6.614
 9467TIP3   OH228343   0.097   5.080   1.672
 9467TIP3    H128344   0.105   4.985   1.666
 9467TIP3    H228345   0.028   5.102   1.609
 9468TIP3   OH228346   0.902   0.381   5.503
 9468TIP3    H128347   0.835   0.353   5.565
 9468TIP3    H228348   0.910   0.475   5.518
 9469TIP3   OH228349   0.538   1.386   4.318
 9469TIP3    H128350   0.546   1.438   4.397
 9469TIP3    H228351   0.485   1.310   4.344
 9470TIP3   OH228352   2.278   2.177   4.734
 9470TIP3    H128353   2.332   2.179   4.814
 9470TIP3    H228354   2.191   2.153   4.764
 9471TIP3   OH228355   7.582   2.514   4.515
 9471TIP3    H128356   7.566   2.607   4.533
 9471TIP3    H228357   7.578   2.473   4.601
 9472TIP3   OH228358   2.209   5.791   2.842
 9472TIP3    H128359   2.250   5.705   2.851
 9472TIP3    H228360   2.247   5.843   2.912
 9473TIP3   OH228361   4.680   0.186   6.078
 9473TIP3    H128362   4.736   0.206   6.003
 9473TIP3    H228363   4.628   0.265   6.091
 9474TIP3   OH228364   4.771   4.274   5.348
 9474TIP3    H128365   4.810   4.347   5.301
 9474TIP3    H228366   4.846   4.226   5.384
 9475TIP3   OH228367   7.413   3.231   2.795
 9475TIP3    H128368   7.412   3.202   2.886
 9475TIP3    H228369   7.439   3.323   2.799
 9476TIP3   OH228370   8.269   7.707   6.458
 9476TIP3    H128371   8.253   7.748   6.373
 9476TIP3    H228372   8.213   7.754   6.519
 9477TIP3   OH228373   1.940   0.574   5.266
 9477TIP3    H128374   1.885   0.613   5.198
 9477TIP3    H228375   1.965   0.647   5.322
 9478TIP3   OH228376   8.083   6.206   5.499
 9478TIP3    H128377   7.987   6.207   5.496
 9478TIP3    H228378   8.107   6.295   5.527
 9479TIP3   OH228379   2.083   5.885   6.280
 9479TIP3    H128380   1.999   5.879   6.325
 9479TIP3    H228381   2.108   5.794   6.265
 9480TIP3   OH228382   7.283   4.333   2.783
 9480TIP3    H128383   7.262   4.240   2.773
 9480TIP3    H228384   7.219   4.378   2.728
 9481TIP3   OH228385   0.359   3.672   3.023
 9481TIP3    H128386   0.272   3.637   3.041
 9481TIP3    H228387   0.400   3.606   2.968
 9482TIP3   OH228388   5.486   3.213   3.077
 9482TIP3    H128389   5.529   3.296   3.100
 9482TIP3    H228390   5.488   3.211   2.981
 9483TIP3   OH228391   5.084   7.540   5.374
 9483TIP3    H128392   5.158   7.588   5.337
 9483TIP3    H228393   5.094   7.548   5.468
 9484TIP3   OH228394   2.433   7.749   0.039
 9484TIP3    H128395   2.474   7.828   0.004
 9484TIP3    H228396   2.339   7.761   0.022
 9485TIP3   OH228397   1.766   0.334   1.503
 9485TIP3    H128398   1.836   0.300   1.558
 9485TIP3    H228399   1.810   0.392   1.440
 9486TIP3   OH228400   5.866   3.718   2.912
 9486TIP3    H128401   5.819   3.725   2.828
 9486TIP3    H228402   5.868   3.624   2.929
 9487TIP3   OH228403   2.408   0.893   0.680
 9487TIP3    H128404   2.456   0.824   0.726
 9487TIP3    H228405   2.340   0.921   0.742
 9488TIP3   OH228406   1.911   4.436   3.725
 9488TIP3    H128407   1.988   4.383   3.701
 9488TIP3    H228408   1.930   4.465   3.814
 9489TIP3   OH228409   4.240   7.297   5.248
 9489TIP3    H128410   4.323   7.251   5.232
 9489TIP3    H228411   4.248   7.330   5.337
 9490TIP3   OH228412   0.208   7.833   5.688
 9490TIP3    H128413   0.153   7.842   5.611
 9490TIP3    H228414   0.282   7.780   5.659
 9491TIP3   OH228415   2.920   6.994   2.516
 9491TIP3    H128416   2.834   6.992   2.475
 9491TIP3    H228417   2.904   6.974   2.608
 9492TIP3   OH228418   7.328   4.863   0.478
 9492TIP3    H128419   7.412   4.886   0.440
 9492TIP3    H228420   7.331   4.900   0.566
 9493TIP3   OH228421   4.005   5.691   3.922
 9493TIP3    H128422   4.018   5.613   3.867
 9493TIP3    H228423   4.093   5.722   3.941
 9494TIP3   OH228424   5.132   5.752   5.715
 9494TIP3    H128425   5.146   5.737   5.808
 9494TIP3    H228426   5.213   5.791   5.683
 9495TIP3   OH228427   6.954   7.581   4.390
 9495TIP3    H128428   7.034   7.532   4.410
 9495TIP3    H228429   6.975   7.672   4.411
 9496TIP3   OH228430   0.496   1.978   4.990
 9496TIP3    H128431   0.402   1.985   4.975
 9496TIP3    H228432   0.505   1.955   5.082
 9497TIP3   OH228433   4.553   6.195   2.706
 9497TIP3    H128434   4.480   6.137   2.728
 9497TIP3    H228435   4.631   6.139   2.709
 9498TIP3   OH228436   0.542   2.713   4.536
 9498TIP3    H128437   0.481   2.760   4.479
 9498TIP3    H228438   0.592   2.782   4.580
 9499TIP3   OH228439   0.752   4.441   3.848
 9499TIP3    H128440   0.744   4.346   3.839
 9499TIP3    H228441   0.742   4.474   3.759
 9500TIP3   OH228442   6.700   3.227   3.065
 9500TIP3    H128443   6.728   3.300   3.009
 9500TIP3    H228444   6.655   3.167   3.006
 9501TIP3   OH228445   3.736   7.048   2.519
 9501TIP3    H128446   3.724   7.130   2.471
 9501TIP3    H228447   3.823   7.055   2.558
 9502TIP3   OH228448   6.357   0.907   3.104
 9502TIP3    H128449   6.421   0.895   3.033
 9502TIP3    H228450   6.410   0.907   3.183
 9503TIP3   OH228451   0.110   2.141   0.713
 9503TIP3    H128452   0.161   2.101   0.643
 9503TIP3    H228453   0.175   2.186   0.766
 9504TIP3   OH228454   7.567   3.018   5.503
 9504TIP3    H128455   7.636   3.041   5.566
 9504TIP3    H228456   7.600   2.940   5.459
 9505TIP3   OH228457   2.910   2.955   1.962
 9505TIP3    H128458   3.002   2.928   1.950
 9505TIP3    H228459   2.916   3.047   1.987
 9506TIP3   OH228460   5.851   1.899   6.251
 9506TIP3    H128461   5.824   1.820   6.205
 9506TIP3    H228462   5.771   1.929   6.296
 9507TIP3   OH228463   3.375   4.417   0.309
 9507TIP3    H128464   3.377   4.493   0.251
 9507TIP3    H228465   3.329   4.350   0.259
 9508TIP3   OH228466   1.870   0.652   0.175
 9508TIP3    H128467   1.935   0.700   0.123
 9508TIP3    H228468   1.875   0.692   0.262
 9509TIP3   OH228469   7.079   1.553   5.078
 9509TIP3    H128470   7.137   1.618   5.117
 9509TIP3    H228471   7.046   1.595   4.998
 9510TIP3   OH228472   8.001   2.087   5.865
 9510TIP3    H128473   7.944   2.038   5.925
 9510TIP3    H228474   7.990   2.043   5.781
 9511TIP3   OH228475   8.151   6.456   1.306
 9511TIP3    H128476   8.177   6.529   1.251
 9511TIP3    H228477   8.097   6.401   1.250
 9512TIP3   OH228478   1.923   5.313   4.331
 9512TIP3    H128479   1.996   5.352   4.378
 9512TIP3    H228480   1.959   5.290   4.245
 9513TIP3   OH228481   4.720   0.795   5.975
 9513TIP3    H128482   4.754   0.706   5.976
 9513TIP3    H228483   4.627   0.785   5.952
 9514TIP3   OH228484   4.790   2.595   0.873
 9514TIP3    H128485   4.841   2.674   0.856
 9514TIP3    H228486   4.840   2.549   0.941
 9515TIP3   OH228487   3.479   3.691   6.715
 9515TIP3    H128488   3.401   3.734   6.750
 9515TIP3    H228489   3.552   3.730   6.761
 9516TIP3   OH228490   0.876   2.880   4.251
 9516TIP3    H128491   0.885   2.839   4.165
 9516TIP3    H228492   0.884   2.808   4.313
 9517TIP3   OH228493   5.966   1.323   6.456
 9517TIP3    H128494   5.911   1.399   6.436
 9517TIP3    H228495   5.971   1.322   6.552
 9518TIP3   OH228496   1.165   2.750   3.879
 9518TIP3    H128497   1.244   2.706   3.910
 9518TIP3    H228498   1.143   2.705   3.798
 9519TIP3   OH228499   3.157   6.683   4.887
 9519TIP3    H128500   3.108   6.607   4.857
 9519TIP3    H228501   3.226   6.694   4.822
 9520TIP3   OH228502   0.735   0.520   6.225
 9520TIP3    H128503   0.829   0.504   6.220
 9520TIP3    H228504   0.703   0.504   6.136
 9521TIP3   OH228505   7.458   4.226   3.080
 9521TIP3    H128506   7.456   4.131   3.069
 9521TIP3    H228507   7.389   4.244   3.145
 9522TIP3   OH228508   0.158   5.162   4.333
 9522TIP3    H128509   0.079   5.116   4.305
 9522TIP3    H228510   0.137   5.197   4.420
 9523TIP3   OH228511   2.836   2.562   0.720
 9523TIP3    H128512   2.834   2.471   0.690
 9523TIP3    H228513   2.824   2.614   0.640
 9524TIP3   OH228514   7.825   2.235   0.768
 9524TIP3    H128515   7.770   2.292   0.714
 9524TIP3    H228516   7.812   2.267   0.858
 9525TIP3   OH228517   6.037   4.480   4.496
 9525TIP3    H128518   6.075   4.433   4.570
 9525TIP3    H228519   6.102   4.472   4.427
 9526TIP3   OH228520   4.114   3.905   3.869
 9526TIP3    H128521   4.037   3.960   3.855
 9526TIP3    H228522   4.118   3.849   3.792
 9527TIP3   OH228523   4.899   4.597   6.263
 9527TIP3    H128524   4.928   4.667   6.205
 9527TIP3    H228525   4.835   4.548   6.211
 9528TIP3   OH228526   4.190   6.197   0.561
 9528TIP3    H128527   4.232   6.185   0.646
 9528TIP3    H228528   4.165   6.109   0.534
 9529TIP3   OH228529   2.884   2.060   6.012
 9529TIP3    H128530   2.968   2.016   6.026
 9529TIP3    H228531   2.907   2.140   5.965
 9530TIP3   OH228532   4.773   5.747   0.843
 9530TIP3    H128533   4.823   5.666   0.828
 9530TIP3    H228534   4.839   5.816   0.845
 9531TIP3   OH228535   0.314   7.188   4.688
 9531TIP3    H128536   0.234   7.187   4.634
 9531TIP3    H228537   0.385   7.202   4.625
 9532TIP3   OH228538   8.220   0.738   4.659
 9532TIP3    H128539   8.311   0.712   4.653
 9532TIP3    H228540   8.183   0.719   4.572
 9533TIP3   OH228541   4.605   3.864   2.999
 9533TIP3    H128542   4.661   3.913   3.059
 9533TIP3    H228543   4.658   3.854   2.920
 9534TIP3   OH228544   3.208   2.370   2.510
 9534TIP3    H128545   3.235   2.461   2.516
 9534TIP3    H228546   3.112   2.373   2.503
 9535TIP3   OH228547   5.355   2.050   6.135
 9535TIP3    H128548   5.421   2.106   6.177
 9535TIP3    H228549   5.333   2.096   6.054
 9536TIP3   OH228550   0.955   3.161   2.662
 9536TIP3    H128551   0.934   3.244   2.705
 9536TIP3    H228552   0.872   3.130   2.627
 9537TIP3   OH228553   2.210   0.809   1.387
 9537TIP3    H128554   2.292   0.817   1.436
 9537TIP3    H228555   2.149   0.868   1.432
 9538TIP3   OH228556   1.757   3.894   6.706
 9538TIP3    H128557   1.733   3.816   6.656
 9538TIP3    H228558   1.770   3.962   6.639
 9539TIP3   OH228559   5.805   2.105   1.347
 9539TIP3    H128560   5.755   2.150   1.278
 9539TIP3    H228561   5.747   2.034   1.376
 9540TIP3   OH228562   7.731   6.653   1.817
 9540TIP3    H128563   7.802   6.686   1.763
 9540TIP3    H228564   7.774   6.601   1.885
 9541TIP3   OH228565   5.859   0.670   4.163
 9541TIP3    H128566   5.923   0.599   4.164
 9541TIP3    H228567   5.844   0.690   4.255
 9542TIP3   OH228568   7.755   6.291   2.709
 9542TIP3    H128569   7.773   6.329   2.623
 9542TIP3    H228570   7.661   6.274   2.709
 9543TIP3   OH228571   6.673   6.713   3.518
 9543TIP3    H128572   6.732   6.656   3.567
 9543TIP3    H228573   6.714   6.799   3.520
 9544TIP3   OH228574   3.180   6.079   0.523
 9544TIP3    H128575   3.188   5.991   0.561
 9544TIP3    H228576   3.194   6.137   0.598
 9545TIP3   OH228577   5.407   1.221   0.097
 9545TIP3    H128578   5.490   1.253   0.061
 9545TIP3    H228579   5.342   1.242   0.030
 9546TIP3   OH228580   5.221   5.587   1.740
 9546TIP3    H128581   5.162   5.589   1.815
 9546TIP3    H228582   5.168   5.553   1.668
 9547TIP3   OH228583   3.839  -0.041   1.357
 9547TIP3    H128584   3.778   0.018   1.402
 9547TIP3    H228585   3.845  -0.006   1.268
 9548TIP3   OH228586   0.362   5.450   4.195
 9548TIP3    H128587   0.328   5.373   4.241
 9548TIP3    H228588   0.284   5.500   4.171
 9549TIP3   OH228589   0.958   0.460   4.980
 9549TIP3    H128590   0.873   0.424   5.004
 9549TIP3    H228591   0.945   0.495   4.892
 9550TIP3   OH228592   0.347   3.066   5.264
 9550TIP3    H128593   0.288   3.116   5.208
 9550TIP3    H228594   0.417   3.127   5.285
 9551TIP3   OH228595   6.404   7.479   4.787
 9551TIP3    H128596   6.420   7.571   4.804
 9551TIP3    H228597   6.322   7.459   4.834
 9552TIP3   OH228598   2.136   6.589   6.457
 9552TIP3    H128599   2.187   6.560   6.533
 9552TIP3    H228600   2.117   6.681   6.475
 9553TIP3   OH228601   5.449   0.493   3.143
 9553TIP3    H128602   5.429   0.543   3.064
 9553TIP3    H228603   5.521   0.541   3.184
 9554TIP3   OH228604   3.641   3.004   4.911
 9554TIP3    H128605   3.676   2.969   4.993
 9554TIP3    H228606   3.569   2.945   4.889
 9555TIP3   OH228607   5.753   5.727   2.884
 9555TIP3    H128608   5.849   5.727   2.879
 9555TIP3    H228609   5.727   5.648   2.837
 9556TIP3   OH228610   7.513   1.608   6.484
 9556TIP3    H128611   7.539   1.555   6.559
 9556TIP3    H228612   7.558   1.570   6.409
 9557TIP3   OH228613   3.030   5.908   2.995
 9557TIP3    H128614   2.998   5.856   3.069
 9557TIP3    H228615   2.983   5.874   2.919
 9558TIP3   OH228616   4.088   4.138   0.427
 9558TIP3    H128617   4.156   4.205   0.422
 9558TIP3    H228618   4.054   4.145   0.516
 9559TIP3   OH228619   3.812   5.093   1.431
 9559TIP3    H128620   3.796   5.171   1.483
 9559TIP3    H228621   3.903   5.101   1.402
 9560TIP3   OH228622   8.072   7.789   0.745
 9560TIP3    H128623   8.150   7.734   0.735
 9560TIP3    H228624   8.015   7.739   0.803
 9561TIP3   OH228625   7.164   7.147   2.632
 9561TIP3    H128626   7.079   7.134   2.589
 9561TIP3    H228627   7.218   7.074   2.601
 9562TIP3   OH228628   7.100   0.722   6.739
 9562TIP3    H128629   7.038   0.782   6.698
 9562TIP3    H228630   7.125   0.662   6.668
 9563TIP3   OH228631   5.989   1.945   5.642
 9563TIP3    H128632   5.947   2.028   5.667
 9563TIP3    H228633   5.934   1.910   5.573
 9564TIP3   OH228634  -0.025   6.106   5.230
 9564TIP3    H128635   0.001   6.198   5.229
 9564TIP3    H228636   0.045   6.063   5.280
 9565TIP3   OH228637   1.526   3.897   2.074
 9565TIP3    H128638   1.464   3.909   2.001
 9565TIP3    H228639   1.592   3.837   2.039
 9566TIP3   OH228640   7.194   5.396   3.369
 9566TIP3    H128641   7.117   5.354   3.407
 9566TIP3    H228642   7.267   5.339   3.395
 9567TIP3   OH228643   5.066   3.752   2.774
 9567TIP3    H128644   5.084   3.812   2.847
 9567TIP3    H228645   5.053   3.810   2.699
 9568TIP3   OH228646   2.908   1.490   4.832
 9568TIP3    H128647   2.938   1.514   4.920
 9568TIP3    H228648   2.977   1.433   4.798
 9569TIP3   OH228649   5.481   0.096   0.055
 9569TIP3    H128650   5.559   0.148   0.036
 9569TIP3    H228651   5.413   0.134   0.000
 9570TIP3   OH228652   5.830   7.159   4.509
 9570TIP3    H128653   5.758   7.211   4.474
 9570TIP3    H228654   5.904   7.220   4.516
 9571TIP3   OH228655   0.945   5.021   0.279
 9571TIP3    H128656   0.928   4.998   0.371
 9571TIP3    H228657   0.947   4.936   0.234
 9572TIP3   OH228658   1.868   4.118   3.636
 9572TIP3    H128659   1.793   4.077   3.678
 9572TIP3    H228660   1.834   4.154   3.555
 9573TIP3   OH228661   4.277   2.757   2.883
 9573TIP3    H128662   4.245   2.797   2.963
 9573TIP3    H228663   4.372   2.749   2.896
 9574TIP3   OH228664   0.548   1.241   0.098
 9574TIP3    H128665   0.534   1.266   0.007
 9574TIP3    H228666   0.491   1.166   0.112
 9575TIP3   OH228667   0.551   6.675   1.919
 9575TIP3    H128668   0.595   6.719   1.846
 9575TIP3    H228669   0.457   6.688   1.901
 9576TIP3   OH228670   2.523   7.483   2.340
 9576TIP3    H128671   2.429   7.491   2.324
 9576TIP3    H228672   2.552   7.414   2.280
 9577TIP3   OH228673   7.369   0.827   1.216
 9577TIP3    H128674   7.309   0.817   1.142
 9577TIP3    H228675   7.433   0.892   1.187
 9578TIP3   OH228676   7.950   0.872   1.182
 9578TIP3    H128677   7.982   0.810   1.247
 9578TIP3    H228678   7.965   0.828   1.098
 9579TIP3   OH228679   1.744   7.486   1.173
 9579TIP3    H128680   1.783   7.409   1.133
 9579TIP3    H228681   1.649   7.474   1.161
 9580TIP3   OH228682   4.344   3.865   4.835
 9580TIP3    H128683   4.380   3.943   4.793
 9580TIP3    H228684   4.358   3.879   4.928
 9581TIP3   OH228685   7.153   4.994   0.285
 9581TIP3    H128686   7.238   4.980   0.327
 9581TIP3    H228687   7.168   4.971   0.193
 9582TIP3   OH228688   1.025   6.542   2.817
 9582TIP3    H128689   0.975   6.563   2.895
 9582TIP3    H228690   1.047   6.626   2.777
 9583TIP3   OH228691   6.481   2.786   1.142
 9583TIP3    H128692   6.574   2.804   1.157
 9583TIP3    H228693   6.475   2.768   1.048
 9584TIP3   OH228694   4.194   4.106   6.342
 9584TIP3    H128695   4.164   4.194   6.320
 9584TIP3    H228696   4.271   4.120   6.397
 9585TIP3   OH228697   4.451   7.024   2.394
 9585TIP3    H128698   4.376   7.033   2.453
 9585TIP3    H228699   4.525   7.057   2.445
 9586TIP3   OH228700   3.021   1.683   0.835
 9586TIP3    H128701   2.988   1.720   0.753
 9586TIP3    H228702   3.000   1.749   0.901
 9587TIP3   OH228703   8.048   7.349   6.223
 9587TIP3    H128704   8.042   7.367   6.317
 9587TIP3    H228705   8.124   7.292   6.214
 9588TIP3   OH228706   1.557   5.777   5.278
 9588TIP3    H128707   1.570   5.808   5.368
 9588TIP3    H228708   1.501   5.700   5.286
 9589TIP3   OH228709   2.283   4.769   4.870
 9589TIP3    H128710   2.261   4.789   4.961
 9589TIP3    H228711   2.272   4.853   4.825
 9590TIP3   OH228712   1.461   2.610   6.040
 9590TIP3    H128713   1.376   2.653   6.029
 9590TIP3    H228714   1.439   2.521   6.069
 9591TIP3   OH228715   0.457   3.829   3.411
 9591TIP3    H128716   0.460   3.810   3.504
 9591TIP3    H228717   0.367   3.856   3.394
 9592TIP3   OH228718   7.545   5.322   5.786
 9592TIP3    H128719   7.457   5.355   5.806
 9592TIP3    H228720   7.589   5.320   5.871
 9593TIP3   OH228721   2.880   5.783   4.293
 9593TIP3    H128722   2.824   5.847   4.337
 9593TIP3    H228723   2.883   5.708   4.353
 9594TIP3   OH228724   3.019   2.207   6.691
 9594TIP3    H128725   2.999   2.163   6.774
 9594TIP3    H228726   3.092   2.156   6.655
 9595TIP3   OH228727   7.553   5.895   1.912
 9595TIP3    H128728   7.645   5.882   1.890
 9595TIP3    H228729   7.511   5.812   1.891
 9596TIP3   OH228730   5.854   6.808   1.037
 9596TIP3    H128731   5.814   6.829   1.122
 9596TIP3    H228732   5.779   6.800   0.978
 9597TIP3   OH228733   8.113   1.681   5.839
 9597TIP3    H128734   8.170   1.638   5.776
 9597TIP3    H228735   8.172   1.710   5.909
 9598TIP3   OH228736   0.933   6.866   3.685
 9598TIP3    H128737   0.846   6.896   3.660
 9598TIP3    H228738   0.942   6.891   3.777
 9599TIP3   OH228739   2.530   4.277   2.094
 9599TIP3    H128740   2.482   4.218   2.036
 9599TIP3    H228741   2.485   4.361   2.084
 9600TIP3   OH228742   7.936   1.068   3.533
 9600TIP3    H128743   7.947   1.160   3.511
 9600TIP3    H228744   7.982   1.022   3.462
 9601TIP3   OH228745   2.769   2.422   3.195
 9601TIP3    H128746   2.759   2.517   3.201
 9601TIP3    H228747   2.701   2.394   3.133
 9602TIP3   OH228748   0.578   0.711   0.994
 9602TIP3    H128749   0.543   0.779   0.937
 9602TIP3    H228750   0.526   0.634   0.975
 9603TIP3   OH228751   2.811   0.231   2.446
 9603TIP3    H128752   2.752   0.274   2.509
 9603TIP3    H228753   2.888   0.288   2.442
 9604TIP3   OH228754   1.872   0.495   5.520
 9604TIP3    H128755   1.823   0.417   5.493
 9604TIP3    H228756   1.906   0.531   5.438
 9605TIP3   OH228757   5.366   4.726   6.005
 9605TIP3    H128758   5.342   4.642   5.964
 9605TIP3    H228759   5.374   4.705   6.098
 9606TIP3   OH228760   0.519   1.658   2.053
 9606TIP3    H128761   0.438   1.655   2.002
 9606TIP3    H228762   0.507   1.594   2.123
 9607TIP3   OH228763   1.799   5.003   2.745
 9607TIP3    H128764   1.802   4.914   2.709
 9607TIP3    H228765   1.880   5.012   2.795
 9608TIP3   OH228766   1.354   0.847   5.403
 9608TIP3    H128767   1.369   0.934   5.438
 9608TIP3    H228768   1.339   0.861   5.309
 9609TIP3   OH228769   4.739   2.358   3.244
 9609TIP3    H128770   4.779   2.317   3.168
 9609TIP3    H228771   4.679   2.291   3.278
 9610TIP3   OH228772   6.810   2.711   4.490
 9610TIP3    H128773   6.752   2.639   4.465
 9610TIP3    H228774   6.894   2.690   4.448
 9611TIP3   OH228775   4.588   3.358   5.683
 9611TIP3    H128776   4.524   3.286   5.684
 9611TIP3    H228777   4.634   3.349   5.766
 9612TIP3   OH228778   4.333   0.630   3.307
 9612TIP3    H128779   4.268   0.618   3.375
 9612TIP3    H228780   4.332   0.548   3.257
 9613TIP3   OH228781   3.475   6.962   6.341
 9613TIP3    H128782   3.562   6.946   6.378
 9613TIP3    H228783   3.434   6.875   6.340
 9614TIP3   OH228784   0.666   0.575   0.356
 9614TIP3    H128785   0.578   0.546   0.331
 9614TIP3    H228786   0.725   0.531   0.294
 9615TIP3   OH228787   6.823   7.628   3.296
 9615TIP3    H128788   6.791   7.550   3.251
 9615TIP3    H228789   6.844   7.597   3.385
 9616TIP3   OH228790   2.937   0.473   6.218
 9616TIP3    H128791   3.009   0.417   6.187
 9616TIP3    H228792   2.967   0.504   6.303
 9617TIP3   OH228793   6.380   1.296   2.115
 9617TIP3    H128794   6.350   1.209   2.143
 9617TIP3    H228795   6.451   1.278   2.053
 9618TIP3   OH228796   8.076   3.940   3.569
 9618TIP3    H128797   8.131   4.010   3.604
 9618TIP3    H228798   8.134   3.864   3.565
 9619TIP3   OH228799   3.386   7.251   0.423
 9619TIP3    H128800   3.320   7.226   0.489
 9619TIP3    H228801   3.338   7.254   0.341
 9620TIP3   OH228802   4.928   2.567   4.183
 9620TIP3    H128803   4.973   2.594   4.263
 9620TIP3    H228804   4.993   2.515   4.135
 9621TIP3   OH228805   3.751   1.670   1.622
 9621TIP3    H128806   3.827   1.656   1.566
 9621TIP3    H228807   3.717   1.582   1.639
 9622TIP3   OH228808   4.962   4.518   2.119
 9622TIP3    H128809   5.006   4.581   2.063
 9622TIP3    H228810   5.014   4.517   2.199
 9623TIP3   OH228811   1.460   5.016   3.490
 9623TIP3    H128812   1.427   4.929   3.511
 9623TIP3    H228813   1.421   5.073   3.556
 9624TIP3   OH228814   3.054   4.864   4.242
 9624TIP3    H128815   3.020   4.951   4.265
 9624TIP3    H228816   3.090   4.830   4.323
 9625TIP3   OH228817   2.562   5.426   5.414
 9625TIP3    H128818   2.508   5.455   5.341
 9625TIP3    H228819   2.521   5.464   5.492
 9626TIP3   OH228820   5.898   2.791   0.864
 9626TIP3    H128821   5.956   2.728   0.906
 9626TIP3    H228822   5.953   2.866   0.844
 9627TIP3   OH228823   7.586   0.681   3.563
 9627TIP3    H128824   7.657   0.720   3.614
 9627TIP3    H228825   7.558   0.605   3.614
 9628TIP3   OH228826   1.575   4.707   5.991
 9628TIP3    H128827   1.567   4.742   6.080
 9628TIP3    H228828   1.656   4.745   5.957
 9629TIP3   OH228829   1.367   0.762   0.692
 9629TIP3    H128830   1.407   0.848   0.704
 9629TIP3    H228831   1.305   0.753   0.765
 9630TIP3   OH228832   3.278   0.546   0.729
 9630TIP3    H128833   3.242   0.533   0.641
 9630TIP3    H228834   3.204   0.529   0.787
 9631TIP3   OH228835   0.212   5.628   1.157
 9631TIP3    H128836   0.289   5.586   1.194
 9631TIP3    H228837   0.233   5.641   1.064
 9632TIP3   OH228838   6.273   7.188   3.363
 9632TIP3    H128839   6.235   7.162   3.279
 9632TIP3    H228840   6.271   7.108   3.416
 9633TIP3   OH228841   1.183   4.989   3.350
 9633TIP3    H128842   1.140   4.951   3.274
 9633TIP3    H228843   1.267   5.021   3.317
 9634TIP3   OH228844   0.828   0.180   0.335
 9634TIP3    H128845   0.753   0.127   0.307
 9634TIP3    H228846   0.847   0.149   0.424
 9635TIP3   OH228847   2.582   0.230   5.182
 9635TIP3    H128848   2.512   0.198   5.238
 9635TIP3    H228849   2.600   0.157   5.122
 9636TIP3   OH228850   0.227   2.353   3.052
 9636TIP3    H128851   0.243   2.315   3.139
 9636TIP3    H228852   0.299   2.319   2.998
 9637TIP3   OH228853   3.987   3.540   1.812
 9637TIP3    H128854   3.959   3.616   1.862
 9637TIP3    H228855   3.955   3.465   1.863
 9638TIP3   OH228856   7.195   3.998   6.549
 9638TIP3    H128857   7.154   3.949   6.619
 9638TIP3    H228858   7.135   3.990   6.475
 9639TIP3   OH228859   3.850   4.265   5.190
 9639TIP3    H128860   3.821   4.336   5.248
 9639TIP3    H228861   3.819   4.185   5.233
 9640TIP3   OH228862   6.692   4.022   0.712
 9640TIP3    H128863   6.610   3.978   0.737
 9640TIP3    H228864   6.697   4.009   0.617
 9641TIP3   OH228865   2.409   6.682   5.358
 9641TIP3    H128866   2.434   6.718   5.273
 9641TIP3    H228867   2.331   6.629   5.339
 9642TIP3   OH228868   3.536   3.255   6.237
 9642TIP3    H128869   3.465   3.202   6.201
 9642TIP3    H228870   3.616   3.211   6.206
 9643TIP3   OH228871   6.968   3.496   3.104
 9643TIP3    H128872   6.888   3.459   3.143
 9643TIP3    H228873   6.969   3.461   3.015
 9644TIP3   OH228874   1.653   6.454   1.605
 9644TIP3    H128875   1.571   6.436   1.651
 9644TIP3    H228876   1.671   6.374   1.555
 9645TIP3   OH228877   1.634   2.643   0.480
 9645TIP3    H128878   1.623   2.549   0.497
 9645TIP3    H228879   1.728   2.652   0.460
 9646TIP3   OH228880   2.738   7.627   5.439
 9646TIP3    H128881   2.822   7.586   5.459
 9646TIP3    H228882   2.735   7.631   5.343
 9647TIP3   OH228883   6.782   1.672   6.122
 9647TIP3    H128884   6.709   1.617   6.095
 9647TIP3    H228885   6.829   1.691   6.041
 9648TIP3   OH228886   4.062   0.627   5.562
 9648TIP3    H128887   4.114   0.633   5.482
 9648TIP3    H228888   4.060   0.717   5.596
 9649TIP3   OH228889   7.705   4.000   3.450
 9649TIP3    H128890   7.611   4.010   3.433
 9649TIP3    H228891   7.746   4.006   3.364
 9650TIP3   OH228892   0.535   2.045   3.379
 9650TIP3    H128893   0.483   2.112   3.425
 9650TIP3    H228894   0.485   2.028   3.299
 9651TIP3   OH228895   7.905   0.282   6.130
 9651TIP3    H128896   7.818   0.259   6.162
 9651TIP3    H228897   7.944   0.198   6.106
 9652TIP3   OH228898   0.415   1.179   4.422
 9652TIP3    H128899   0.430   1.133   4.504
 9652TIP3    H228900   0.355   1.122   4.374
 9653TIP3   OH228901   2.125   0.852   0.342
 9653TIP3    H128902   2.032   0.870   0.352
 9653TIP3    H228903   2.161   0.866   0.430
 9654TIP3   OH228904   1.108   3.594   3.343
 9654TIP3    H128905   1.095   3.633   3.430
 9654TIP3    H228906   1.154   3.511   3.361
 9655TIP3   OH228907   2.174   5.730   4.010
 9655TIP3    H128908   2.204   5.690   4.092
 9655TIP3    H228909   2.140   5.656   3.960
 9656TIP3   OH228910   8.089   2.274   2.523
 9656TIP3    H128911   8.105   2.279   2.617
 9656TIP3    H228912   8.114   2.184   2.500
 9657TIP3   OH228913   4.873   1.894   0.480
 9657TIP3    H128914   4.934   1.962   0.508
 9657TIP3    H228915   4.833   1.929   0.400
 9658TIP3   OH228916   7.364   2.006   4.156
 9658TIP3    H128917   7.448   1.984   4.197
 9658TIP3    H228918   7.386   2.031   4.067
 9659TIP3   OH228919   3.931   5.977   6.168
 9659TIP3    H128920   3.873   5.901   6.169
 9659TIP3    H228921   3.912   6.020   6.085
 9660TIP3   OH228922   0.797   1.725   1.495
 9660TIP3    H128923   0.757   1.766   1.573
 9660TIP3    H228924   0.806   1.797   1.433
 9661TIP3   OH228925   3.962   7.512   5.293
 9661TIP3    H128926   3.932   7.424   5.315
 9661TIP3    H228927   3.893   7.548   5.236
 9662TIP3   OH228928   7.624   6.743   3.390
 9662TIP3    H128929   7.529   6.738   3.393
 9662TIP3    H228930   7.645   6.834   3.412
 9663TIP3   OH228931   0.119   3.228   4.568
 9663TIP3    H128932   0.151   3.138   4.578
 9663TIP3    H228933   0.192   3.276   4.530
 9664TIP3   OH228934   5.475   5.677   6.470
 9664TIP3    H128935   5.547   5.740   6.471
 9664TIP3    H228936   5.518   5.592   6.456
 9665TIP3   OH228937   1.969   0.117   1.564
 9665TIP3    H128938   1.950   0.072   1.482
 9665TIP3    H228939   1.968   0.047   1.630
 9666TIP3   OH228940   6.776   0.734   5.276
 9666TIP3    H128941   6.736   0.796   5.215
 9666TIP3    H228942   6.799   0.658   5.222
 9667TIP3   OH228943   6.643   2.075   1.727
 9667TIP3    H128944   6.709   2.033   1.672
 9667TIP3    H228945   6.655   2.036   1.814
 9668TIP3   OH228946   1.272   0.262   6.178
 9668TIP3    H128947   1.252   0.201   6.106
 9668TIP3    H228948   1.333   0.325   6.139
 9669TIP3   OH228949   0.570   1.832   5.399
 9669TIP3    H128950   0.522   1.781   5.465
 9669TIP3    H228951   0.557   1.783   5.317
 9670TIP3   OH228952   7.557   2.757   3.527
 9670TIP3    H128953   7.531   2.668   3.550
 9670TIP3    H228954   7.540   2.764   3.433
 9671TIP3   OH228955   3.754   3.838   2.548
 9671TIP3    H128956   3.751   3.761   2.606
 9671TIP3    H228957   3.664   3.847   2.516
 9672TIP3   OH228958   1.225   2.811   2.654
 9672TIP3    H128959   1.258   2.886   2.705
 9672TIP3    H228960   1.261   2.735   2.699
 9673TIP3   OH228961   6.721   2.740   2.586
 9673TIP3    H128962   6.645   2.695   2.550
 9673TIP3    H228963   6.774   2.763   2.510
 9674TIP3   OH228964   3.207   6.911   1.223
 9674TIP3    H128965   3.116   6.922   1.194
 9674TIP3    H228966   3.248   6.860   1.154
 9675TIP3   OH228967   2.728   0.957   4.270
 9675TIP3    H128968   2.741   1.052   4.271
 9675TIP3    H228969   2.674   0.939   4.347
 9676TIP3   OH228970   1.444   1.535   4.256
 9676TIP3    H128971   1.424   1.561   4.345
 9676TIP3    H228972   1.513   1.468   4.266
 9677TIP3   OH228973   7.066   6.061   0.218
 9677TIP3    H128974   7.087   6.154   0.207
 9677TIP3    H228975   7.091   6.020   0.135
 9678TIP3   OH228976   6.179   2.327   4.475
 9678TIP3    H128977   6.178   2.315   4.570
 9678TIP3    H228978   6.109   2.270   4.443
 9679TIP3   OH228979   2.343   1.630   3.680
 9679TIP3    H128980   2.274   1.579   3.637
 9679TIP3    H228981   2.373   1.691   3.613
 9680TIP3   OH228982   0.910   7.006   3.923
 9680TIP3    H128983   0.932   6.963   4.006
 9680TIP3    H228984   0.994   7.039   3.890
 9681TIP3   OH228985   2.582   0.467   3.491
 9681TIP3    H128986   2.520   0.477   3.419
 9681TIP3    H228987   2.569   0.546   3.545
 9682TIP3   OH228988   6.559   2.295   2.786
 9682TIP3    H128989   6.577   2.215   2.736
 9682TIP3    H228990   6.622   2.359   2.753
 9683TIP3   OH228991   8.204   4.785   0.579
 9683TIP3    H128992   8.165   4.754   0.661
 9683TIP3    H228993   8.243   4.707   0.540
 9684TIP3   OH228994   6.989   2.471   5.347
 9684TIP3    H128995   6.964   2.534   5.414
 9684TIP3    H228996   6.945   2.390   5.373
 9685TIP3   OH228997   7.766   5.934   5.119
 9685TIP3    H128998   7.842   5.919   5.175
 9685TIP3    H228999   7.720   6.007   5.160
 9686TIP3   OH229000   5.882   2.582   3.720
 9686TIP3    H129001   5.935   2.553   3.646
 9686TIP3    H229002   5.855   2.671   3.696
 9687TIP3   OH229003   8.242   6.636   4.558
 9687TIP3    H129004   8.291   6.700   4.507
 9687TIP3    H229005   8.191   6.588   4.494
 9688TIP3   OH229006   5.615   7.139   1.543
 9688TIP3    H129007   5.651   7.071   1.600
 9688TIP3    H229008   5.604   7.215   1.600
 9689TIP3   OH229009   0.844   6.439   4.436
 9689TIP3    H129010   0.914   6.477   4.489
 9689TIP3    H229011   0.870   6.347   4.426
 9690TIP3   OH229012   0.360   5.745   5.411
 9690TIP3    H129013   0.333   5.800   5.337
 9690TIP3    H229014   0.375   5.659   5.372
 9691TIP3   OH229015   4.465   2.249   4.646
 9691TIP3    H129016   4.528   2.196   4.597
 9691TIP3    H229017   4.436   2.316   4.584
 9692TIP3   OH229018   3.821   6.066   4.424
 9692TIP3    H129019   3.822   6.060   4.520
 9692TIP3    H229020   3.791   5.980   4.396
 9693TIP3   OH229021   3.763   5.432   5.624
 9693TIP3    H129022   3.678   5.389   5.611
 9693TIP3    H229023   3.821   5.390   5.561
 9694TIP3   OH229024   4.795   5.064   3.846
 9694TIP3    H129025   4.755   5.150   3.864
 9694TIP3    H229026   4.782   5.014   3.926
 9695TIP3   OH229027   0.501   0.235   1.888
 9695TIP3    H129028   0.578   0.207   1.938
 9695TIP3    H229029   0.502   0.330   1.894
 9696TIP3   OH229030   2.226   6.491   5.330
 9696TIP3    H129031   2.137   6.466   5.307
 9696TIP3    H229032   2.270   6.408   5.350
 9697TIP3   OH229033   0.687   1.243   3.913
 9697TIP3    H129034   0.633   1.238   3.993
 9697TIP3    H229035   0.730   1.328   3.919
 9698TIP3   OH229036   4.066   3.885   6.370
 9698TIP3    H129037   4.131   3.816   6.356
 9698TIP3    H229038   4.117   3.967   6.370
 9699TIP3   OH229039   5.844   0.015   3.677
 9699TIP3    H129040   5.770   0.075   3.663
 9699TIP3    H229041   5.814  -0.042   3.748
 9700TIP3   OH229042   0.510   3.447   0.319
 9700TIP3    H129043   0.422   3.456   0.355
 9700TIP3    H229044   0.568   3.467   0.392
 9701TIP3   OH229045   5.591   2.001   2.897
 9701TIP3    H129046   5.584   2.048   2.814
 9701TIP3    H229047   5.623   2.066   2.959
 9702TIP3   OH229048   8.247   2.024   5.631
 9702TIP3    H129049   8.198   2.080   5.571
 9702TIP3    H229050   8.308   2.083   5.675
 9703TIP3   OH229051   6.460   2.257   6.664
 9703TIP3    H129052   6.449   2.281   6.756
 9703TIP3    H229053   6.519   2.323   6.629
 9704TIP3   OH229054   2.997   3.957   5.145
 9704TIP3    H129055   2.987   4.042   5.188
 9704TIP3    H229056   3.030   3.978   5.058
 9705TIP3   OH229057   3.881   5.011   2.339
 9705TIP3    H129058   3.818   4.970   2.399
 9705TIP3    H229059   3.959   5.025   2.392
 9706TIP3   OH229060   2.360   6.841   2.918
 9706TIP3    H129061   2.394   6.839   2.829
 9706TIP3    H229062   2.391   6.759   2.957
 9707TIP3   OH229063   0.814   5.146   6.127
 9707TIP3    H129064   0.751   5.168   6.059
 9707TIP3    H229065   0.760   5.109   6.198
 9708TIP3   OH229066   3.271   4.895   0.630
 9708TIP3    H129067   3.366   4.899   0.632
 9708TIP3    H229068   3.251   4.825   0.568
 9709TIP3   OH229069   0.876   0.825   3.737
 9709TIP3    H129070   0.879   0.871   3.653
 9709TIP3    H229071   0.837   0.740   3.716
 9710TIP3   OH229072   3.914   2.315   3.785
 9710TIP3    H129073   4.003   2.328   3.752
 9710TIP3    H229074   3.884   2.235   3.742
 9711TIP3   OH229075   6.605   0.452   3.441
 9711TIP3    H129076   6.523   0.491   3.411
 9711TIP3    H229077   6.631   0.392   3.372
 9712TIP3   OH229078   5.223   4.948   5.751
 9712TIP3    H129079   5.290   5.016   5.755
 9712TIP3    H229080   5.142   4.992   5.778
 9713TIP3   OH229081   5.042   1.123   0.015
 9713TIP3    H129082   5.020   1.158   0.102
 9713TIP3    H229083   5.009   1.188  -0.046
 9714TIP3   OH229084   7.815   4.407   4.294
 9714TIP3    H129085   7.727   4.444   4.288
 9714TIP3    H229086   7.856   4.454   4.366
 9715TIP3   OH229087   0.593   7.736   6.573
 9715TIP3    H129088   0.573   7.830   6.577
 9715TIP3    H229089   0.517   7.697   6.530
 9716TIP3   OH229090   5.096   0.422   1.012
 9716TIP3    H129091   5.157   0.418   1.085
 9716TIP3    H229092   5.010   0.407   1.053
 9717TIP3   OH229093   0.919   6.742   6.595
 9717TIP3    H129094   0.945   6.834   6.604
 9717TIP3    H229095   0.992   6.702   6.547
 9718TIP3   OH229096   1.138   0.310   3.619
 9718TIP3    H129097   1.125   0.254   3.542
 9718TIP3    H229098   1.052   0.349   3.634
 9719TIP3   OH229099   7.706   4.255   1.629
 9719TIP3    H129100   7.797   4.229   1.640
 9719TIP3    H229101   7.710   4.340   1.586
 9720TIP3   OH229102   7.019   2.327   4.490
 9720TIP3    H129103   6.935   2.310   4.532
 9720TIP3    H229104   7.083   2.328   4.562
 9721TIP3   OH229105   3.972   5.947   0.799
 9721TIP3    H129106   3.945   6.013   0.735
 9721TIP3    H229107   3.991   5.869   0.747
 9722TIP3   OH229108   7.397   4.307   4.229
 9722TIP3    H129109   7.379   4.279   4.139
 9722TIP3    H229110   7.426   4.397   4.221
 9723TIP3   OH229111   6.316   2.070   5.673
 9723TIP3    H129112   6.371   2.040   5.745
 9723TIP3    H229113   6.240   2.109   5.715
 9724TIP3   OH229114   2.455   5.546   4.098
 9724TIP3    H129115   2.410   5.542   4.013
 9724TIP3    H229116   2.536   5.594   4.080
 9725TIP3   OH229117   3.489   0.736   0.782
 9725TIP3    H129118   3.443   0.673   0.727
 9725TIP3    H229119   3.567   0.689   0.812
 9726TIP3   OH229120   2.931   6.331   1.902
 9726TIP3    H129121   2.860   6.268   1.891
 9726TIP3    H229122   2.988   6.291   1.968
 9727TIP3   OH229123   1.220   0.616   2.614
 9727TIP3    H129124   1.178   0.530   2.612
 9727TIP3    H229125   1.277   0.614   2.690
 9728TIP3   OH229126   8.242   5.299   3.262
 9728TIP3    H129127   8.297   5.289   3.339
 9728TIP3    H229128   8.271   5.382   3.223
 9729TIP3   OH229129   3.599   4.667   3.888
 9729TIP3    H129130   3.670   4.730   3.873
 9729TIP3    H229131   3.592   4.620   3.805
 9730TIP3   OH229132   1.042   4.278   0.873
 9730TIP3    H129133   0.996   4.298   0.792
 9730TIP3    H229134   1.064   4.186   0.866
 9731TIP3   OH229135   0.546   2.404   5.098
 9731TIP3    H129136   0.560   2.362   5.013
 9731TIP3    H229137   0.630   2.395   5.142
 9732TIP3   OH229138   5.216   5.418   0.622
 9732TIP3    H129139   5.205   5.443   0.714
 9732TIP3    H229140   5.282   5.349   0.623
 9733TIP3   OH229141   2.203   4.833   0.778
 9733TIP3    H129142   2.143   4.811   0.850
 9733TIP3    H229143   2.192   4.761   0.715
 9734TIP3   OH229144   7.755   1.720   1.404
 9734TIP3    H129145   7.790   1.732   1.316
 9734TIP3    H229146   7.832   1.704   1.459
 9735TIP3   OH229147   7.640   2.586   1.402
 9735TIP3    H129148   7.656   2.663   1.346
 9735TIP3    H229149   7.547   2.567   1.390
 9736TIP3   OH229150   0.753   4.980   6.644
 9736TIP3    H129151   0.666   4.954   6.614
 9736TIP3    H229152   0.754   5.075   6.632
 9737TIP3   OH229153   4.480   0.730   5.349
 9737TIP3    H129154   4.561   0.776   5.328
 9737TIP3    H229155   4.459   0.681   5.269
 9738TIP3   OH229156   6.460   0.498   3.903
 9738TIP3    H129157   6.512   0.578   3.891
 9738TIP3    H229158   6.517   0.428   3.871
 9739TIP3   OH229159   7.955   7.031   6.564
 9739TIP3    H129160   7.873   7.074   6.540
 9739TIP3    H229161   7.979   6.982   6.485
 9740TIP3   OH229162   0.673   3.874   5.443
 9740TIP3    H129163   0.628   3.941   5.495
 9740TIP3    H229164   0.661   3.793   5.492
 9741TIP3   OH229165   3.049   0.083   3.168
 9741TIP3    H129166   2.975   0.090   3.228
 9741TIP3    H229167   3.019   0.022   3.101
 9742TIP3   OH229168   7.783   6.178   3.956
 9742TIP3    H129169   7.783   6.132   3.872
 9742TIP3    H229170   7.844   6.127   4.010
 9743TIP3   OH229171   8.032   0.154   4.887
 9743TIP3    H129172   8.100   0.149   4.953
 9743TIP3    H229173   7.974   0.224   4.916
 9744TIP3   OH229174   0.497   7.691   2.096
 9744TIP3    H129175   0.565   7.689   2.028
 9744TIP3    H229176   0.540   7.653   2.173
 9745TIP3   OH229177   7.786   0.454   3.862
 9745TIP3    H129178   7.738   0.536   3.873
 9745TIP3    H229179   7.878   0.480   3.866
 9746TIP3   OH229180   1.034   2.014   4.743
 9746TIP3    H129181   0.957   2.033   4.690
 9746TIP3    H229182   0.999   1.993   4.830
 9747TIP3   OH229183   8.221   0.354   1.464
 9747TIP3    H129184   8.211   0.387   1.553
 9747TIP3    H229185   8.269   0.423   1.418
 9748TIP3   OH229186   3.468   1.845   4.676
 9748TIP3    H129187   3.436   1.928   4.640
 9748TIP3    H229188   3.523   1.809   4.607
 9749TIP3   OH229189   6.676   0.492   3.706
 9749TIP3    H129190   6.658   0.476   3.613
 9749TIP3    H229191   6.665   0.406   3.746
 9750TIP3   OH229192   0.967   3.135   4.254
 9750TIP3    H129193   0.942   3.043   4.240
 9750TIP3    H229194   0.912   3.184   4.193
 9751TIP3   OH229195   8.174   7.732   4.277
 9751TIP3    H129196   8.239   7.664   4.258
 9751TIP3    H229197   8.199   7.806   4.222
 9752TIP3   OH229198   5.283   3.976   4.447
 9752TIP3    H129199   5.195   3.944   4.428
 9752TIP3    H229200   5.337   3.897   4.453
 9753TIP3   OH229201   7.665   2.027   5.775
 9753TIP3    H129202   7.606   2.036   5.700
 9753TIP3    H229203   7.708   2.112   5.782
 9754TIP3   OH229204   6.759   2.763   1.136
 9754TIP3    H129205   6.807   2.682   1.153
 9754TIP3    H229206   6.811   2.832   1.178
 9755TIP3   OH229207   4.649   6.908   0.902
 9755TIP3    H129208   4.616   6.998   0.895
 9755TIP3    H229209   4.582   6.861   0.951
 9756TIP3   OH229210   1.666   3.845   2.695
 9756TIP3    H129211   1.735   3.779   2.685
 9756TIP3    H229212   1.628   3.853   2.607
 9757TIP3   OH229213   5.284   5.297   5.080
 9757TIP3    H129214   5.365   5.347   5.088
 9757TIP3    H229215   5.240   5.309   5.164
 9758TIP3   OH229216   6.160   1.728   3.845
 9758TIP3    H129217   6.132   1.731   3.753
 9758TIP3    H229218   6.149   1.636   3.870
 9759TIP3   OH229219   1.964   5.190   4.914
 9759TIP3    H129220   1.928   5.103   4.898
 9759TIP3    H229221   1.892   5.239   4.955
 9760TIP3   OH229222   6.080   1.569   3.127
 9760TIP3    H129223   6.069   1.552   3.034
 9760TIP3    H229224   6.148   1.507   3.155
 9761TIP3   OH229225   5.143   6.022   6.100
 9761TIP3    H129226   5.056   6.035   6.062
 9761TIP3    H229227   5.190   6.104   6.079
 9762TIP3   OH229228   5.983   7.647   3.031
 9762TIP3    H129229   5.897   7.654   3.073
 9762TIP3    H229230   5.965   7.605   2.947
 9763TIP3   OH229231   2.489   6.813   1.021
 9763TIP3    H129232   2.477   6.903   1.052
 9763TIP3    H229233   2.403   6.773   1.027
 9764TIP3   OH229234   5.069   2.372   4.410
 9764TIP3    H129235   5.155   2.396   4.377
 9764TIP3    H229236   5.080   2.283   4.445
 9765TIP3   OH229237   7.459   7.306   5.707
 9765TIP3    H129238   7.382   7.341   5.662
 9765TIP3    H229239   7.514   7.271   5.636
 9766TIP3   OH229240   7.626   2.410   3.153
 9766TIP3    H129241   7.587   2.347   3.214
 9766TIP3    H229242   7.678   2.468   3.209
 9767TIP3   OH229243   6.050   3.570   3.574
 9767TIP3    H129244   5.969   3.602   3.535
 9767TIP3    H229245   6.118   3.624   3.534
 9768TIP3   OH229246   2.707   3.340   2.711
 9768TIP3    H129247   2.675   3.361   2.798
 9768TIP3    H229248   2.781   3.281   2.726
 9769TIP3   OH229249   4.774   0.964   2.091
 9769TIP3    H129250   4.864   0.994   2.095
 9769TIP3    H229251   4.761   0.938   2.000
 9770TIP3   OH229252   5.722   3.828   5.440
 9770TIP3    H129253   5.693   3.739   5.418
 9770TIP3    H229254   5.724   3.874   5.356
 9771TIP3   OH229255   2.908   6.657   6.156
 9771TIP3    H129256   2.865   6.671   6.241
 9771TIP3    H229257   2.909   6.562   6.146
 9772TIP3   OH229258   1.423   3.466   5.739
 9772TIP3    H129259   1.469   3.495   5.659
 9772TIP3    H229260   1.349   3.526   5.746
 9773TIP3   OH229261   5.691   2.213   1.129
 9773TIP3    H129262   5.776   2.251   1.151
 9773TIP3    H229263   5.631   2.287   1.126
 9774TIP3   OH229264   3.059   0.992   6.730
 9774TIP3    H129265   3.069   0.898   6.713
 9774TIP3    H229266   2.965   1.008   6.721
 9775TIP3   OH229267   0.664   5.866   0.151
 9775TIP3    H129268   0.729   5.906   0.209
 9775TIP3    H229269   0.684   5.901   0.065
 9776TIP3   OH229270   7.779   7.500   2.215
 9776TIP3    H129271   7.875   7.499   2.222
 9776TIP3    H229272   7.751   7.426   2.268
 9777TIP3   OH229273   5.551   7.510   3.221
 9777TIP3    H129274   5.572   7.465   3.139
 9777TIP3    H229275   5.633   7.553   3.246
 9778TIP3   OH229276   0.719   1.150   5.054
 9778TIP3    H129277   0.740   1.239   5.026
 9778TIP3    H229278   0.624   1.149   5.060
 9779TIP3   OH229279   5.662   0.446   0.828
 9779TIP3    H129280   5.579   0.412   0.795
 9779TIP3    H229281   5.655   0.541   0.817
 9780TIP3   OH229282   3.345   5.800   2.710
 9780TIP3    H129283   3.306   5.799   2.622
 9780TIP3    H229284   3.393   5.718   2.715
 9781TIP3   OH229285  -0.027   4.596   3.690
 9781TIP3    H129286   0.015   4.510   3.690
 9781TIP3    H229287   0.025   4.647   3.752
 9782TIP3   OH229288   0.937   5.639   4.432
 9782TIP3    H129289   1.005   5.705   4.421
 9782TIP3    H229290   0.902   5.626   4.344
 9783TIP3   OH229291   4.921   1.899   1.180
 9783TIP3    H129292   4.977   1.919   1.256
 9783TIP3    H229293   4.837   1.940   1.201
 9784TIP3   OH229294   1.455   4.130   2.262
 9784TIP3    H129295   1.498   4.108   2.345
 9784TIP3    H229296   1.460   4.050   2.210
 9785TIP3   OH229297   3.142   2.885   3.892
 9785TIP3    H129298   3.130   2.908   3.801
 9785TIP3    H229299   3.184   2.961   3.932
 9786TIP3   OH229300   1.955   6.397   6.350
 9786TIP3    H129301   1.996   6.311   6.343
 9786TIP3    H229302   2.026   6.455   6.379
 9787TIP3   OH229303   0.687   0.351   2.557
 9787TIP3    H129304   0.686   0.446   2.573
 9787TIP3    H229305   0.624   0.315   2.620
 9788TIP3   OH229306   2.589   1.205   1.671
 9788TIP3    H129307   2.597   1.187   1.765
 9788TIP3    H229308   2.652   1.275   1.655
 9789TIP3   OH229309   0.969   2.382   3.211
 9789TIP3    H129310   0.976   2.471   3.179
 9789TIP3    H229311   1.046   2.370   3.267
 9790TIP3   OH229312   2.261   0.823   5.131
 9790TIP3    H129313   2.204   0.892   5.097
 9790TIP3    H229314   2.337   0.823   5.073
 9791TIP3   OH229315   7.668   0.637   6.663
 9791TIP3    H129316   7.580   0.611   6.691
 9791TIP3    H229317   7.656   0.721   6.620
 9792TIP3   OH229318   3.336   2.147   5.654
 9792TIP3    H129319   3.326   2.086   5.728
 9792TIP3    H229320   3.399   2.104   5.596
 9793TIP3   OH229321   4.902   5.580   5.630
 9793TIP3    H129322   4.889   5.519   5.557
 9793TIP3    H229323   4.994   5.607   5.622
 9794TIP3   OH229324   3.724   5.670   3.710
 9794TIP3    H129325   3.640   5.628   3.688
 9794TIP3    H229326   3.776   5.663   3.629
 9795TIP3   OH229327   2.607   4.679   3.769
 9795TIP3    H129328   2.604   4.760   3.718
 9795TIP3    H229329   2.522   4.638   3.753
 9796TIP3   OH229330   3.092   7.591   1.860
 9796TIP3    H129331   3.124   7.505   1.832
 9796TIP3    H229332   3.170   7.636   1.893
 9797TIP3   OH229333   0.166   7.491   3.138
 9797TIP3    H129334   0.133   7.499   3.228
 9797TIP3    H229335   0.104   7.541   3.085
 9798TIP3   OH229336   0.151   4.685   2.391
 9798TIP3    H129337   0.061   4.671   2.361
 9798TIP3    H229338   0.165   4.779   2.380
 9799TIP3   OH229339   7.667   0.884   1.242
 9799TIP3    H129340   7.745   0.860   1.193
 9799TIP3    H229341   7.691   0.873   1.333
 9800TIP3   OH229342   1.238   4.019   3.262
 9800TIP3    H129343   1.149   4.007   3.294
 9800TIP3    H229344   1.295   3.989   3.333
 9801TIP3   OH229345   7.173   6.286   2.657
 9801TIP3    H129346   7.161   6.330   2.741
 9801TIP3    H229347   7.115   6.210   2.662
 9802TIP3   OH229348   1.983   5.003   6.603
 9802TIP3    H129349   2.037   4.928   6.628
 9802TIP3    H229350   1.922   5.014   6.676
 9803TIP3   OH229351   7.289   1.304   4.407
 9803TIP3    H129352   7.249   1.243   4.346
 9803TIP3    H229353   7.379   1.312   4.376
 9804TIP3   OH229354   0.299   5.855   4.606
 9804TIP3    H129355   0.239   5.929   4.598
 9804TIP3    H229356   0.386   5.895   4.603
 9805TIP3   OH229357   8.233   1.439   6.438
 9805TIP3    H129358   8.294   1.459   6.509
 9805TIP3    H229359   8.250   1.347   6.418
 9806TIP3   OH229360   7.288   6.823   1.962
 9806TIP3    H129361   7.258   6.753   1.904
 9806TIP3    H229362   7.277   6.788   2.050
 9807TIP3   OH229363   5.633   0.281   3.975
 9807TIP3    H129364   5.638   0.376   3.977
 9807TIP3    H229365   5.589   0.257   4.056
 9808TIP3   OH229366   7.760   6.600   3.165
 9808TIP3    H129367   7.705   6.659   3.217
 9808TIP3    H229368   7.713   6.517   3.166
 9809TIP3   OH229369   3.312   2.933   2.684
 9809TIP3    H129370   3.266   2.972   2.759
 9809TIP3    H229371   3.265   2.966   2.607
 9810TIP3   OH229372   1.340   0.185   3.192
 9810TIP3    H129373   1.296   0.102   3.169
 9810TIP3    H229374   1.432   0.162   3.198
 9811TIP3   OH229375   3.228   6.760   2.400
 9811TIP3    H129376   3.316   6.725   2.385
 9811TIP3    H229377   3.224   6.774   2.495
 9812TIP3   OH229378   4.616   5.660   4.716
 9812TIP3    H129379   4.525   5.669   4.744
 9812TIP3    H229380   4.631   5.733   4.656
 9813TIP3   OH229381   6.533   1.459   5.332
 9813TIP3    H129382   6.562   1.429   5.418
 9813TIP3    H229383   6.523   1.378   5.281
 9814TIP3   OH229384   1.342   1.117   3.180
 9814TIP3    H129385   1.306   1.201   3.150
 9814TIP3    H229386   1.392   1.084   3.105
 9815TIP3   OH229387   0.431   5.880   4.889
 9815TIP3    H129388   0.378   5.877   4.809
 9815TIP3    H229389   0.465   5.969   4.892
 9816TIP3   OH229390   4.140   5.631   0.463
 9816TIP3    H129391   4.226   5.668   0.485
 9816TIP3    H229392   4.160   5.557   0.404
 9817TIP3   OH229393   5.946   6.498   2.209
 9817TIP3    H129394   6.024   6.539   2.246
 9817TIP3    H229395   5.880   6.567   2.210
 9818TIP3   OH229396   2.567   2.067   5.150
 9818TIP3    H129397   2.648   2.046   5.197
 9818TIP3    H229398   2.535   2.147   5.192
 9819TIP3   OH229399   0.724   0.396   5.967
 9819TIP3    H129400   0.778   0.462   5.922
 9819TIP3    H229401   0.785   0.324   5.984
 9820TIP3   OH229402   5.342   6.684   3.333
 9820TIP3    H129403   5.429   6.695   3.293
 9820TIP3    H229404   5.306   6.773   3.335
 9821TIP3   OH229405   3.825   1.088   2.340
 9821TIP3    H129406   3.739   1.069   2.376
 9821TIP3    H229407   3.838   1.024   2.271
 9822TIP3   OH229408   8.029   5.948   5.235
 9822TIP3    H129409   8.063   5.882   5.176
 9822TIP3    H229410   8.100   6.012   5.244
 9823TIP3   OH229411   2.034   4.535   5.827
 9823TIP3    H129412   1.972   4.590   5.780
 9823TIP3    H229413   2.089   4.498   5.759
 9824TIP3   OH229414   5.073   2.720   4.746
 9824TIP3    H129415   5.111   2.662   4.812
 9824TIP3    H229416   5.137   2.720   4.675
 9825TIP3   OH229417   4.748   1.400   2.686
 9825TIP3    H129418   4.703   1.443   2.759
 9825TIP3    H229419   4.804   1.469   2.649
 9826TIP3   OH229420   1.963   6.966   6.286
 9826TIP3    H129421   2.038   7.025   6.280
 9826TIP3    H229422   1.990   6.898   6.348
 9827TIP3   OH229423   7.981   3.499   1.419
 9827TIP3    H129424   7.990   3.559   1.345
 9827TIP3    H229425   8.069   3.490   1.453
 9828TIP3   OH229426   1.751   3.659   5.670
 9828TIP3    H129427   1.825   3.624   5.621
 9828TIP3    H229428   1.717   3.729   5.615
 9829TIP3   OH229429   2.547   1.686  -0.006
 9829TIP3    H129430   2.543   1.611  -0.066
 9829TIP3    H229431   2.463   1.683   0.040
 9830TIP3   OH229432   1.564   2.838   1.828
 9830TIP3    H129433   1.574   2.880   1.913
 9830TIP3    H229434   1.578   2.909   1.765
 9831TIP3   OH229435   6.249   6.096   0.863
 9831TIP3    H129436   6.220   6.101   0.954
 9831TIP3    H229437   6.170   6.072   0.814
 9832TIP3   OH229438   1.973   4.782   3.844
 9832TIP3    H129439   1.971   4.874   3.816
 9832TIP3    H229440   1.938   4.733   3.770
 9833TIP3   OH229441   4.099   2.514   6.045
 9833TIP3    H129442   4.188   2.529   6.075
 9833TIP3    H229443   4.102   2.531   5.951
 9834TIP3   OH229444   1.298   7.696   4.279
 9834TIP3    H129445   1.271   7.787   4.269
 9834TIP3    H229446   1.318   7.688   4.372
 9835TIP3   OH229447   7.436   5.124   4.267
 9835TIP3    H129448   7.419   5.134   4.173
 9835TIP3    H229449   7.501   5.054   4.272
 9836TIP3   OH229450   8.058   0.234   0.657
 9836TIP3    H129451   8.037   0.154   0.609
 9836TIP3    H229452   8.066   0.302   0.590
 9837TIP3   OH229453   1.218   0.640   5.301
 9837TIP3    H129454   1.272   0.709   5.339
 9837TIP3    H229455   1.281   0.577   5.266
 9838TIP3   OH229456   5.922   0.028   2.124
 9838TIP3    H129457   5.841  -0.021   2.139
 9838TIP3    H229458   5.938   0.074   2.206
 9839TIP3   OH229459   5.884   4.510   2.017
 9839TIP3    H129460   5.807   4.454   2.006
 9839TIP3    H229461   5.895   4.518   2.112
 9840TIP3   OH229462   6.535   0.356   1.299
 9840TIP3    H129463   6.522   0.309   1.382
 9840TIP3    H229464   6.596   0.300   1.250
 9841TIP3   OH229465   7.749   2.185   1.902
 9841TIP3    H129466   7.809   2.212   1.971
 9841TIP3    H229467   7.790   2.109   1.862
 9842TIP3   OH229468   1.064   4.311   1.149
 9842TIP3    H129469   1.091   4.236   1.202
 9842TIP3    H229470   1.058   4.277   1.060
 9843TIP3   OH229471   7.078   0.708   0.089
 9843TIP3    H129472   7.137   0.664   0.150
 9843TIP3    H229473   7.131   0.723   0.011
 9844TIP3   OH229474   6.923   7.324   1.004
 9844TIP3    H129475   6.838   7.304   0.966
 9844TIP3    H229476   6.905   7.342   1.096
 9845TIP3   OH229477   6.115   2.701   6.395
 9845TIP3    H129478   6.041   2.734   6.446
 9845TIP3    H229479   6.145   2.777   6.344
 9846TIP3   OH229480   0.979   0.458   6.543
 9846TIP3    H129481   0.884   0.447   6.554
 9846TIP3    H229482   1.012   0.368   6.537
 9847TIP3   OH229483   4.983   4.713   5.797
 9847TIP3    H129484   5.020   4.775   5.734
 9847TIP3    H229485   5.012   4.627   5.766
 9848TIP3   OH229486   1.976   6.113   4.559
 9848TIP3    H129487   2.007   6.190   4.512
 9848TIP3    H229488   1.940   6.056   4.492
 9849TIP3   OH229489   4.020   4.135   0.701
 9849TIP3    H129490   3.967   4.213   0.718
 9849TIP3    H229491   3.991   4.071   0.766
 9850TIP3   OH229492  -0.018   4.251   0.079
 9850TIP3    H129493   0.045   4.323   0.087
 9850TIP3    H229494  -0.012   4.206   0.163
 9851TIP3   OH229495   3.571   2.201   6.314
 9851TIP3    H129496   3.642   2.233   6.258
 9851TIP3    H229497   3.564   2.108   6.292
 9852TIP3   OH229498   3.400   0.174   4.890
 9852TIP3    H129499   3.312   0.137   4.883
 9852TIP3    H229500   3.457   0.098   4.903
 9853TIP3   OH229501   0.328   6.247   1.554
 9853TIP3    H129502   0.329   6.153   1.570
 9853TIP3    H229503   0.363   6.286   1.633
 9854TIP3   OH229504   4.897   5.532   5.911
 9854TIP3    H129505   4.921   5.577   5.830
 9854TIP3    H229506   4.811   5.495   5.893
 9855TIP3   OH229507   1.090   5.221   3.453
 9855TIP3    H129508   1.101   5.237   3.547
 9855TIP3    H229509   1.145   5.145   3.435
 9856TIP3   OH229510   6.058   1.385   0.632
 9856TIP3    H129511   5.963   1.394   0.618
 9856TIP3    H229512   6.075   1.432   0.713
 9857TIP3   OH229513   6.852   1.890   1.116
 9857TIP3    H129514   6.946   1.873   1.112
 9857TIP3    H229515   6.833   1.935   1.033
 9858TIP3   OH229516   3.947   3.901   0.365
 9858TIP3    H129517   4.017   3.966   0.377
 9858TIP3    H229518   3.872   3.952   0.336
 9859TIP3   OH229519   5.373   6.744   0.989
 9859TIP3    H129520   5.376   6.835   0.959
 9859TIP3    H229521   5.288   6.735   1.031
 9860TIP3   OH229522   2.306   4.932   3.538
 9860TIP3    H129523   2.228   4.973   3.576
 9860TIP3    H229524   2.295   4.944   3.444
 9861TIP3   OH229525   4.418   2.190   3.298
 9861TIP3    H129526   4.472   2.157   3.227
 9861TIP3    H229527   4.357   2.250   3.255
 9862TIP3   OH229528   6.042   3.100   5.282
 9862TIP3    H129529   6.086   3.047   5.215
 9862TIP3    H229530   6.063   3.190   5.258
 9863TIP3   OH229531   0.953   3.040   5.439
 9863TIP3    H129532   0.885   3.017   5.376
 9863TIP3    H229533   1.034   3.007   5.401
 9864TIP3   OH229534   4.925   6.083   0.528
 9864TIP3    H129535   4.956   6.166   0.565
 9864TIP3    H229536   4.934   6.021   0.600
 9865TIP3   OH229537   7.892   1.674   3.353
 9865TIP3    H129538   7.843   1.593   3.338
 9865TIP3    H229539   7.983   1.645   3.361
 9866TIP3   OH229540   4.395   1.858   5.976
 9866TIP3    H129541   4.433   1.939   5.941
 9866TIP3    H229542   4.306   1.855   5.939
 9867TIP3   OH229543   7.051   1.313   1.871
 9867TIP3    H129544   6.982   1.298   1.806
 9867TIP3    H229545   7.122   1.354   1.822
 9868TIP3   OH229546   1.314   4.323   2.853
 9868TIP3    H129547   1.371   4.247   2.840
 9868TIP3    H229548   1.269   4.335   2.769
 9869TIP3   OH229549   4.631   5.683   0.379
 9869TIP3    H129550   4.693   5.637   0.436
 9869TIP3    H229551   4.643   5.775   0.401
 9870TIP3   OH229552   2.001   6.849   0.752
 9870TIP3    H129553   1.952   6.903   0.815
 9870TIP3    H229554   2.085   6.894   0.742
 9871TIP3   OH229555   0.753   1.775   4.071
 9871TIP3    H129556   0.741   1.849   4.012
 9871TIP3    H229557   0.821   1.805   4.132
 9872TIP3   OH229558   3.743   6.129   3.800
 9872TIP3    H129559   3.773   6.063   3.738
 9872TIP3    H229560   3.770   6.097   3.886
 9873TIP3   OH229561   7.262   0.804   4.006
 9873TIP3    H129562   7.355   0.783   4.000
 9873TIP3    H229563   7.240   0.789   4.098
 9874TIP3   OH229564   6.571   3.168   4.901
 9874TIP3    H129565   6.643   3.119   4.940
 9874TIP3    H229566   6.614   3.236   4.849
 9875TIP3   OH229567   5.710   1.520   5.190
 9875TIP3    H129568   5.801   1.496   5.170
 9875TIP3    H229569   5.659   1.472   5.125
 9876TIP3   OH229570   4.221   3.127   5.002
 9876TIP3    H129571   4.194   3.219   5.006
 9876TIP3    H229572   4.299   3.123   5.057
 9877TIP3   OH229573   5.306   3.348   2.362
 9877TIP3    H129574   5.363   3.275   2.338
 9877TIP3    H229575   5.328   3.417   2.299
 9878TIP3   OH229576   6.860   1.950   1.570
 9878TIP3    H129577   6.897   2.038   1.581
 9878TIP3    H229578   6.934   1.896   1.544
 9879TIP3   OH229579   3.894   0.588   1.987
 9879TIP3    H129580   3.849   0.506   2.007
 9879TIP3    H229581   3.824   0.648   1.959
 9880TIP3   OH229582   8.204   3.016   6.167
 9880TIP3    H129583   8.234   3.036   6.256
 9880TIP3    H229584   8.111   3.035   6.168
 9881TIP3   OH229585   6.431   3.402   1.874
 9881TIP3    H129586   6.448   3.308   1.887
 9881TIP3    H229587   6.336   3.410   1.877
 9882TIP3   OH229588   3.248   1.861   6.402
 9882TIP3    H129589   3.304   1.875   6.325
 9882TIP3    H229590   3.162   1.843   6.365
 9883TIP3   OH229591   3.862   0.395   1.370
 9883TIP3    H129592   3.791   0.403   1.305
 9883TIP3    H229593   3.829   0.439   1.448
 9884TIP3   OH229594   1.058   6.597   4.568
 9884TIP3    H129595   1.036   6.537   4.640
 9884TIP3    H229596   1.086   6.677   4.612
 9885TIP3   OH229597   1.415   2.383   0.183
 9885TIP3    H129598   1.343   2.330   0.218
 9885TIP3    H229599   1.379   2.471   0.175
 9886TIP3   OH229600   6.526   4.299   1.924
 9886TIP3    H129601   6.546   4.322   1.834
 9886TIP3    H229602   6.609   4.311   1.971
 9887TIP3   OH229603   3.309   7.546   1.485
 9887TIP3    H129604   3.252   7.620   1.507
 9887TIP3    H229605   3.282   7.476   1.544
 9888TIP3   OH229606   0.212   0.240   5.712
 9888TIP3    H129607   0.227   0.175   5.781
 9888TIP3    H229608   0.119   0.260   5.716
 9889TIP3   OH229609   6.144   0.039   0.821
 9889TIP3    H129610   6.164  -0.009   0.901
 9889TIP3    H229611   6.069   0.095   0.845
 9890TIP3   OH229612   2.668   4.055   5.494
 9890TIP3    H129613   2.729   4.056   5.568
 9890TIP3    H229614   2.645   4.146   5.481
 9891TIP3   OH229615   0.715   2.596   2.798
 9891TIP3    H129616   0.689   2.603   2.889
 9891TIP3    H229617   0.793   2.541   2.800
 9892TIP3   OH229618   1.165   5.775   6.453
 9892TIP3    H129619   1.090   5.729   6.492
 9892TIP3    H229620   1.210   5.815   6.527
 9893TIP3   OH229621   4.880   6.435   4.077
 9893TIP3    H129622   4.944   6.403   4.140
 9893TIP3    H229623   4.845   6.515   4.115
 9894TIP3   OH229624   1.487   6.558   5.549
 9894TIP3    H129625   1.501   6.469   5.516
 9894TIP3    H229626   1.404   6.585   5.511
 9895TIP3   OH229627   4.564   0.773   4.333
 9895TIP3    H129628   4.511   0.692   4.336
 9895TIP3    H229629   4.502   0.842   4.356
 9896TIP3   OH229630   3.507   1.510   5.958
 9896TIP3    H129631   3.512   1.488   6.051
 9896TIP3    H229632   3.441   1.450   5.923
 9897TIP3   OH229633   1.936   4.646   2.272
 9897TIP3    H129634   2.023   4.611   2.290
 9897TIP3    H229635   1.931   4.650   2.177
 9898TIP3   OH229636   6.422   1.843   3.132
 9898TIP3    H129637   6.343   1.893   3.149
 9898TIP3    H229638   6.461   1.829   3.218
 9899TIP3   OH229639   6.152   5.403   1.717
 9899TIP3    H129640   6.072   5.448   1.689
 9899TIP3    H229641   6.198   5.384   1.636
 9900TIP3   OH229642   6.454   2.365   2.496
 9900TIP3    H129643   6.491   2.351   2.409
 9900TIP3    H229644   6.431   2.277   2.527
 9901TIP3   OH229645   4.162   2.460   0.441
 9901TIP3    H129646   4.106   2.530   0.476
 9901TIP3    H229647   4.205   2.499   0.365
 9902TIP3   OH229648   7.260   3.178   5.819
 9902TIP3    H129649   7.343   3.202   5.779
 9902TIP3    H229650   7.206   3.257   5.813
 9903TIP3   OH229651   3.089   3.168   6.132
 9903TIP3    H129652   3.130   3.254   6.130
 9903TIP3    H229653   3.157   3.108   6.102
 9904TIP3   OH229654   2.794   3.384   4.101
 9904TIP3    H129655   2.815   3.293   4.125
 9904TIP3    H229656   2.865   3.410   4.043
 9905TIP3   OH229657   8.013   7.313   0.053
 9905TIP3    H129658   7.993   7.254   0.125
 9905TIP3    H229659   8.094   7.357   0.080
 9906TIP3   OH229660   5.467   6.984   4.490
 9906TIP3    H129661   5.393   6.923   4.479
 9906TIP3    H229662   5.441   7.041   4.562
 9907TIP3   OH229663   3.960   3.539   3.144
 9907TIP3    H129664   3.940   3.624   3.184
 9907TIP3    H229665   3.943   3.475   3.213
 9908TIP3   OH229666   7.367   4.332   1.229
 9908TIP3    H129667   7.387   4.408   1.283
 9908TIP3    H229668   7.338   4.369   1.145
 9909TIP3   OH229669   7.641   2.629   6.754
 9909TIP3    H129670   7.606   2.546   6.721
 9909TIP3    H229671   7.733   2.612   6.770
 9910TIP3   OH229672   1.136   2.355   0.852
 9910TIP3    H129673   1.111   2.263   0.857
 9910TIP3    H229674   1.134   2.385   0.943
 9911TIP3   OH229675   2.952   5.340   5.035
 9911TIP3    H129676   2.930   5.293   4.955
 9911TIP3    H229677   2.948   5.432   5.011
 9912TIP3   OH229678   5.501   7.277   2.206
 9912TIP3    H129679   5.587   7.298   2.169
 9912TIP3    H229680   5.478   7.355   2.257
 9913TIP3   OH229681   6.565   3.574   0.804
 9913TIP3    H129682   6.542   3.665   0.820
 9913TIP3    H229683   6.657   3.567   0.832
 9914TIP3   OH229684   3.986   4.457   4.187
 9914TIP3    H129685   3.958   4.379   4.138
 9914TIP3    H229686   4.081   4.459   4.177
 9915TIP3   OH229687   3.540   6.391   0.771
 9915TIP3    H129688   3.597   6.320   0.742
 9915TIP3    H229689   3.491   6.417   0.693
 9916TIP3   OH229690   1.602   0.859   4.564
 9916TIP3    H129691   1.535   0.796   4.538
 9916TIP3    H229692   1.638   0.823   4.646
 9917TIP3   OH229693   2.135   3.767   0.283
 9917TIP3    H129694   2.060   3.744   0.337
 9917TIP3    H229695   2.194   3.693   0.290
 9918TIP3   OH229696   5.924   3.719   4.685
 9918TIP3    H129697   5.949   3.732   4.594
 9918TIP3    H229698   5.829   3.704   4.682
 9919TIP3   OH229699   5.337   0.514   6.730
 9919TIP3    H129700   5.372   0.446   6.787
 9919TIP3    H229701   5.414   0.550   6.685
 9920TIP3   OH229702   2.880   0.861   5.801
 9920TIP3    H129703   2.904   0.828   5.715
 9920TIP3    H229704   2.785   0.872   5.797
 9921TIP3   OH229705   4.224   5.769   5.622
 9921TIP3    H129706   4.296   5.726   5.669
 9921TIP3    H229707   4.145   5.742   5.668
 9922TIP3   OH229708   6.190   3.331   6.079
 9922TIP3    H129709   6.132   3.405   6.097
 9922TIP3    H229710   6.274   3.371   6.057
 9923TIP3   OH229711   2.339   5.554   2.798
 9923TIP3    H129712   2.346   5.607   2.719
 9923TIP3    H229713   2.429   5.531   2.820
 9924TIP3   OH229714   7.090   1.178   0.759
 9924TIP3    H129715   7.163   1.190   0.821
 9924TIP3    H229716   7.077   1.083   0.756
 9925TIP3   OH229717   1.301   2.451   4.593
 9925TIP3    H129718   1.317   2.400   4.514
 9925TIP3    H229719   1.216   2.422   4.624
 9926TIP3   OH229720   7.847   6.217   1.985
 9926TIP3    H129721   7.810   6.129   1.979
 9926TIP3    H229722   7.804   6.266   1.915
 9927TIP3   OH229723   0.092   0.383   3.927
 9927TIP3    H129724   0.058   0.314   3.869
 9927TIP3    H229725   0.111   0.337   4.009
 9928TIP3   OH229726   2.928   3.106   1.391
 9928TIP3    H129727   2.944   3.129   1.483
 9928TIP3    H229728   3.014   3.083   1.356
 9929TIP3   OH229729   2.887   7.095   3.272
 9929TIP3    H129730   2.958   7.158   3.275
 9929TIP3    H229731   2.845   7.101   3.358
 9930TIP3   OH229732   1.672   4.150   5.717
 9930TIP3    H129733   1.593   4.121   5.761
 9930TIP3    H229734   1.689   4.083   5.650
 9931TIP3   OH229735   8.294   7.844   5.473
 9931TIP3    H129736   8.245   7.789   5.534
 9931TIP3    H229737   8.327   7.783   5.407
 9932TIP3   OH229738   6.728   3.794   6.356
 9932TIP3    H129739   6.693   3.829   6.438
 9932TIP3    H229740   6.661   3.814   6.291
 9933TIP3   OH229741   2.971   4.536   6.685
 9933TIP3    H129742   2.970   4.630   6.670
 9933TIP3    H229743   3.055   4.519   6.727
 9934TIP3   OH229744   4.828   5.683   1.602
 9934TIP3    H129745   4.757   5.633   1.563
 9934TIP3    H229746   4.795   5.706   1.689
 9935TIP3   OH229747   1.057   6.079   1.455
 9935TIP3    H129748   0.975   6.127   1.445
 9935TIP3    H229749   1.037   6.011   1.520
 9936TIP3   OH229750   3.602   1.483   3.399
 9936TIP3    H129751   3.633   1.502   3.310
 9936TIP3    H229752   3.646   1.549   3.454
 9937TIP3   OH229753   6.100   4.433   1.862
 9937TIP3    H129754   6.032   4.481   1.909
 9937TIP3    H229755   6.076   4.441   1.770
 9938TIP3   OH229756   5.438   0.703   1.781
 9938TIP3    H129757   5.444   0.769   1.849
 9938TIP3    H229758   5.502   0.637   1.806
 9939TIP3   OH229759   0.214   2.677   3.400
 9939TIP3    H129760   0.275   2.750   3.412
 9939TIP3    H229761   0.270   2.599   3.401
 9940TIP3   OH229762   0.140   3.714   0.270
 9940TIP3    H129763   0.161   3.661   0.193
 9940TIP3    H229764   0.183   3.669   0.342
 9941TIP3   OH229765   1.412   6.056   2.556
 9941TIP3    H129766   1.471   6.081   2.626
 9941TIP3    H229767   1.432   5.964   2.539
 9942TIP3   OH229768   4.230   1.075   2.013
 9942TIP3    H129769   4.321   1.044   2.020
 9942TIP3    H229770   4.178   0.995   2.014
 9943TIP3   OH229771   3.214   1.996   0.995
 9943TIP3    H129772   3.124   2.028   0.988
 9943TIP3    H229773   3.258   2.059   1.052
 9944TIP3   OH229774   7.888   5.191   5.245
 9944TIP3    H129775   7.950   5.200   5.173
 9944TIP3    H229776   7.815   5.247   5.221
 9945TIP3   OH229777   2.189   4.809   5.109
 9945TIP3    H129778   2.196   4.901   5.133
 9945TIP3    H229779   2.231   4.762   5.181
 9946TIP3   OH229780   1.151   3.204   2.919
 9946TIP3    H129781   1.071   3.205   2.867
 9946TIP3    H229782   1.130   3.256   2.997
 9947TIP3   OH229783   7.718   4.490   1.492
 9947TIP3    H129784   7.812   4.510   1.487
 9947TIP3    H229785   7.676   4.575   1.499
 9948TIP3   OH229786   1.984   2.569   4.451
 9948TIP3    H129787   2.023   2.522   4.525
 9948TIP3    H229788   1.920   2.507   4.416
 9949TIP3   OH229789   8.131   7.152   0.238
 9949TIP3    H129790   8.165   7.154   0.328
 9949TIP3    H229791   8.203   7.184   0.184
 9950TIP3   OH229792   2.986   4.430   1.317
 9950TIP3    H129793   3.000   4.381   1.236
 9950TIP3    H229794   3.057   4.402   1.375
 9951TIP3   OH229795   6.233   5.628   5.070
 9951TIP3    H129796   6.139   5.613   5.082
 9951TIP3    H229797   6.274   5.553   5.112
 9952TIP3   OH229798   4.977   2.906   1.424
 9952TIP3    H129799   5.009   2.974   1.483
 9952TIP3    H229800   5.054   2.852   1.405
 9953TIP3   OH229801   4.033   5.499   4.149
 9953TIP3    H129802   3.970   5.542   4.208
 9953TIP3    H229803   4.069   5.570   4.096
 9954TIP3   OH229804   8.074   6.949   1.652
 9954TIP3    H129805   8.137   7.022   1.654
 9954TIP3    H229806   8.081   6.915   1.563
 9955TIP3   OH229807   6.493   5.622   0.053
 9955TIP3    H129808   6.531   5.574  -0.020
 9955TIP3    H229809   6.399   5.604   0.048
 9956TIP3   OH229810   2.559   0.308   2.322
 9956TIP3    H129811   2.542   0.236   2.262
 9956TIP3    H229812   2.653   0.325   2.314
 9957TIP3   OH229813   2.673   6.705   0.705
 9957TIP3    H129814   2.699   6.672   0.619
 9957TIP3    H229815   2.694   6.633   0.765
 9958TIP3   OH229816   2.232   0.158   3.548
 9958TIP3    H129817   2.161   0.114   3.595
 9958TIP3    H229818   2.193   0.186   3.465
 9959TIP3   OH229819   4.836   0.541   1.496
 9959TIP3    H129820   4.895   0.577   1.429
 9959TIP3    H229821   4.892   0.488   1.552
 9960TIP3   OH229822   3.464   1.116   5.634
 9960TIP3    H129823   3.449   1.077   5.548
 9960TIP3    H229824   3.394   1.180   5.644
 9961TIP3   OH229825   3.583   3.554   2.586
 9961TIP3    H129826   3.584   3.463   2.616
 9961TIP3    H229827   3.671   3.570   2.554
 9962TIP3   OH229828   4.655   6.128   1.066
 9962TIP3    H129829   4.598   6.141   1.142
 9962TIP3    H229830   4.617   6.052   1.021
 9963TIP3   OH229831   5.273   2.623   2.324
 9963TIP3    H129832   5.319   2.540   2.336
 9963TIP3    H229833   5.323   2.667   2.255
 9964TIP3   OH229834   6.123   1.376   4.327
 9964TIP3    H129835   6.059   1.355   4.395
 9964TIP3    H229836   6.077   1.363   4.245
 9965TIP3   OH229837   0.114   0.586   4.190
 9965TIP3    H129838   0.020   0.576   4.173
 9965TIP3    H229839   0.156   0.573   4.105
 9966TIP3   OH229840   4.325   4.217   0.660
 9966TIP3    H129841   4.331   4.286   0.725
 9966TIP3    H229842   4.232   4.195   0.657
 9967TIP3   OH229843   1.134   6.809   0.880
 9967TIP3    H129844   1.043   6.791   0.858
 9967TIP3    H229845   1.180   6.727   0.863
 9968TIP3   OH229846   2.873   5.706   0.587
 9968TIP3    H129847   2.783   5.738   0.590
 9968TIP3    H229848   2.907   5.736   0.503
 9969TIP3   OH229849   1.311   4.768   6.540
 9969TIP3    H129850   1.220   4.797   6.535
 9969TIP3    H229851   1.344   4.773   6.451
 9970TIP3   OH229852   3.968   7.581   1.417
 9970TIP3    H129853   3.875   7.563   1.405
 9970TIP3    H229854   4.004   7.500   1.454
 9971TIP3   OH229855   2.215   4.425   1.231
 9971TIP3    H129856   2.243   4.516   1.244
 9971TIP3    H229857   2.279   4.390   1.169
 9972TIP3   OH229858   5.110   6.992   0.047
 9972TIP3    H129859   5.051   6.956   0.113
 9972TIP3    H229860   5.101   6.933  -0.028
 9973TIP3   OH229861   6.971   1.358   3.140
 9973TIP3    H129862   6.898   1.339   3.199
 9973TIP3    H229863   7.011   1.437   3.176
 9974TIP3   OH229864   6.128   4.495   5.632
 9974TIP3    H129865   6.196   4.537   5.579
 9974TIP3    H229866   6.171   4.474   5.715
 9975TIP3   OH229867   0.644   0.330   5.650
 9975TIP3    H129868   0.622   0.247   5.692
 9975TIP3    H229869   0.560   0.372   5.634
 9976TIP3   OH229870   6.072   2.858   3.135
 9976TIP3    H129871   6.088   2.767   3.161
 9976TIP3    H229872   6.046   2.852   3.044
 9977TIP3   OH229873   1.252   1.155   3.430
 9977TIP3    H129874   1.287   1.138   3.342
 9977TIP3    H229875   1.165   1.115   3.430
 9978TIP3   OH229876   2.957   0.348   0.359
 9978TIP3    H129877   2.942   0.392   0.442
 9978TIP3    H229878   2.915   0.403   0.294
 9979TIP3   OH229879   8.115   5.732   5.054
 9979TIP3    H129880   8.146   5.682   5.130
 9979TIP3    H229881   8.040   5.683   5.022
 9980TIP3   OH229882   7.356   4.607   3.891
 9980TIP3    H129883   7.419   4.538   3.868
 9980TIP3    H229884   7.405   4.666   3.948
 9981TIP3   OH229885   2.226   2.808   2.555
 9981TIP3    H129886   2.230   2.897   2.589
 9981TIP3    H229887   2.160   2.764   2.608
 9982TIP3   OH229888   0.441   4.999   3.780
 9982TIP3    H129889   0.493   4.920   3.765
 9982TIP3    H229890   0.505   5.065   3.806
 9983TIP3   OH229891   6.198   1.599   0.439
 9983TIP3    H129892   6.183   1.506   0.456
 9983TIP3    H229893   6.168   1.612   0.349
 9984TIP3   OH229894   7.343   2.892   4.933
 9984TIP3    H129895   7.384   2.807   4.948
 9984TIP3    H229896   7.410   2.943   4.886
 9985TIP3   OH229897   5.635   4.104   5.813
 9985TIP3    H129898   5.661   4.153   5.735
 9985TIP3    H229899   5.711   4.049   5.833
 9986TIP3   OH229900   2.455   3.682   4.236
 9986TIP3    H129901   2.370   3.688   4.279
 9986TIP3    H229902   2.503   3.616   4.286
 9987TIP3   OH229903   6.731   6.409   6.758
 9987TIP3    H129904   6.824   6.395   6.776
 9987TIP3    H229905   6.723   6.503   6.745
 9988TIP3   OH229906   4.989   6.465   0.128
 9988TIP3    H129907   4.974   6.472   0.034
 9988TIP3    H229908   4.954   6.379   0.151
 9989TIP3   OH229909   1.864   1.067   0.041
 9989TIP3    H129910   1.813   1.016   0.104
 9989TIP3    H229911   1.803   1.086  -0.030
 9990TIP3   OH229912   0.419   6.330   4.753
 9990TIP3    H129913   0.405   6.309   4.846
 9990TIP3    H229914   0.493   6.392   4.754
 9991TIP3   OH229915   1.246   3.996   6.361
 9991TIP3    H129916   1.215   3.907   6.376
 9991TIP3    H229917   1.177   4.052   6.397
 9992TIP3   OH229918   5.106   2.453   5.831
 9992TIP3    H129919   5.186   2.506   5.837
 9992TIP3    H229920   5.069   2.476   5.746
 9993TIP3   OH229921   5.059   5.486   6.158
 9993TIP3    H129922   5.143   5.468   6.115
 9993TIP3    H229923   4.994   5.473   6.089
 9994TIP3   OH229924   2.489   5.438   1.399
 9994TIP3    H129925   2.575   5.424   1.360
 9994TIP3    H229926   2.501   5.506   1.464
 9995TIP3   OH229927   4.193   3.209   5.700
 9995TIP3    H129928   4.234   3.239   5.619
 9995TIP3    H229929   4.103   3.186   5.674
 9996TIP3   OH229930   0.985   5.823   2.604
 9996TIP3    H129931   0.903   5.811   2.558
 9996TIP3    H229932   1.047   5.851   2.536
 9997TIP3   OH229933   6.301   1.913   6.500
 9997TIP3    H129934   6.328   1.821   6.503
 9997TIP3    H229935   6.336   1.945   6.417
 9998TIP3   OH229936   6.953   2.051   0.333
 9998TIP3    H129937   6.922   1.993   0.403
 9998TIP3    H229938   6.891   2.124   0.334
 9999TIP3   OH229939   1.128   0.883   4.690
 9999TIP3    H129940   1.035   0.860   4.688
 9999TIP3    H229941   1.130   0.974   4.716
10000TIP3   OH229942   1.342   1.768   2.536
10000TIP3    H129943   1.307   1.706   2.600
10000TIP3    H229944   1.437   1.761   2.545
10001TIP3   OH229945   5.225   3.031   4.918
10001TIP3    H129946   5.255   2.991   5.000
10001TIP3    H229947   5.156   2.972   4.887
10002TIP3   OH229948   2.241   0.301   0.408
10002TIP3    H129949   2.301   0.375   0.419
10002TIP3    H229950   2.296   0.223   0.417
10003TIP3   OH229951   0.904   0.426   0.624
10003TIP3    H129952   0.918   0.456   0.714
10003TIP3    H229953   0.963   0.479   0.571
10004TIP3   OH229954   6.518   4.481   6.199
10004TIP3    H129955   6.430   4.512   6.225
10004TIP3    H229956   6.521   4.495   6.105
10005TIP3   OH229957   8.260   6.503   3.926
10005TIP3    H129958   8.318   6.567   3.886
10005TIP3    H229959   8.225   6.453   3.852
10006TIP3   OH229960   6.123   3.322   2.706
10006TIP3    H129961   6.040   3.285   2.675
10006TIP3    H229962   6.176   3.330   2.627
10007TIP3   OH229963   4.330   1.503   2.935
10007TIP3    H129964   4.360   1.414   2.950
10007TIP3    H229965   4.410   1.555   2.933
10008TIP3   OH229966   7.631   7.315   5.991
10008TIP3    H129967   7.617   7.338   5.899
10008TIP3    H229968   7.725   7.298   5.997
10009TIP3   OH229969   0.814   6.913   1.964
10009TIP3    H129970   0.758   6.926   1.887
10009TIP3    H229971   0.888   6.863   1.931
10010TIP3   OH229972   8.043   1.410   0.616
10010TIP3    H129973   7.995   1.361   0.549
10010TIP3    H229974   8.118   1.354   0.637
10011TIP3   OH229975   1.035   0.150   2.496
10011TIP3    H129976   1.000   0.107   2.418
10011TIP3    H229977   1.130   0.145   2.485
10012TIP3   OH229978   6.808   7.812   4.668
10012TIP3    H129979   6.891   7.818   4.622
10012TIP3    H229980   6.743   7.844   4.604
10013TIP3   OH229981   6.504   0.882   3.721
10013TIP3    H129982   6.572   0.859   3.657
10013TIP3    H229983   6.427   0.832   3.693
10014TIP3   OH229984   5.612   1.625   3.351
10014TIP3    H129985   5.687   1.684   3.358
10014TIP3    H229986   5.647   1.547   3.307
10015TIP3   OH229987   7.453   0.638   2.809
10015TIP3    H129988   7.424   0.607   2.723
10015TIP3    H229989   7.373   0.655   2.857
10016TIP3   OH229990   1.133   5.971   4.043
10016TIP3    H129991   1.110   6.063   4.051
10016TIP3    H229992   1.187   5.953   4.120
10017TIP3   OH229993   7.585   6.540   5.540
10017TIP3    H129994   7.666   6.582   5.511
10017TIP3    H229995   7.534   6.529   5.460
10018TIP3   OH229996   6.590   4.556   3.585
10018TIP3    H129997   6.570   4.541   3.493
10018TIP3    H229998   6.609   4.650   3.591
10019TIP3   OH229999   5.350   5.044   1.940
10019TIP3    H130000   5.392   5.027   1.856
10019TIP3    H230001   5.291   5.117   1.923
10020TIP3   OH230002   5.292   7.584   6.679
10020TIP3    H130003   5.283   7.493   6.708
10020TIP3    H230004   5.229   7.632   6.733
10021TIP3   OH230005   2.133   3.806   3.486
10021TIP3    H130006   2.188   3.884   3.481
10021TIP3    H230007   2.049   3.833   3.450
10022TIP3   OH230008   0.614   1.143   5.871
10022TIP3    H130009   0.635   1.079   5.802
10022TIP3    H230010   0.671   1.118   5.944
10023TIP3   OH230011   6.637   0.051   2.380
10023TIP3    H130012   6.557   0.020   2.423
10023TIP3    H230013   6.653  -0.012   2.310
10024TIP3   OH230014   8.154   1.153   4.957
10024TIP3    H130015   8.158   1.211   4.881
10024TIP3    H230016   8.074   1.102   4.945
10025TIP3   OH230017   1.715   1.259   0.220
10025TIP3    H130018   1.788   1.216   0.265
10025TIP3    H230019   1.732   1.244   0.127
10026TIP3   OH230020   0.316   7.045   3.803
10026TIP3    H130021   0.241   7.094   3.770
10026TIP3    H230022   0.383   7.112   3.821
10027TIP3   OH230023   6.219   3.544   5.066
10027TIP3    H130024   6.196   3.588   4.984
10027TIP3    H230025   6.304   3.504   5.049
10028TIP3   OH230026   7.426   4.125   3.400
10028TIP3    H130027   7.435   4.209   3.355
10028TIP3    H230028   7.332   4.115   3.412
10029TIP3   OH230029   7.057   4.109   0.745
10029TIP3    H130030   6.995   4.042   0.774
10029TIP3    H230031   7.014   4.149   0.669
10030TIP3   OH230032   5.381   6.803   4.144
10030TIP3    H130033   5.334   6.836   4.221
10030TIP3    H230034   5.464   6.850   4.145
10031TIP3   OH230035   8.133   1.426   1.055
10031TIP3    H130036   8.173   1.482   0.989
10031TIP3    H230037   8.102   1.349   1.007
10032TIP3   OH230038   7.349   0.446   4.436
10032TIP3    H130039   7.445   0.447   4.441
10032TIP3    H230040   7.324   0.370   4.489
10033TIP3   OH230041   2.708   5.860   5.335
10033TIP3    H130042   2.744   5.785   5.288
10033TIP3    H230043   2.635   5.890   5.279
10034TIP3   OH230044   7.902   4.645   2.087
10034TIP3    H130045   7.835   4.711   2.107
10034TIP3    H230046   7.853   4.563   2.081
10035TIP3   OH230047   4.661   3.804   1.511
10035TIP3    H130048   4.722   3.874   1.489
10035TIP3    H230049   4.627   3.827   1.597
10036TIP3   OH230050   6.736   6.188   1.185
10036TIP3    H130051   6.826   6.195   1.153
10036TIP3    H230052   6.742   6.132   1.263
10037TIP3   OH230053   7.331   6.476   1.691
10037TIP3    H130054   7.311   6.387   1.662
10037TIP3    H230055   7.392   6.509   1.625
10038TIP3   OH230056   5.299   2.118   1.766
10038TIP3    H130057   5.371   2.161   1.721
10038TIP3    H230058   5.230   2.185   1.769
10039TIP3   OH230059   2.492   5.157   6.078
10039TIP3    H130060   2.438   5.208   6.019
10039TIP3    H230061   2.520   5.218   6.146
10040TIP3   OH230062   5.055   3.832   4.420
10040TIP3    H130063   4.971   3.867   4.450
10040TIP3    H230064   5.054   3.741   4.450
10041TIP3   OH230065   1.810   3.265   4.988
10041TIP3    H130066   1.787   3.328   5.056
10041TIP3    H230067   1.832   3.319   4.912
10042TIP3   OH230068   3.592   2.438   1.650
10042TIP3    H130069   3.648   2.395   1.714
10042TIP3    H230070   3.650   2.458   1.576
10043TIP3   OH230071   2.091   0.808   5.413
10043TIP3    H130072   2.161   0.745   5.430
10043TIP3    H230073   2.122   0.859   5.338
10044TIP3   OH230074   7.103   5.706   4.794
10044TIP3    H130075   7.059   5.775   4.844
10044TIP3    H230076   7.059   5.706   4.709
10045TIP3   OH230077   0.976   3.451   3.759
10045TIP3    H130078   0.897   3.447   3.704
10045TIP3    H230079   1.046   3.415   3.704
10046TIP3   OH230080   6.505   5.374   5.949
10046TIP3    H130081   6.596   5.345   5.961
10046TIP3    H230082   6.479   5.339   5.864
10047TIP3   OH230083   1.279   6.818   3.649
10047TIP3    H130084   1.199   6.810   3.599
10047TIP3    H230085   1.269   6.900   3.699
10048TIP3   OH230086   7.222   0.551   3.617
10048TIP3    H130087   7.161   0.526   3.547
10048TIP3    H230088   7.175   0.530   3.698
10049TIP3   OH230089   5.595   3.361   4.622
10049TIP3    H130090   5.547   3.337   4.543
10049TIP3    H230091   5.686   3.371   4.593
10050TIP3   OH230092   0.899   6.657   2.151
10050TIP3    H130093   0.871   6.747   2.169
10050TIP3    H230094   0.985   6.650   2.192
10051TIP3   OH230095   7.772   5.273   3.766
10051TIP3    H130096   7.840   5.308   3.823
10051TIP3    H230097   7.751   5.345   3.707
10052TIP3   OH230098   2.563   0.922   1.145
10052TIP3    H130099   2.576   1.016   1.131
10052TIP3    H230100   2.520   0.916   1.230
10053TIP3   OH230101   7.370   3.191   1.424
10053TIP3    H130102   7.348   3.143   1.503
10053TIP3    H230103   7.308   3.263   1.421
10054TIP3   OH230104   3.591   6.516   1.236
10054TIP3    H130105   3.510   6.510   1.288
10054TIP3    H230106   3.562   6.504   1.146
10055TIP3   OH230107   8.214   2.017   4.784
10055TIP3    H130108   8.191   1.937   4.736
10055TIP3    H230109   8.257   2.073   4.719
10056TIP3   OH230110   3.435   3.291   2.814
10056TIP3    H130111   3.519   3.294   2.769
10056TIP3    H230112   3.457   3.292   2.907
10057TIP3   OH230113   1.743   4.265   1.219
10057TIP3    H130114   1.720   4.279   1.127
10057TIP3    H230115   1.687   4.327   1.266
10058TIP3   OH230116   4.077   7.051   2.934
10058TIP3    H130117   4.072   6.988   3.006
10058TIP3    H230118   4.105   7.133   2.975
10059TIP3   OH230119   4.147   6.626   3.705
10059TIP3    H130120   4.215   6.657   3.766
10059TIP3    H230121   4.194   6.571   3.643
10060TIP3   OH230122   7.744   0.468   6.423
10060TIP3    H130123   7.678   0.495   6.359
10060TIP3    H230124   7.705   0.490   6.507
10061TIP3   OH230125   4.909   4.999   6.559
10061TIP3    H130126   4.900   4.904   6.569
10061TIP3    H230127   4.938   5.029   6.645
10062TIP3   OH230128   2.145   5.993   1.383
10062TIP3    H130129   2.098   5.976   1.301
10062TIP3    H230130   2.094   6.061   1.427
10063TIP3   OH230131   4.289   3.593   1.677
10063TIP3    H130132   4.251   3.568   1.761
10063TIP3    H230133   4.384   3.592   1.692
10064TIP3   OH230134   5.696   3.252   3.698
10064TIP3    H130135   5.722   3.317   3.633
10064TIP3    H230136   5.742   3.172   3.672
10065TIP3   OH230137   1.382   5.557   0.685
10065TIP3    H130138   1.396   5.524   0.774
10065TIP3    H230139   1.304   5.612   0.692
10066TIP3   OH230140   6.917   1.073   5.134
10066TIP3    H130141   6.996   1.024   5.158
10066TIP3    H230142   6.930   1.095   5.041
10067TIP3   OH230143   2.376   7.121   2.501
10067TIP3    H130144   2.389   7.193   2.563
10067TIP3    H230145   2.281   7.114   2.493
10068TIP3   OH230146   3.267   4.318   3.158
10068TIP3    H130147   3.227   4.344   3.075
10068TIP3    H230148   3.349   4.367   3.161
10069TIP3   OH230149   2.409   5.209   0.545
10069TIP3    H130150   2.475   5.236   0.608
10069TIP3    H230151   2.414   5.113   0.545
10070TIP3   OH230152   6.781   3.581   0.984
10070TIP3    H130153   6.867   3.590   0.943
10070TIP3    H230154   6.800   3.558   1.075
10071TIP3   OH230155   1.461   7.066   0.363
10071TIP3    H130156   1.520   7.108   0.301
10071TIP3    H230157   1.509   7.065   0.445
10072TIP3   OH230158   7.193   0.365   2.141
10072TIP3    H130159   7.143   0.382   2.062
10072TIP3    H230160   7.139   0.401   2.212
10073TIP3   OH230161   5.070   6.288   0.593
10073TIP3    H130162   5.097   6.325   0.677
10073TIP3    H230163   5.035   6.363   0.544
10074TIP3   OH230164   3.960   3.057   5.587
10074TIP3    H130165   3.885   3.112   5.568
10074TIP3    H230166   3.977   3.009   5.506
10075TIP3   OH230167   0.815   1.059   6.053
10075TIP3    H130168   0.909   1.052   6.073
10075TIP3    H230169   0.776   0.984   6.098
10076TIP3   OH230170   6.403   4.339   3.456
10076TIP3    H130171   6.360   4.260   3.422
10076TIP3    H230172   6.475   4.305   3.509
10077TIP3   OH230173   2.081   7.389   1.306
10077TIP3    H130174   2.063   7.341   1.225
10077TIP3    H230175   1.998   7.384   1.355
10078TIP3   OH230176   3.519   6.606   3.574
10078TIP3    H130177   3.577   6.565   3.509
10078TIP3    H230178   3.432   6.603   3.534
10079TIP3   OH230179   7.745   2.760   2.272
10079TIP3    H130180   7.703   2.734   2.190
10079TIP3    H230181   7.736   2.855   2.275
10080TIP3   OH230182   1.398   7.601   4.724
10080TIP3    H130183   1.355   7.592   4.810
10080TIP3    H230184   1.340   7.555   4.664
10081TIP3   OH230185   7.935   3.773   5.245
10081TIP3    H130186   8.029   3.782   5.226
10081TIP3    H230187   7.892   3.804   5.166
10082TIP3   OH230188   4.843   4.872   1.832
10082TIP3    H130189   4.807   4.864   1.744
10082TIP3    H230190   4.881   4.960   1.835
10083TIP3   OH230191   2.384   7.235   3.949
10083TIP3    H130192   2.473   7.206   3.930
10083TIP3    H230193   2.329   7.174   3.899
10084TIP3   OH230194   2.970   4.969   4.928
10084TIP3    H130195   3.048   4.934   4.884
10084TIP3    H230196   3.005   5.013   5.006
10085TIP3   OH230197   0.111   1.701  -0.030
10085TIP3    H130198   0.140   1.687   0.060
10085TIP3    H230199   0.026   1.658  -0.035
10086TIP3   OH230200   0.846   0.979   2.509
10086TIP3    H130201   0.873   1.054   2.454
10086TIP3    H230202   0.797   0.922   2.449
10087TIP3   OH230203   4.256   6.551   5.360
10087TIP3    H130204   4.280   6.611   5.431
10087TIP3    H230205   4.230   6.470   5.404
10088TIP3   OH230206   6.401   4.862   5.848
10088TIP3    H130207   6.454   4.786   5.826
10088TIP3    H230208   6.315   4.844   5.809
10089TIP3   OH230209   4.085   0.814   1.956
10089TIP3    H130210   4.032   0.735   1.947
10089TIP3    H230211   4.023   0.886   1.943
10090TIP3   OH230212   1.986   4.130   0.491
10090TIP3    H130213   1.979   4.179   0.409
10090TIP3    H230214   2.075   4.094   0.490
10091TIP3   OH230215   5.634   7.145   4.774
10091TIP3    H130216   5.694   7.183   4.710
10091TIP3    H230217   5.655   7.052   4.775
10092TIP3   OH230218   0.298   1.195   5.387
10092TIP3    H130219   0.353   1.144   5.448
10092TIP3    H230220   0.353   1.269   5.362
10093TIP3   OH230221   3.791   5.507   0.071
10093TIP3    H130222   3.810   5.547  -0.014
10093TIP3    H230223   3.787   5.413   0.052
10094TIP3   OH230224   2.939   6.233   0.777
10094TIP3    H130225   2.911   6.142   0.785
10094TIP3    H230226   2.885   6.269   0.707
10095TIP3   OH230227   0.951   3.617   0.562
10095TIP3    H130228   1.001   3.648   0.638
10095TIP3    H230229   0.860   3.637   0.584
10096TIP3   OH230230   2.783   4.366   5.100
10096TIP3    H130231   2.700   4.394   5.061
10096TIP3    H230232   2.833   4.447   5.110
10097TIP3   OH230233   4.346   1.568   0.149
10097TIP3    H130234   4.263   1.521   0.136
10097TIP3    H230235   4.383   1.576   0.060
10098TIP3   OH230236   0.922   2.281   0.173
10098TIP3    H130237   0.843   2.249   0.129
10098TIP3    H230238   0.899   2.369   0.201
10099TIP3   OH230239   2.415   3.617   6.017
10099TIP3    H130240   2.447   3.529   6.037
10099TIP3    H230241   2.487   3.659   5.971
10100TIP3   OH230242   3.421   1.447   5.418
10100TIP3    H130243   3.489   1.512   5.403
10100TIP3    H230244   3.469   1.368   5.443
10101TIP3   OH230245   2.321   2.387   0.186
10101TIP3    H130246   2.228   2.408   0.193
10101TIP3    H230247   2.323   2.294   0.164
10102TIP3   OH230248   3.190   7.307   2.704
10102TIP3    H130249   3.201   7.215   2.678
10102TIP3    H230250   3.183   7.303   2.800
10103TIP3   OH230251   1.111   1.288   0.191
10103TIP3    H130252   1.068   1.367   0.158
10103TIP3    H230253   1.054   1.257   0.262
10104TIP3   OH230254   1.077   7.575   5.136
10104TIP3    H130255   1.001   7.525   5.107
10104TIP3    H230256   1.128   7.514   5.189
10105TIP3   OH230257   3.056   6.260   3.905
10105TIP3    H130258   3.007   6.260   3.988
10105TIP3    H230259   3.081   6.169   3.892
10106TIP3   OH230260   7.517   6.175   1.982
10106TIP3    H130261   7.428   6.197   1.955
10106TIP3    H230262   7.534   6.089   1.942
10107TIP3   OH230263   4.045   0.979   2.579
10107TIP3    H130264   3.961   1.017   2.604
10107TIP3    H230265   4.106   1.053   2.577
10108TIP3   OH230266   2.463   3.250   5.439
10108TIP3    H130267   2.486   3.257   5.347
10108TIP3    H230268   2.421   3.333   5.460
10109TIP3   OH230269   5.786   2.167   3.803
10109TIP3    H130270   5.705   2.177   3.753
10109TIP3    H230271   5.775   2.223   3.880
10110TIP3   OH230272   6.383   3.246   4.121
10110TIP3    H130273   6.389   3.277   4.211
10110TIP3    H230274   6.352   3.321   4.071
10111TIP3   OH230275   8.069   1.552   4.215
10111TIP3    H130276   7.991   1.599   4.187
10111TIP3    H230277   8.115   1.531   4.133
10112TIP3   OH230278   0.608   1.314   2.472
10112TIP3    H130279   0.631   1.253   2.542
10112TIP3    H230280   0.673   1.384   2.480
10113TIP3   OH230281   4.040   2.604   1.095
10113TIP3    H130282   4.073   2.517   1.116
10113TIP3    H230283   4.117   2.661   1.100
10114TIP3   OH230284   6.648   6.171   5.662
10114TIP3    H130285   6.568   6.120   5.678
10114TIP3    H230286   6.649   6.236   5.732
10115TIP3   OH230287   6.587   6.643   5.194
10115TIP3    H130288   6.588   6.735   5.168
10115TIP3    H230289   6.661   6.604   5.146
10116TIP3   OH230290   6.772   3.002   6.054
10116TIP3    H130291   6.697   2.985   5.997
10116TIP3    H230292   6.819   3.074   6.012
10117TIP3   OH230293   2.562   7.464   3.270
10117TIP3    H130294   2.656   7.460   3.251
10117TIP3    H230295   2.522   7.406   3.206
10118TIP3   OH230296   4.128   0.600   5.299
10118TIP3    H130297   4.089   0.530   5.246
10118TIP3    H230298   4.109   0.680   5.249
10119TIP3   OH230299   5.505   6.135   5.345
10119TIP3    H130300   5.499   6.042   5.324
10119TIP3    H230301   5.591   6.162   5.312
10120TIP3   OH230302   5.241   7.112   0.493
10120TIP3    H130303   5.147   7.112   0.512
10120TIP3    H230304   5.256   7.193   0.445
10121TIP3   OH230305   2.100   4.735   1.057
10121TIP3    H130306   2.166   4.697   1.115
10121TIP3    H230307   2.102   4.829   1.077
10122TIP3   OH230308   3.987   3.449   4.156
10122TIP3    H130309   3.973   3.521   4.094
10122TIP3    H230310   4.016   3.376   4.101
10123TIP3   OH230311   4.404   0.985   4.346
10123TIP3    H130312   4.438   1.062   4.391
10123TIP3    H230313   4.318   0.970   4.386
10124TIP3   OH230314   7.709   3.489   1.378
10124TIP3    H130315   7.798   3.464   1.400
10124TIP3    H230316   7.715   3.582   1.356
10125TIP3   OH230317   2.955   0.515   0.602
10125TIP3    H130318   2.868   0.527   0.566
10125TIP3    H230319   2.999   0.599   0.588
10126TIP3   OH230320   8.111   4.141   5.448
10126TIP3    H130321   8.109   4.168   5.357
10126TIP3    H230322   8.202   4.150   5.475
10127TIP3   OH230323   6.531   3.989   3.487
10127TIP3    H130324   6.475   4.037   3.426
10127TIP3    H230325   6.595   3.945   3.431
10128TIP3   OH230326   1.449   2.237   3.223
10128TIP3    H130327   1.539   2.257   3.196
10128TIP3    H230328   1.434   2.293   3.299
10129TIP3   OH230329   6.620   0.088   5.340
10129TIP3    H130330   6.710   0.095   5.371
10129TIP3    H230331   6.591   0.001   5.368
10130TIP3   OH230332   6.672   0.302   6.701
10130TIP3    H130333   6.696   0.268   6.787
10130TIP3    H230334   6.719   0.385   6.693
10131TIP3   OH230335   3.737   6.008   6.574
10131TIP3    H130336   3.643   5.996   6.561
10131TIP3    H230337   3.777   5.969   6.496
10132TIP3   OH230338   7.865   5.361   0.643
10132TIP3    H130339   7.905   5.354   0.729
10132TIP3    H230340   7.933   5.331   0.582
10133TIP3   OH230341   6.123   4.212   5.112
10133TIP3    H130342   6.180   4.255   5.048
10133TIP3    H230343   6.116   4.275   5.184
10134TIP3   OH230344   8.332   5.373   6.249
10134TIP3    H130345   8.288   5.348   6.330
10134TIP3    H230346   8.262   5.372   6.183
10135TIP3   OH230347   6.805   5.694   4.168
10135TIP3    H130348   6.870   5.628   4.143
10135TIP3    H230349   6.746   5.699   4.093
10136TIP3   OH230350   2.592   2.012   3.059
10136TIP3    H130351   2.533   1.946   3.022
10136TIP3    H230352   2.679   1.986   3.029
10137TIP3   OH230353   2.887   4.276   6.105
10137TIP3    H130354   2.938   4.316   6.175
10137TIP3    H230355   2.822   4.342   6.082
10138TIP3   OH230356   0.767   1.712   4.944
10138TIP3    H130357   0.809   1.655   4.880
10138TIP3    H230358   0.684   1.737   4.903
10139TIP3   OH230359   4.824   4.698   6.784
10139TIP3    H130360   4.891   4.630   6.786
10139TIP3    H230361   4.825   4.731   6.694
10140TIP3   OH230362   1.373   0.866   3.329
10140TIP3    H130363   1.391   0.938   3.269
10140TIP3    H230364   1.278   0.861   3.335
10141TIP3   OH230365   7.208   0.003   4.797
10141TIP3    H130366   7.259   0.007   4.878
10141TIP3    H230367   7.120   0.030   4.824
10142TIP3   OH230368   6.005   5.136   0.670
10142TIP3    H130369   5.912   5.146   0.649
10142TIP3    H230370   6.014   5.170   0.759
10143TIP3   OH230371   1.550   6.307   5.171
10143TIP3    H130372   1.609   6.279   5.241
10143TIP3    H230373   1.551   6.403   5.177
10144TIP3   OH230374   0.635   4.151   4.407
10144TIP3    H130375   0.663   4.062   4.386
10144TIP3    H230376   0.630   4.195   4.323
10145TIP3   OH230377   7.570   7.572   2.041
10145TIP3    H130378   7.661   7.578   2.071
10145TIP3    H230379   7.531   7.655   2.066
10146TIP3   OH230380   4.526   3.971   1.011
10146TIP3    H130381   4.531   3.907   1.082
10146TIP3    H230382   4.480   3.926   0.941
10147TIP3   OH230383   5.368   3.078   3.288
10147TIP3    H130384   5.393   3.143   3.222
10147TIP3    H230385   5.303   3.123   3.343
10148TIP3   OH230386   1.289   3.652   0.458
10148TIP3    H130387   1.278   3.677   0.549
10148TIP3    H230388   1.297   3.556   0.460
10149TIP3   OH230389   8.213   0.969   3.687
10149TIP3    H130390   8.166   1.040   3.644
10149TIP3    H230391   8.146   0.905   3.710
10150TIP3   OH230392   4.762   3.946   4.900
10150TIP3    H130393   4.801   3.868   4.862
10150TIP3    H230394   4.787   4.017   4.841
10151TIP3   OH230395   6.815   4.903   2.218
10151TIP3    H130396   6.902   4.941   2.221
10151TIP3    H230397   6.760   4.962   2.269
10152TIP3   OH230398   3.298   5.832   3.084
10152TIP3    H130399   3.227   5.875   3.036
10152TIP3    H230400   3.280   5.738   3.074
10153TIP3   OH230401   7.033   3.789   5.934
10153TIP3    H130402   6.957   3.769   5.988
10153TIP3    H230403   7.103   3.733   5.968
10154TIP3   OH230404   1.168   4.140   1.759
10154TIP3    H130405   1.115   4.142   1.678
10154TIP3    H230406   1.149   4.223   1.802
10155TIP3   OH230407   2.532   2.842   0.842
10155TIP3    H130408   2.628   2.840   0.844
10155TIP3    H230409   2.506   2.750   0.837
10156TIP3   OH230410   3.620   1.468   6.475
10156TIP3    H130411   3.687   1.456   6.543
10156TIP3    H230412   3.538   1.442   6.518
10157TIP3   OH230413   3.194   1.456   1.454
10157TIP3    H130414   3.175   1.388   1.390
10157TIP3    H230415   3.289   1.469   1.448
10158TIP3   OH230416   3.977   6.802   0.855
10158TIP3    H130417   3.938   6.735   0.911
10158TIP3    H230418   3.921   6.806   0.778
10159TIP3   OH230419   4.518   2.105   4.178
10159TIP3    H130420   4.436   2.118   4.226
10159TIP3    H230421   4.508   2.019   4.137
10160TIP3   OH230422   4.985   6.747   3.355
10160TIP3    H130423   5.070   6.719   3.319
10160TIP3    H230424   4.997   6.745   3.450
10161TIP3   OH230425   2.142   0.608   2.029
10161TIP3    H130426   2.231   0.642   2.022
10161TIP3    H230427   2.107   0.615   1.940
10162TIP3   OH230428   0.614   6.443   1.273
10162TIP3    H130429   0.537   6.433   1.329
10162TIP3    H230430   0.653   6.526   1.301
10163TIP3   OH230431   3.495   5.644   0.914
10163TIP3    H130432   3.449   5.561   0.901
10163TIP3    H230433   3.569   5.640   0.853
10164TIP3   OH230434   5.537   4.744   1.271
10164TIP3    H130435   5.466   4.808   1.280
10164TIP3    H230436   5.555   4.715   1.360
10165TIP3   OH230437   1.269   5.392   2.339
10165TIP3    H130438   1.262   5.302   2.371
10165TIP3    H230439   1.250   5.446   2.416
10166TIP3   OH230440   2.952   2.321   2.919
10166TIP3    H130441   3.046   2.320   2.904
10166TIP3    H230442   2.936   2.401   2.969
10167TIP3   OH230443   2.462   2.687   5.111
10167TIP3    H130444   2.473   2.753   5.180
10167TIP3    H230445   2.368   2.666   5.114
10168TIP3   OH230446   8.034   3.080   0.592
10168TIP3    H130447   8.091   3.062   0.667
10168TIP3    H230448   7.952   3.111   0.630
10169TIP3   OH230449   1.207   5.884   3.763
10169TIP3    H130450   1.179   5.890   3.854
10169TIP3    H230451   1.168   5.802   3.732
10170TIP3   OH230452   0.043   2.979   3.016
10170TIP3    H130453  -0.004   3.061   2.999
10170TIP3    H230454   0.052   2.977   3.111
10171TIP3   OH230455   2.737   4.758   6.020
10171TIP3    H130456   2.818   4.749   6.069
10171TIP3    H230457   2.737   4.849   5.989
10172TIP3   OH230458   1.524   2.405   1.577
10172TIP3    H130459   1.461   2.465   1.617
10172TIP3    H230460   1.581   2.461   1.525
10173TIP3   OH230461   2.428   0.137   5.888
10173TIP3    H130462   2.406   0.050   5.856
10173TIP3    H230463   2.346   0.172   5.922
10174TIP3   OH230464   1.168   0.265   1.302
10174TIP3    H130465   1.196   0.288   1.213
10174TIP3    H230466   1.085   0.310   1.314
10175TIP3   OH230467   4.013   1.579   2.476
10175TIP3    H130468   3.967   1.497   2.460
10175TIP3    H230469   4.100   1.565   2.438
10176TIP3   OH230470   0.234   4.732   3.572
10176TIP3    H130471   0.156   4.711   3.520
10176TIP3    H230472   0.303   4.743   3.506
10177TIP3   OH230473   6.640   2.900   3.134
10177TIP3    H130474   6.665   2.963   3.066
10177TIP3    H230475   6.556   2.865   3.104
10178TIP3   OH230476   4.063   3.723   2.507
10178TIP3    H130477   4.117   3.792   2.545
10178TIP3    H230478   4.126   3.667   2.461
10179TIP3   OH230479   1.537   0.556   2.491
10179TIP3    H130480   1.487   0.475   2.483
10179TIP3    H230481   1.503   0.599   2.569
10180TIP3   OH230482   6.449   4.354   3.180
10180TIP3    H130483   6.518   4.288   3.167
10180TIP3    H230484   6.464   4.388   3.268
10181TIP3   OH230485   4.813   1.492   4.305
10181TIP3    H130486   4.767   1.419   4.264
10181TIP3    H230487   4.788   1.568   4.252
10182TIP3   OH230488   0.685   3.040   4.378
10182TIP3    H130489   0.762   3.080   4.418
10182TIP3    H230490   0.720   2.986   4.307
10183TIP3   OH230491   6.253   1.841   5.524
10183TIP3    H130492   6.165   1.873   5.541
10183TIP3    H230493   6.310   1.917   5.542
10184TIP3   OH230494   8.232   1.462   1.738
10184TIP3    H130495   8.286   1.536   1.767
10184TIP3    H230496   8.260   1.389   1.793
10185TIP3   OH230497   3.676   1.239   3.023
10185TIP3    H130498   3.637   1.217   2.938
10185TIP3    H230499   3.758   1.283   3.001
10186TIP3   OH230500   6.263   4.660   4.192
10186TIP3    H130501   6.354   4.685   4.177
10186TIP3    H230502   6.268   4.576   4.237
10187TIP3   OH230503   0.602   7.385   2.768
10187TIP3    H130504   0.618   7.294   2.743
10187TIP3    H230505   0.507   7.393   2.771
10188TIP3   OH230506   3.111   3.806   4.379
10188TIP3    H130507   3.101   3.793   4.474
10188TIP3    H230508   3.111   3.717   4.343
10189TIP3   OH230509   3.977   2.694   0.467
10189TIP3    H130510   3.924   2.768   0.496
10189TIP3    H230511   3.939   2.668   0.383
10190TIP3   OH230512   1.960   2.424   3.210
10190TIP3    H130513   1.934   2.505   3.166
10190TIP3    H230514   2.053   2.415   3.191
10191TIP3   OH230515   6.264   2.382   1.615
10191TIP3    H130516   6.216   2.300   1.631
10191TIP3    H230517   6.333   2.358   1.554
10192TIP3   OH230518   5.666   0.813   5.077
10192TIP3    H130519   5.623   0.802   4.992
10192TIP3    H230520   5.711   0.730   5.092
10193TIP3   OH230521   7.556   3.794   4.790
10193TIP3    H130522   7.553   3.701   4.768
10193TIP3    H230523   7.643   3.823   4.762
10194TIP3   OH230524   6.384   2.888   1.424
10194TIP3    H130525   6.447   2.879   1.352
10194TIP3    H230526   6.387   2.803   1.468
10195TIP3   OH230527   5.923   1.727   0.587
10195TIP3    H130528   5.920   1.809   0.637
10195TIP3    H230529   5.996   1.739   0.525
10196TIP3   OH230530   5.748   2.774   0.148
10196TIP3    H130531   5.698   2.763   0.229
10196TIP3    H230532   5.777   2.686   0.125
10197TIP3   OH230533   6.921   6.397   6.136
10197TIP3    H130534   6.908   6.346   6.217
10197TIP3    H230535   6.952   6.483   6.167
10198TIP3   OH230536   5.914   3.247   4.163
10198TIP3    H130537   5.970   3.308   4.212
10198TIP3    H230538   5.930   3.269   4.072
10199TIP3   OH230539   8.179   2.363   3.450
10199TIP3    H130540   8.089   2.365   3.481
10199TIP3    H230541   8.230   2.399   3.523
10200TIP3   OH230542   7.608   5.626   2.372
10200TIP3    H130543   7.676   5.678   2.414
10200TIP3    H230544   7.528   5.649   2.419
10201TIP3   OH230545   7.613   6.589   5.997
10201TIP3    H130546   7.694   6.624   6.033
10201TIP3    H230547   7.593   6.645   5.922
10202TIP3   OH230548   1.123   3.267   6.261
10202TIP3    H130549   1.071   3.214   6.200
10202TIP3    H230550   1.204   3.216   6.272
10203TIP3   OH230551   7.384   4.555   2.618
10203TIP3    H130552   7.319   4.553   2.548
10203TIP3    H230553   7.340   4.600   2.690
10204TIP3   OH230554   8.290   1.231   4.284
10204TIP3    H130555   8.200   1.201   4.294
10204TIP3    H230556   8.332   1.209   4.367
10205TIP3   OH230557   1.279   5.707   6.173
10205TIP3    H130558   1.253   5.789   6.130
10205TIP3    H230559   1.228   5.706   6.254
10206TIP3   OH230560   6.207   6.946   6.095
10206TIP3    H130561   6.291   6.938   6.049
10206TIP3    H230562   6.227   6.926   6.186
10207TIP3   OH230563   7.723   7.564   3.073
10207TIP3    H130564   7.805   7.534   3.034
10207TIP3    H230565   7.749   7.637   3.129
10208TIP3   OH230566   1.506   7.291   2.209
10208TIP3    H130567   1.524   7.336   2.126
10208TIP3    H230568   1.499   7.199   2.186
10209TIP3   OH230569   7.914   7.281   5.992
10209TIP3    H130570   7.980   7.315   6.053
10209TIP3    H230571   7.960   7.277   5.908
10210TIP3   OH230572   1.536   5.975   4.005
10210TIP3    H130573   1.511   5.883   4.017
10210TIP3    H230574   1.545   6.008   4.095
10211TIP3   OH230575   2.237   2.338   5.122
10211TIP3    H130576   2.282   2.310   5.042
10211TIP3    H230577   2.190   2.261   5.151
10212TIP3   OH230578   5.205   5.696   0.746
10212TIP3    H130579   5.257   5.684   0.825
10212TIP3    H230580   5.267   5.727   0.680
10213TIP3   OH230581   0.001   1.139   2.900
10213TIP3    H130582   0.024   1.168   2.989
10213TIP3    H230583   0.013   1.217   2.846
10214TIP3   OH230584   7.741   0.851   0.501
10214TIP3    H130585   7.825   0.870   0.542
10214TIP3    H230586   7.677   0.856   0.572
10215TIP3   OH230587   1.051   5.168   6.025
10215TIP3    H130588   1.078   5.240   6.083
10215TIP3    H230589   0.956   5.162   6.038
10216TIP3   OH230590   0.307   6.059   1.972
10216TIP3    H130591   0.258   6.010   1.905
10216TIP3    H230592   0.258   6.043   2.053
10217TIP3   OH230593   5.471   1.396   5.313
10217TIP3    H130594   5.563   1.408   5.288
10217TIP3    H230595   5.474   1.334   5.386
10218TIP3   OH230596   3.867   2.573   3.705
10218TIP3    H130597   3.946   2.627   3.693
10218TIP3    H230598   3.900   2.490   3.739
10219TIP3   OH230599   7.053   7.740   3.109
10219TIP3    H130600   7.111   7.675   3.070
10219TIP3    H230601   6.976   7.691   3.138
10220TIP3   OH230602   7.463   6.366   2.209
10220TIP3    H130603   7.447   6.306   2.136
10220TIP3    H230604   7.381   6.366   2.258
10221TIP3   OH230605   3.669   2.676   6.218
10221TIP3    H130606   3.723   2.696   6.142
10221TIP3    H230607   3.699   2.590   6.247
10222TIP3   OH230608   2.309   0.525   1.044
10222TIP3    H130609   2.232   0.573   1.072
10222TIP3    H230610   2.332   0.562   0.959
10223TIP3   OH230611   7.960   2.921   5.431
10223TIP3    H130612   8.012   2.967   5.496
10223TIP3    H230613   7.947   2.834   5.467
10224TIP3   OH230614   5.658   2.352   4.242
10224TIP3    H130615   5.634   2.444   4.240
10224TIP3    H230616   5.689   2.336   4.331
10225TIP3   OH230617   7.354   7.219   4.109
10225TIP3    H130618   7.318   7.131   4.104
10225TIP3    H230619   7.305   7.269   4.044
10226TIP3   OH230620   3.296   1.722   0.986
10226TIP3    H130621   3.259   1.809   0.999
10226TIP3    H230622   3.233   1.676   0.931
10227TIP3   OH230623   0.524   5.960   5.456
10227TIP3    H130624   0.568   5.952   5.540
10227TIP3    H230625   0.458   5.890   5.456
10228TIP3   OH230626   3.929   5.589   1.774
10228TIP3    H130627   3.874   5.658   1.738
10228TIP3    H230628   3.939   5.612   1.866
10229TIP3   OH230629   4.307   5.247   3.566
10229TIP3    H130630   4.272   5.195   3.638
10229TIP3    H230631   4.401   5.249   3.581
10230TIP3   OH230632   6.132   5.513   2.123
10230TIP3    H130633   6.206   5.487   2.067
10230TIP3    H230634   6.138   5.608   2.127
10231TIP3   OH230635   4.107   5.075   5.988
10231TIP3    H130636   4.042   5.042   5.926
10231TIP3    H230637   4.070   5.156   6.021
10232TIP3   OH230638   3.324   1.256   0.211
10232TIP3    H130639   3.328   1.214   0.297
10232TIP3    H230640   3.371   1.196   0.153
10233TIP3   OH230641   4.922   5.835   4.739
10233TIP3    H130642   4.893   5.757   4.786
10233TIP3    H230643   4.876   5.830   4.655
10234TIP3   OH230644   4.518   2.324   6.285
10234TIP3    H130645   4.543   2.398   6.340
10234TIP3    H230646   4.600   2.294   6.246
10235TIP3   OH230647   2.229   5.876   1.943
10235TIP3    H130648   2.257   5.944   1.882
10235TIP3    H230649   2.271   5.796   1.911
10236TIP3   OH230650   1.026   7.102   2.919
10236TIP3    H130651   1.050   7.137   2.833
10236TIP3    H230652   0.965   7.166   2.955
10237TIP3   OH230653   0.740   0.784   6.551
10237TIP3    H130654   0.823   0.776   6.504
10237TIP3    H230655   0.750   0.730   6.629
10238TIP3   OH230656   2.311   1.598   1.810
10238TIP3    H130657   2.302   1.591   1.715
10238TIP3    H230658   2.394   1.554   1.830
10239TIP3   OH230659   4.363   7.025   0.849
10239TIP3    H130660   4.268   7.026   0.864
10239TIP3    H230661   4.400   7.061   0.929
10240TIP3   OH230662   6.731   5.097   6.215
10240TIP3    H130663   6.739   5.023   6.155
10240TIP3    H230664   6.713   5.172   6.158
10241TIP3   OH230665   5.200   0.141   4.967
10241TIP3    H130666   5.148   0.137   4.888
10241TIP3    H230667   5.203   0.051   4.999
10242TIP3   OH230668   6.445   7.424   0.715
10242TIP3    H130669   6.438   7.480   0.792
10242TIP3    H230670   6.497   7.475   0.653
10243TIP3   OH230671   3.099   1.463   3.608
10243TIP3    H130672   3.083   1.550   3.646
10243TIP3    H230673   3.169   1.426   3.663
10244TIP3   OH230674   8.283   1.534   4.431
10244TIP3    H130675   8.302   1.505   4.342
10244TIP3    H230676   8.261   1.627   4.422
10245TIP3   OH230677   1.969   3.383   3.680
10245TIP3    H130678   1.954   3.355   3.771
10245TIP3    H230679   1.943   3.307   3.627
10246TIP3   OH230680   2.325   3.859   2.946
10246TIP3    H130681   2.329   3.769   2.979
10246TIP3    H230682   2.292   3.910   3.021
10247TIP3   OH230683   6.994   1.933   0.693
10247TIP3    H130684   6.933   1.930   0.767
10247TIP3    H230685   6.955   1.875   0.628
10248TIP3   OH230686   5.064   2.704   3.037
10248TIP3    H130687   5.124   2.758   3.089
10248TIP3    H230688   5.010   2.767   2.990
10249TIP3   OH230689   1.890   0.398   4.493
10249TIP3    H130690   1.833   0.436   4.426
10249TIP3    H230691   1.925   0.475   4.540
10250TIP3   OH230692   0.076   6.211   4.027
10250TIP3    H130693   0.014   6.197   4.099
10250TIP3    H230694   0.050   6.295   3.989
10251TIP3   OH230695   2.604   2.278   0.597
10251TIP3    H130696   2.700   2.281   0.597
10251TIP3    H230697   2.583   2.189   0.572
10252TIP3   OH230698   7.633   6.604   5.073
10252TIP3    H130699   7.724   6.606   5.042
10252TIP3    H230700   7.583   6.578   4.996
10253TIP3   OH230701   1.177   0.937   0.444
10253TIP3    H130702   1.111   0.982   0.391
10253TIP3    H230703   1.137   0.930   0.530
10254TIP3   OH230704   2.818   0.094   0.904
10254TIP3    H130705   2.817   0.027   0.836
10254TIP3    H230706   2.806   0.177   0.857
10255TIP3   OH230707   1.635   4.480   0.754
10255TIP3    H130708   1.668   4.541   0.688
10255TIP3    H230709   1.663   4.394   0.723
10256TIP3   OH230710   1.134   1.469   4.888
10256TIP3    H130711   1.173   1.418   4.817
10256TIP3    H230712   1.204   1.478   4.953
10257TIP3   OH230713   1.566   5.347   2.106
10257TIP3    H130714   1.647   5.377   2.066
10257TIP3    H230715   1.567   5.386   2.194
10258TIP3   OH230716   3.259   6.153   0.275
10258TIP3    H130717   3.212   6.144   0.358
10258TIP3    H230718   3.270   6.062   0.245
10259TIP3   OH230719   2.171   6.452   1.817
10259TIP3    H130720   2.150   6.545   1.819
10259TIP3    H230721   2.117   6.417   1.746
10260TIP3   OH230722   5.960   5.380   5.501
10260TIP3    H130723   5.911   5.299   5.493
10260TIP3    H230724   5.909   5.445   5.453
10261TIP3   OH230725   4.711   1.586   2.877
10261TIP3    H130726   4.731   1.656   2.814
10261TIP3    H230727   4.724   1.626   2.963
10262TIP3   OH230728   3.421   7.483   2.006
10262TIP3    H130729   3.483   7.451   1.942
10262TIP3    H230730   3.337   7.447   1.979
10263TIP3   OH230731   0.477   6.979   1.584
10263TIP3    H130732   0.439   7.010   1.502
10263TIP3    H230733   0.454   6.886   1.587
10264TIP3   OH230734   1.015   3.620   3.085
10264TIP3    H130735   1.021   3.633   3.180
10264TIP3    H230736   1.079   3.552   3.066
10265TIP3   OH230737   5.440   6.646   3.902
10265TIP3    H130738   5.400   6.562   3.881
10265TIP3    H230739   5.388   6.680   3.974
10266TIP3   OH230740   4.836   7.298   1.089
10266TIP3    H130741   4.924   7.271   1.116
10266TIP3    H230742   4.789   7.314   1.171
10267TIP3   OH230743   7.351   4.127   0.171
10267TIP3    H130744   7.386   4.204   0.215
10267TIP3    H230745   7.298   4.083   0.238
10268TIP3   OH230746   6.794   1.463   6.375
10268TIP3    H130747   6.734   1.501   6.311
10268TIP3    H230748   6.822   1.380   6.336
10269TIP3   OH230749   6.632   0.700   3.910
10269TIP3    H130750   6.562   0.758   3.880
10269TIP3    H230751   6.705   0.717   3.851
10270TIP3   OH230752   3.329   3.939   1.077
10270TIP3    H130753   3.235   3.923   1.086
10270TIP3    H230754   3.358   3.965   1.164
10271TIP3   OH230755   7.658   7.642   0.587
10271TIP3    H130756   7.681   7.721   0.635
10271TIP3    H230757   7.707   7.649   0.505
10272TIP3   OH230758   2.833   4.580   4.813
10272TIP3    H130759   2.866   4.666   4.786
10272TIP3    H230760   2.744   4.576   4.778
10273TIP3   OH230761   0.004   1.710   1.841
10273TIP3    H130762   0.087   1.755   1.822
10273TIP3    H230763  -0.005   1.718   1.936
10274TIP3   OH230764   7.194   0.748   2.913
10274TIP3    H130765   7.126   0.797   2.868
10274TIP3    H230766   7.192   0.781   3.003
10275TIP3   OH230767   0.433   5.257   4.625
10275TIP3    H130768   0.374   5.189   4.657
10275TIP3    H230769   0.377   5.335   4.619
10276TIP3   OH230770   5.759   3.934   5.211
10276TIP3    H130771   5.717   4.020   5.213
10276TIP3    H230772   5.852   3.953   5.219
10277TIP3   OH230773   5.397   5.740   0.488
10277TIP3    H130774   5.476   5.793   0.477
10277TIP3    H230775   5.419   5.656   0.447
10278TIP3   OH230776   0.998   2.818   5.989
10278TIP3    H130777   1.020   2.725   5.982
10278TIP3    H230778   0.903   2.820   6.000
10279TIP3   OH230779   7.556   5.844   5.762
10279TIP3    H130780   7.520   5.790   5.691
10279TIP3    H230781   7.533   5.797   5.842
10280TIP3   OH230782   4.209   5.408   6.644
10280TIP3    H130783   4.222   5.469   6.716
10280TIP3    H230784   4.282   5.424   6.585
10281TIP3   OH230785   6.618   0.283   3.896
10281TIP3    H130786   6.711   0.279   3.915
10281TIP3    H230787   6.597   0.196   3.861
10282TIP3   OH230788   3.894   4.118   0.986
10282TIP3    H130789   3.886   4.177   1.061
10282TIP3    H230790   3.815   4.064   0.990
10283TIP3   OH230791   5.969   2.067   5.962
10283TIP3    H130792   5.887   2.069   5.914
10283TIP3    H230793   5.973   2.152   6.006
10284TIP3   OH230794   6.486   0.674   1.094
10284TIP3    H130795   6.448   0.593   1.060
10284TIP3    H230796   6.498   0.659   1.187
10285TIP3   OH230797   7.050   1.752   6.027
10285TIP3    H130798   7.135   1.795   6.026
10285TIP3    H230799   7.051   1.700   6.108
10286TIP3   OH230800   6.522   2.841   6.263
10286TIP3    H130801   6.457   2.784   6.304
10286TIP3    H230802   6.494   2.849   6.172
10287TIP3   OH230803   1.623   5.718   0.670
10287TIP3    H130804   1.546   5.669   0.641
10287TIP3    H230805   1.660   5.754   0.589
10288TIP3   OH230806   2.877   6.052   6.109
10288TIP3    H130807   2.969   6.079   6.119
10288TIP3    H230808   2.868   6.033   6.016
10289TIP3   OH230809   7.704   0.540   5.681
10289TIP3    H130810   7.721   0.516   5.590
10289TIP3    H230811   7.610   0.556   5.685
10290TIP3   OH230812   7.295   7.227   1.772
10290TIP3    H130813   7.294   7.316   1.737
10290TIP3    H230814   7.327   7.173   1.700
10291TIP3   OH230815   1.282   1.653   1.527
10291TIP3    H130816   1.372   1.653   1.562
10291TIP3    H230817   1.233   1.708   1.588
10292TIP3   OH230818   6.171   1.828   2.113
10292TIP3    H130819   6.249   1.790   2.073
10292TIP3    H230820   6.136   1.889   2.047
10293TIP3   OH230821   2.959   0.482   3.541
10293TIP3    H130822   2.961   0.573   3.570
10293TIP3    H230823   3.038   0.472   3.488
10294TIP3   OH230824   1.140   2.322   3.420
10294TIP3    H130825   1.232   2.335   3.442
10294TIP3    H230826   1.137   2.234   3.383
10295TIP3   OH230827   7.595   5.530   0.939
10295TIP3    H130828   7.534   5.466   0.977
10295TIP3    H230829   7.628   5.487   0.860
10296TIP3   OH230830   3.380   2.479   4.720
10296TIP3    H130831   3.288   2.457   4.731
10296TIP3    H230832   3.398   2.460   4.628
10297TIP3   OH230833   4.503   2.840   1.907
10297TIP3    H130834   4.464   2.860   1.822
10297TIP3    H230835   4.564   2.768   1.889
10298TIP3   OH230836   1.697   4.595   5.681
10298TIP3    H130837   1.791   4.598   5.663
10298TIP3    H230838   1.691   4.551   5.766
10299TIP3   OH230839   5.788   4.694   1.656
10299TIP3    H130840   5.798   4.599   1.643
10299TIP3    H230841   5.698   4.712   1.628
10300TIP3   OH230842   3.104   2.885   4.270
10300TIP3    H130843   3.144   2.970   4.287
10300TIP3    H230844   3.161   2.844   4.204
10301TIP3   OH230845   3.670   5.888   4.900
10301TIP3    H130846   3.640   5.800   4.921
10301TIP3    H230847   3.726   5.912   4.974
10302TIP3   OH230848   7.628   2.508   1.683
10302TIP3    H130849   7.721   2.521   1.702
10302TIP3    H230850   7.622   2.512   1.588
10303TIP3   OH230851   1.196   7.671   6.442
10303TIP3    H130852   1.146   7.752   6.448
10303TIP3    H230853   1.229   7.669   6.352
10304TIP3   OH230854   1.248   2.717   2.378
10304TIP3    H130855   1.240   2.779   2.305
10304TIP3    H230856   1.221   2.767   2.455
10305TIP3   OH230857   6.571   0.828   2.382
10305TIP3    H130858   6.600   0.751   2.429
10305TIP3    H230859   6.650   0.880   2.368
10306TIP3   OH230860   1.155   7.244   0.457
10306TIP3    H130861   1.095   7.172   0.437
10306TIP3    H230862   1.201   7.261   0.375
10307TIP3   OH230863   7.644   1.524   6.247
10307TIP3    H130864   7.716   1.558   6.300
10307TIP3    H230865   7.673   1.437   6.221
10308TIP3   OH230866   2.494   0.971   4.456
10308TIP3    H130867   2.479   0.892   4.404
10308TIP3    H230868   2.408   1.014   4.459
10309TIP3   OH230869   7.329   4.371   3.313
10309TIP3    H130870   7.269   4.437   3.346
10309TIP3    H230871   7.416   4.405   3.334
10310TIP3   OH230872   2.527   6.172   3.765
10310TIP3    H130873   2.439   6.198   3.793
10310TIP3    H230874   2.570   6.144   3.846
10311TIP3   OH230875   2.754   4.950   5.438
10311TIP3    H130876   2.718   4.940   5.526
10311TIP3    H230877   2.741   5.042   5.417
10312TIP3   OH230878   2.971   5.213   3.338
10312TIP3    H130879   2.956   5.277   3.407
10312TIP3    H230880   3.057   5.175   3.359
10313TIP3   OH230881   2.099   6.359   4.485
10313TIP3    H130882   2.081   6.432   4.545
10313TIP3    H230883   2.117   6.402   4.401
10314TIP3   OH230884   3.858   7.017   4.222
10314TIP3    H130885   3.851   7.113   4.227
10314TIP3    H230886   3.931   7.002   4.161
10315TIP3   OH230887   8.260   7.087   1.070
10315TIP3    H130888   8.187   7.143   1.046
10315TIP3    H230889   8.333   7.146   1.084
10316TIP3   OH230890   0.619   2.448   3.589
10316TIP3    H130891   0.591   2.400   3.511
10316TIP3    H230892   0.544   2.505   3.610
10317TIP3   OH230893   4.779   2.178   2.120
10317TIP3    H130894   4.733   2.215   2.195
10317TIP3    H230895   4.753   2.086   2.119
10318TIP3   OH230896   3.981   1.774   5.611
10318TIP3    H130897   3.983   1.744   5.520
10318TIP3    H230898   4.029   1.857   5.610
10319TIP3   OH230899   4.197   0.889   4.879
10319TIP3    H130900   4.130   0.844   4.828
10319TIP3    H230901   4.279   0.848   4.852
10320TIP3   OH230902   1.669   7.526   4.640
10320TIP3    H130903   1.579   7.545   4.666
10320TIP3    H230904   1.690   7.595   4.577
10321TIP3   OH230905   2.225   0.309   4.991
10321TIP3    H130906   2.251   0.396   5.020
10321TIP3    H230907   2.251   0.251   5.062
10322TIP3   OH230908   3.942   3.555   3.903
10322TIP3    H130909   3.894   3.497   3.844
10322TIP3    H230910   3.930   3.643   3.866
10323TIP3   OH230911   2.564   7.755   1.723
10323TIP3    H130912   2.486   7.720   1.679
10323TIP3    H230913   2.545   7.746   1.816
10324TIP3   OH230914   6.122   5.093   5.741
10324TIP3    H130915   6.039   5.101   5.694
10324TIP3    H230916   6.136   4.999   5.749
10325TIP3   OH230917   8.158   0.772   6.739
10325TIP3    H130918   8.073   0.739   6.708
10325TIP3    H230919   8.222   0.709   6.706
10326TIP3   OH230920   7.654   2.771   4.717
10326TIP3    H130921   7.590   2.842   4.725
10326TIP3    H230922   7.739   2.815   4.724
10327TIP3   OH230923   5.167   0.238   0.685
10327TIP3    H130924   5.242   0.211   0.632
10327TIP3    H230925   5.203   0.247   0.773
10328TIP3   OH230926   0.229   3.897   3.906
10328TIP3    H130927   0.222   3.946   3.824
10328TIP3    H230928   0.160   3.932   3.962
10329TIP3   OH230929   6.350   2.311   4.239
10329TIP3    H130930   6.304   2.284   4.319
10329TIP3    H230931   6.440   2.326   4.268
10330TIP3   OH230932   6.919   1.357   5.676
10330TIP3    H130933   6.965   1.440   5.691
10330TIP3    H230934   6.864   1.346   5.754
10331TIP3   OH230935   1.209   0.312   6.427
10331TIP3    H130936   1.231   0.295   6.336
10331TIP3    H230937   1.262   0.251   6.478
10332TIP3   OH230938   5.597   0.722   3.761
10332TIP3    H130939   5.650   0.800   3.744
10332TIP3    H230940   5.509   0.747   3.731
10333TIP3   OH230941   6.015   6.012   1.400
10333TIP3    H130942   5.963   6.075   1.350
10333TIP3    H230943   5.951   5.955   1.441
10334TIP3   OH230944   7.530   3.006   4.766
10334TIP3    H130945   7.564   3.090   4.797
10334TIP3    H230946   7.455   3.030   4.710
10335TIP3   OH230947   5.317   7.850   6.137
10335TIP3    H130948   5.331   7.847   6.232
10335TIP3    H230949   5.323   7.759   6.109
10336TIP3   OH230950   4.104   1.839   5.076
10336TIP3    H130951   4.072   1.797   4.996
10336TIP3    H230952   4.198   1.848   5.062
10337TIP3   OH230953   7.845   1.109   1.178
10337TIP3    H130954   7.882   1.020   1.183
10337TIP3    H230955   7.795   1.118   1.259
10338TIP3   OH230956   5.628   7.564   0.903
10338TIP3    H130957   5.654   7.590   0.815
10338TIP3    H230958   5.692   7.497   0.928
10339TIP3   OH230959   6.769   5.084   6.710
10339TIP3    H130960   6.795   4.993   6.719
10339TIP3    H230961   6.678   5.081   6.679
10340TIP3   OH230962   0.380   2.376   2.677
10340TIP3    H130963   0.362   2.470   2.682
10340TIP3    H230964   0.418   2.354   2.761
10341TIP3   OH230965   6.325   3.491   3.957
10341TIP3    H130966   6.271   3.571   3.957
10341TIP3    H230967   6.410   3.520   3.988
10342TIP3   OH230968   3.865   1.679   0.979
10342TIP3    H130969   3.780   1.713   1.004
10342TIP3    H230970   3.847   1.618   0.908
10343TIP3   OH230971   1.817   3.504   5.906
10343TIP3    H130972   1.790   3.570   5.842
10343TIP3    H230973   1.897   3.540   5.944
10344TIP3   OH230974   3.021   1.076   1.752
10344TIP3    H130975   3.078   1.122   1.814
10344TIP3    H230976   3.001   0.993   1.795
10345TIP3   OH230977   3.031   2.481   4.193
10345TIP3    H130978   2.943   2.517   4.200
10345TIP3    H230979   3.090   2.553   4.215
10346TIP3   OH230980   5.439   3.907   2.701
10346TIP3    H130981   5.440   3.929   2.794
10346TIP3    H230982   5.398   3.982   2.659
10347TIP3   OH230983   3.499   3.498   3.130
10347TIP3    H130984   3.561   3.440   3.086
10347TIP3    H230985   3.448   3.441   3.187
10348TIP3   OH230986   0.510   5.732   0.692
10348TIP3    H130987   0.573   5.663   0.673
10348TIP3    H230988   0.561   5.800   0.735
10349TIP3   OH230989   3.049   3.494   2.776
10349TIP3    H130990   3.083   3.419   2.729
10349TIP3    H230991   3.124   3.530   2.823
10350TIP3   OH230992   1.204   6.644   3.238
10350TIP3    H130993   1.128   6.589   3.219
10350TIP3    H230994   1.268   6.584   3.275
10351TIP3   OH230995   3.501   0.584   3.443
10351TIP3    H130996   3.438   0.531   3.394
10351TIP3    H230997   3.503   0.668   3.396
10352TIP3   OH230998   4.879   6.079   5.271
10352TIP3    H130999   4.820   6.022   5.221
10352TIP3    H231000   4.821   6.143   5.312
10353TIP3   OH231001   2.662   4.957   6.353
10353TIP3    H131002   2.587   4.899   6.338
10353TIP3    H231003   2.624   5.045   6.357
10354TIP3   OH231004   1.251   3.816   4.600
10354TIP3    H131005   1.346   3.810   4.592
10354TIP3    H231006   1.223   3.861   4.521
10355TIP3   OH231007   7.510   2.125   5.153
10355TIP3    H131008   7.593   2.147   5.111
10355TIP3    H231009   7.520   2.154   5.244
10356TIP3   OH231010   8.240   5.159   1.922
10356TIP3    H131011   8.296   5.082   1.923
10356TIP3    H231012   8.294   5.229   1.958
10357TIP3   OH231013   1.657   0.873   5.961
10357TIP3    H131014   1.745   0.854   5.930
10357TIP3    H231015   1.655   0.968   5.971
10358TIP3   OH231016   3.942   0.549   4.505
10358TIP3    H131017   3.900   0.508   4.430
10358TIP3    H231018   3.891   0.629   4.520
10359TIP3   OH231019   7.135   0.022   5.604
10359TIP3    H131020   7.048   0.059   5.585
10359TIP3    H231021   7.119  -0.071   5.614
10360TIP3   OH231022   6.138   1.092   3.168
10360TIP3    H131023   6.176   1.129   3.248
10360TIP3    H231024   6.208   1.037   3.132
10361TIP3   OH231025   1.679   4.888   4.421
10361TIP3    H131026   1.617   4.957   4.444
10361TIP3    H231027   1.757   4.908   4.472
10362TIP3   OH231028   8.186   4.651   2.087
10362TIP3    H131029   8.197   4.563   2.124
10362TIP3    H231030   8.091   4.663   2.082
10363TIP3   OH231031   5.883   3.347   5.384
10363TIP3    H131032   5.940   3.376   5.313
10363TIP3    H231033   5.838   3.426   5.413
10364TIP3   OH231034   7.789   4.423   2.864
10364TIP3    H131035   7.780   4.407   2.958
10364TIP3    H231036   7.704   4.398   2.827
10365TIP3   OH231037   8.223   3.839   6.236
10365TIP3    H131038   8.211   3.771   6.303
10365TIP3    H231039   8.242   3.918   6.285
10366TIP3   OH231040   0.863   7.295   5.700
10366TIP3    H131041   0.921   7.309   5.775
10366TIP3    H231042   0.872   7.202   5.680
10367TIP3   OH231043   4.962   7.620   3.909
10367TIP3    H131044   4.878   7.664   3.898
10367TIP3    H231045   5.012   7.645   3.832
10368TIP3   OH231046   6.876   5.062   1.243
10368TIP3    H131047   6.911   5.080   1.330
10368TIP3    H231048   6.918   5.125   1.186
10369TIP3   OH231049   4.452   0.224   1.214
10369TIP3    H131050   4.441   0.129   1.206
10369TIP3    H231051   4.537   0.234   1.257
10370TIP3   OH231052   1.125   4.837   3.075
10370TIP3    H131053   1.134   4.762   3.016
10370TIP3    H231054   1.101   4.910   3.019
10371TIP3   OH231055   6.463   6.951   5.986
10371TIP3    H131056   6.464   6.921   5.895
10371TIP3    H231057   6.549   6.991   5.999
10372TIP3   OH231058   6.016   7.531   0.590
10372TIP3    H131059   6.071   7.565   0.519
10372TIP3    H231060   6.064   7.554   0.670
10373TIP3   OH231061   3.302   5.907   0.159
10373TIP3    H131062   3.339   5.852   0.090
10373TIP3    H231063   3.279   5.845   0.229
10374TIP3   OH231064   0.651   5.172   2.240
10374TIP3    H131065   0.602   5.243   2.199
10374TIP3    H231066   0.596   5.094   2.225
10375TIP3   OH231067   0.568   3.240   4.788
10375TIP3    H131068   0.616   3.188   4.724
10375TIP3    H231069   0.480   3.201   4.789
10376TIP3   OH231070   7.068   2.677   3.383
10376TIP3    H131071   7.014   2.740   3.335
10376TIP3    H231072   7.047   2.693   3.475
10377TIP3   OH231073   3.853   0.982   4.728
10377TIP3    H131074   3.898   1.066   4.736
10377TIP3    H231075   3.761   1.002   4.747
10378TIP3   OH231076   5.415   0.295   1.974
10378TIP3    H131077   5.482   0.364   1.975
10378TIP3    H231078   5.416   0.261   2.063
10379TIP3   OH231079   4.376   6.360   1.674
10379TIP3    H131080   4.315   6.334   1.605
10379TIP3    H231081   4.461   6.328   1.644
10380TIP3   OH231082   0.233   0.966   0.855
10380TIP3    H131083   0.328   0.957   0.858
10380TIP3    H231084   0.205   0.910   0.783
10381TIP3   OH231085   4.956   1.457   6.276
10381TIP3    H131086   5.037   1.488   6.236
10381TIP3    H231087   4.907   1.419   6.202
10382TIP3   OH231088   4.244   4.964   4.219
10382TIP3    H131089   4.321   4.907   4.218
10382TIP3    H231090   4.202   4.945   4.302
10383TIP3   OH231091   5.444   4.365   4.081
10383TIP3    H131092   5.438   4.460   4.076
10383TIP3    H231093   5.534   4.348   4.111
10384TIP3   OH231094   5.578   5.114   2.488
10384TIP3    H131095   5.659   5.106   2.437
10384TIP3    H231096   5.536   5.193   2.454
10385TIP3   OH231097   4.334   6.090   3.272
10385TIP3    H131098   4.419   6.101   3.315
10385TIP3    H231099   4.327   6.165   3.214
10386TIP3   OH231100   3.103   3.501   0.523
10386TIP3    H131101   3.080   3.506   0.430
10386TIP3    H231102   3.175   3.563   0.533
10387TIP3   OH231103   2.958   6.866   1.105
10387TIP3    H131104   2.984   6.924   1.033
10387TIP3    H231105   2.936   6.784   1.062
10388TIP3   OH231106   2.818   2.383   1.754
10388TIP3    H131107   2.908   2.352   1.765
10388TIP3    H231108   2.788   2.343   1.673
10389TIP3   OH231109   2.618   7.465   2.711
10389TIP3    H131110   2.555   7.498   2.648
10389TIP3    H231111   2.638   7.376   2.680
10390TIP3   OH231112   6.995   0.272   3.499
10390TIP3    H131113   6.997   0.192   3.447
10390TIP3    H231114   7.033   0.339   3.442
10391TIP3   OH231115   7.472   4.123   0.562
10391TIP3    H131116   7.528   4.103   0.486
10391TIP3    H231117   7.526   4.180   0.616
10392TIP3   OH231118   6.533   2.359   1.553
10392TIP3    H131119   6.570   2.280   1.594
10392TIP3    H231120   6.515   2.332   1.463
10393TIP3   OH231121   5.013   6.364   3.445
10393TIP3    H131122   4.995   6.390   3.535
10393TIP3    H231123   5.047   6.274   3.452
10394TIP3   OH231124   1.513   2.748   0.230
10394TIP3    H131125   1.543   2.707   0.311
10394TIP3    H231126   1.421   2.722   0.223
10395TIP3   OH231127   6.027   6.932   3.274
10395TIP3    H131128   6.105   6.878   3.270
10395TIP3    H231129   6.031   6.986   3.195
10396TIP3   OH231130   4.873   1.899   2.407
10396TIP3    H131131   4.835   1.882   2.321
10396TIP3    H231132   4.963   1.868   2.401
10397TIP3   OH231133   0.957   3.732   2.823
10397TIP3    H131134   0.975   3.714   2.915
10397TIP3    H231135   0.992   3.820   2.809
10398TIP3   OH231136   1.732   5.242   1.751
10398TIP3    H131137   1.782   5.160   1.751
10398TIP3    H231138   1.703   5.253   1.661
10399TIP3   OH231139   6.661   2.568   0.311
10399TIP3    H131140   6.609   2.496   0.274
10399TIP3    H231141   6.599   2.640   0.323
10400TIP3   OH231142   3.776   4.594   3.072
10400TIP3    H131143   3.865   4.616   3.098
10400TIP3    H231144   3.771   4.498   3.080
10401TIP3   OH231145   4.078   1.775   5.969
10401TIP3    H131146   4.098   1.794   6.061
10401TIP3    H231147   3.987   1.746   5.970
10402TIP3   OH231148   2.765   6.723   2.789
10402TIP3    H131149   2.809   6.738   2.873
10402TIP3    H231150   2.747   6.810   2.755
10403TIP3   OH231151   1.809   0.079   5.815
10403TIP3    H131152   1.786   0.085   5.722
10403TIP3    H231153   1.816   0.170   5.843
10404TIP3   OH231154   4.253   4.932   6.360
10404TIP3    H131155   4.284   4.855   6.313
10404TIP3    H231156   4.309   4.936   6.438
10405TIP3   OH231157   4.164   5.575   3.152
10405TIP3    H131158   4.170   5.662   3.192
10405TIP3    H231159   4.124   5.520   3.219
10406TIP3   OH231160   4.803   5.245   0.233
10406TIP3    H131161   4.892   5.280   0.231
10406TIP3    H231162   4.747   5.322   0.241
10407TIP3   OH231163   2.021   6.498   0.240
10407TIP3    H131164   2.091   6.496   0.305
10407TIP3    H231165   2.066   6.508   0.156
10408TIP3   OH231166   4.038   7.581   3.013
10408TIP3    H131167   4.063   7.653   2.955
10408TIP3    H231168   4.022   7.623   3.097
10409TIP3   OH231169   7.124   1.043   1.054
10409TIP3    H131170   7.103   0.951   1.040
10409TIP3    H231171   7.191   1.062   0.989
10410TIP3   OH231172   7.460   0.204   3.045
10410TIP3    H131173   7.367   0.221   3.029
10410TIP3    H231174   7.469   0.109   3.036
10411TIP3   OH231175   6.718   3.555   6.532
10411TIP3    H131176   6.704   3.582   6.441
10411TIP3    H231177   6.739   3.637   6.577
10412TIP3   OH231178   2.077   6.130   3.822
10412TIP3    H131179   2.067   6.139   3.728
10412TIP3    H231180   2.006   6.071   3.848
10413TIP3   OH231181   5.719   6.440   5.581
10413TIP3    H131182   5.750   6.470   5.495
10413TIP3    H231183   5.624   6.439   5.573
10414TIP3   OH231184   3.423   0.531   1.483
10414TIP3    H131185   3.391   0.600   1.541
10414TIP3    H231186   3.349   0.471   1.475
10415TIP3   OH231187   3.357   6.314   4.928
10415TIP3    H131188   3.345   6.371   5.004
10415TIP3    H231189   3.381   6.373   4.857
10416TIP3   OH231190   4.139   3.552   0.200
10416TIP3    H131191   4.105   3.547   0.289
10416TIP3    H231192   4.202   3.480   0.194
10417TIP3   OH231193   2.859   0.331   1.417
10417TIP3    H131194   2.907   0.407   1.384
10417TIP3    H231195   2.882   0.326   1.510
10418TIP3   OH231196   2.695   0.033   0.310
10418TIP3    H131197   2.672  -0.044   0.362
10418TIP3    H231198   2.716   0.101   0.374
10419TIP3   OH231199   1.129   5.665   1.518
10419TIP3    H131200   1.093   5.707   1.440
10419TIP3    H231201   1.107   5.572   1.508
10420TIP3   OH231202   6.198   4.602   0.259
10420TIP3    H131203   6.159   4.607   0.346
10420TIP3    H231204   6.283   4.645   0.267
10421TIP3   OH231205   2.017   7.111   6.570
10421TIP3    H131206   2.032   7.106   6.665
10421TIP3    H231207   1.931   7.153   6.562
10422TIP3   OH231208   1.361   6.982   4.403
10422TIP3    H131209   1.361   7.005   4.496
10422TIP3    H231210   1.294   7.039   4.364
10423TIP3   OH231211   4.003   5.052   6.455
10423TIP3    H131212   4.008   5.136   6.411
10423TIP3    H231213   4.079   5.003   6.423
10424TIP3   OH231214   4.634   0.747   2.174
10424TIP3    H131215   4.620   0.721   2.083
10424TIP3    H231216   4.684   0.828   2.169
10425TIP3   OH231217   7.872   6.749   4.149
10425TIP3    H131218   7.940   6.810   4.122
10425TIP3    H231219   7.878   6.746   4.244
10426TIP3   OH231220   6.048   2.068   1.987
10426TIP3    H131221   6.132   2.115   1.984
10426TIP3    H231222   5.994   2.120   2.047
10427TIP3   OH231223   0.655   1.894   1.698
10427TIP3    H131224   0.604   1.953   1.754
10427TIP3    H231225   0.744   1.929   1.703
10428TIP3   OH231226   6.942   2.625   1.782
10428TIP3    H131227   6.897   2.701   1.746
10428TIP3    H231228   6.889   2.550   1.754
10429TIP3   OH231229   1.825   4.585   2.791
10429TIP3    H131230   1.842   4.499   2.829
10429TIP3    H231231   1.749   4.618   2.839
10430TIP3   OH231232   2.316   4.384   1.789
10430TIP3    H131233   2.380   4.452   1.809
10430TIP3    H231234   2.268   4.417   1.713
10431TIP3   OH231235   7.924   0.920   6.343
10431TIP3    H131236   7.961   0.992   6.293
10431TIP3    H231237   8.000   0.868   6.369
10432TIP3   OH231238   1.511   3.475   2.884
10432TIP3    H131239   1.503   3.421   2.962
10432TIP3    H231240   1.505   3.565   2.916
10433TIP3   OH231241   6.315   3.991   6.094
10433TIP3    H131242   6.251   3.930   6.057
10433TIP3    H231243   6.263   4.047   6.151
10434TIP3   OH231244   2.189   4.567   2.239
10434TIP3    H131245   2.266   4.594   2.188
10434TIP3    H231246   2.142   4.508   2.181
10435TIP3   OH231247   4.772   6.024   2.762
10435TIP3    H131248   4.841   6.039   2.827
10435TIP3    H231249   4.704   5.977   2.810
10436TIP3   OH231250   7.386   1.867   0.255
10436TIP3    H131251   7.471   1.823   0.263
10436TIP3    H231252   7.324   1.797   0.235
10437TIP3   OH231253   7.958   3.791   6.138
10437TIP3    H131254   8.051   3.784   6.157
10437TIP3    H231255   7.953   3.789   6.042
10438TIP3   OH231256   4.495   0.951   4.090
10438TIP3    H131257   4.468   0.936   4.180
10438TIP3    H231258   4.547   1.031   4.093
10439TIP3   OH231259   1.011   7.076   2.267
10439TIP3    H131260   0.965   7.062   2.350
10439TIP3    H231261   1.037   7.168   2.269
10440TIP3   OH231262   4.394   7.052   3.056
10440TIP3    H131263   4.406   7.102   2.975
10440TIP3    H231264   4.462   7.085   3.114
10441TIP3   OH231265   1.313   3.099   0.840
10441TIP3    H131266   1.253   3.091   0.765
10441TIP3    H231267   1.344   3.009   0.855
10442TIP3   OH231268   6.259   3.930   5.623
10442TIP3    H131269   6.227   3.999   5.681
10442TIP3    H231270   6.189   3.918   5.558
10443TIP3   OH231271   1.201   2.570   5.921
10443TIP3    H131272   1.178   2.650   5.873
10443TIP3    H231273   1.254   2.520   5.859
10444TIP3   OH231274   0.539   4.028   0.556
10444TIP3    H131275   0.554   4.033   0.462
10444TIP3    H231276   0.543   4.119   0.586
10445TIP3   OH231277   7.191   2.156   3.417
10445TIP3    H131278   7.113   2.136   3.365
10445TIP3    H231279   7.234   2.227   3.369
10446TIP3   OH231280   6.241   3.140   6.634
10446TIP3    H131281   6.181   3.068   6.652
10446TIP3    H231282   6.303   3.105   6.570
10447TIP3   OH231283   7.959   0.804   3.982
10447TIP3    H131284   7.909   0.757   4.048
10447TIP3    H231285   7.951   0.896   4.007
10448TIP3   OH231286   6.007   7.472   0.894
10448TIP3    H131287   5.925   7.430   0.920
10448TIP3    H231288   5.995   7.564   0.919
10449TIP3   OH231289   2.598   7.148   3.005
10449TIP3    H131290   2.605   7.179   3.095
10449TIP3    H231291   2.640   7.062   3.005
10450TIP3   OH231292   7.339   0.734   4.333
10450TIP3    H131293   7.389   0.777   4.402
10450TIP3    H231294   7.266   0.692   4.379
10451TIP3   OH231295   8.024   4.740   1.554
10451TIP3    H131296   8.093   4.685   1.516
10451TIP3    H231297   7.989   4.788   1.479
10452TIP3   OH231298   3.299   4.499   2.176
10452TIP3    H131299   3.353   4.420   2.178
10452TIP3    H231300   3.217   4.471   2.136
10453TIP3   OH231301   5.571   4.383   5.149
10453TIP3    H131302   5.563   4.414   5.059
10453TIP3    H231303   5.503   4.431   5.197
10454TIP3   OH231304   6.665   1.009   0.094
10454TIP3    H131305   6.690   0.993   0.185
10454TIP3    H231306   6.729   1.073   0.063
10455TIP3   OH231307   5.590   4.379   0.918
10455TIP3    H131308   5.541   4.297   0.923
10455TIP3    H231309   5.540   4.440   0.972
10456TIP3   OH231310   7.622   3.562   3.071
10456TIP3    H131311   7.563   3.493   3.100
10456TIP3    H231312   7.698   3.556   3.129
10457TIP3   OH231313   7.913   4.100   5.638
10457TIP3    H131314   7.961   4.124   5.717
10457TIP3    H231315   7.977   4.106   5.567
10458TIP3   OH231316   3.228   7.483   6.087
10458TIP3    H131317   3.274   7.566   6.073
10458TIP3    H231318   3.268   7.446   6.166
10459TIP3   OH231319   2.678   5.968   0.147
10459TIP3    H131320   2.654   5.960   0.054
10459TIP3    H231321   2.765   6.007   0.146
10460TIP3   OH231322   2.766   0.196   2.030
10460TIP3    H131323   2.690   0.180   2.086
10460TIP3    H231324   2.764   0.125   1.965
10461TIP3   OH231325   3.413   2.295   0.943
10461TIP3    H131326   3.345   2.251   0.994
10461TIP3    H231327   3.373   2.308   0.856
10462TIP3   OH231328   4.276   2.289   5.002
10462TIP3    H131329   4.241   2.315   4.917
10462TIP3    H231330   4.215   2.327   5.065
10463TIP3   OH231331   1.947   6.025   4.979
10463TIP3    H131332   1.921   5.977   4.901
10463TIP3    H231333   1.920   5.968   5.052
10464TIP3   OH231334   7.052   2.182   2.303
10464TIP3    H131335   7.100   2.220   2.229
10464TIP3    H231336   7.110   2.193   2.378
10465TIP3   OH231337   4.570   6.303   4.316
10465TIP3    H131338   4.477   6.284   4.308
10465TIP3    H231339   4.614   6.228   4.277
10466TIP3   OH231340   4.832   1.657   1.097
10466TIP3    H131341   4.836   1.749   1.125
10466TIP3    H231342   4.803   1.610   1.175
10467TIP3   OH231343   0.841   5.794   2.857
10467TIP3    H131344   0.844   5.889   2.852
10467TIP3    H231345   0.876   5.764   2.774
10468TIP3   OH231346   3.588   0.852   3.705
10468TIP3    H131347   3.608   0.758   3.709
10468TIP3    H231348   3.648   0.892   3.768
10469TIP3   OH231349   1.830   4.006   4.939
10469TIP3    H131350   1.827   3.912   4.921
10469TIP3    H231351   1.923   4.027   4.939
10470TIP3   OH231352   5.945   4.313   0.872
10470TIP3    H131353   5.914   4.297   0.783
10470TIP3    H231354   5.904   4.396   0.896
10471TIP3   OH231355   0.136   1.415   6.034
10471TIP3    H131356   0.193   1.358   6.085
10471TIP3    H231357   0.177   1.501   6.040
10472TIP3   OH231358   7.762   0.475   0.525
10472TIP3    H131359   7.745   0.385   0.554
10472TIP3    H231360   7.857   0.484   0.530
10473TIP3   OH231361   0.865   5.171   2.744
10473TIP3    H131362   0.930   5.215   2.689
10473TIP3    H231363   0.782   5.189   2.701
10474TIP3   OH231364   4.547   1.253   1.256
10474TIP3    H131365   4.522   1.258   1.164
10474TIP3    H231366   4.633   1.212   1.256
10475TIP3   OH231367   4.069   1.058   3.028
10475TIP3    H131368   4.152   1.036   2.986
10475TIP3    H231369   4.051   1.148   2.999
10476TIP3   OH231370   5.311   0.336   5.132
10476TIP3    H131371   5.291   0.267   5.069
10476TIP3    H231372   5.297   0.418   5.083
10477TIP3   OH231373   6.239   4.946   3.446
10477TIP3    H131374   6.201   5.019   3.398
10477TIP3    H231375   6.168   4.883   3.454
10478TIP3   OH231376   8.191   5.427   4.411
10478TIP3    H131377   8.114   5.371   4.405
10478TIP3    H231378   8.159   5.506   4.457
10479TIP3   OH231379   1.516   5.839   5.552
10479TIP3    H131380   1.473   5.923   5.568
10479TIP3    H231381   1.575   5.828   5.626
10480TIP3   OH231382   7.393   1.936   6.620
10480TIP3    H131383   7.426   1.888   6.543
10480TIP3    H231384   7.431   1.889   6.694
10481TIP3   OH231385   0.397   0.376   0.681
10481TIP3    H131386   0.377   0.299   0.628
10481TIP3    H231387   0.487   0.398   0.658
10482TIP3   OH231388   1.893   1.703   5.601
10482TIP3    H131389   1.879   1.776   5.660
10482TIP3    H231390   1.987   1.702   5.584
10483TIP3   OH231391   0.394   5.846   5.945
10483TIP3    H131392   0.486   5.839   5.972
10483TIP3    H231393   0.385   5.936   5.915
10484TIP3   OH231394   7.787   0.883   3.649
10484TIP3    H131395   7.839   0.955   3.614
10484TIP3    H231396   7.851   0.823   3.686
10485TIP3   OH231397   0.420   1.688   6.079
10485TIP3    H131398   0.396   1.709   5.988
10485TIP3    H231399   0.465   1.604   6.072
10486TIP3   OH231400   0.400   3.544   1.516
10486TIP3    H131401   0.370   3.472   1.573
10486TIP3    H231402   0.473   3.507   1.467
10487TIP3   OH231403   7.188   4.501   4.824
10487TIP3    H131404   7.142   4.532   4.902
10487TIP3    H231405   7.198   4.407   4.837
10488TIP3   OH231406   3.855   6.818   5.137
10488TIP3    H131407   3.876   6.869   5.059
10488TIP3    H231408   3.940   6.782   5.165
10489TIP3   OH231409   3.084   6.979   6.749
10489TIP3    H131410   3.142   6.967   6.674
10489TIP3    H231411   3.128   7.043   6.805
10490TIP3   OH231412   0.417   0.749   3.799
10490TIP3    H131413   0.456   0.833   3.823
10490TIP3    H231414   0.338   0.772   3.750
10491TIP3   OH231415   6.770   6.358   0.706
10491TIP3    H131416   6.681   6.344   0.739
10491TIP3    H231417   6.815   6.275   0.722
10492TIP3   OH231418   2.683   0.592   1.308
10492TIP3    H131419   2.669   0.502   1.279
10492TIP3    H231420   2.595   0.631   1.310
10493TIP3   OH231421   2.093   6.565   3.251
10493TIP3    H131422   2.001   6.582   3.231
10493TIP3    H231423   2.116   6.490   3.196
10494TIP3   OH231424   1.886   6.180   4.216
10494TIP3    H131425   1.815   6.210   4.272
10494TIP3    H231426   1.908   6.256   4.162
10495TIP3   OH231427   4.441   0.462   0.126
10495TIP3    H131428   4.520   0.488   0.079
10495TIP3    H231429   4.402   0.545   0.155
10496TIP3   OH231430   3.011   3.575   3.634
10496TIP3    H131431   2.993   3.529   3.716
10496TIP3    H231432   3.077   3.521   3.590
10497TIP3   OH231433   4.641   4.651   1.894
10497TIP3    H131434   4.656   4.566   1.936
10497TIP3    H231435   4.612   4.709   1.965
10498TIP3   OH231436   1.190   2.136   5.621
10498TIP3    H131437   1.249   2.182   5.561
10498TIP3    H231438   1.180   2.049   5.582
10499TIP3   OH231439   2.794   0.221   1.669
10499TIP3    H131440   2.759   0.141   1.709
10499TIP3    H231441   2.719   0.281   1.668
10500TIP3   OH231442   7.464   0.459   1.607
10500TIP3    H131443   7.550   0.451   1.649
10500TIP3    H231444   7.414   0.384   1.640
10501TIP3   OH231445   6.454   4.758   0.251
10501TIP3    H131446   6.476   4.789   0.163
10501TIP3    H231447   6.389   4.821   0.283
10502TIP3   OH231448   2.963   2.622   6.286
10502TIP3    H131449   2.874   2.637   6.317
10502TIP3    H231450   2.987   2.537   6.324
10503TIP3   OH231451   8.221   3.311   3.816
10503TIP3    H131452   8.268   3.235   3.851
10503TIP3    H231453   8.290   3.370   3.786
10504TIP3   OH231454   5.841   6.975   6.720
10504TIP3    H131455   5.839   6.974   6.816
10504TIP3    H231456   5.917   6.922   6.697
10505TIP3   OH231457   8.167   1.733   2.675
10505TIP3    H131458   8.112   1.793   2.725
10505TIP3    H231459   8.199   1.670   2.739
10506TIP3   OH231460   6.517   0.608   6.684
10506TIP3    H131461   6.483   0.619   6.772
10506TIP3    H231462   6.607   0.578   6.697
10507TIP3   OH231463   7.642   3.855   2.035
10507TIP3    H131464   7.581   3.840   2.108
10507TIP3    H231465   7.648   3.770   1.992
10508TIP3   OH231466   4.414   1.516   0.500
10508TIP3    H131467   4.369   1.452   0.445
10508TIP3    H231468   4.507   1.504   0.479
10509TIP3   OH231469   0.511   2.383   3.323
10509TIP3    H131470   0.427   2.345   3.298
10509TIP3    H231471   0.501   2.477   3.308
10510TIP3   OH231472   3.242   5.232   5.372
10510TIP3    H131473   3.202   5.319   5.379
10510TIP3    H231474   3.299   5.239   5.295
10511TIP3   OH231475   4.744   4.959   4.696
10511TIP3    H131476   4.763   4.868   4.674
10511TIP3    H231477   4.755   5.007   4.614
10512TIP3   OH231478   3.039   6.482   5.259
10512TIP3    H131479   2.967   6.470   5.321
10512TIP3    H231480   3.089   6.555   5.295
10513TIP3   OH231481   4.602   1.874   4.987
10513TIP3    H131482   4.590   1.883   4.893
10513TIP3    H231483   4.694   1.896   5.001
10514TIP3   OH231484   1.870   2.891   2.274
10514TIP3    H131485   1.929   2.877   2.200
10514TIP3    H231486   1.926   2.927   2.343
10515TIP3   OH231487   6.964   4.136   1.367
10515TIP3    H131488   7.031   4.069   1.386
10515TIP3    H231489   6.977   4.202   1.435
10516TIP3   OH231490   0.452   0.392   3.138
10516TIP3    H131491   0.542   0.423   3.144
10516TIP3    H231492   0.400   0.462   3.177
10517TIP3   OH231493   1.697   1.344   2.289
10517TIP3    H131494   1.633   1.412   2.268
10517TIP3    H231495   1.670   1.311   2.375
10518TIP3   OH231496   0.689   4.142   3.852
10518TIP3    H131497   0.635   4.119   3.776
10518TIP3    H231498   0.639   4.111   3.927
10519TIP3   OH231499   7.577   0.660   0.418
10519TIP3    H131500   7.643   0.596   0.443
10519TIP3    H231501   7.626   0.741   0.403
10520TIP3   OH231502   3.524   2.827   0.936
10520TIP3    H131503   3.601   2.872   0.902
10520TIP3    H231504   3.532   2.835   1.031
10521TIP3   OH231505   3.339   3.480   0.825
10521TIP3    H131506   3.338   3.544   0.754
10521TIP3    H231507   3.358   3.531   0.904
10522TIP3   OH231508   5.816   5.194   0.018
10522TIP3    H131509   5.760   5.188   0.095
10522TIP3    H231510   5.756   5.183  -0.056
10523TIP3   OH231511   0.304   6.022   5.263
10523TIP3    H131512   0.389   6.033   5.220
10523TIP3    H231513   0.282   6.109   5.296
10524TIP3   OH231514   1.027   3.837  -0.009
10524TIP3    H131515   1.019   3.745   0.014
10524TIP3    H231516   1.038   3.882   0.075
10525TIP3   OH231517   1.370   0.501   1.492
10525TIP3    H131518   1.358   0.423   1.546
10525TIP3    H231519   1.341   0.573   1.548
10526TIP3   OH231520   2.443   2.771   2.939
10526TIP3    H131521   2.416   2.810   2.855
10526TIP3    H231522   2.527   2.813   2.958
10527TIP3   OH231523   0.380   0.793   4.091
10527TIP3    H131524   0.364   0.804   3.998
10527TIP3    H231525   0.400   0.699   4.101
10528TIP3   OH231526   4.785   3.941   4.480
10528TIP3    H131527   4.757   3.986   4.560
10528TIP3    H231528   4.781   4.008   4.412
10529TIP3   OH231529   7.495   3.323   5.255
10529TIP3    H131530   7.579   3.316   5.300
10529TIP3    H231531   7.474   3.233   5.228
10530TIP3   OH231532   3.771   1.390   3.633
10530TIP3    H131533   3.681   1.383   3.602
10530TIP3    H231534   3.792   1.302   3.665
10531TIP3   OH231535   0.838   1.375   4.979
10531TIP3    H131536   0.928   1.374   5.013
10531TIP3    H231537   0.846   1.408   4.890
10532TIP3   OH231538   1.454   4.787   0.281
10532TIP3    H131539   1.530   4.773   0.224
10532TIP3    H231540   1.425   4.876   0.262
10533TIP3   OH231541   1.151   1.653   5.355
10533TIP3    H131542   1.191   1.695   5.279
10533TIP3    H231543   1.123   1.567   5.324
10534TIP3   OH231544   2.740   2.153   2.048
10534TIP3    H131545   2.817   2.146   2.104
10534TIP3    H231546   2.698   2.235   2.075
10535TIP3   OH231547   3.333   5.649   5.415
10535TIP3    H131548   3.409   5.618   5.463
10535TIP3    H231549   3.366   5.721   5.361
10536TIP3   OH231550   1.835   3.186   3.562
10536TIP3    H131551   1.807   3.103   3.523
10536TIP3    H231552   1.753   3.233   3.577
10537TIP3   OH231553   7.270   5.844   5.490
10537TIP3    H131554   7.295   5.763   5.535
10537TIP3    H231555   7.255   5.907   5.560
10538TIP3   OH231556   1.056   0.610   0.476
10538TIP3    H131557   1.147   0.609   0.444
10538TIP3    H231558   1.022   0.695   0.449
10539TIP3   OH231559   4.589   6.193   5.892
10539TIP3    H131560   4.600   6.268   5.950
10539TIP3    H231561   4.673   6.184   5.848
10540TIP3   OH231562   0.826   6.448   3.144
10540TIP3    H131563   0.854   6.535   3.114
10540TIP3    H231564   0.896   6.420   3.203
10541TIP3   OH231565   6.282   2.771   1.744
10541TIP3    H131566   6.363   2.740   1.703
10541TIP3    H231567   6.311   2.809   1.827
10542TIP3   OH231568   0.091   5.449   1.320
10542TIP3    H131569   0.000   5.458   1.291
10542TIP3    H231570   0.142   5.495   1.253
10543TIP3   OH231571   5.343   3.375   2.645
10543TIP3    H131572   5.305   3.353   2.560
10543TIP3    H231573   5.332   3.470   2.652
10544TIP3   OH231574   0.233   7.783   2.911
10544TIP3    H131575   0.240   7.870   2.871
10544TIP3    H231576   0.152   7.787   2.962
10545TIP3   OH231577   1.714   5.348   0.894
10545TIP3    H131578   1.634   5.397   0.876
10545TIP3    H231579   1.726   5.354   0.988
10546TIP3   OH231580   7.287   0.685   1.764
10546TIP3    H131581   7.246   0.611   1.719
10546TIP3    H231582   7.219   0.753   1.763
10547TIP3   OH231583   4.848   7.667   1.500
10547TIP3    H131584   4.897   7.587   1.521
10547TIP3    H231585   4.878   7.692   1.413
10548TIP3   OH231586   6.187   0.781   4.882
10548TIP3    H131587   6.211   0.812   4.970
10548TIP3    H231588   6.270   0.780   4.834
10549TIP3   OH231589   0.763   7.458   4.790
10549TIP3    H131590   0.720   7.528   4.742
10549TIP3    H231591   0.695   7.393   4.804
10550TIP3   OH231592   0.258   6.689   1.837
10550TIP3    H131593   0.240   6.596   1.848
10550TIP3    H231594   0.267   6.724   1.926
10551TIP3   OH231595   5.795   1.487   3.832
10551TIP3    H131596   5.747   1.466   3.752
10551TIP3    H231597   5.780   1.581   3.845
10552TIP3   OH231598   2.682   5.327   6.243
10552TIP3    H131599   2.668   5.414   6.282
10552TIP3    H231600   2.777   5.317   6.243
10553TIP3   OH231601   2.392   4.170   6.312
10553TIP3    H131602   2.453   4.117   6.363
10553TIP3    H231603   2.333   4.107   6.271
10554TIP3   OH231604   7.217   4.686   1.808
10554TIP3    H131605   7.134   4.640   1.814
10554TIP3    H231606   7.274   4.640   1.869
10555TIP3   OH231607   5.839   1.445   5.485
10555TIP3    H131608   5.920   1.491   5.463
10555TIP3    H231609   5.837   1.371   5.425
10556TIP3   OH231610   7.725   1.669   1.805
10556TIP3    H131611   7.646   1.699   1.759
10556TIP3    H231612   7.793   1.666   1.738
10557TIP3   OH231613   2.725   3.999   0.951
10557TIP3    H131614   2.759   4.035   0.869
10557TIP3    H231615   2.698   4.075   1.001
10558TIP3   OH231616   0.370   7.011   5.931
10558TIP3    H131617   0.448   6.993   5.984
10558TIP3    H231618   0.405   7.028   5.843
10559TIP3   OH231619   8.053   0.047   3.811
10559TIP3    H131620   7.968   0.075   3.845
10559TIP3    H231621   8.034  -0.032   3.761
10560TIP3   OH231622   0.454   4.978   6.632
10560TIP3    H131623   0.381   4.980   6.570
10560TIP3    H231624   0.467   5.069   6.657
10561TIP3   OH231625   5.247   7.303   4.423
10561TIP3    H131626   5.253   7.396   4.443
10561TIP3    H231627   5.226   7.262   4.507
10562TIP3   OH231628   3.402   4.486   6.116
10562TIP3    H131629   3.375   4.394   6.116
10562TIP3    H231630   3.326   4.532   6.152
10563TIP3   OH231631   6.385   0.282   2.201
10563TIP3    H131632   6.380   0.188   2.184
10563TIP3    H231633   6.297   0.315   2.183
10564TIP3   OH231634   6.442   4.943   5.100
10564TIP3    H131635   6.472   4.865   5.146
10564TIP3    H231636   6.357   4.963   5.140
10565TIP3   OH231637   6.953   7.591   0.635
10565TIP3    H131638   7.001   7.538   0.699
10565TIP3    H231639   7.019   7.647   0.595
10566TIP3   OH231640   5.861   6.230   2.397
10566TIP3    H131641   5.937   6.263   2.445
10566TIP3    H231642   5.897   6.174   2.329
10567TIP3   OH231643   8.234   0.257   6.107
10567TIP3    H131644   8.220   0.163   6.117
10567TIP3    H231645   8.329   0.266   6.097
10568TIP3   OH231646   0.076   5.273   0.925
10568TIP3    H131647   0.109   5.190   0.889
10568TIP3    H231648   0.057   5.252   1.016
10569TIP3   OH231649   6.126   1.740   3.333
10569TIP3    H131650   6.170   1.673   3.386
10569TIP3    H231651   6.111   1.696   3.249
10570TIP3   OH231652   8.149   5.882   3.314
10570TIP3    H131653   8.212   5.868   3.385
10570TIP3    H231654   8.114   5.970   3.331
10571TIP3   OH231655   1.656   3.186   4.573
10571TIP3    H131656   1.594   3.168   4.645
10571TIP3    H231657   1.678   3.278   4.583
10572TIP3   OH231658   8.163   5.625   2.801
10572TIP3    H131659   8.116   5.680   2.739
10572TIP3    H231660   8.151   5.668   2.885
10573TIP3   OH231661   5.206   5.534   6.465
10573TIP3    H131662   5.276   5.589   6.501
10573TIP3    H231663   5.127   5.562   6.512
10574TIP3   OH231664   2.204   6.207   5.406
10574TIP3    H131665   2.143   6.139   5.433
10574TIP3    H231666   2.236   6.245   5.488
10575TIP3   OH231667   5.126   4.655   2.458
10575TIP3    H131668   5.197   4.623   2.402
10575TIP3    H231669   5.154   4.742   2.486
10576TIP3   OH231670   7.377   5.068   4.990
10576TIP3    H131671   7.383   5.014   5.068
10576TIP3    H231672   7.444   5.135   5.001
10577TIP3   OH231673   4.554   6.388   3.234
10577TIP3    H131674   4.640   6.423   3.257
10577TIP3    H231675   4.559   6.295   3.255
10578TIP3   OH231676   0.552   0.947   0.353
10578TIP3    H131677   0.624   0.953   0.290
10578TIP3    H231678   0.526   1.038   0.368
10579TIP3   OH231679   6.713   1.001   4.168
10579TIP3    H131680   6.721   1.035   4.257
10579TIP3    H231681   6.627   1.030   4.138
10580TIP3   OH231682   1.298   1.334   4.642
10580TIP3    H131683   1.263   1.259   4.690
10580TIP3    H231684   1.229   1.356   4.579
10581TIP3   OH231685   5.772   3.614   3.451
10581TIP3    H131686   5.761   3.519   3.451
10581TIP3    H231687   5.712   3.645   3.384
10582TIP3   OH231688   6.059   4.940   2.894
10582TIP3    H131689   6.030   4.853   2.868
10582TIP3    H231690   6.125   4.924   2.962
10583TIP3   OH231691   2.472   0.166   4.605
10583TIP3    H131692   2.537   0.198   4.542
10583TIP3    H231693   2.465   0.237   4.670
10584TIP3   OH231694   7.491   3.242   3.427
10584TIP3    H131695   7.563   3.265   3.485
10584TIP3    H231696   7.423   3.208   3.485
10585TIP3   OH231697   0.614   7.463   5.819
10585TIP3    H131698   0.688   7.459   5.758
10585TIP3    H231699   0.541   7.422   5.772
10586TIP3   OH231700   4.378   0.413   1.038
10586TIP3    H131701   4.417   0.331   1.070
10586TIP3    H231702   4.372   0.468   1.115
10587TIP3   OH231703   1.990   4.016   6.205
10587TIP3    H131704   2.082   4.038   6.214
10587TIP3    H231705   1.944   4.085   6.253
10588TIP3   OH231706   1.182   3.089   1.089
10588TIP3    H131707   1.221   3.082   1.002
10588TIP3    H231708   1.128   3.168   1.085
10589TIP3   OH231709   2.051   0.996   0.590
10589TIP3    H131710   1.957   1.009   0.600
10589TIP3    H231711   2.079   1.066   0.532
10590TIP3   OH231712   7.261   7.568   1.368
10590TIP3    H131713   7.251   7.475   1.348
10590TIP3    H231714   7.179   7.608   1.340
10591TIP3   OH231715   5.226   1.447   0.043
10591TIP3    H131716   5.320   1.463   0.049
10591TIP3    H231717   5.193   1.464   0.131
10592TIP3   OH231718   6.630   3.433   1.265
10592TIP3    H131719   6.612   3.379   1.341
10592TIP3    H231720   6.697   3.495   1.294
10593TIP3   OH231721   5.798   4.896   0.522
10593TIP3    H131722   5.830   4.837   0.591
10593TIP3    H231723   5.851   4.873   0.445
10594TIP3   OH231724   6.957   7.264   4.068
10594TIP3    H131725   6.879   7.301   4.026
10594TIP3    H231726   7.020   7.336   4.068
10595TIP3   OH231727   6.668   6.451   1.183
10595TIP3    H131728   6.687   6.492   1.268
10595TIP3    H231729   6.677   6.357   1.200
10596TIP3   OH231730   6.516   1.536   0.269
10596TIP3    H131731   6.566   1.520   0.349
10596TIP3    H231732   6.463   1.457   0.258
10597TIP3   OH231733   5.461   5.054   5.194
10597TIP3    H131734   5.416   5.117   5.137
10597TIP3    H231735   5.495   4.987   5.134
10598TIP3   OH231736   0.126   0.351   2.390
10598TIP3    H131737   0.183   0.389   2.457
10598TIP3    H231738   0.064   0.298   2.440
10599TIP3   OH231739   4.799   5.827   4.492
10599TIP3    H131740   4.719   5.817   4.439
10599TIP3    H231741   4.832   5.914   4.469
10600TIP3   OH231742   6.839   3.178   5.011
10600TIP3    H131743   6.904   3.111   5.030
10600TIP3    H231744   6.871   3.221   4.932
10601TIP3   OH231745   4.604   2.602   2.617
10601TIP3    H131746   4.683   2.655   2.616
10601TIP3    H231747   4.633   2.514   2.591
10602TIP3   OH231748   1.641   1.877   4.950
10602TIP3    H131749   1.639   1.966   4.914
10602TIP3    H231750   1.559   1.837   4.919
10603TIP3   OH231751   5.776   1.908   2.054
10603TIP3    H131752   5.688   1.905   2.091
10603TIP3    H231753   5.820   1.832   2.093
10604TIP3   OH231754   5.117   5.144   0.049
10604TIP3    H131755   5.128   5.049   0.055
10604TIP3    H231756   5.054   5.156  -0.022
10605TIP3   OH231757   2.917   2.918   0.466
10605TIP3    H131758   2.934   2.900   0.559
10605TIP3    H231759   2.852   2.852   0.441
10606TIP3   OH231760   1.317   0.667   0.394
10606TIP3    H131761   1.286   0.739   0.449
10606TIP3    H231762   1.371   0.613   0.451
10607TIP3   OH231763   1.818   5.483   5.719
10607TIP3    H131764   1.733   5.526   5.732
10607TIP3    H231765   1.870   5.510   5.794
10608TIP3   OH231766   8.217   4.308   0.537
10608TIP3    H131767   8.174   4.234   0.494
10608TIP3    H231768   8.300   4.273   0.568
10609TIP3   OH231769   4.942   1.084   0.524
10609TIP3    H131770   5.017   1.026   0.511
10609TIP3    H231771   4.885   1.036   0.584
10610TIP3   OH231772   7.448   6.057   4.115
10610TIP3    H131773   7.486   6.138   4.080
10610TIP3    H231774   7.425   6.079   4.205
10611TIP3   OH231775   2.603   2.785   5.578
10611TIP3    H131776   2.593   2.788   5.483
10611TIP3    H231777   2.689   2.824   5.594
10612TIP3   OH231778   2.555   4.894   0.920
10612TIP3    H131779   2.512   4.945   0.988
10612TIP3    H231780   2.639   4.868   0.959
10613TIP3   OH231781   5.244   5.885   2.556
10613TIP3    H131782   5.317   5.917   2.503
10613TIP3    H231783   5.185   5.959   2.563
10614TIP3   OH231784   8.152   0.067   2.273
10614TIP3    H131785   8.107   0.149   2.252
10614TIP3    H231786   8.105   0.032   2.348
10615TIP3   OH231787   7.817   7.458   4.763
10615TIP3    H131788   7.889   7.427   4.707
10615TIP3    H231789   7.745   7.398   4.744
10616TIP3   OH231790   6.320   3.879   6.408
10616TIP3    H131791   6.330   3.974   6.415
10616TIP3    H231792   6.290   3.852   6.495
10617TIP3   OH231793   4.342   1.461   5.076
10617TIP3    H131794   4.330   1.553   5.052
10617TIP3    H231795   4.292   1.412   5.010
10618TIP3   OH231796   0.989   6.616   3.586
10618TIP3    H131797   1.030   6.584   3.666
10618TIP3    H231798   0.948   6.699   3.612
10619TIP3   OH231799   1.061   0.063   4.511
10619TIP3    H131800   0.995   0.100   4.569
10619TIP3    H231801   1.052   0.111   4.429
10620TIP3   OH231802   2.582   5.427   1.720
10620TIP3    H131803   2.628   5.463   1.644
10620TIP3    H231804   2.511   5.376   1.683
10621TIP3   OH231805   2.199   2.983   4.595
10621TIP3    H131806   2.186   3.074   4.621
10621TIP3    H231807   2.131   2.967   4.529
10622TIP3   OH231808   1.565   5.761   3.077
10622TIP3    H131809   1.544   5.826   3.144
10622TIP3    H231810   1.660   5.766   3.068
10623TIP3   OH231811   6.731   1.650   1.983
10623TIP3    H131812   6.743   1.636   1.889
10623TIP3    H231813   6.645   1.611   2.002
10624TIP3   OH231814   7.774   6.672   5.351
10624TIP3    H131815   7.749   6.761   5.377
10624TIP3    H231816   7.732   6.661   5.265
10625TIP3   OH231817   1.068   4.585   5.948
10625TIP3    H131818   1.056   4.660   6.007
10625TIP3    H231819   1.161   4.562   5.958
10626TIP3   OH231820   7.156   2.652   5.160
10626TIP3    H131821   7.094   2.606   5.216
10626TIP3    H231822   7.226   2.681   5.218
10627TIP3   OH231823   0.066   6.670   5.099
10627TIP3    H131824   0.050   6.715   5.182
10627TIP3    H231825   0.046   6.735   5.032
10628TIP3   OH231826   4.613   7.557   4.191
10628TIP3    H131827   4.700   7.516   4.186
10628TIP3    H231828   4.612   7.599   4.276
10629TIP3   OH231829   2.079   7.460   0.841
10629TIP3    H131830   2.071   7.431   0.932
10629TIP3    H231831   2.123   7.545   0.846
10630TIP3   OH231832   0.445   2.282   6.469
10630TIP3    H131833   0.464   2.223   6.397
10630TIP3    H231834   0.521   2.273   6.528
10631TIP3   OH231835   2.095   6.794   2.553
10631TIP3    H131836   2.101   6.700   2.535
10631TIP3    H231837   2.093   6.800   2.649
10632TIP3   OH231838   7.572   4.831   4.758
10632TIP3    H131839   7.569   4.781   4.676
10632TIP3    H231840   7.481   4.838   4.785
10633TIP3   OH231841   0.411   1.975   3.133
10633TIP3    H131842   0.381   2.040   3.069
10633TIP3    H231843   0.348   1.904   3.127
10634TIP3   OH231844   7.960   7.472   5.629
10634TIP3    H131845   7.985   7.389   5.669
10634TIP3    H231846   7.968   7.456   5.535
10635TIP3   OH231847   7.742   7.633   5.427
10635TIP3    H131848   7.770   7.542   5.429
10635TIP3    H231849   7.803   7.675   5.365
10636TIP3   OH231850   0.312   3.630   3.860
10636TIP3    H131851   0.394   3.618   3.909
10636TIP3    H231852   0.271   3.707   3.898
10637TIP3   OH231853   7.873   3.726   5.530
10637TIP3    H131854   7.882   3.764   5.443
10637TIP3    H231855   7.853   3.633   5.513
10638TIP3   OH231856   8.163   5.951   6.193
10638TIP3    H131857   8.091   5.891   6.174
10638TIP3    H231858   8.122   6.023   6.240
10639TIP3   OH231859   8.200   2.662   0.004
10639TIP3    H131860   8.217   2.587   0.061
10639TIP3    H231861   8.261   2.729   0.032
10640TIP3   OH231862   3.637   2.176   4.957
10640TIP3    H131863   3.618   2.266   4.931
10640TIP3    H231864   3.654   2.130   4.874
10641TIP3   OH231865   2.572   6.083   1.048
10641TIP3    H131866   2.504   6.100   0.982
10641TIP3    H231867   2.599   5.992   1.031
10642TIP3   OH231868   6.681   5.139   5.156
10642TIP3    H131869   6.740   5.155   5.081
10642TIP3    H231870   6.595   5.128   5.116
10643TIP3   OH231871   4.332   3.375   0.179
10643TIP3    H131872   4.378   3.374   0.096
10643TIP3    H231873   4.319   3.283   0.201
10644TIP3   OH231874   2.787   6.746   5.196
10644TIP3    H131875   2.781   6.681   5.266
10644TIP3    H231876   2.881   6.761   5.186
10645TIP3   OH231877   6.424   2.044   1.480
10645TIP3    H131878   6.381   2.030   1.396
10645TIP3    H231879   6.509   1.999   1.471
10646TIP3   OH231880   0.830   1.533   5.856
10646TIP3    H131881   0.752   1.490   5.819
10646TIP3    H231882   0.847   1.484   5.937
10647TIP3   OH231883   2.800   3.938   5.750
10647TIP3    H131884   2.822   3.885   5.827
10647TIP3    H231885   2.787   4.026   5.785
10648TIP3   OH231886   2.371   4.360   1.488
10648TIP3    H131887   2.395   4.274   1.455
10648TIP3    H231888   2.278   4.351   1.512
10649TIP3   OH231889   4.409   7.591   0.348
10649TIP3    H131890   4.339   7.635   0.299
10649TIP3    H231891   4.486   7.647   0.336
10650TIP3   OH231892   7.826   3.499   2.800
10650TIP3    H131893   7.904   3.460   2.761
10650TIP3    H231894   7.788   3.428   2.853
10651TIP3   OH231895   6.540   6.534   2.930
10651TIP3    H131896   6.600   6.597   2.891
10651TIP3    H231897   6.455   6.556   2.892
10652TIP3   OH231898   5.179   4.155   3.673
10652TIP3    H131899   5.256   4.155   3.616
10652TIP3    H231900   5.194   4.229   3.732
10653TIP3   OH231901   2.130   0.934   1.774
10653TIP3    H131902   2.097   0.844   1.767
10653TIP3    H231903   2.224   0.925   1.782
10654TIP3   OH231904   7.471   3.879   2.261
10654TIP3    H131905   7.383   3.891   2.225
10654TIP3    H231906   7.456   3.845   2.349
10655TIP3   OH231907   1.524   2.423   4.115
10655TIP3    H131908   1.553   2.340   4.077
10655TIP3    H231909   1.600   2.455   4.163
10656TIP3   OH231910   3.165   4.128   0.767
10656TIP3    H131911   3.246   4.179   0.774
10656TIP3    H231912   3.194   4.040   0.746
10657TIP3   OH231913   6.609   2.895   3.872
10657TIP3    H131914   6.596   2.974   3.821
10657TIP3    H231915   6.694   2.907   3.914
10658TIP3   OH231916   2.793   2.540   0.237
10658TIP3    H131917   2.697   2.533   0.231
10658TIP3    H231918   2.824   2.501   0.156
10659TIP3   OH231919   6.761   0.009   6.211
10659TIP3    H131920   6.764   0.105   6.210
10659TIP3    H231921   6.754  -0.014   6.304
10660TIP3   OH231922   0.375   4.582   4.318
10660TIP3    H131923   0.454   4.631   4.295
10660TIP3    H231924   0.344   4.622   4.399
10661TIP3   OH231925   8.165   2.689   2.867
10661TIP3    H131926   8.141   2.726   2.952
10661TIP3    H231927   8.238   2.630   2.887
10662TIP3   OH231928   6.290   4.739   2.515
10662TIP3    H131929   6.360   4.694   2.468
10662TIP3    H231930   6.324   4.750   2.604
10663TIP3   OH231931   6.915   2.673   5.734
10663TIP3    H131932   6.945   2.584   5.717
10663TIP3    H231933   6.821   2.664   5.750
10664TIP3   OH231934   4.121   1.042   1.480
10664TIP3    H131935   4.127   1.111   1.547
10664TIP3    H231936   4.202   1.051   1.430
10665TIP3   OH231937   1.404   1.401   0.476
10665TIP3    H131938   1.410   1.353   0.394
10665TIP3    H231939   1.391   1.492   0.450
10666TIP3   OH231940   5.570   7.507   5.144
10666TIP3    H131941   5.485   7.474   5.116
10666TIP3    H231942   5.628   7.487   5.070
10667TIP3   OH231943   3.899   6.293   4.316
10667TIP3    H131944   3.923   6.215   4.367
10667TIP3    H231945   3.922   6.270   4.225
10668TIP3   OH231946   7.852   2.300   2.746
10668TIP3    H131947   7.806   2.337   2.671
10668TIP3    H231948   7.831   2.358   2.819
10669TIP3   OH231949   7.683   6.574   2.159
10669TIP3    H131950   7.756   6.540   2.108
10669TIP3    H231951   7.629   6.498   2.178
10670TIP3   OH231952   1.521   0.004   4.468
10670TIP3    H131953   1.600   0.037   4.512
10670TIP3    H231954   1.494   0.076   4.411
10671TIP3   OH231955   0.211   6.763   2.958
10671TIP3    H131956   0.247   6.852   2.967
10671TIP3    H231957   0.251   6.730   2.877
10672TIP3   OH231958   6.778   4.231   3.482
10672TIP3    H131959   6.757   4.252   3.391
10672TIP3    H231960   6.844   4.162   3.476
10673TIP3   OH231961   5.726   0.620   1.836
10673TIP3    H131962   5.760   0.709   1.844
10673TIP3    H231963   5.767   0.587   1.756
10674TIP3   OH231964   4.761   3.051   4.348
10674TIP3    H131965   4.764   3.047   4.252
10674TIP3    H231966   4.804   3.133   4.370
10675TIP3   OH231967   6.838   0.992   2.326
10675TIP3    H131968   6.825   1.082   2.296
10675TIP3    H231969   6.878   0.948   2.251
10676TIP3   OH231970   3.309   2.613   1.222
10676TIP3    H131971   3.313   2.587   1.130
10676TIP3    H231972   3.228   2.665   1.228
10677TIP3   OH231973   0.786   4.415   1.836
10677TIP3    H131974   0.809   4.325   1.815
10677TIP3    H231975   0.864   4.451   1.877
10678TIP3   OH231976   7.699   5.681   5.032
10678TIP3    H131977   7.686   5.621   5.106
10678TIP3    H231978   7.709   5.767   5.072
10679TIP3   OH231979   6.040   0.698   3.475
10679TIP3    H131980   6.029   0.703   3.380
10679TIP3    H231981   5.963   0.650   3.506
10680TIP3   OH231982   6.356   4.985   2.428
10680TIP3    H131983   6.323   4.927   2.360
10680TIP3    H231984   6.312   4.956   2.508
10681TIP3   OH231985   1.706   7.737   4.468
10681TIP3    H131986   1.679   7.718   4.378
10681TIP3    H231987   1.713   7.833   4.471
10682TIP3   OH231988   0.277   7.003   3.265
10682TIP3    H131989   0.338   7.075   3.279
10682TIP3    H231990   0.325   6.942   3.208
10683TIP3   OH231991   7.837   5.958   6.168
10683TIP3    H131992   7.787   6.031   6.206
10683TIP3    H231993   7.773   5.887   6.159
10684TIP3   OH231994   0.734   6.124   2.236
10684TIP3    H131995   0.682   6.199   2.211
10684TIP3    H231996   0.812   6.128   2.180
10685TIP3   OH231997   3.097   6.181   5.929
10685TIP3    H131998   3.110   6.111   5.865
10685TIP3    H231999   3.184   6.200   5.963
10686TIP3   OH232000   4.650   5.692   1.101
10686TIP3    H132001   4.662   5.787   1.092
10686TIP3    H232002   4.607   5.666   1.019
10687TIP3   OH232003   1.233   3.106   2.655
10687TIP3    H132004   1.144   3.092   2.622
10687TIP3    H232005   1.221   3.128   2.748
10688TIP3   OH232006   3.839   2.914   2.038
10688TIP3    H132007   3.815   2.867   1.958
10688TIP3    H232008   3.771   2.980   2.049
10689TIP3   OH232009   0.327   0.154   1.242
10689TIP3    H132010   0.242   0.183   1.209
10689TIP3    H232011   0.388   0.175   1.172
10690TIP3   OH232012   4.444   5.566   4.435
10690TIP3    H132013   4.452   5.660   4.416
10690TIP3    H232014   4.527   5.544   4.477
10691TIP3   OH232015   7.117   0.553   6.492
10691TIP3    H132016   7.089   0.463   6.480
10691TIP3    H232017   7.090   0.597   6.411
10692TIP3   OH232018   6.026   5.313   4.963
10692TIP3    H132019   6.058   5.239   4.912
10692TIP3    H232020   6.101   5.373   4.967
10693TIP3   OH232021   4.538   2.780   4.071
10693TIP3    H132022   4.585   2.726   4.007
10693TIP3    H232023   4.570   2.750   4.156
10694TIP3   OH232024   6.748   7.416   3.169
10694TIP3    H132025   6.820   7.384   3.115
10694TIP3    H232026   6.681   7.348   3.163
10695TIP3   OH232027   1.342   2.394   6.159
10695TIP3    H132028   1.393   2.321   6.193
10695TIP3    H232029   1.261   2.354   6.128
10696TIP3   OH232030   4.196   3.561   2.330
10696TIP3    H132031   4.235   3.474   2.332
10696TIP3    H232032   4.239   3.605   2.256
10697TIP3   OH232033   2.038   4.180   5.515
10697TIP3    H132034   2.088   4.254   5.481
10697TIP3    H232035   1.975   4.219   5.577
10698TIP3   OH232036   5.763   1.033   5.730
10698TIP3    H132037   5.756   1.002   5.821
10698TIP3    H232038   5.691   1.096   5.720
10699TIP3   OH232039   1.078   5.922   1.867
10699TIP3    H132040   1.013   5.881   1.809
10699TIP3    H232041   1.118   5.990   1.813
10700TIP3   OH232042   4.690   2.394   5.838
10700TIP3    H132043   4.657   2.305   5.853
10700TIP3    H232044   4.709   2.397   5.745
10701TIP3   OH232045   0.708   3.906   4.626
10701TIP3    H132046   0.771   3.871   4.689
10701TIP3    H232047   0.640   3.946   4.680
10702TIP3   OH232048   1.280   1.736   5.120
10702TIP3    H132049   1.301   1.781   5.038
10702TIP3    H232050   1.365   1.710   5.155
10703TIP3   OH232051   7.179   6.780   0.275
10703TIP3    H132052   7.110   6.720   0.303
10703TIP3    H232053   7.193   6.837   0.351
10704TIP3   OH232054   6.374   1.587   3.060
10704TIP3    H132055   6.391   1.530   3.135
10704TIP3    H232056   6.395   1.675   3.091
10705TIP3   OH232057   6.527   2.599   3.320
10705TIP3    H132058   6.596   2.587   3.255
10705TIP3    H232059   6.543   2.686   3.357
10706TIP3   OH232060   4.259   1.762   1.232
10706TIP3    H132061   4.290   1.698   1.168
10706TIP3    H232062   4.305   1.843   1.208
10707TIP3   OH232063   1.525   7.116   3.454
10707TIP3    H132064   1.465   7.044   3.431
10707TIP3    H232065   1.580   7.126   3.376
10708TIP3   OH232066   2.653   5.671   2.719
10708TIP3    H132067   2.613   5.737   2.775
10708TIP3    H232068   2.700   5.614   2.779
10709TIP3   OH232069   0.698   2.626   4.068
10709TIP3    H132070   0.782   2.660   4.037
10709TIP3    H232071   0.717   2.589   4.154
10710TIP3   OH232072   4.007   5.587   6.542
10710TIP3    H132073   4.044   5.653   6.601
10710TIP3    H232074   4.055   5.507   6.562
10711TIP3   OH232075   7.835   7.214   4.924
10711TIP3    H132076   7.894   7.148   4.887
10711TIP3    H232077   7.852   7.212   5.018
10712TIP3   OH232078   3.177   0.246   0.478
10712TIP3    H132079   3.110   0.284   0.423
10712TIP3    H232080   3.257   0.248   0.425
10713TIP3   OH232081   4.078   5.504   4.817
10713TIP3    H132082   4.005   5.449   4.847
10713TIP3    H232083   4.080   5.490   4.722
10714TIP3   OH232084   2.518   5.348   3.085
10714TIP3    H132085   2.476   5.332   3.169
10714TIP3    H232086   2.522   5.261   3.044
10715TIP3   OH232087   0.052   1.065   6.260
10715TIP3    H132088   0.102   1.061   6.179
10715TIP3    H232089   0.098   1.007   6.320
10716TIP3   OH232090   7.640   1.282   2.914
10716TIP3    H132091   7.566   1.235   2.952
10716TIP3    H232092   7.632   1.266   2.820
10717TIP3   OH232093   5.576   5.160   3.097
10717TIP3    H132094   5.612   5.226   3.157
10717TIP3    H232095   5.653   5.123   3.053
10718TIP3   OH232096   7.093   6.966   4.361
10718TIP3    H132097   7.129   7.053   4.380
10718TIP3    H232098   7.030   6.981   4.291
10719TIP3   OH232099   5.716   4.712   6.047
10719TIP3    H132100   5.782   4.768   6.005
10719TIP3    H232101   5.660   4.684   5.975
10720TIP3   OH232102   0.507   6.724   2.882
10720TIP3    H132103   0.562   6.768   2.947
10720TIP3    H232104   0.460   6.657   2.932
10721TIP3   OH232105   7.619   2.327   3.732
10721TIP3    H132106   7.649   2.242   3.699
10721TIP3    H232107   7.572   2.305   3.812
10722TIP3   OH232108   1.748   0.566   4.320
10722TIP3    H132109   1.675   0.518   4.281
10722TIP3    H232110   1.812   0.575   4.249
10723TIP3   OH232111   2.789   2.293   4.430
10723TIP3    H132112   2.808   2.223   4.367
10723TIP3    H232113   2.741   2.250   4.500
10724TIP3   OH232114   5.420   2.882   2.655
10724TIP3    H132115   5.352   2.828   2.695
10724TIP3    H232116   5.377   2.967   2.641
10725TIP3   OH232117   4.610   1.798   1.394
10725TIP3    H132118   4.516   1.782   1.400
10725TIP3    H232119   4.629   1.793   1.300
10726TIP3   OH232120   3.993   7.306   5.633
10726TIP3    H132121   3.912   7.285   5.586
10726TIP3    H232122   3.992   7.402   5.640
10727TIP3   OH232123   4.314   4.823   4.609
10727TIP3    H132124   4.395   4.779   4.582
10727TIP3    H232125   4.244   4.765   4.581
10728TIP3   OH232126   0.477   1.712   3.696
10728TIP3    H132127   0.428   1.660   3.759
10728TIP3    H232128   0.568   1.707   3.725
10729TIP3   OH232129   5.941   4.807   3.152
10729TIP3    H132130   5.952   4.718   3.119
10729TIP3    H232131   5.980   4.805   3.240
10730TIP3   OH232132   7.981   2.571   4.012
10730TIP3    H132133   8.023   2.488   4.034
10730TIP3    H232134   7.998   2.582   3.918
10731TIP3   OH232135   6.544   0.269   1.554
10731TIP3    H132136   6.526   0.234   1.641
10731TIP3    H232137   6.630   0.233   1.530
10732TIP3   OH232138   6.917   0.670   0.667
10732TIP3    H132139   6.883   0.588   0.703
10732TIP3    H232140   6.862   0.687   0.591
10733TIP3   OH232141   2.972   1.142   2.812
10733TIP3    H132142   2.930   1.058   2.828
10733TIP3    H232143   3.062   1.120   2.788
10734TIP3   OH232144   0.034   4.939   5.783
10734TIP3    H132145   0.109   4.900   5.738
10734TIP3    H232146  -0.022   4.971   5.712
10735TIP3   OH232147   1.102   5.319   2.038
10735TIP3    H132148   1.021   5.269   2.049
10735TIP3    H232149   1.073   5.402   1.999
10736TIP3   OH232150   0.869   1.100   6.383
10736TIP3    H132151   0.941   1.046   6.416
10736TIP3    H232152   0.912   1.179   6.350
10737TIP3   OH232153   2.352   7.387   2.622
10737TIP3    H132154   2.285   7.403   2.556
10737TIP3    H232155   2.308   7.403   2.706
10738TIP3   OH232156   0.246   1.017   1.666
10738TIP3    H132157   0.282   0.957   1.731
10738TIP3    H232158   0.155   0.990   1.656
10739TIP3   OH232159   8.028   5.745   2.584
10739TIP3    H132160   8.037   5.657   2.548
10739TIP3    H232161   8.096   5.796   2.539
10740TIP3   OH232162   4.102   6.653   2.182
10740TIP3    H132163   4.152   6.572   2.167
10740TIP3    H232164   4.035   6.653   2.114
10741TIP3   OH232165   7.958   1.219   6.213
10741TIP3    H132166   8.010   1.298   6.197
10741TIP3    H232167   7.868   1.246   6.195
10742TIP3   OH232168   0.414   7.119   1.348
10742TIP3    H132169   0.453   7.101   1.262
10742TIP3    H232170   0.352   7.189   1.332
10743TIP3   OH232171   1.223   2.882   0.469
10743TIP3    H132172   1.237   2.801   0.419
10743TIP3    H232173   1.224   2.854   0.560
10744TIP3   OH232174   5.010   5.127   1.008
10744TIP3    H132175   4.983   5.038   0.985
10744TIP3    H232176   5.103   5.118   1.031
10745TIP3   OH232177   4.126   4.903   2.080
10745TIP3    H132178   4.076   4.879   2.002
10745TIP3    H232179   4.105   4.995   2.094
10746TIP3   OH232180   4.167   1.949   3.853
10746TIP3    H132181   4.215   2.031   3.844
10746TIP3    H232182   4.235   1.885   3.876
10747TIP3   OH232183   0.620   2.164   6.640
10747TIP3    H132184   0.611   2.088   6.698
10747TIP3    H232185   0.712   2.164   6.615
10748TIP3   OH232186   0.939   6.525   5.426
10748TIP3    H132187   0.985   6.535   5.342
10748TIP3    H232188   0.995   6.466   5.477
10749TIP3   OH232189   5.291   6.288   0.903
10749TIP3    H132190   5.369   6.256   0.950
10749TIP3    H232191   5.325   6.316   0.818
10750TIP3   OH232192   7.323   0.478   2.582
10750TIP3    H132193   7.375   0.525   2.517
10750TIP3    H232194   7.370   0.395   2.594
10751TIP3   OH232195   3.135   6.845   5.142
10751TIP3    H132196   3.148   6.812   5.053
10751TIP3    H232197   3.109   6.936   5.130
10752TIP3   OH232198   4.539   0.490   2.783
10752TIP3    H132199   4.530   0.582   2.756
10752TIP3    H232200   4.491   0.441   2.716
10753TIP3   OH232201   6.719   5.758   2.082
10753TIP3    H132202   6.705   5.673   2.041
10753TIP3    H232203   6.803   5.749   2.128
10754TIP3   OH232204   6.251   4.832   3.894
10754TIP3    H132205   6.343   4.842   3.917
10754TIP3    H232206   6.209   4.911   3.928
10755TIP3   OH232207   0.280   1.853   4.682
10755TIP3    H132208   0.277   1.938   4.726
10755TIP3    H232209   0.301   1.875   4.591
10756TIP3   OH232210   3.077   5.428   6.594
10756TIP3    H132211   3.168   5.457   6.604
10756TIP3    H232212   3.025   5.496   6.636
10757TIP3   OH232213   7.408   6.605  -0.028
10757TIP3    H132214   7.370   6.519  -0.009
10757TIP3    H232215   7.502   6.593  -0.015
10758TIP3   OH232216   7.377   7.578   5.835
10758TIP3    H132217   7.355   7.602   5.745
10758TIP3    H232218   7.450   7.516   5.826
10759TIP3   OH232219   3.280   0.839   1.290
10759TIP3    H132220   3.189   0.819   1.266
10759TIP3    H232221   3.293   0.928   1.257
10760TIP3   OH232222   2.194   5.310   2.557
10760TIP3    H132223   2.235   5.349   2.479
10760TIP3    H232224   2.241   5.228   2.570
10761TIP3   OH232225   6.082   1.203   4.063
10761TIP3    H132226   6.084   1.121   4.013
10761TIP3    H232227   6.120   1.180   4.148
10762TIP3   OH232228   4.119   4.363   5.526
10762TIP3    H132229   4.104   4.310   5.448
10762TIP3    H232230   4.188   4.424   5.502
10763TIP3   OH232231   3.407   5.912   0.673
10763TIP3    H132232   3.440   5.831   0.636
10763TIP3    H232233   3.325   5.887   0.716
10764TIP3   OH232234   3.621   3.697   0.737
10764TIP3    H132235   3.703   3.707   0.688
10764TIP3    H232236   3.575   3.626   0.692
10765TIP3   OH232237   3.363   2.568   0.955
10765TIP3    H132238   3.377   2.637   0.889
10765TIP3    H232239   3.316   2.499   0.907
10766TIP3   OH232240   6.973   7.311   1.274
10766TIP3    H132241   6.963   7.216   1.274
10766TIP3    H232242   7.065   7.326   1.250
10767TIP3   OH232243   5.192   5.226   2.186
10767TIP3    H132244   5.171   5.243   2.094
10767TIP3    H232245   5.287   5.236   2.192
10768TIP3   OH232246   5.694   5.837   6.399
10768TIP3    H132247   5.670   5.924   6.431
10768TIP3    H232248   5.790   5.838   6.399
10769TIP3   OH232249   0.607   2.216   4.893
10769TIP3    H132250   0.587   2.203   4.801
10769TIP3    H232251   0.566   2.142   4.937
10770TIP3   OH232252   8.096   7.675   4.008
10770TIP3    H132253   8.068   7.611   4.074
10770TIP3    H232254   8.015   7.713   3.975
10771TIP3   OH232255   5.280   3.901   4.836
10771TIP3    H132256   5.192   3.897   4.796
10771TIP3    H232257   5.316   3.984   4.806
10772TIP3   OH232258   2.465   3.925   0.829
10772TIP3    H132259   2.498   3.899   0.915
10772TIP3    H232260   2.411   3.852   0.801
10773TIP3   OH232261   0.212   3.062   1.639
10773TIP3    H132262   0.134   3.076   1.586
10773TIP3    H232263   0.197   3.112   1.719
10774TIP3   OH232264   4.897   6.276   2.104
10774TIP3    H132265   4.842   6.232   2.169
10774TIP3    H232266   4.982   6.285   2.147
10775TIP3   OH232267   7.887   0.621   5.855
10775TIP3    H132268   7.805   0.586   5.819
10775TIP3    H232269   7.916   0.684   5.789
10776TIP3   OH232270   2.179   2.614   2.756
10776TIP3    H132271   2.147   2.525   2.742
10776TIP3    H232272   2.274   2.607   2.746
10777TIP3   OH232273   3.567   5.076   1.673
10777TIP3    H132274   3.538   5.013   1.607
10777TIP3    H232275   3.610   5.145   1.623
10778TIP3   OH232276   7.713   1.425   2.209
10778TIP3    H132277   7.784   1.366   2.182
10778TIP3    H232278   7.635   1.391   2.164
10779TIP3   OH232279   4.449   4.106   4.707
10779TIP3    H132280   4.408   4.181   4.750
10779TIP3    H232281   4.541   4.129   4.701
10780TIP3   OH232282   5.056   5.353   0.229
10780TIP3    H132283   5.130   5.392   0.276
10780TIP3    H232284   5.096   5.292   0.167
10781TIP3   OH232285   3.006   4.562   3.615
10781TIP3    H132286   2.941   4.626   3.586
10781TIP3    H232287   3.054   4.538   3.536
10782TIP3   OH232288   2.595   1.718   0.458
10782TIP3    H132289   2.601   1.789   0.523
10782TIP3    H232290   2.684   1.682   0.454
10783TIP3   OH232291   4.161   1.400   5.553
10783TIP3    H132292   4.231   1.415   5.488
10783TIP3    H232293   4.167   1.474   5.612
10784TIP3   OH232294   2.242   3.998   4.750
10784TIP3    H132295   2.324   4.034   4.785
10784TIP3    H232296   2.229   4.043   4.667
10785TIP3   OH232297   1.293   5.884   6.653
10785TIP3    H132298   1.222   5.913   6.711
10785TIP3    H232299   1.364   5.859   6.712
10786TIP3   OH232300   6.782   4.984   2.486
10786TIP3    H132301   6.752   5.047   2.420
10786TIP3    H232302   6.839   4.924   2.438
10787TIP3   OH232303   7.122   6.083   4.270
10787TIP3    H132304   7.054   6.089   4.336
10787TIP3    H232305   7.112   6.163   4.218
10788TIP3   OH232306   0.414   5.652   2.124
10788TIP3    H132307   0.445   5.723   2.067
10788TIP3    H232308   0.320   5.671   2.135
10789TIP3   OH232309   4.132   7.280   4.471
10789TIP3    H132310   4.186   7.230   4.410
10789TIP3    H232311   4.194   7.336   4.518
10790TIP3   OH232312   7.912   5.175   3.389
10790TIP3    H132313   7.855   5.252   3.392
10790TIP3    H232314   7.886   5.123   3.465
10791TIP3   OH232315   3.165   0.224   4.315
10791TIP3    H132316   3.125   0.307   4.340
10791TIP3    H232317   3.246   0.221   4.366
10792TIP3   OH232318   7.848   1.485   1.972
10792TIP3    H132319   7.834   1.391   1.961
10792TIP3    H232320   7.804   1.525   1.897
10793TIP3   OH232321   0.841   3.325   1.185
10793TIP3    H132322   0.875   3.284   1.265
10793TIP3    H232323   0.912   3.381   1.154
10794TIP3   OH232324   0.072   5.483   1.584
10794TIP3    H132325   0.114   5.569   1.584
10794TIP3    H232326   0.095   5.446   1.499
10795TIP3   OH232327   2.000   5.550   2.284
10795TIP3    H132328   1.961   5.463   2.275
10795TIP3    H232329   2.092   5.533   2.304
10796TIP3   OH232330   6.709   5.478   5.572
10796TIP3    H132331   6.724   5.545   5.506
10796TIP3    H232332   6.615   5.478   5.586
10797TIP3   OH232333   3.509   5.097   2.112
10797TIP3    H132334   3.476   5.186   2.100
10797TIP3    H232335   3.477   5.050   2.035
10798TIP3   OH232336   4.529   5.081   5.262
10798TIP3    H132337   4.623   5.066   5.272
10798TIP3    H232338   4.521   5.126   5.177
10799TIP3   OH232339   2.594   4.720   0.534
10799TIP3    H132340   2.521   4.766   0.577
10799TIP3    H232341   2.565   4.709   0.443
10800TIP3   OH232342   7.688   7.059   0.483
10800TIP3    H132343   7.666   6.981   0.534
10800TIP3    H232344   7.782   7.051   0.467
10801TIP3   OH232345   6.495   5.509   3.674
10801TIP3    H132346   6.431   5.471   3.615
10801TIP3    H232347   6.574   5.521   3.621
10802TIP3   OH232348   2.914   6.592   3.514
10802TIP3    H132349   2.874   6.668   3.556
10802TIP3    H232350   2.960   6.547   3.585
10803TIP3   OH232351   3.667   4.214   4.734
10803TIP3    H132352   3.694   4.188   4.646
10803TIP3    H232353   3.744   4.198   4.789
10804TIP3   OH232354   4.191   6.798   0.344
10804TIP3    H132355   4.210   6.762   0.431
10804TIP3    H232356   4.162   6.722   0.294
10805TIP3   OH232357   6.641   3.408   5.641
10805TIP3    H132358   6.695   3.475   5.598
10805TIP3    H232359   6.612   3.351   5.570
10806TIP3   OH232360   0.744   1.799   5.926
10806TIP3    H132361   0.787   1.714   5.933
10806TIP3    H232362   0.811   1.858   5.892
10807TIP3   OH232363   0.090   7.438   6.441
10807TIP3    H132364   0.173   7.415   6.481
10807TIP3    H232365   0.071   7.526   6.474
10808TIP3   OH232366   5.767   4.483   2.559
10808TIP3    H132367   5.773   4.388   2.557
10808TIP3    H232368   5.857   4.513   2.571
10809TIP3   OH232369   3.000   1.991   6.303
10809TIP3    H132370   2.905   2.004   6.304
10809TIP3    H232371   3.011   1.898   6.283
10810TIP3   OH232372   1.664   3.678   3.711
10810TIP3    H132373   1.694   3.611   3.649
10810TIP3    H232374   1.729   3.677   3.780
10811TIP3   OH232375   6.128   3.844   2.858
10811TIP3    H132376   6.132   3.933   2.895
10811TIP3    H232377   6.035   3.822   2.858
10812TIP3   OH232378   2.176   4.792   6.646
10812TIP3    H132379   2.225   4.802   6.564
10812TIP3    H232380   2.148   4.700   6.646
10813TIP3   OH232381   5.980   6.033   0.703
10813TIP3    H132382   6.009   6.071   0.620
10813TIP3    H232383   5.893   6.070   0.717
10814TIP3   OH232384   2.866   4.771   4.085
10814TIP3    H132385   2.925   4.825   4.138
10814TIP3    H232386   2.924   4.722   4.027
10815TIP3   OH232387   3.173   7.728   5.689
10815TIP3    H132388   3.131   7.649   5.654
10815TIP3    H232389   3.235   7.754   5.621
10816TIP3   OH232390   3.947   0.816   0.279
10816TIP3    H132391   3.917   0.771   0.357
10816TIP3    H232392   3.878   0.878   0.258
10817TIP3   OH232393   0.349   5.696   2.801
10817TIP3    H132394   0.286   5.746   2.749
10817TIP3    H232395   0.354   5.611   2.758
10818TIP3   OH232396   4.898   6.716   5.135
10818TIP3    H132397   4.897   6.762   5.051
10818TIP3    H232398   4.926   6.627   5.114
10819TIP3   OH232399   1.098   3.968   5.894
10819TIP3    H132400   1.094   3.903   5.964
10819TIP3    H232401   1.139   3.921   5.821
10820TIP3   OH232402   4.758   1.602   2.219
10820TIP3    H132403   4.760   1.528   2.159
10820TIP3    H232404   4.825   1.583   2.285
10821TIP3   OH232405   5.679   6.129   2.561
10821TIP3    H132406   5.748   6.138   2.495
10821TIP3    H232407   5.725   6.111   2.643
10822TIP3   OH232408   7.549   5.341   0.542
10822TIP3    H132409   7.476   5.398   0.517
10822TIP3    H232410   7.519   5.296   0.621
10823TIP3   OH232411   0.184   0.610   4.802
10823TIP3    H132412   0.218   0.534   4.754
10823TIP3    H232413   0.259   0.669   4.808
10824TIP3   OH232414   6.416   7.457   4.034
10824TIP3    H132415   6.390   7.394   3.965
10824TIP3    H232416   6.379   7.540   4.005
10825TIP3   OH232417   7.457   2.111   1.172
10825TIP3    H132418   7.536   2.163   1.183
10825TIP3    H232419   7.477   2.028   1.215
10826TIP3   OH232420   6.929   3.118   0.164
10826TIP3    H132421   6.973   3.041   0.201
10826TIP3    H232422   6.898   3.166   0.241
10827TIP3   OH232423   6.036   2.330   6.072
10827TIP3    H132424   6.041   2.425   6.071
10827TIP3    H232425   6.040   2.306   6.164
10828TIP3   OH232426   3.866   2.341   4.122
10828TIP3    H132427   3.848   2.362   4.030
10828TIP3    H232428   3.781   2.350   4.166
10829TIP3   OH232429   3.071   5.735   5.208
10829TIP3    H132430   3.130   5.793   5.255
10829TIP3    H232431   3.088   5.751   5.115
10830TIP3   OH232432   4.935   3.182   3.283
10830TIP3    H132433   4.982   3.194   3.201
10830TIP3    H232434   4.844   3.202   3.261
10831TIP3   OH232435   3.848   0.299   0.352
10831TIP3    H132436   3.813   0.229   0.405
10831TIP3    H232437   3.862   0.372   0.413
10832TIP3   OH232438   0.359   7.643   5.323
10832TIP3    H132439   0.441   7.595   5.336
10832TIP3    H232440   0.385   7.735   5.328
10833TIP3   OH232441   3.197   0.350   3.405
10833TIP3    H132442   3.142   0.276   3.433
10833TIP3    H232443   3.262   0.358   3.475
10834TIP3   OH232444   2.292   7.225   0.916
10834TIP3    H132445   2.337   7.310   0.916
10834TIP3    H232446   2.314   7.185   1.000
10835TIP3   OH232447   5.411   4.482   5.551
10835TIP3    H132448   5.419   4.397   5.593
10835TIP3    H232449   5.376   4.540   5.619
10836TIP3   OH232450   2.186   6.522   4.274
10836TIP3    H132451   2.266   6.501   4.226
10836TIP3    H232452   2.167   6.613   4.250
10837TIP3   OH232453   5.067   7.545   4.431
10837TIP3    H132454   5.056   7.519   4.522
10837TIP3    H232455   4.993   7.602   4.413
10838TIP3   OH232456   1.783   3.349   0.302
10838TIP3    H132457   1.815   3.282   0.241
10838TIP3    H232458   1.774   3.303   0.385
10839TIP3   OH232459   5.864   4.097   0.542
10839TIP3    H132460   5.915   4.040   0.484
10839TIP3    H232461   5.928   4.157   0.580
10840TIP3   OH232462   0.074   3.428   6.389
10840TIP3    H132463   0.158   3.473   6.383
10840TIP3    H232464   0.026   3.474   6.459
10841TIP3   OH232465   2.203   5.906   4.619
10841TIP3    H132466   2.273   5.969   4.605
10841TIP3    H232467   2.123   5.956   4.607
10842TIP3   OH232468   5.998   2.696   5.333
10842TIP3    H132469   6.030   2.683   5.243
10842TIP3    H232470   6.043   2.628   5.384
10843TIP3   OH232471   8.004   0.566   3.051
10843TIP3    H132472   7.935   0.529   3.106
10843TIP3    H232473   7.988   0.661   3.053
10844TIP3   OH232474   0.153   7.241   3.730
10844TIP3    H132475   0.111   7.255   3.645
10844TIP3    H232476   0.246   7.258   3.714
10845TIP3   OH232477   4.780   2.196   5.151
10845TIP3    H132478   4.800   2.254   5.224
10845TIP3    H232479   4.806   2.245   5.073
10846TIP3   OH232480   4.779   3.156   0.340
10846TIP3    H132481   4.797   3.250   0.329
10846TIP3    H232482   4.861   3.113   0.314
10847TIP3   OH232483   6.893   6.614   6.464
10847TIP3    H132484   6.977   6.593   6.504
10847TIP3    H232485   6.844   6.658   6.533
10848TIP3   OH232486   4.436   5.449   3.287
10848TIP3    H132487   4.422   5.540   3.314
10848TIP3    H232488   4.521   5.450   3.242
10849TIP3   OH232489   0.514   4.653   2.169
10849TIP3    H132490   0.518   4.562   2.200
10849TIP3    H232491   0.422   4.668   2.147
10850TIP3   OH232492   6.195   1.935   2.394
10850TIP3    H132493   6.285   1.917   2.421
10850TIP3    H232494   6.175   1.866   2.331
10851TIP3   OH232495   4.284   6.829   2.085
10851TIP3    H132496   4.218   6.898   2.073
10851TIP3    H232497   4.240   6.764   2.140
10852TIP3   OH232498   0.575   4.384   3.116
10852TIP3    H132499   0.594   4.451   3.182
10852TIP3    H232500   0.491   4.348   3.142
10853TIP3   OH232501   1.277   5.081   1.547
10853TIP3    H132502   1.317   5.035   1.473
10853TIP3    H232503   1.323   5.045   1.624
10854TIP3   OH232504   6.216   4.942   0.910
10854TIP3    H132505   6.247   4.938   1.001
10854TIP3    H232506   6.133   4.895   0.911
10855TIP3   OH232507   2.174   4.444   0.402
10855TIP3    H132508   2.219   4.409   0.325
10855TIP3    H232509   2.083   4.453   0.373
10856TIP3   OH232510   6.491   5.180   2.616
10856TIP3    H132511   6.550   5.133   2.675
10856TIP3    H232512   6.469   5.116   2.548
10857TIP3   OH232513   0.439   1.034   5.587
10857TIP3    H132514   0.379   0.961   5.573
10857TIP3    H232515   0.507   0.999   5.645
10858TIP3   OH232516   8.249   0.011   5.744
10858TIP3    H132517   8.317  -0.016   5.806
10858TIP3    H232518   8.227   0.101   5.770
10859TIP3   OH232519   3.775   3.935   4.529
10859TIP3    H132520   3.807   4.025   4.529
10859TIP3    H232521   3.776   3.909   4.437
10860TIP3   OH232522   3.112   2.807   1.186
10860TIP3    H132523   3.124   2.859   1.265
10860TIP3    H232524   3.031   2.759   1.202
10861TIP3   OH232525   7.267   1.007   6.177
10861TIP3    H132526   7.286   1.101   6.186
10861TIP3    H232527   7.226   1.000   6.091
10862TIP3   OH232528   3.542   4.538   3.654
10862TIP3    H132529   3.573   4.450   3.676
10862TIP3    H232530   3.547   4.541   3.558
10863TIP3   OH232531   7.432   2.993   0.396
10863TIP3    H132532   7.351   3.027   0.360
10863TIP3    H232533   7.485   3.071   0.415
10864TIP3   OH232534   0.215   7.231   2.769
10864TIP3    H132535   0.255   7.315   2.792
10864TIP3    H232536   0.125   7.253   2.746
10865TIP3   OH232537   2.972   2.824   5.767
10865TIP3    H132538   2.966   2.731   5.749
10865TIP3    H232539   2.932   2.834   5.854
10866TIP3   OH232540   3.188   3.408   6.094
10866TIP3    H132541   3.258   3.450   6.143
10866TIP3    H232542   3.141   3.481   6.052
10867TIP3   OH232543   1.359   2.506   6.450
10867TIP3    H132544   1.325   2.424   6.485
10867TIP3    H232545   1.294   2.533   6.385
10868TIP3   OH232546   1.124   0.664   0.878
10868TIP3    H132547   1.063   0.591   0.865
10868TIP3    H232548   1.186   0.632   0.943
10869TIP3   OH232549   1.010   2.025   2.802
10869TIP3    H132550   0.987   1.990   2.888
10869TIP3    H232551   1.017   1.948   2.746
10870TIP3   OH232552   7.806   0.808   6.098
10870TIP3    H132553   7.860   0.825   6.175
10870TIP3    H232554   7.864   0.761   6.038
10871TIP3   OH232555   1.559   3.433   1.522
10871TIP3    H132556   1.509   3.394   1.450
10871TIP3    H232557   1.499   3.434   1.596
10872TIP3   OH232558   2.476   1.115   3.996
10872TIP3    H132559   2.426   1.124   3.915
10872TIP3    H232560   2.446   1.187   4.051
10873TIP3   OH232561   5.486   0.971   5.531
10873TIP3    H132562   5.455   0.897   5.584
10873TIP3    H232563   5.552   0.933   5.473
10874TIP3   OH232564   6.297   0.332   4.294
10874TIP3    H132565   6.295   0.409   4.350
10874TIP3    H232566   6.360   0.273   4.335
10875TIP3   OH232567   1.523   7.390   3.837
10875TIP3    H132568   1.557   7.473   3.804
10875TIP3    H232569   1.566   7.378   3.922
10876TIP3   OH232570   6.857   6.121   5.941
10876TIP3    H132571   6.913   6.156   5.872
10876TIP3    H232572   6.789   6.187   5.954
10877TIP3   OH232573   7.008   1.084   6.502
10877TIP3    H132574   6.970   0.996   6.491
10877TIP3    H232575   7.096   1.076   6.466
10878TIP3   OH232576   7.632   5.605   6.377
10878TIP3    H132577   7.669   5.647   6.454
10878TIP3    H232578   7.540   5.588   6.401
10879TIP3   OH232579   3.545   2.444   0.029
10879TIP3    H132580   3.595   2.466   0.108
10879TIP3    H232581   3.497   2.523   0.007
10880TIP3   OH232582   5.939   5.542   1.316
10880TIP3    H132583   5.870   5.485   1.282
10880TIP3    H232584   5.909   5.565   1.404
10881TIP3   OH232585   5.364   0.819   3.675
10881TIP3    H132586   5.309   0.805   3.753
10881TIP3    H232587   5.315   0.882   3.623
10882TIP3   OH232588   4.164   7.444   0.959
10882TIP3    H132589   4.256   7.419   0.971
10882TIP3    H232590   4.133   7.388   0.888
10883TIP3   OH232591   6.668   2.756   0.866
10883TIP3    H132592   6.725   2.710   0.928
10883TIP3    H232593   6.717   2.835   0.844
10884TIP3   OH232594   1.100   4.352   4.199
10884TIP3    H132595   1.143   4.295   4.262
10884TIP3    H232596   1.167   4.369   4.132
10885TIP3   OH232597   4.221   6.336   1.453
10885TIP3    H132598   4.128   6.358   1.461
10885TIP3    H232599   4.232   6.313   1.361
10886TIP3   OH232600   3.121   5.810   6.163
10886TIP3    H132601   3.124   5.906   6.168
10886TIP3    H232602   3.084   5.792   6.076
10887TIP3   OH232603   2.929   7.708   5.200
10887TIP3    H132604   2.972   7.685   5.117
10887TIP3    H232605   2.856   7.765   5.174
10888TIP3   OH232606   8.275   3.246   5.476
10888TIP3    H132607   8.331   3.313   5.438
10888TIP3    H232608   8.278   3.174   5.413
10889TIP3   OH232609   1.609   3.593   2.496
10889TIP3    H132610   1.657   3.587   2.413
10889TIP3    H232611   1.675   3.621   2.560
10890TIP3   OH232612   1.595   4.033   0.916
10890TIP3    H132613   1.690   4.027   0.918
10890TIP3    H232614   1.575   4.120   0.950
10891TIP3   OH232615   3.257   0.605   5.622
10891TIP3    H132616   3.338   0.608   5.571
10891TIP3    H232617   3.267   0.527   5.677
10892TIP3   OH232618   1.274   3.095   6.416
10892TIP3    H132619   1.294   3.023   6.356
10892TIP3    H232620   1.351   3.102   6.472
10893TIP3   OH232621   3.859   3.255   4.334
10893TIP3    H132622   3.878   3.330   4.278
10893TIP3    H232623   3.914   3.268   4.411
10894TIP3   OH232624   2.407   3.600   5.452
10894TIP3    H132625   2.380   3.672   5.395
10894TIP3    H232626   2.331   3.541   5.454
10895TIP3   OH232627   5.658   1.760   5.307
10895TIP3    H132628   5.681   1.676   5.267
10895TIP3    H232629   5.602   1.803   5.242
10896TIP3   OH232630   4.199   7.017   0.573
10896TIP3    H132631   4.242   7.102   0.565
10896TIP3    H232632   4.226   6.985   0.659
10897TIP3   OH232633   0.739   3.638   3.048
10897TIP3    H132634   0.702   3.707   3.104
10897TIP3    H232635   0.833   3.651   3.053
10898TIP3   OH232636   4.221   0.862   5.798
10898TIP3    H132637   4.181   0.784   5.837
10898TIP3    H232638   4.304   0.829   5.761
10899TIP3   OH232639   6.389   5.129   3.195
10899TIP3    H132640   6.445   5.067   3.242
10899TIP3    H232641   6.301   5.111   3.227
10900TIP3   OH232642   8.130   7.357   1.071
10900TIP3    H132643   8.187   7.392   1.140
10900TIP3    H232644   8.115   7.432   1.013
10901TIP3   OH232645   1.569   2.063   1.824
10901TIP3    H132646   1.580   1.968   1.818
10901TIP3    H232647   1.483   2.079   1.786
10902TIP3   OH232648   8.217   0.289   5.824
10902TIP3    H132649   8.126   0.313   5.804
10902TIP3    H232650   8.225   0.305   5.918
10903TIP3   OH232651   6.132   5.034   4.075
10903TIP3    H132652   6.153   5.110   4.129
10903TIP3    H232653   6.113   4.964   4.138
10904TIP3   OH232654   8.164   1.646   0.841
10904TIP3    H132655   8.191   1.591   0.768
10904TIP3    H232656   8.179   1.736   0.811
10905TIP3   OH232657   5.580   1.649   3.011
10905TIP3    H132658   5.609   1.682   3.096
10905TIP3    H232659   5.655   1.661   2.953
10906TIP3   OH232660   0.346   6.083   5.836
10906TIP3    H132661   0.390   6.154   5.790
10906TIP3    H232662   0.270   6.124   5.878
10907TIP3   OH232663   3.761   6.000   5.422
10907TIP3    H132664   3.805   5.927   5.467
10907TIP3    H232665   3.710   6.044   5.490
10908TIP3   OH232666   3.747   1.298   4.795
10908TIP3    H132667   3.656   1.273   4.814
10908TIP3    H232668   3.769   1.362   4.863
10909TIP3   OH232669   2.590   7.035   6.375
10909TIP3    H132670   2.628   7.122   6.360
10909TIP3    H232671   2.530   7.047   6.449
10910TIP3   OH232672   6.425   5.508   2.844
10910TIP3    H132673   6.466   5.431   2.885
10910TIP3    H232674   6.477   5.582   2.875
10911TIP3   OH232675   0.839   4.714   3.819
10911TIP3    H132676   0.910   4.693   3.758
10911TIP3    H232677   0.823   4.632   3.866
10912TIP3   OH232678   4.066   4.922   4.437
10912TIP3    H132679   3.975   4.896   4.419
10912TIP3    H232680   4.072   4.921   4.532
10913TIP3   OH232681   3.474   0.999   1.546
10913TIP3    H132682   3.406   1.064   1.563
10913TIP3    H232683   3.551   1.051   1.521
10914TIP3   OH232684   6.130   7.108   4.251
10914TIP3    H132685   6.114   7.120   4.344
10914TIP3    H232686   6.215   7.150   4.236
10915TIP3   OH232687   1.930   5.579   6.612
10915TIP3    H132688   1.938   5.557   6.520
10915TIP3    H232689   1.844   5.546   6.638
10916TIP3   OH232690   6.706   3.190   2.395
10916TIP3    H132691   6.626   3.161   2.439
10916TIP3    H232692   6.681   3.273   2.353
10917TIP3   OH232693   2.375   4.125   1.928
10917TIP3    H132694   2.391   4.071   1.851
10917TIP3    H232695   2.324   4.200   1.894
10918TIP3   OH232696   6.642   6.331   6.253
10918TIP3    H132697   6.644   6.245   6.211
10918TIP3    H232698   6.647   6.311   6.346
10919TIP3   OH232699   6.339   2.576   4.411
10919TIP3    H132700   6.291   2.493   4.409
10919TIP3    H232701   6.315   2.615   4.496
10920TIP3   OH232702   3.506   4.258   3.842
10920TIP3    H132703   3.565   4.239   3.915
10920TIP3    H232704   3.454   4.332   3.871
10921TIP3   OH232705   7.737   0.116   2.272
10921TIP3    H132706   7.737   0.058   2.349
10921TIP3    H232707   7.752   0.058   2.198
10922TIP3   OH232708   7.842   7.502   6.420
10922TIP3    H132709   7.909   7.520   6.486
10922TIP3    H232710   7.803   7.588   6.402
10923TIP3   OH232711   7.811   2.002   2.200
10923TIP3    H132712   7.862   2.075   2.167
10923TIP3    H232713   7.832   1.930   2.141
10924TIP3   OH232714   0.001   0.959   1.363
10924TIP3    H132715   0.019   0.950   1.269
10924TIP3    H232716   0.070   1.017   1.395
10925TIP3   OH232717   4.449   1.214   4.510
10925TIP3    H132718   4.422   1.295   4.466
10925TIP3    H232719   4.536   1.233   4.544
10926TIP3   OH232720   4.665   5.377   5.523
10926TIP3    H132721   4.717   5.304   5.555
10926TIP3    H232722   4.574   5.349   5.535
10927TIP3   OH232723   5.003   7.422   6.001
10927TIP3    H132724   4.919   7.406   6.045
10927TIP3    H232725   4.988   7.392   5.911
10928TIP3   OH232726   3.321   2.879   0.173
10928TIP3    H132727   3.373   2.809   0.211
10928TIP3    H232728   3.385   2.943   0.142
10929TIP3   OH232729   4.180   4.802   1.512
10929TIP3    H132730   4.085   4.811   1.503
10929TIP3    H232731   4.205   4.873   1.571
10930TIP3   OH232732   7.775   6.765   6.589
10930TIP3    H132733   7.722   6.766   6.509
10930TIP3    H232734   7.751   6.846   6.634
10931TIP3   OH232735   6.407   2.802   5.726
10931TIP3    H132736   6.352   2.803   5.647
10931TIP3    H232737   6.495   2.820   5.693
10932TIP3   OH232738   5.461   3.883   3.125
10932TIP3    H132739   5.465   3.920   3.036
10932TIP3    H232740   5.425   3.954   3.178
10933TIP3   OH232741   4.461   6.510   6.561
10933TIP3    H132742   4.448   6.589   6.507
10933TIP3    H232743   4.441   6.538   6.650
10934TIP3   OH232744   5.755   1.701   5.579
10934TIP3    H132745   5.718   1.745   5.503
10934TIP3    H232746   5.772   1.612   5.549
10935TIP3   OH232747   1.812   5.821   6.738
10935TIP3    H132748   1.808   5.795   6.830
10935TIP3    H232749   1.869   5.755   6.697
10936TIP3   OH232750   6.553   2.299   3.080
10936TIP3    H132751   6.590   2.291   2.992
10936TIP3    H232752   6.584   2.384   3.111
10937TIP3   OH232753   7.624   4.881   3.174
10937TIP3    H132754   7.585   4.920   3.095
10937TIP3    H232755   7.577   4.799   3.186
10938TIP3   OH232756   0.266   5.093   0.111
10938TIP3    H132757   0.306   5.035   0.175
10938TIP3    H232758   0.221   5.160   0.163
10939TIP3   OH232759   7.409   6.160   3.728
10939TIP3    H132760   7.402   6.255   3.738
10939TIP3    H232761   7.363   6.140   3.647
10940TIP3   OH232762   4.976   5.517   4.127
10940TIP3    H132763   4.989   5.612   4.122
10940TIP3    H232764   5.020   5.491   4.207
10941TIP3   OH232765   4.294   2.532   6.622
10941TIP3    H132766   4.251   2.514   6.539
10941TIP3    H232767   4.326   2.447   6.652
10942TIP3   OH232768   1.963   1.642   3.016
10942TIP3    H132769   1.986   1.649   2.924
10942TIP3    H232770   1.972   1.549   3.036
10943TIP3   OH232771   2.947   4.369   4.033
10943TIP3    H132772   2.994   4.439   4.079
10943TIP3    H232773   2.901   4.413   3.962
10944TIP3   OH232774   4.667   6.826   4.911
10944TIP3    H132775   4.608   6.760   4.876
10944TIP3    H232776   4.640   6.837   5.002
10945TIP3   OH232777   3.378   5.275   5.136
10945TIP3    H132778   3.466   5.312   5.125
10945TIP3    H232779   3.320   5.338   5.093
10946TIP3   OH232780   6.192   0.798   4.572
10946TIP3    H132781   6.258   0.839   4.628
10946TIP3    H232782   6.110   0.838   4.600
10947TIP3   OH232783   4.430   4.040   2.532
10947TIP3    H132784   4.412   4.082   2.448
10947TIP3    H232785   4.511   3.990   2.517
10948TIP3   OH232786   7.196   3.063   1.641
10948TIP3    H132787   7.271   3.054   1.699
10948TIP3    H232788   7.152   2.978   1.646
10949TIP3   OH232789   6.245   7.054   5.529
10949TIP3    H132790   6.219   7.034   5.440
10949TIP3    H232791   6.164   7.051   5.580
10950TIP3   OH232792   3.952   5.414   0.653
10950TIP3    H132793   3.871   5.409   0.601
10950TIP3    H232794   4.013   5.357   0.607
10951TIP3   OH232795   0.512   4.062   3.658
10951TIP3    H132796   0.434   4.023   3.697
10951TIP3    H232797   0.478   4.133   3.603
10952TIP3   OH232798   0.970   3.046   6.154
10952TIP3    H132799   1.005   2.972   6.106
10952TIP3    H232800   0.895   3.011   6.202
10953TIP3   OH232801   6.225   5.864   2.676
10953TIP3    H132802   6.269   5.790   2.633
10953TIP3    H232803   6.203   5.831   2.763
10954TIP3   OH232804   4.145   4.850   0.244
10954TIP3    H132805   4.087   4.796   0.191
10954TIP3    H232806   4.210   4.884   0.182
10955TIP3   OH232807   2.537   5.882   3.288
10955TIP3    H132808   2.583   5.867   3.370
10955TIP3    H232809   2.550   5.976   3.270
10956TIP3   OH232810   4.423   5.775   0.169
10956TIP3    H132811   4.401   5.861   0.132
10956TIP3    H232812   4.449   5.794   0.259
10957TIP3   OH232813   5.170   7.034   6.142
10957TIP3    H132814   5.189   7.127   6.152
10957TIP3    H232815   5.171   7.000   6.231
10958TIP3   OH232816   2.098   6.363   2.059
10958TIP3    H132817   2.093   6.269   2.043
10958TIP3    H232818   2.137   6.399   1.979
10959TIP3   OH232819   0.353   1.964   2.620
10959TIP3    H132820   0.421   2.022   2.587
10959TIP3    H232821   0.277   1.982   2.565
10960TIP3   OH232822   2.647   2.703   3.765
10960TIP3    H132823   2.700   2.670   3.838
10960TIP3    H232824   2.696   2.777   3.731
10961TIP3   OH232825   2.819   5.288   1.678
10961TIP3    H132826   2.878   5.272   1.753
10961TIP3    H232827   2.740   5.324   1.718
10962TIP3   OH232828   6.617   2.722   2.240
10962TIP3    H132829   6.567   2.691   2.164
10962TIP3    H232830   6.590   2.813   2.251
10963TIP3   OH232831   4.297   1.094   0.129
10963TIP3    H132832   4.215   1.051   0.104
10963TIP3    H232833   4.330   1.043   0.203
10964TIP3   OH232834   4.384   0.131   2.082
10964TIP3    H132835   4.456   0.176   2.036
10964TIP3    H232836   4.391   0.162   2.172
10965TIP3   OH232837   1.769   3.834   3.070
10965TIP3    H132838   1.857   3.817   3.038
10965TIP3    H232839   1.762   3.785   3.152
10966TIP3   OH232840   1.076   0.797   2.448
10966TIP3    H132841   1.119   0.736   2.507
10966TIP3    H232842   0.985   0.767   2.444
10967TIP3   OH232843   1.851   4.626   1.263
10967TIP3    H132844   1.935   4.581   1.269
10967TIP3    H232845   1.788   4.566   1.304
10968TIP3   OH232846   1.588   3.939   3.391
10968TIP3    H132847   1.590   3.988   3.309
10968TIP3    H232848   1.525   3.870   3.377
10969TIP3   OH232849   1.286   2.633   1.411
10969TIP3    H132850   1.255   2.551   1.374
10969TIP3    H232851   1.295   2.615   1.504
10970TIP3   OH232852   5.269   5.432   5.996
10970TIP3    H132853   5.254   5.526   5.984
10970TIP3    H232854   5.362   5.425   6.019
10971TIP3   OH232855   6.897   2.906   5.316
10971TIP3    H132856   6.807   2.939   5.320
10971TIP3    H232857   6.920   2.889   5.407
10972TIP3   OH232858   6.194   5.945   2.954
10972TIP3    H132859   6.115   5.985   2.991
10972TIP3    H232860   6.256   6.017   2.946
10973TIP3   OH232861   7.374   2.250   6.177
10973TIP3    H132862   7.389   2.344   6.177
10973TIP3    H232863   7.343   2.230   6.088
10974TIP3   OH232864   3.379   0.841   1.003
10974TIP3    H132865   3.284   0.850   0.999
10974TIP3    H232866   3.401   0.793   0.922
10975TIP3   OH232867   8.149   0.524   4.177
10975TIP3    H132868   8.173   0.444   4.223
10975TIP3    H232869   8.101   0.576   4.241
10976TIP3   OH232870   7.123   0.213   2.554
10976TIP3    H132871   7.192   0.186   2.615
10976TIP3    H232872   7.156   0.187   2.468
10977TIP3   OH232873   4.394   5.294   4.766
10977TIP3    H132874   4.387   5.203   4.795
10977TIP3    H232875   4.353   5.296   4.680
10978TIP3   OH232876   5.385   2.477   5.765
10978TIP3    H132877   5.378   2.384   5.784
10978TIP3    H232878   5.453   2.508   5.825
10979TIP3   OH232879   4.803   5.484   1.926
10979TIP3    H132880   4.770   5.564   1.887
10979TIP3    H232881   4.827   5.509   2.016
10980TIP3   OH232882   1.359   7.306   5.083
10980TIP3    H132883   1.295   7.288   5.152
10980TIP3    H232884   1.409   7.381   5.115
10981TIP3   OH232885   7.067   7.743   4.105
10981TIP3    H132886   6.993   7.729   4.165
10981TIP3    H232887   7.073   7.662   4.055
10982TIP3   OH232888   2.946   2.127   2.237
10982TIP3    H132889   2.993   2.176   2.170
10982TIP3    H232890   2.995   2.045   2.246
10983TIP3   OH232891   7.193   1.084   4.605
10983TIP3    H132892   7.242   1.139   4.666
10983TIP3    H232893   7.203   1.128   4.521
10984TIP3   OH232894   7.346   1.136   0.900
10984TIP3    H132895   7.374   1.228   0.895
10984TIP3    H232896   7.418   1.092   0.945
10985TIP3   OH232897   3.249   4.911   4.016
10985TIP3    H132898   3.192   4.882   4.088
10985TIP3    H232899   3.336   4.883   4.041
10986TIP3   OH232900   0.609   7.526   1.542
10986TIP3    H132901   0.533   7.469   1.548
10986TIP3    H232902   0.618   7.544   1.448
10987TIP3   OH232903   3.846   0.745   4.125
10987TIP3    H132904   3.825   0.677   4.190
10987TIP3    H232905   3.938   0.766   4.142
10988TIP3   OH232906   4.403   4.071   4.402
10988TIP3    H132907   4.420   4.005   4.469
10988TIP3    H232908   4.479   4.068   4.344
10989TIP3   OH232909   2.714   2.348   0.961
10989TIP3    H132910   2.706   2.305   0.876
10989TIP3    H232911   2.624   2.350   0.995
10990TIP3   OH232912   5.198   5.091   6.509
10990TIP3    H132913   5.231   5.114   6.422
10990TIP3    H232914   5.105   5.073   6.495
10991TIP3   OH232915   0.528   2.883   6.351
10991TIP3    H132916   0.479   2.904   6.431
10991TIP3    H232917   0.461   2.856   6.289
10992TIP3   OH232918   7.963   6.151   4.987
10992TIP3    H132919   7.875   6.168   4.956
10992TIP3    H232920   7.962   6.180   5.079
10993TIP3   OH232921   3.855   4.509   3.818
10993TIP3    H132922   3.832   4.598   3.845
10993TIP3    H232923   3.801   4.452   3.872
10994TIP3   OH232924   7.581   3.979   5.915
10994TIP3    H132925   7.659   4.015   5.957
10994TIP3    H232926   7.613   3.937   5.835
10995TIP3   OH232927   7.909   2.190   1.503
10995TIP3    H132928   7.940   2.117   1.449
10995TIP3    H232929   7.962   2.265   1.476
10996TIP3   OH232930   4.932   1.706   6.530
10996TIP3    H132931   4.881   1.765   6.585
10996TIP3    H232932   4.881   1.699   6.449
10997TIP3   OH232933   7.246   3.229   2.562
10997TIP3    H132934   7.304   3.234   2.639
10997TIP3    H232935   7.227   3.136   2.553
10998TIP3   OH232936   5.453   5.479   3.744
10998TIP3    H132937   5.411   5.440   3.667
10998TIP3    H232938   5.547   5.480   3.722
10999TIP3   OH232939   2.404   2.265   1.990
10999TIP3    H132940   2.322   2.217   1.998
10999TIP3    H232941   2.455   2.238   2.066
11000TIP3   OH232942   3.684   2.314   6.767
11000TIP3    H132943   3.646   2.359   6.692
11000TIP3    H232944   3.708   2.227   6.734
11001TIP3   OH232945   2.262   1.186   3.002
11001TIP3    H132946   2.206   1.233   2.941
11001TIP3    H232947   2.290   1.252   3.065
11002TIP3   OH232948   7.605   4.759   2.198
11002TIP3    H132949   7.590   4.672   2.234
11002TIP3    H232950   7.527   4.778   2.146
11003TIP3   OH232951   6.738   3.450   0.561
11003TIP3    H132952   6.725   3.542   0.584
11003TIP3    H232953   6.652   3.410   0.577
11004TIP3   OH232954   8.260   1.326   1.494
11004TIP3    H132955   8.276   1.372   1.576
11004TIP3    H232956   8.342   1.280   1.475
11005TIP3   OH232957   0.541   6.049   2.404
11005TIP3    H132958   0.554   6.115   2.471
11005TIP3    H232959   0.601   6.073   2.333
11006TIP3   OH232960   3.355   2.614   6.544
11006TIP3    H132961   3.290   2.674   6.508
11006TIP3    H232962   3.393   2.571   6.467
11007TIP3   OH232963   4.685   5.440   3.636
11007TIP3    H132964   4.763   5.477   3.677
11007TIP3    H232965   4.717   5.397   3.557
11008TIP3   OH232966   4.963   6.682   6.580
11008TIP3    H132967   4.923   6.648   6.501
11008TIP3    H232968   4.900   6.746   6.613
11009TIP3   OH232969   6.520   4.766   1.551
11009TIP3    H132970   6.537   4.743   1.460
11009TIP3    H232971   6.431   4.734   1.569
11010TIP3   OH232972   7.614   5.739   5.413
11010TIP3    H132973   7.619   5.827   5.450
11010TIP3    H232974   7.652   5.683   5.481
11011TIP3   OH232975   3.801   2.678   1.238
11011TIP3    H132976   3.881   2.717   1.203
11011TIP3    H232977   3.731   2.712   1.182
11012TIP3   OH232978   4.967   1.647   0.554
11012TIP3    H132979   4.914   1.726   0.543
11012TIP3    H232980   4.937   1.589   0.483
11013TIP3   OH232981   6.193   5.938   5.678
11013TIP3    H132982   6.164   5.853   5.711
11013TIP3    H232983   6.114   5.992   5.678
11014TIP3   OH232984   3.506   3.794   1.668
11014TIP3    H132985   3.437   3.728   1.680
11014TIP3    H232986   3.587   3.748   1.692
11015TIP3   OH232987   3.615   2.023   1.566
11015TIP3    H132988   3.591   2.087   1.500
11015TIP3    H232989   3.568   1.943   1.541
11016TIP3   OH232990   4.384   5.571   2.992
11016TIP3    H132991   4.336   5.532   3.065
11016TIP3    H232992   4.351   5.660   2.987
11017TIP3   OH232993   1.864   0.165   4.887
11017TIP3    H132994   1.845   0.205   4.971
11017TIP3    H232995   1.891   0.238   4.831
11018TIP3   OH232996   0.948   6.921   6.177
11018TIP3    H132997   0.949   7.016   6.167
11018TIP3    H232998   0.984   6.907   6.265
11019TIP3   OH232999   0.812   6.275   4.910
11019TIP3    H133000   0.853   6.254   4.994
11019TIP3    H233001   0.813   6.193   4.861
11020TIP3   OH233002   1.622   4.049   1.798
11020TIP3    H133003   1.576   4.133   1.803
11020TIP3    H233004   1.632   4.033   1.704
11021TIP3   OH233005   5.338   5.938   4.575
11021TIP3    H133006   5.349   6.018   4.627
11021TIP3    H233007   5.285   5.881   4.631
11022TIP3   OH233008   5.218   6.103   5.086
11022TIP3    H133009   5.149   6.044   5.058
11022TIP3    H233010   5.209   6.179   5.029
11023TIP3   OH233011   4.810   2.471   2.082
11023TIP3    H133012   4.804   2.382   2.049
11023TIP3    H233013   4.881   2.469   2.147
11024TIP3   OH233014   5.954   4.793   0.333
11024TIP3    H133015   5.958   4.864   0.268
11024TIP3    H233016   6.028   4.736   0.311
11025TIP3   OH233017   6.268   6.704   4.365
11025TIP3    H133018   6.255   6.741   4.452
11025TIP3    H233019   6.201   6.746   4.311
11026TIP3   OH233020   3.771   1.444   5.054
11026TIP3    H133021   3.831   1.443   5.128
11026TIP3    H233022   3.782   1.530   5.014
11027TIP3   OH233023   0.799   4.986   3.824
11027TIP3    H133024   0.780   5.026   3.739
11027TIP3    H233025   0.824   4.896   3.802
11028TIP3   OH233026   2.684   0.377   2.640
11028TIP3    H133027   2.613   0.440   2.628
11028TIP3    H233028   2.650   0.314   2.703
11029TIP3   OH233029   3.942   7.728   2.770
11029TIP3    H133030   3.985   7.781   2.703
11029TIP3    H233031   3.882   7.788   2.813
11030TIP3   OH233032   8.260   4.062   6.032
11030TIP3    H133033   8.293   4.123   6.098
11030TIP3    H233034   8.229   3.987   6.082
11031TIP3   OH233035   7.726   3.908   5.660
11031TIP3    H133036   7.764   3.836   5.610
11031TIP3    H233037   7.773   3.986   5.629
11032TIP3   OH233038   7.558   4.347   0.719
11032TIP3    H133039   7.606   4.321   0.798
11032TIP3    H233040   7.626   4.380   0.660
11033TIP3   OH233041   2.125   6.214   0.165
11033TIP3    H133042   2.155   6.280   0.227
11033TIP3    H233043   2.095   6.141   0.219
11034TIP3   OH233044   6.952   2.189   3.281
11034TIP3    H133045   6.868   2.152   3.254
11034TIP3    H233046   6.973   2.254   3.214
11035TIP3   OH233047   4.772   1.211   3.613
11035TIP3    H133048   4.710   1.222   3.541
11035TIP3    H233049   4.782   1.299   3.649
11036TIP3   OH233050   3.202   0.357   1.517
11036TIP3    H133051   3.199   0.325   1.427
11036TIP3    H233052   3.172   0.283   1.569
11037TIP3   OH233053   1.760   5.282   0.216
11037TIP3    H133054   1.734   5.219   0.149
11037TIP3    H233055   1.855   5.287   0.208
11038TIP3   OH233056   3.150   0.122   5.912
11038TIP3    H133057   3.073   0.112   5.856
11038TIP3    H233058   3.137   0.059   5.983
11039TIP3   OH233059   4.834   7.291   0.087
11039TIP3    H133060   4.810   7.382   0.105
11039TIP3    H233061   4.864   7.257   0.171
11040TIP3   OH233062   4.370   5.734   2.496
11040TIP3    H133063   4.463   5.751   2.512
11040TIP3    H233064   4.354   5.769   2.409
11041TIP3   OH233065   4.429   4.050   5.390
11041TIP3    H133066   4.461   4.033   5.478
11041TIP3    H233067   4.509   4.059   5.337
11042TIP3   OH233068   4.881   5.542   4.727
11042TIP3    H133069   4.793   5.579   4.725
11042TIP3    H233070   4.874   5.460   4.677
11043TIP3   OH233071   6.855   1.703   2.218
11043TIP3    H133072   6.938   1.658   2.236
11043TIP3    H233073   6.820   1.659   2.141
11044TIP3   OH233074   4.052   7.277   0.778
11044TIP3    H133075   4.064   7.183   0.796
11044TIP3    H233076   4.003   7.280   0.696
11045TIP3   OH233077   2.219   2.715   3.369
11045TIP3    H133078   2.124   2.725   3.366
11045TIP3    H233079   2.234   2.627   3.403
11046TIP3   OH233080   1.989   0.348   0.516
11046TIP3    H133081   2.026   0.379   0.598
11046TIP3    H233082   2.065   0.328   0.461
11047TIP3   OH233083   6.154   2.126   1.614
11047TIP3    H133084   6.231   2.092   1.660
11047TIP3    H233085   6.124   2.052   1.561
11048TIP3   OH233086   3.296   7.007   6.592
11048TIP3    H133087   3.385   6.992   6.624
11048TIP3    H233088   3.286   7.102   6.590
11049TIP3   OH233089   7.829   2.298   5.756
11049TIP3    H133090   7.773   2.319   5.830
11049TIP3    H233091   7.914   2.334   5.778
11050TIP3   OH233092   2.252   6.858   4.630
11050TIP3    H133093   2.253   6.776   4.581
11050TIP3    H233094   2.304   6.840   4.708
11051TIP3   OH233095   4.574   4.710   5.007
11051TIP3    H133096   4.635   4.776   5.040
11051TIP3    H233097   4.626   4.629   5.005
11052TIP3   OH233098   3.826   0.970   6.350
11052TIP3    H133099   3.856   1.054   6.316
11052TIP3    H233100   3.788   0.925   6.275
11053TIP3   OH233101   7.882   4.920   5.833
11053TIP3    H133102   7.953   4.863   5.861
11053TIP3    H233103   7.880   4.910   5.737
11054TIP3   OH233104   7.938   2.424   0.995
11054TIP3    H133105   7.946   2.394   1.086
11054TIP3    H233106   7.899   2.511   1.002
11055TIP3   OH233107   3.223   4.112   6.607
11055TIP3    H133108   3.152   4.093   6.545
11055TIP3    H233109   3.287   4.043   6.592
11056TIP3   OH233110   6.301   1.123   4.588
11056TIP3    H133111   6.234   1.100   4.651
11056TIP3    H233112   6.379   1.140   4.640
11057TIP3   OH233113   3.866   5.279   1.643
11057TIP3    H133114   3.892   5.199   1.688
11057TIP3    H233115   3.931   5.344   1.671
11058TIP3   OH233116   6.117   6.676   5.716
11058TIP3    H133117   6.124   6.642   5.627
11058TIP3    H233118   6.175   6.752   5.717
11059TIP3   OH233119   3.730   2.235   2.559
11059TIP3    H133120   3.657   2.237   2.497
11059TIP3    H233121   3.804   2.274   2.511
11060TIP3   OH233122   0.169   1.458   3.401
11060TIP3    H133123   0.124   1.465   3.317
11060TIP3    H233124   0.248   1.510   3.391
11061TIP3   OH233125   4.403   2.706   0.956
11061TIP3    H133126   4.374   2.737   1.041
11061TIP3    H233127   4.453   2.778   0.919
11062TIP3   OH233128   0.403   0.446   5.626
11062TIP3    H133129   0.371   0.513   5.686
11062TIP3    H233130   0.361   0.365   5.656
11063TIP3   OH233131   5.676   5.258   2.713
11063TIP3    H133132   5.665   5.353   2.709
11063TIP3    H233133   5.658   5.228   2.624
11064TIP3   OH233134   2.180   4.096   5.207
11064TIP3    H133135   2.165   4.039   5.283
11064TIP3    H233136   2.274   4.115   5.209
11065TIP3   OH233137   4.784   3.371   4.812
11065TIP3    H133138   4.701   3.360   4.858
11065TIP3    H233139   4.850   3.375   4.881
11066TIP3   OH233140   6.076   4.762   1.654
11066TIP3    H133141   6.099   4.853   1.635
11066TIP3    H233142   5.987   4.766   1.687
11067TIP3   OH233143   4.372   5.058   4.484
11067TIP3    H133144   4.325   4.985   4.523
11067TIP3    H233145   4.344   5.135   4.534
11068TIP3   OH233146   2.566   1.539   1.908
11068TIP3    H133147   2.641   1.481   1.895
11068TIP3    H233148   2.601   1.627   1.896
11069TIP3   OH233149   3.300   4.836   0.282
11069TIP3    H133150   3.236   4.883   0.228
11069TIP3    H233151   3.248   4.791   0.348
11070TIP3   OH233152   0.578   7.667   4.704
11070TIP3    H133153   0.602   7.756   4.680
11070TIP3    H233154   0.576   7.620   4.620
11071TIP3   OH233155   2.764   0.299   3.609
11071TIP3    H133156   2.695   0.343   3.558
11071TIP3    H233157   2.844   0.348   3.588
11072TIP3   OH233158   5.037   5.638   0.111
11072TIP3    H133159   5.075   5.558   0.147
11072TIP3    H233160   5.111   5.698   0.102
11073TIP3   OH233161   3.204   0.930   3.475
11073TIP3    H133162   3.178   0.908   3.565
11073TIP3    H233163   3.299   0.932   3.477
11074TIP3   OH233164   6.112   3.753   1.158
11074TIP3    H133165   6.087   3.766   1.249
11074TIP3    H233166   6.207   3.761   1.157
11075TIP3   OH233167   4.559   6.941   3.589
11075TIP3    H133168   4.490   6.895   3.635
11075TIP3    H233169   4.514   7.005   3.535
11076TIP3   OH233170   1.945   3.220   0.088
11076TIP3    H133171   1.929   3.182   0.001
11076TIP3    H233172   2.010   3.163   0.128
11077TIP3   OH233173   2.691   0.222   0.501
11077TIP3    H133174   2.725   0.305   0.469
11077TIP3    H233175   2.691   0.231   0.597
11078TIP3   OH233176   3.501   5.185   2.371
11078TIP3    H133177   3.509   5.271   2.329
11078TIP3    H233178   3.500   5.123   2.299
11079TIP3   OH233179   5.566   4.855   3.076
11079TIP3    H133180   5.521   4.939   3.069
11079TIP3    H233181   5.574   4.839   3.170
11080TIP3   OH233182   3.744   7.476   3.574
11080TIP3    H133183   3.736   7.471   3.479
11080TIP3    H233184   3.752   7.385   3.602
11081TIP3   OH233185   4.244   5.906   6.030
11081TIP3    H133186   4.260   5.952   6.112
11081TIP3    H233187   4.286   5.821   6.042
11082TIP3   OH233188   0.805   7.584   2.518
11082TIP3    H133189   0.731   7.523   2.521
11082TIP3    H233190   0.814   7.615   2.608
11083TIP3   OH233191   5.076   4.503   5.653
11083TIP3    H133192   5.071   4.554   5.572
11083TIP3    H233193   5.012   4.434   5.642
11084TIP3   OH233194   0.501   7.695   4.092
11084TIP3    H133195   0.555   7.728   4.163
11084TIP3    H233196   0.474   7.773   4.043
11085TIP3   OH233197   1.784   7.550   4.187
11085TIP3    H133198   1.824   7.526   4.270
11085TIP3    H233199   1.728   7.625   4.208
11086TIP3   OH233200   3.946   7.741   6.495
11086TIP3    H133201   3.880   7.735   6.565
11086TIP3    H233202   4.026   7.767   6.540
11087TIP3   OH233203   5.901   7.717   2.489
11087TIP3    H133204   5.862   7.718   2.577
11087TIP3    H233205   5.835   7.757   2.433
11088TIP3   OH233206   3.361   6.887   5.995
11088TIP3    H133207   3.288   6.841   6.036
11088TIP3    H233208   3.321   6.962   5.950
11089TIP3   OH233209   7.313   3.188   3.620
11089TIP3    H133210   7.377   3.236   3.672
11089TIP3    H233211   7.229   3.205   3.663
11090TIP3   OH233212   4.908   0.088   5.589
11090TIP3    H133213   4.818   0.100   5.618
11090TIP3    H233214   4.901   0.042   5.505
11091TIP3   OH233215   7.016   7.621   2.218
11091TIP3    H133216   6.955   7.617   2.144
11091TIP3    H233217   7.083   7.555   2.197
11092TIP3   OH233218   6.587   0.331   2.000
11092TIP3    H133219   6.540   0.347   2.082
11092TIP3    H233220   6.527   0.278   1.948
11093TIP3   OH233221   4.042   3.198   5.321
11093TIP3    H133222   4.079   3.109   5.319
11093TIP3    H233223   3.989   3.204   5.242
11094TIP3   OH233224   3.360   7.466   6.328
11094TIP3    H133225   3.358   7.382   6.373
11094TIP3    H233226   3.342   7.531   6.396
11095TIP3   OH233227   1.812   7.676   2.640
11095TIP3    H133228   1.745   7.678   2.709
11095TIP3    H233229   1.810   7.763   2.602
11096TIP3   OH233230   2.992   2.500   0.940
11096TIP3    H133231   3.037   2.573   0.897
11096TIP3    H233232   2.907   2.494   0.897
11097TIP3   OH233233   3.615   6.814   4.311
11097TIP3    H133234   3.694   6.810   4.257
11097TIP3    H233235   3.642   6.863   4.389
11098TIP3   OH233236   1.898   0.873   0.967
11098TIP3    H133237   1.857   0.822   0.897
11098TIP3    H233238   1.831   0.936   0.993
11099TIP3   OH233239   6.482   4.084   1.026
11099TIP3    H133240   6.536   4.163   1.026
11099TIP3    H233241   6.452   4.075   1.117
11100TIP3   OH233242   6.762   6.505   3.970
11100TIP3    H133243   6.763   6.417   3.932
11100TIP3    H233244   6.842   6.508   4.023
11101TIP3   OH233245   6.203   6.535   0.049
11101TIP3    H133246   6.194   6.507  -0.042
11101TIP3    H233247   6.291   6.509   0.074
11102TIP3   OH233248   7.872   1.776   2.032
11102TIP3    H133249   7.835   1.694   2.001
11102TIP3    H233250   7.902   1.821   1.952
11103TIP3   OH233251   2.677   0.545   0.906
11103TIP3    H133252   2.643   0.478   0.966
11103TIP3    H233253   2.722   0.608   0.964
11104TIP3   OH233254   2.207   2.958   4.909
11104TIP3    H133255   2.207   2.894   4.838
11104TIP3    H233256   2.121   2.999   4.904
11105TIP3   OH233257   2.551   1.633   6.052
11105TIP3    H133258   2.539   1.566   6.120
11105TIP3    H233259   2.592   1.706   6.098
11106TIP3   OH233260   7.468   5.416   3.243
11106TIP3    H133261   7.394   5.380   3.193
11106TIP3    H233262   7.477   5.356   3.317
11107TIP3   OH233263   3.175   2.100   1.799
11107TIP3    H133264   3.081   2.101   1.816
11107TIP3    H233265   3.215   2.106   1.885
11108TIP3   OH233266   5.250   0.976   1.868
11108TIP3    H133267   5.254   0.974   1.772
11108TIP3    H233268   5.341   0.986   1.895
11109TIP3   OH233269   2.167   3.417   2.054
11109TIP3    H133270   2.107   3.425   1.980
11109TIP3    H233271   2.252   3.397   2.013
11110TIP3   OH233272   3.700   5.785   2.184
11110TIP3    H133273   3.674   5.778   2.092
11110TIP3    H233274   3.718   5.695   2.211
11111TIP3   OH233275   3.630   6.788   0.748
11111TIP3    H133276   3.691   6.715   0.759
11111TIP3    H233277   3.597   6.806   0.836
11112TIP3   OH233278   6.724   2.036   3.673
11112TIP3    H133279   6.751   2.119   3.634
11112TIP3    H233280   6.641   2.056   3.717
11113TIP3   OH233281   2.071   5.253   6.505
11113TIP3    H133282   2.045   5.163   6.528
11113TIP3    H233283   1.989   5.296   6.481
11114TIP3   OH233284   0.404   4.428   5.632
11114TIP3    H133285   0.453   4.491   5.684
11114TIP3    H233286   0.356   4.376   5.697
11115TIP3   OH233287   6.245   0.181   1.603
11115TIP3    H133288   6.218   0.095   1.572
11115TIP3    H233289   6.301   0.215   1.533
11116TIP3   OH233290   1.734   2.749   4.296
11116TIP3    H133291   1.698   2.834   4.273
11116TIP3    H233292   1.733   2.699   4.214
11117TIP3   OH233293   3.684   7.240   4.006
11117TIP3    H133294   3.673   7.285   4.089
11117TIP3    H233295   3.641   7.156   4.018
11118TIP3   OH233296   0.748   4.187   4.782
11118TIP3    H133297   0.663   4.232   4.787
11118TIP3    H233298   0.812   4.257   4.772
11119TIP3   OH233299   7.564   4.009   2.855
11119TIP3    H133300   7.629   3.948   2.891
11119TIP3    H233301   7.572   3.998   2.760
11120TIP3   OH233302   5.329   1.417   3.775
11120TIP3    H133303   5.414   1.456   3.756
11120TIP3    H233304   5.307   1.449   3.862
11121TIP3   OH233305   4.268   4.409   2.214
11121TIP3    H133306   4.310   4.412   2.128
11121TIP3    H233307   4.203   4.480   2.212
11122TIP3   OH233308   5.302   3.445   4.273
11122TIP3    H133309   5.268   3.385   4.207
11122TIP3    H233310   5.348   3.389   4.336
11123TIP3   OH233311   6.747   7.157   2.020
11123TIP3    H133312   6.758   7.145   2.115
11123TIP3    H233313   6.710   7.245   2.011
11124TIP3   OH233314   5.913   7.433   5.783
11124TIP3    H133315   5.856   7.491   5.832
11124TIP3    H233316   5.888   7.345   5.811
11125TIP3   OH233317   3.540   2.252   3.507
11125TIP3    H133318   3.567   2.174   3.460
11125TIP3    H233319   3.615   2.311   3.501
11126TIP3   OH233320   3.767   7.297   6.130
11126TIP3    H133321   3.708   7.244   6.076
11126TIP3    H233322   3.727   7.384   6.130
11127TIP3   OH233323   0.464   6.085   4.615
11127TIP3    H133324   0.460   6.160   4.675
11127TIP3    H233325   0.458   6.122   4.528
11128TIP3   OH233326   1.348   0.962   2.618
11128TIP3    H133327   1.399   0.991   2.694
11128TIP3    H233328   1.408   0.969   2.544
11129TIP3   OH233329   4.920   0.631   1.824
11129TIP3    H133330   4.967   0.549   1.806
11129TIP3    H233331   4.830   0.603   1.840
11130TIP3   OH233332   6.837   6.917   3.483
11130TIP3    H133333   6.888   6.926   3.563
11130TIP3    H233334   6.901   6.895   3.415
11131TIP3   OH233335   2.602   6.113   2.662
11131TIP3    H133336   2.631   6.198   2.694
11131TIP3    H233337   2.508   6.111   2.681
11132TIP3   OH233338   2.023   5.807   1.540
11132TIP3    H133339   2.064   5.863   1.474
11132TIP3    H233340   2.085   5.735   1.552
11133TIP3   OH233341   2.193   6.330   0.420
11133TIP3    H133342   2.162   6.401   0.476
11133TIP3    H233343   2.205   6.256   0.480
11134TIP3   OH233344   6.016   1.998   4.949
11134TIP3    H133345   6.038   1.908   4.973
11134TIP3    H233346   5.939   1.990   4.893
11135TIP3   OH233347   0.781   2.826   0.474
11135TIP3    H133348   0.692   2.824   0.507
11135TIP3    H233349   0.777   2.780   0.390
11136TIP3   OH233350   7.356   5.622   5.622
11136TIP3    H133351   7.427   5.560   5.610
11136TIP3    H233352   7.289   5.573   5.670
11137TIP3   OH233353   1.918   0.808   5.877
11137TIP3    H133354   1.921   0.803   5.781
11137TIP3    H233355   1.966   0.731   5.906
11138TIP3   OH233356   2.963   5.432   0.558
11138TIP3    H133357   2.909   5.510   0.570
11138TIP3    H233358   2.906   5.359   0.584
11139TIP3   OH233359   5.914   6.285   5.908
11139TIP3    H133360   5.879   6.207   5.950
11139TIP3    H233361   6.001   6.259   5.878
11140TIP3   OH233362   5.251   4.475   5.896
11140TIP3    H133363   5.277   4.385   5.880
11140TIP3    H233364   5.226   4.509   5.810
11141TIP3   OH233365   3.653   6.545   5.186
11141TIP3    H133366   3.559   6.533   5.173
11141TIP3    H233367   3.661   6.634   5.222
11142TIP3   OH233368   6.857   4.050   2.681
11142TIP3    H133369   6.795   4.118   2.709
11142TIP3    H233370   6.887   4.010   2.763
11143TIP3   OH233371   0.165   4.528   0.221
11143TIP3    H133372   0.246   4.482   0.199
11143TIP3    H233373   0.137   4.567   0.138
11144TIP3   OH233374   3.789   0.937   6.778
11144TIP3    H133375   3.880   0.929   6.806
11144TIP3    H233376   3.785   0.891   6.694
11145TIP3   OH233377   8.164   7.204   5.064
11145TIP3    H133378   8.164   7.296   5.037
11145TIP3    H233379   8.144   7.156   4.984
11146TIP3   OH233380   8.263   5.203   1.170
11146TIP3    H133381   8.293   5.157   1.248
11146TIP3    H233382   8.218   5.281   1.203
11147TIP3   OH233383   8.206   0.115   5.079
11147TIP3    H133384   8.157   0.069   5.148
11147TIP3    H233385   8.228   0.200   5.118
11148TIP3   OH233386   1.648   3.052   5.075
11148TIP3    H133387   1.719   3.030   5.135
11148TIP3    H233388   1.686   3.119   5.018
11149TIP3   OH233389   0.114   3.698   6.053
11149TIP3    H133390   0.045   3.751   6.094
11149TIP3    H233391   0.066   3.635   5.999
11150TIP3   OH233392   7.903   5.136   6.027
11150TIP3    H133393   7.821   5.184   6.041
11150TIP3    H233394   7.878   5.063   5.970
11151TIP3   OH233395   3.965   1.863   6.668
11151TIP3    H133396   4.055   1.870   6.699
11151TIP3    H233397   3.939   1.774   6.690
11152TIP3   OH233398   4.242   7.704   0.159
11152TIP3    H133399   4.178   7.643   0.122
11152TIP3    H233400   4.231   7.785   0.109
11153TIP3   OH233401   7.012   4.942   2.818
11153TIP3    H133402   7.042   5.001   2.749
11153TIP3    H233403   6.932   4.904   2.784
11154TIP3   OH233404   0.982   7.783   5.332
11154TIP3    H133405   1.021   7.703   5.295
11154TIP3    H233406   1.046   7.812   5.397
11155TIP3   OH233407   5.904   6.553   6.384
11155TIP3    H133408   5.867   6.480   6.334
11155TIP3    H233409   5.998   6.543   6.375
11156TIP3   OH233410   2.864   5.463   0.862
11156TIP3    H133411   2.771   5.469   0.840
11156TIP3    H233412   2.883   5.370   0.862
11157TIP3   OH233413   6.168   5.609   1.485
11157TIP3    H133414   6.090   5.601   1.539
11157TIP3    H233415   6.160   5.541   1.419
11158TIP3   OH233416   4.983   2.948   5.404
11158TIP3    H133417   5.060   2.902   5.436
11158TIP3    H233418   4.962   2.905   5.321
11159TIP3   OH233419   0.148   5.598   3.477
11159TIP3    H133420   0.229   5.564   3.439
11159TIP3    H233421   0.120   5.528   3.537
11160TIP3   OH233422   5.186   5.226   3.345
11160TIP3    H133423   5.164   5.232   3.252
11160TIP3    H233424   5.278   5.198   3.346
11161TIP3   OH233425   7.600   0.424   4.494
11161TIP3    H133426   7.680   0.401   4.448
11161TIP3    H233427   7.628   0.483   4.564
11162TIP3   OH233428   8.274   0.955   5.584
11162TIP3    H133429   8.327   0.991   5.655
11162TIP3    H233430   8.322   0.977   5.504
11163TIP3   OH233431   3.920   5.926   3.231
11163TIP3    H133432   3.926   5.917   3.135
11163TIP3    H233433   3.963   5.847   3.265
11164TIP3   OH233434   1.612   3.120   5.604
11164TIP3    H133435   1.686   3.179   5.592
11164TIP3    H233436   1.542   3.177   5.637
11165TIP3   OH233437   5.593   3.761   4.227
11165TIP3    H133438   5.641   3.842   4.212
11165TIP3    H233439   5.509   3.773   4.184
11166TIP3   OH233440   3.396   6.007   3.289
11166TIP3    H133441   3.490   6.006   3.309
11166TIP3    H233442   3.382   5.931   3.233
11167TIP3   OH233443   7.665   3.875   0.899
11167TIP3    H133444   7.644   3.872   0.806
11167TIP3    H233445   7.743   3.820   0.908
11168TIP3   OH233446   8.036   5.499   3.437
11168TIP3    H133447   8.027   5.449   3.356
11168TIP3    H233448   8.112   5.459   3.481
11169TIP3   OH233449   6.968   7.432   2.525
11169TIP3    H133450   7.062   7.417   2.525
11169TIP3    H233451   6.931   7.351   2.490
11170TIP3   OH233452   0.781   0.344   2.301
11170TIP3    H133453   0.866   0.343   2.344
11170TIP3    H233454   0.718   0.325   2.371
11171TIP3   OH233455   4.332   7.709   4.453
11171TIP3    H133456   4.281   7.778   4.495
11171TIP3    H233457   4.273   7.672   4.387
11172TIP3   OH233458   7.149   2.645   0.337
11172TIP3    H133459   7.091   2.647   0.413
11172TIP3    H233460   7.205   2.568   0.353
11173TIP3   OH233461   2.472   5.060   1.167
11173TIP3    H133462   2.468   5.104   1.252
11173TIP3    H233463   2.420   5.115   1.108
11174TIP3   OH233464   5.070   6.053   3.554
11174TIP3    H133465   5.060   5.990   3.482
11174TIP3    H233466   5.164   6.072   3.555
11175TIP3   OH233467   8.082   6.522   4.384
11175TIP3    H133468   8.115   6.488   4.301
11175TIP3    H233469   7.988   6.500   4.383
11176TIP3   OH233470   0.777   3.583   2.408
11176TIP3    H133471   0.711   3.651   2.403
11176TIP3    H233472   0.836   3.611   2.478
11177TIP3   OH233473   6.921   1.015   4.646
11177TIP3    H133474   7.016   1.019   4.630
11177TIP3    H233475   6.900   0.922   4.643
11178TIP3   OH233476   3.158   6.394   3.175
11178TIP3    H133477   3.139   6.326   3.110
11178TIP3    H233478   3.223   6.354   3.233
11179TIP3   OH233479   4.495   2.770   3.217
11179TIP3    H133480   4.518   2.815   3.136
11179TIP3    H233481   4.467   2.840   3.276
11180TIP3   OH233482   1.350   6.817   0.410
11180TIP3    H133483   1.423   6.764   0.376
11180TIP3    H233484   1.372   6.907   0.386
11181TIP3   OH233485   5.617   1.620   4.169
11181TIP3    H133486   5.563   1.632   4.091
11181TIP3    H233487   5.616   1.526   4.185
11182TIP3   OH233488   4.768   6.624   4.730
11182TIP3    H133489   4.827   6.646   4.802
11182TIP3    H233490   4.728   6.707   4.705
11183TIP3   OH233491   8.302   4.148   3.256
11183TIP3    H133492   8.260   4.234   3.257
11183TIP3    H233493   8.284   4.112   3.343
11184TIP3   OH233494   3.884   4.699   0.425
11184TIP3    H133495   3.892   4.714   0.331
11184TIP3    H233496   3.798   4.659   0.436
11185TIP3   OH233497   1.774   6.970   4.253
11185TIP3    H133498   1.784   6.899   4.189
11185TIP3    H233499   1.803   6.931   4.336
11186TIP3   OH233500   5.774   7.400   1.048
11186TIP3    H133501   5.706   7.425   1.111
11186TIP3    H233502   5.846   7.368   1.102
11187TIP3   OH233503   3.635   3.084   3.251
11187TIP3    H133504   3.707   3.021   3.256
11187TIP3    H233505   3.570   3.041   3.196
11188TIP3   OH233506   5.019   6.720   5.631
11188TIP3    H133507   5.007   6.782   5.559
11188TIP3    H233508   4.981   6.764   5.707
11189TIP3   OH233509   5.345   5.391   3.501
11189TIP3    H133510   5.284   5.325   3.468
11189TIP3    H233511   5.366   5.445   3.425
11190TIP3   OH233512   1.443   6.248   1.106
11190TIP3    H133513   1.520   6.199   1.077
11190TIP3    H233514   1.458   6.337   1.075
11191TIP3   OH233515   2.500   6.237   4.061
11191TIP3    H133516   2.471   6.174   4.126
11191TIP3    H233517   2.422   6.255   4.008
11192TIP3   OH233518   5.777   7.584   0.187
11192TIP3    H133519   5.685   7.606   0.171
11192TIP3    H233520   5.787   7.495   0.154
11193TIP3   OH233521   3.231   5.445   6.200
11193TIP3    H133522   3.253   5.357   6.169
11193TIP3    H233523   3.185   5.486   6.127
11194TIP3   OH233524   3.326   7.053   3.806
11194TIP3    H133525   3.305   7.098   3.887
11194TIP3    H233526   3.376   7.117   3.755
11195TIP3   OH233527   3.152   0.943   2.362
11195TIP3    H133528   3.072   0.902   2.394
11195TIP3    H233529   3.221   0.906   2.416
11196TIP3   OH233530   5.642   3.105   1.840
11196TIP3    H133531   5.633   3.138   1.751
11196TIP3    H233532   5.583   3.030   1.844
11197TIP3   OH233533   6.206   2.276   5.819
11197TIP3    H133534   6.230   2.278   5.912
11197TIP3    H233535   6.221   2.365   5.788
11198TIP3   OH233536   5.883   2.832   5.843
11198TIP3    H133537   5.948   2.886   5.799
11198TIP3    H233538   5.915   2.743   5.833
11199TIP3   OH233539   4.833   4.080   5.634
11199TIP3    H133540   4.839   4.053   5.726
11199TIP3    H233541   4.755   4.037   5.601
11200TIP3   OH233542   5.735   5.993   1.938
11200TIP3    H133543   5.794   6.067   1.954
11200TIP3    H233544   5.793   5.917   1.936
11201TIP3   OH233545   6.091   6.829   4.195
11201TIP3    H133546   6.055   6.806   4.109
11201TIP3    H233547   6.078   6.923   4.203
11202TIP3   OH233548   0.709   1.463   1.501
11202TIP3    H133549   0.764   1.541   1.497
11202TIP3    H233550   0.622   1.493   1.476
11203TIP3   OH233551   6.070   1.663   4.679
11203TIP3    H133552   6.140   1.721   4.707
11203TIP3    H233553   6.041   1.698   4.595
11204TIP3   OH233554   6.877   4.010   6.666
11204TIP3    H133555   6.818   4.047   6.600
11204TIP3    H233556   6.938   4.081   6.686
11205TIP3   OH233557   3.042   2.759   3.219
11205TIP3    H133558   2.977   2.771   3.288
11205TIP3    H233559   2.993   2.723   3.145
11206TIP3   OH233560   3.997   6.301   3.191
11206TIP3    H133561   4.045   6.325   3.270
11206TIP3    H233562   3.925   6.246   3.222
11207TIP3   OH233563   5.788   4.894   3.686
11207TIP3    H133564   5.883   4.884   3.687
11207TIP3    H233565   5.753   4.807   3.702
11208TIP3   OH233566   0.848   5.026   1.043
11208TIP3    H133567   0.898   4.987   0.972
11208TIP3    H233568   0.882   4.984   1.122
11209TIP3   OH233569   1.284   3.650   5.014
11209TIP3    H133570   1.319   3.588   5.078
11209TIP3    H233571   1.339   3.728   5.023
11210TIP3   OH233572   6.382   6.475   5.677
11210TIP3    H133573   6.347   6.494   5.764
11210TIP3    H233574   6.462   6.527   5.671
11211TIP3   OH233575   0.075   3.689   4.979
11211TIP3    H133576   0.036   3.774   4.959
11211TIP3    H233577   0.152   3.684   4.923
11212TIP3   OH233578   1.581   6.161   3.145
11212TIP3    H133579   1.549   6.248   3.120
11212TIP3    H233580   1.581   6.163   3.241
11213TIP3   OH233581   2.664   5.085   3.423
11213TIP3    H133582   2.591   5.135   3.386
11213TIP3    H233583   2.723   5.070   3.350
11214TIP3   OH233584   3.761   0.544   6.177
11214TIP3    H133585   3.691   0.481   6.159
11214TIP3    H233586   3.817   0.500   6.241
11215TIP3   OH233587   1.288   3.704   2.848
11215TIP3    H133588   1.351   3.757   2.896
11215TIP3    H233589   1.291   3.737   2.758
11216TIP3   OH233590   5.908   1.190   3.571
11216TIP3    H133591   5.830   1.246   3.566
11216TIP3    H233592   5.877   1.104   3.543
11217TIP3   OH233593   6.011   6.841   1.793
11217TIP3    H133594   6.001   6.811   1.883
11217TIP3    H233595   6.089   6.796   1.761
11218TIP3   OH233596   6.663   5.863   0.693
11218TIP3    H133597   6.613   5.915   0.756
11218TIP3    H233598   6.632   5.894   0.607
11219TIP3   OH233599   1.276   3.108   3.596
11219TIP3    H133600   1.368   3.095   3.618
11219TIP3    H233601   1.250   3.028   3.551
11220TIP3   OH233602   4.435   2.364   2.825
11220TIP3    H133603   4.448   2.393   2.735
11220TIP3    H233604   4.515   2.388   2.871
11221TIP3   OH233605   3.423   6.945   2.529
11221TIP3    H133606   3.438   6.963   2.436
11221TIP3    H233607   3.499   6.894   2.556
11222TIP3   OH233608   1.573   1.686   2.740
11222TIP3    H133609   1.660   1.648   2.751
11222TIP3    H233610   1.521   1.647   2.810
11223TIP3   OH233611   7.482   3.571   0.861
11223TIP3    H133612   7.534   3.602   0.787
11223TIP3    H233613   7.538   3.508   0.906
11224TIP3   OH233614   7.430   7.801   1.332
11224TIP3    H133615   7.359   7.849   1.290
11224TIP3    H233616   7.393   7.715   1.352
11225TIP3   OH233617   3.368   0.078   1.252
11225TIP3    H133618   3.449   0.127   1.238
11225TIP3    H233619   3.358   0.025   1.173
11226TIP3   OH233620   8.032   4.255   3.184
11226TIP3    H133621   7.956   4.295   3.141
11226TIP3    H233622   8.020   4.161   3.171
11227TIP3   OH233623   8.197   4.987   5.554
11227TIP3    H133624   8.223   4.912   5.500
11227TIP3    H233625   8.160   5.050   5.492
11228TIP3   OH233626   3.276   3.146   1.997
11228TIP3    H133627   3.348   3.181   1.945
11228TIP3    H233628   3.289   3.183   2.084
11229TIP3   OH233629   6.263   1.678   1.263
11229TIP3    H133630   6.250   1.770   1.286
11229TIP3    H233631   6.358   1.665   1.269
11230TIP3   OH233632   6.537   0.070   2.924
11230TIP3    H133633   6.522   0.164   2.917
11230TIP3    H233634   6.602   0.061   2.994
11231TIP3   OH233635   2.559   3.516   1.242
11231TIP3    H133636   2.467   3.539   1.229
11231TIP3    H233637   2.583   3.561   1.323
11232TIP3   OH233638   5.466   3.251   4.402
11232TIP3    H133639   5.389   3.195   4.389
11232TIP3    H233640   5.531   3.218   4.341
11233TIP3   OH233641   1.333   5.766   1.293
11233TIP3    H133642   1.240   5.786   1.288
11233TIP3    H233643   1.372   5.841   1.339
11234TIP3   OH233644   0.011   6.425   6.239
11234TIP3    H133645   0.032   6.459   6.152
11234TIP3    H233646  -0.039   6.496   6.281
11235TIP3   OH233647   0.966   3.504   5.932
11235TIP3    H133648   0.914   3.536   6.006
11235TIP3    H233649   1.023   3.437   5.970
11236TIP3   OH233650   6.999   4.280   3.186
11236TIP3    H133651   6.995   4.354   3.126
11236TIP3    H233652   7.085   4.241   3.171
11237TIP3   OH233653   0.949   4.378   4.737
11237TIP3    H133654   0.970   4.373   4.644
11237TIP3    H233655   0.922   4.469   4.751
11238TIP3   OH233656   7.266   2.557   4.739
11238TIP3    H133657   7.305   2.583   4.822
11238TIP3    H233658   7.241   2.640   4.697
11239TIP3   OH233659   8.031   4.925   0.309
11239TIP3    H133660   8.032   4.848   0.252
11239TIP3    H233661   8.033   4.999   0.248
11240TIP3   OH233662   0.939   4.646   6.433
11240TIP3    H133663   1.021   4.596   6.436
11240TIP3    H233664   0.924   4.673   6.524
11241TIP3   OH233665   5.514   4.658   1.533
11241TIP3    H133666   5.456   4.733   1.544
11241TIP3    H233667   5.491   4.599   1.605
11242TIP3   OH233668   1.536   6.295   0.415
11242TIP3    H133669   1.629   6.273   0.406
11242TIP3    H233670   1.534   6.391   0.407
11243TIP3   OH233671   3.504   7.172   2.746
11243TIP3    H133672   3.482   7.136   2.660
11243TIP3    H233673   3.597   7.150   2.758
11244TIP3   OH233674   1.638   4.708   0.917
11244TIP3    H133675   1.622   4.632   0.861
11244TIP3    H233676   1.579   4.694   0.992
11245TIP3   OH233677   0.302   3.211   0.587
11245TIP3    H133678   0.297   3.137   0.526
11245TIP3    H233679   0.244   3.187   0.659
11246TIP3   OH233680   5.959   6.268   5.072
11246TIP3    H133681   5.907   6.201   5.028
11246TIP3    H233682   5.958   6.343   5.013
11247TIP3   OH233683   8.242   4.708   5.531
11247TIP3    H133684   8.229   4.755   5.614
11247TIP3    H233685   8.219   4.617   5.551
11248TIP3   OH233686   1.293   2.982   1.920
11248TIP3    H133687   1.306   2.953   1.829
11248TIP3    H233688   1.351   3.058   1.929
11249TIP3   OH233689   0.193   2.594   0.095
11249TIP3    H133690   0.169   2.506   0.065
11249TIP3    H233691   0.168   2.594   0.188
11250TIP3   OH233692   1.655   4.874   1.776
11250TIP3    H133693   1.597   4.919   1.838
11250TIP3    H233694   1.603   4.866   1.696
11251TIP3   OH233695   3.482   1.763   3.611
11251TIP3    H133696   3.561   1.711   3.596
11251TIP3    H233697   3.418   1.727   3.551
11252TIP3   OH233698   6.378   5.765   2.070
11252TIP3    H133699   6.289   5.796   2.089
11252TIP3    H233700   6.414   5.830   2.010
11253TIP3   OH233701   6.436   2.660   2.542
11253TIP3    H133702   6.444   2.666   2.637
11253TIP3    H233703   6.414   2.568   2.525
11254TIP3   OH233704   4.440   1.989   3.623
11254TIP3    H133705   4.426   2.081   3.644
11254TIP3    H233706   4.452   1.947   3.709
11255TIP3   OH233707   2.345   1.568   2.967
11255TIP3    H133708   2.282   1.593   2.899
11255TIP3    H233709   2.387   1.489   2.933
11256TIP3   OH233710   7.712   3.399   6.545
11256TIP3    H133711   7.753   3.463   6.487
11256TIP3    H233712   7.672   3.335   6.486
11257TIP3   OH233713   5.428   6.938   3.840
11257TIP3    H133714   5.505   6.930   3.897
11257TIP3    H233715   5.374   7.005   3.881
11258TIP3   OH233716   1.684   1.692   6.177
11258TIP3    H133717   1.730   1.621   6.220
11258TIP3    H233718   1.746   1.764   6.175
11259TIP3   OH233719   7.839   4.041   0.079
11259TIP3    H133720   7.762   4.001   0.038
11259TIP3    H233721   7.913   4.003   0.032
11260TIP3   OH233722   2.151   3.409   4.478
11260TIP3    H133723   2.135   3.376   4.567
11260TIP3    H233724   2.104   3.349   4.421
11261TIP3   OH233725   7.931   3.636   2.033
11261TIP3    H133726   7.866   3.636   1.963
11261TIP3    H233727   7.911   3.557   2.083
11262TIP3   OH233728   6.109   7.428   3.319
11262TIP3    H133729   6.058   7.398   3.394
11262TIP3    H233730   6.189   7.376   3.322
11263TIP3   OH233731   3.028   7.045   5.911
11263TIP3    H133732   2.984   6.960   5.923
11263TIP3    H233733   2.959   7.109   5.926
11264TIP3   OH233734   7.696   0.471   1.783
11264TIP3    H133735   7.691   0.376   1.773
11264TIP3    H233736   7.785   0.493   1.755
11265TIP3   OH233737   3.015   7.639   4.332
11265TIP3    H133738   2.932   7.611   4.294
11265TIP3    H233739   3.059   7.557   4.355
11266TIP3   OH233740   7.179   7.726   0.544
11266TIP3    H133741   7.164   7.817   0.568
11266TIP3    H233742   7.273   7.719   0.534
11267TIP3   OH233743   3.058   1.732   6.250
11267TIP3    H133744   3.101   1.649   6.272
11267TIP3    H233745   2.978   1.707   6.205
11268TIP3   OH233746   5.392   3.934   0.597
11268TIP3    H133747   5.479   3.897   0.585
11268TIP3    H233748   5.405   4.029   0.595
11269TIP3   OH233749   3.223   7.456   6.607
11269TIP3    H133750   3.288   7.524   6.590
11269TIP3    H233751   3.262   7.402   6.675
11270TIP3   OH233752   7.780   2.334   6.634
11270TIP3    H133753   7.766   2.316   6.727
11270TIP3    H233754   7.838   2.410   6.632
11271TIP3   OH233755   2.252   2.639   0.734
11271TIP3    H133756   2.306   2.595   0.669
11271TIP3    H233757   2.233   2.725   0.696
11272TIP3   OH233758   6.752   2.839   6.421
11272TIP3    H133759   6.699   2.895   6.477
11272TIP3    H233760   6.688   2.790   6.368
11273TIP3   OH233761   2.796   5.991   3.448
11273TIP3    H133762   2.840   5.925   3.394
11273TIP3    H233763   2.849   6.071   3.435
11274TIP3   OH233764   4.155   3.802   3.363
11274TIP3    H133765   4.091   3.865   3.397
11274TIP3    H233766   4.102   3.735   3.320
11275TIP3   OH233767   2.421   6.109   6.586
11275TIP3    H133768   2.403   6.147   6.500
11275TIP3    H233769   2.481   6.171   6.628
11276TIP3   OH233770   1.345   2.010   0.439
11276TIP3    H133771   1.334   1.920   0.410
11276TIP3    H233772   1.419   2.043   0.389
11277TIP3   OH233773   0.014   2.151   1.049
11277TIP3    H133774   0.097   2.106   1.065
11277TIP3    H233775  -0.047   2.081   1.026
11278TIP3   OH233776   6.813   2.366   1.798
11278TIP3    H133777   6.721   2.370   1.823
11278TIP3    H233778   6.860   2.352   1.881
11279TIP3   OH233779   6.943   7.382   5.871
11279TIP3    H133780   6.878   7.404   5.804
11279TIP3    H233781   6.994   7.311   5.834
11280TIP3   OH233782   3.371   1.878   3.016
11280TIP3    H133783   3.360   1.939   2.943
11280TIP3    H233784   3.288   1.882   3.063
11281TIP3   OH233785   5.142   5.796   0.424
11281TIP3    H133786   5.227   5.810   0.465
11281TIP3    H233787   5.144   5.705   0.395
11282TIP3   OH233788   7.756   0.800   0.913
11282TIP3    H133789   7.851   0.790   0.904
11282TIP3    H233790   7.721   0.716   0.885
11283TIP3   OH233791   0.895   6.741   4.059
11283TIP3    H133792   0.819   6.703   4.103
11283TIP3    H233793   0.905   6.690   3.978
11284TIP3   OH233794   6.374   2.861   1.977
11284TIP3    H133795   6.463   2.831   1.998
11284TIP3    H233796   6.324   2.843   2.057
11285TIP3   OH233797   0.580   0.126   2.978
11285TIP3    H133798   0.616   0.185   3.045
11285TIP3    H233799   0.518   0.070   3.026
11286TIP3   OH233800   3.038   5.890   1.063
11286TIP3    H133801   3.122   5.860   1.028
11286TIP3    H233802   3.062   5.946   1.137
11287TIP3   OH233803   3.934   2.685   6.380
11287TIP3    H133804   3.959   2.632   6.305
11287TIP3    H233805   4.017   2.707   6.423
11288TIP3   OH233806   0.668   0.630   5.703
11288TIP3    H133807   0.738   0.576   5.738
11288TIP3    H233808   0.615   0.654   5.779
11289TIP3   OH233809   1.631   0.476   3.400
11289TIP3    H133810   1.571   0.424   3.454
11289TIP3    H233811   1.689   0.520   3.462
11290TIP3   OH233812   3.590   1.193   2.731
11290TIP3    H133813   3.594   1.288   2.724
11290TIP3    H233814   3.528   1.176   2.801
11291TIP3   OH233815   0.607   5.882   1.267
11291TIP3    H133816   0.574   5.966   1.298
11291TIP3    H233817   0.559   5.866   1.186
11292TIP3   OH233818   8.068   2.015   6.310
11292TIP3    H133819   8.029   1.997   6.225
11292TIP3    H233820   7.994   2.019   6.370
11293TIP3   OH233821   7.293   1.618   0.582
11293TIP3    H133822   7.267   1.644   0.494
11293TIP3    H233823   7.309   1.700   0.629
11294TIP3   OH233824   4.570   7.126   1.995
11294TIP3    H133825   4.590   7.053   2.053
11294TIP3    H233826   4.481   7.152   2.019
11295TIP3   OH233827   2.082   0.380   1.532
11295TIP3    H133828   2.066   0.285   1.533
11295TIP3    H233829   2.170   0.388   1.494
11296TIP3   OH233830   2.691   4.664   2.185
11296TIP3    H133831   2.701   4.713   2.266
11296TIP3    H233832   2.599   4.675   2.161
11297TIP3   OH233833   5.244   4.145   4.188
11297TIP3    H133834   5.285   4.067   4.225
11297TIP3    H233835   5.312   4.212   4.192
11298TIP3   OH233836   1.790   3.605   2.683
11298TIP3    H133837   1.786   3.609   2.778
11298TIP3    H233838   1.860   3.542   2.665
11299TIP3   OH233839   0.272   2.148   4.743
11299TIP3    H133840   0.356   2.186   4.717
11299TIP3    H233841   0.260   2.177   4.833
11300TIP3   OH233842   7.530   0.715   3.103
11300TIP3    H133843   7.534   0.789   3.043
11300TIP3    H233844   7.553   0.639   3.049
11301TIP3   OH233845   4.739   4.357   0.631
11301TIP3    H133846   4.682   4.347   0.555
11301TIP3    H233847   4.691   4.318   0.704
11302TIP3   OH233848   1.909   7.564   6.065
11302TIP3    H133849   1.842   7.540   6.001
11302TIP3    H233850   1.889   7.511   6.142
11303TIP3   OH233851   8.090   2.030   4.401
11303TIP3    H133852   8.082   2.121   4.373
11303TIP3    H233853   8.127   1.985   4.325
11304TIP3   OH233854   6.716   3.843   3.374
11304TIP3    H133855   6.720   3.799   3.290
11304TIP3    H233856   6.715   3.772   3.439
11305TIP3   OH233857   7.890   1.948   1.787
11305TIP3    H133858   7.966   1.924   1.735
11305TIP3    H233859   7.824   1.881   1.766
11306TIP3   OH233860   4.091   6.562   2.979
11306TIP3    H133861   4.144   6.538   3.055
11306TIP3    H233862   4.084   6.480   2.929
11307TIP3   OH233863   7.419   5.801   0.466
11307TIP3    H133864   7.374   5.876   0.505
11307TIP3    H233865   7.511   5.814   0.489
11308TIP3   OH233866   2.011   5.484   1.010
11308TIP3    H133867   1.979   5.409   1.060
11308TIP3    H233868   1.932   5.518   0.966
11309TIP3   OH233869   0.045   2.474   4.734
11309TIP3    H133870   0.072   2.502   4.647
11309TIP3    H233871  -0.009   2.397   4.719
11310TIP3   OH233872   4.443   2.274   3.590
11310TIP3    H133873   4.523   2.323   3.607
11310TIP3    H233874   4.446   2.255   3.496
11311TIP3   OH233875   5.568   1.230   5.853
11311TIP3    H133876   5.644   1.269   5.809
11311TIP3    H233877   5.569   1.269   5.940
11312TIP3   OH233878   4.966   1.999   1.596
11312TIP3    H133879   4.918   2.043   1.526
11312TIP3    H233880   5.041   1.958   1.552
11313TIP3   OH233881   6.110   4.671   4.893
11313TIP3    H133882   6.174   4.606   4.920
11313TIP3    H233883   6.161   4.739   4.849
11314TIP3   OH233884   3.616   6.693   5.791
11314TIP3    H133885   3.679   6.691   5.719
11314TIP3    H233886   3.652   6.756   5.853
11315TIP3   OH233887   6.215   4.207   4.014
11315TIP3    H133888   6.234   4.157   3.935
11315TIP3    H233889   6.137   4.166   4.050
11316TIP3   OH233890   7.867   3.333   3.457
11316TIP3    H133891   7.949   3.350   3.502
11316TIP3    H233892   7.892   3.295   3.373
11317TIP3   OH233893   3.542   4.297   1.004
11317TIP3    H133894   3.584   4.249   1.076
11317TIP3    H233895   3.457   4.323   1.039
11318TIP3   OH233896   0.199   6.285   0.756
11318TIP3    H133897   0.106   6.287   0.780
11318TIP3    H233898   0.222   6.192   0.756
11319TIP3   OH233899   7.983   4.187   1.624
11319TIP3    H133900   7.983   4.281   1.607
11319TIP3    H233901   8.056   4.173   1.684
11320TIP3   OH233902   6.848   0.573  -0.006
11320TIP3    H133903   6.779   0.592   0.057
11320TIP3    H233904   6.924   0.621   0.027
11321TIP3   OH233905   3.131   6.477   0.219
11321TIP3    H133906   3.119   6.561   0.264
11321TIP3    H233907   3.078   6.415   0.270
11322TIP3   OH233908   4.547   0.423   3.816
11322TIP3    H133909   4.495   0.346   3.840
11322TIP3    H233910   4.637   0.390   3.810
11323TIP3   OH233911   4.821   3.043   5.614
11323TIP3    H133912   4.731   3.009   5.607
11323TIP3    H233913   4.855   3.036   5.525
11324TIP3   OH233914   6.668   3.527   5.221
11324TIP3    H133915   6.629   3.579   5.151
11324TIP3    H233916   6.644   3.573   5.302
11325TIP3   OH233917   4.636   5.501   2.605
11325TIP3    H133918   4.706   5.482   2.667
11325TIP3    H233919   4.636   5.597   2.597
11326TIP3   OH233920   8.275   3.796   3.205
11326TIP3    H133921   8.197   3.753   3.242
11326TIP3    H233922   8.241   3.856   3.139
11327TIP3   OH233923   4.262   2.644   4.516
11327TIP3    H133924   4.177   2.601   4.518
11327TIP3    H233925   4.324   2.574   4.495
11328TIP3   OH233926   0.536   2.007   3.728
11328TIP3    H133927   0.498   1.920   3.714
11328TIP3    H233928   0.518   2.026   3.820
11329TIP3   OH233929   7.460   4.114   6.693
11329TIP3    H133930   7.376   4.100   6.648
11329TIP3    H233931   7.511   4.168   6.632
11330TIP3   OH233932   3.530   1.187   6.111
11330TIP3    H133933   3.554   1.164   6.021
11330TIP3    H233934   3.456   1.130   6.131
11331TIP3   OH233935   4.757   1.023   1.239
11331TIP3    H133936   4.789   0.991   1.324
11331TIP3    H233937   4.810   0.977   1.174
11332TIP3   OH233938   8.051   6.021   4.685
11332TIP3    H133939   7.965   6.001   4.723
11332TIP3    H233940   8.111   5.959   4.726
11333TIP3   OH233941   5.253   1.245   5.189
11333TIP3    H133942   5.320   1.305   5.222
11333TIP3    H233943   5.264   1.247   5.094
11334TIP3   OH233944   5.209   5.455   4.597
11334TIP3    H133945   5.287   5.405   4.623
11334TIP3    H233946   5.135   5.398   4.622
11335TIP3   OH233947   5.723   0.491   1.408
11335TIP3    H133948   5.750   0.570   1.455
11335TIP3    H233949   5.665   0.446   1.469
11336TIP3   OH233950   7.193   7.248   5.131
11336TIP3    H133951   7.275   7.287   5.163
11336TIP3    H233952   7.139   7.323   5.106
11337TIP3   OH233953   4.714   6.832   1.239
11337TIP3    H133954   4.755   6.784   1.311
11337TIP3    H233955   4.785   6.843   1.175
11338TIP3   OH233956   6.564   7.078   4.453
11338TIP3    H133957   6.546   7.141   4.383
11338TIP3    H233958   6.486   7.081   4.508
11339TIP3   OH233959   5.813   5.804   3.876
11339TIP3    H133960   5.745   5.782   3.940
11339TIP3    H233961   5.806   5.738   3.808
11340TIP3   OH233962   0.864   6.295   1.458
11340TIP3    H133963   0.872   6.285   1.364
11340TIP3    H233964   0.852   6.389   1.471
11341TIP3   OH233965   0.754   0.776   4.318
11341TIP3    H133966   0.724   0.745   4.233
11341TIP3    H233967   0.819   0.844   4.297
11342TIP3   OH233968   5.638   4.858   6.756
11342TIP3    H133969   5.645   4.930   6.693
11342TIP3    H233970   5.666   4.781   6.706
11343TIP3   OH233971   7.772   3.125   5.646
11343TIP3    H133972   7.801   3.111   5.737
11343TIP3    H233973   7.833   3.190   5.612
11344TIP3   OH233974   7.573   3.559   2.270
11344TIP3    H133975   7.503   3.622   2.292
11344TIP3    H233976   7.653   3.603   2.298
11345TIP3   OH233977   7.991   2.817   4.439
11345TIP3    H133978   8.072   2.868   4.438
11345TIP3    H233979   7.960   2.819   4.348
11346TIP3   OH233980   5.458   2.176   5.589
11346TIP3    H133981   5.547   2.152   5.562
11346TIP3    H233982   5.407   2.096   5.577
11347TIP3   OH233983   0.227   2.838   2.165
11347TIP3    H133984   0.139   2.859   2.197
11347TIP3    H233985   0.230   2.876   2.077
11348TIP3   OH233986   8.225   6.976   0.661
11348TIP3    H133987   8.268   7.039   0.602
11348TIP3    H233988   8.280   6.976   0.740
11349TIP3   OH233989   3.632   5.529   1.427
11349TIP3    H133990   3.585   5.605   1.463
11349TIP3    H233991   3.724   5.552   1.434
11350TIP3   OH233992   6.050   4.079   6.570
11350TIP3    H133993   5.976   4.095   6.511
11350TIP3    H233994   6.073   4.166   6.602
11351TIP3   OH233995   5.801   0.564   3.564
11351TIP3    H133996   5.845   0.485   3.594
11351TIP3    H233997   5.777   0.610   3.644
11352TIP3   OH233998   3.147   4.230   5.545
11352TIP3    H133999   3.226   4.177   5.542
11352TIP3    H234000   3.149   4.271   5.632
11353TIP3   OH234001   4.638   4.669   1.126
11353TIP3    H134002   4.607   4.733   1.062
11353TIP3    H234003   4.563   4.612   1.141
11354TIP3   OH234004   3.045   1.576   1.743
11354TIP3    H134005   2.978   1.636   1.711
11354TIP3    H234006   3.010   1.488   1.724
11355TIP3   OH234007   0.830   2.669   3.207
11355TIP3    H134008   0.828   2.755   3.248
11355TIP3    H234009   0.916   2.664   3.164
11356TIP3   OH234010   0.097   2.974   3.613
11356TIP3    H134011   0.084   2.880   3.606
11356TIP3    H234012   0.009   3.011   3.606
11357TIP3   OH234013   1.039   4.884   4.950
11357TIP3    H134014   0.950   4.851   4.959
11357TIP3    H234015   1.089   4.835   5.015
11358TIP3   OH234016   0.532   4.913   1.671
11358TIP3    H134017   0.475   4.879   1.739
11358TIP3    H234018   0.607   4.950   1.718
11359TIP3   OH234019   7.355   0.453   3.226
11359TIP3    H134020   7.444   0.463   3.190
11359TIP3    H234021   7.366   0.387   3.295
11360TIP3   OH234022   4.689   7.374   3.295
11360TIP3    H134023   4.682   7.288   3.254
11360TIP3    H234024   4.609   7.382   3.348
11361TIP3   OH234025   2.627   6.843   1.337
11361TIP3    H134026   2.550   6.854   1.394
11361TIP3    H234027   2.650   6.931   1.310
11362TIP3   OH234028   2.436   2.229   4.950
11362TIP3    H134029   2.476   2.315   4.966
11362TIP3    H234030   2.504   2.166   4.973
11363TIP3   OH234031   7.128   4.829   2.487
11363TIP3    H134032   7.139   4.924   2.498
11363TIP3    H234033   7.136   4.815   2.392
11364TIP3   OH234034   6.227   2.319   3.465
11364TIP3    H134035   6.321   2.307   3.455
11364TIP3    H234036   6.188   2.259   3.403
11365TIP3   OH234037   6.871   0.646   2.911
11365TIP3    H134038   6.854   0.740   2.906
11365TIP3    H234039   6.937   0.630   2.844
11366TIP3   OH234040   1.827   4.864   1.069
11366TIP3    H134041   1.830   4.786   1.124
11366TIP3    H234042   1.739   4.866   1.033
11367TIP3   OH234043   1.052   0.337   1.792
11367TIP3    H134044   1.097   0.312   1.710
11367TIP3    H234045   0.982   0.395   1.764
11368TIP3   OH234046   6.621   0.590   5.473
11368TIP3    H134047   6.682   0.636   5.415
11368TIP3    H234048   6.538   0.592   5.426
11369TIP3   OH234049   7.640   3.241   4.932
11369TIP3    H134050   7.683   3.254   4.848
11369TIP3    H234051   7.641   3.328   4.973
11370TIP3   OH234052   1.008   1.543   2.881
11370TIP3    H134053   0.928   1.566   2.834
11370TIP3    H234054   1.002   1.449   2.896
11371TIP3   OH234055   1.209   3.959   1.465
11371TIP3    H134056   1.269   4.018   1.419
11371TIP3    H234057   1.252   3.873   1.461
11372TIP3   OH234058   5.416   6.104   1.567
11372TIP3    H134059   5.485   6.171   1.569
11372TIP3    H234060   5.365   6.124   1.488
11373TIP3   OH234061   7.964   2.611   4.619
11373TIP3    H134062   7.973   2.653   4.704
11373TIP3    H234063   8.006   2.672   4.558
11374TIP3   OH234064   5.203   6.964   2.783
11374TIP3    H134065   5.200   6.874   2.753
11374TIP3    H234066   5.161   6.963   2.869
11375TIP3   OH234067   3.928   5.079   5.057
11375TIP3    H134068   3.992   5.098   4.988
11375TIP3    H234069   3.843   5.085   5.014
11376TIP3   OH234070   5.975   3.800   6.653
11376TIP3    H134071   6.065   3.819   6.624
11376TIP3    H234072   5.976   3.707   6.675
11377TIP3   OH234073   3.841   2.053   3.632
11377TIP3    H134074   3.894   1.988   3.586
11377TIP3    H234075   3.775   2.080   3.569
11378TIP3   OH234076   7.645   2.679   2.033
11378TIP3    H134077   7.690   2.662   1.951
11378TIP3    H234078   7.571   2.617   2.033
11379TIP3   OH234079   3.230   0.879   0.158
11379TIP3    H134080   3.195   0.930   0.085
11379TIP3    H234081   3.229   0.788   0.128
11380TIP3   OH234082   3.879   4.200   1.251
11380TIP3    H134083   3.787   4.175   1.262
11380TIP3    H234084   3.910   4.218   1.340
11381TIP3   OH234085   5.803   3.439   2.983
11381TIP3    H134086   5.842   3.351   2.980
11381TIP3    H234087   5.732   3.431   3.047
11382TIP3   OH234088   5.637   5.541   4.191
11382TIP3    H134089   5.707   5.588   4.237
11382TIP3    H234090   5.602   5.605   4.129
11383TIP3   OH234091   6.199   4.958   5.234
11383TIP3    H134092   6.250   4.991   5.307
11383TIP3    H234093   6.109   4.960   5.265
11384TIP3   OH234094   0.535   2.868   4.113
11384TIP3    H134095   0.572   2.788   4.076
11384TIP3    H234096   0.583   2.939   4.070
11385TIP3   OH234097   5.678   3.511   0.269
11385TIP3    H134098   5.600   3.483   0.318
11385TIP3    H234099   5.695   3.440   0.208
11386TIP3   OH234100   6.461   0.752   1.799
11386TIP3    H134101   6.372   0.727   1.825
11386TIP3    H234102   6.495   0.676   1.752
11387TIP3   OH234103   1.251   2.490   5.007
11387TIP3    H134104   1.278   2.409   4.964
11387TIP3    H234105   1.325   2.515   5.061
11388TIP3   OH234106   3.331   0.977   3.727
11388TIP3    H134107   3.419   0.948   3.751
11388TIP3    H234108   3.311   1.048   3.788
11389TIP3   OH234109   2.214   7.677   2.505
11389TIP3    H134110   2.252   7.699   2.591
11389TIP3    H234111   2.193   7.762   2.466
11390TIP3   OH234112   7.536   4.769   5.400
11390TIP3    H134113   7.511   4.861   5.405
11390TIP3    H234114   7.538   4.740   5.491
11391TIP3   OH234115   5.096   0.189   3.526
11391TIP3    H134116   5.008   0.228   3.527
11391TIP3    H234117   5.081   0.097   3.506
11392TIP3   OH234118   7.243   3.722   1.636
11392TIP3    H134119   7.237   3.792   1.571
11392TIP3    H234120   7.336   3.702   1.642
11393TIP3   OH234121   0.327   6.994   4.936
11393TIP3    H134122   0.363   6.915   4.896
11393TIP3    H234123   0.326   7.058   4.865
11394TIP3   OH234124   3.687   6.465   3.399
11394TIP3    H134125   3.729   6.418   3.470
11394TIP3    H234126   3.739   6.445   3.322
11395TIP3   OH234127   0.803   6.777   3.430
11395TIP3    H134128   0.875   6.827   3.393
11395TIP3    H234129   0.842   6.695   3.459
11396TIP3   OH234130   0.856   6.787   2.473
11396TIP3    H134131   0.835   6.822   2.387
11396TIP3    H234132   0.772   6.755   2.507
11397TIP3   OH234133   0.831   2.123   0.414
11397TIP3    H134134   0.755   2.176   0.435
11397TIP3    H234135   0.836   2.123   0.318
11398TIP3   OH234136   7.399   3.353   3.886
11398TIP3    H134137   7.402   3.286   3.955
11398TIP3    H234138   7.480   3.402   3.897
11399TIP3   OH234139   4.469   3.623   2.493
11399TIP3    H134140   4.525   3.567   2.548
11399TIP3    H234141   4.505   3.711   2.506
11400TIP3   OH234142   1.589   5.140   2.626
11400TIP3    H134143   1.657   5.086   2.665
11400TIP3    H234144   1.616   5.230   2.645
11401TIP3   OH234145   2.710   5.326   0.348
11401TIP3    H134146   2.740   5.235   0.354
11401TIP3    H234147   2.790   5.378   0.338
11402TIP3   OH234148   0.235   3.648   1.946
11402TIP3    H134149   0.303   3.677   2.006
11402TIP3    H234150   0.154   3.654   1.997
11403TIP3   OH234151   1.464   2.888   1.485
11403TIP3    H134152   1.522   2.963   1.468
11403TIP3    H234153   1.512   2.813   1.449
11404TIP3   OH234154   3.795   5.365   3.179
11404TIP3    H134155   3.732   5.397   3.114
11404TIP3    H234156   3.741   5.327   3.248
11405TIP3   OH234157   1.926   0.595   3.517
11405TIP3    H134158   1.945   0.688   3.534
11405TIP3    H234159   1.851   0.576   3.573
11406TIP3   OH234160   6.193   4.401   2.577
11406TIP3    H134161   6.268   4.415   2.635
11406TIP3    H234162   6.126   4.362   2.634
11407TIP3   OH234163   7.811   1.834   0.083
11407TIP3    H134164   7.780   1.881   0.161
11407TIP3    H234165   7.782   1.887   0.009
11408TIP3   OH234166   1.343   5.356   5.904
11408TIP3    H134167   1.390   5.417   5.846
11408TIP3    H234168   1.364   5.269   5.870
11409TIP3   OH234169   6.533   7.516   2.856
11409TIP3    H134170   6.616   7.564   2.863
11409TIP3    H234171   6.483   7.563   2.789
11410TIP3   OH234172   5.278   6.861   5.508
11410TIP3    H134173   5.336   6.798   5.551
11410TIP3    H234174   5.319   6.879   5.423
11411TIP3   OH234175   6.981   4.206   0.303
11411TIP3    H134176   6.960   4.133   0.246
11411TIP3    H234177   7.010   4.275   0.244
11412TIP3   OH234178   3.119   3.799   0.922
11412TIP3    H134179   3.185   3.841   0.867
11412TIP3    H234180   3.042   3.791   0.865
11413TIP3   OH234181   5.007   1.554   2.318
11413TIP3    H134182   5.041   1.550   2.229
11413TIP3    H234183   5.082   1.583   2.371
11414TIP3   OH234184   2.281   5.654   4.567
11414TIP3    H134185   2.243   5.739   4.591
11414TIP3    H234186   2.346   5.676   4.500
11415TIP3   OH234187   1.021   0.096   0.160
11415TIP3    H134188   1.086   0.162   0.136
11415TIP3    H234189   0.972   0.136   0.232
11416TIP3   OH234190   4.544   4.459   0.374
11416TIP3    H134191   4.469   4.501   0.332
11416TIP3    H234192   4.520   4.366   0.378
11417TIP3   OH234193   1.860   6.812   1.201
11417TIP3    H134194   1.929   6.845   1.260
11417TIP3    H234195   1.781   6.813   1.254
11418TIP3   OH234196   7.563   1.010   3.546
11418TIP3    H134197   7.521   0.925   3.556
11418TIP3    H234198   7.652   0.996   3.580
11419TIP3   OH234199   4.072   7.553   1.894
11419TIP3    H134200   4.045   7.623   1.834
11419TIP3    H234201   4.069   7.474   1.841
11420TIP3   OH234202   0.497   7.452   0.626
11420TIP3    H134203   0.581   7.439   0.670
11420TIP3    H234204   0.492   7.382   0.561
11421TIP3   OH234205   5.748   1.213   5.282
11421TIP3    H134206   5.804   1.173   5.349
11421TIP3    H234207   5.664   1.167   5.290
11422TIP3   OH234208   7.938   2.262   3.609
11422TIP3    H134209   7.848   2.249   3.639
11422TIP3    H234210   7.947   2.201   3.535
11423TIP3   OH234211   1.469   2.003   6.484
11423TIP3    H134212   1.464   1.925   6.428
11423TIP3    H234213   1.534   2.059   6.441
11424TIP3   OH234214   1.438   0.231   5.150
11424TIP3    H134215   1.408   0.286   5.223
11424TIP3    H234216   1.420   0.141   5.179
11425TIP3   OH234217   0.661   1.029   0.623
11425TIP3    H134218   0.687   0.966   0.556
11425TIP3    H234219   0.603   1.090   0.577
11426TIP3   OH234220   0.799   7.527   6.688
11426TIP3    H134221   0.816   7.477   6.768
11426TIP3    H234222   0.880   7.519   6.637
11427TIP3   OH234223   4.599   7.054   3.968
11427TIP3    H134224   4.621   6.968   4.003
11427TIP3    H234225   4.650   7.062   3.888
11428TIP3   OH234226   8.054   2.931   3.370
11428TIP3    H134227   8.081   3.002   3.428
11428TIP3    H234228   8.134   2.881   3.356
11429TIP3   OH234229   5.781   6.140   4.644
11429TIP3    H134230   5.786   6.142   4.549
11429TIP3    H234231   5.854   6.084   4.671
11430TIP3   OH234232   5.740   6.948   3.546
11430TIP3    H134233   5.659   6.925   3.592
11430TIP3    H234234   5.750   6.879   3.480
11431TIP3   OH234235   0.719   4.479   5.183
11431TIP3    H134236   0.641   4.511   5.138
11431TIP3    H234237   0.748   4.404   5.131
11432TIP3   OH234238   4.340   3.430   4.698
11432TIP3    H134239   4.367   3.359   4.756
11432TIP3    H234240   4.280   3.483   4.752
11433TIP3   OH234241   3.092   5.630   2.476
11433TIP3    H134242   3.135   5.552   2.440
11433TIP3    H234243   2.999   5.616   2.457
11434TIP3   OH234244   4.725   4.478   0.080
11434TIP3    H134245   4.677   4.473  -0.004
11434TIP3    H234246   4.798   4.537   0.062
11435TIP3   OH234247   3.509   4.995   6.702
11435TIP3    H134248   3.424   4.985   6.743
11435TIP3    H234249   3.570   5.009   6.774
11436TIP3   OH234250   6.317   3.133   2.121
11436TIP3    H134251   6.257   3.149   2.193
11436TIP3    H234252   6.260   3.126   2.044
11437TIP3   OH234253   7.873   0.295   6.670
11437TIP3    H134254   7.965   0.292   6.642
11437TIP3    H234255   7.839   0.208   6.648
11438TIP3   OH234256   3.270   4.422   1.712
11438TIP3    H134257   3.349   4.369   1.702
11438TIP3    H234258   3.293   4.488   1.778
11439TIP3   OH234259   6.530   4.725   1.017
11439TIP3    H134260   6.560   4.810   1.051
11439TIP3    H234261   6.537   4.733   0.922
11440TIP3   OH234262   5.032   7.120   1.922
11440TIP3    H134263   5.116   7.165   1.937
11440TIP3    H234264   4.966   7.189   1.932
11441TIP3   OH234265   4.112   2.352   1.163
11441TIP3    H134266   4.028   2.347   1.208
11441TIP3    H234267   4.107   2.285   1.095
11442TIP3   OH234268   3.769   5.100   2.085
11442TIP3    H134269   3.811   5.055   2.158
11442TIP3    H234270   3.676   5.079   2.095
11443TIP3   OH234271   3.974   6.664   0.019
11443TIP3    H134272   4.002   6.573   0.024
11443TIP3    H234273   4.056   6.714   0.017
11444TIP3   OH234274   1.520   0.206   6.363
11444TIP3    H134275   1.596   0.177   6.313
11444TIP3    H234276   1.455   0.137   6.349
11445TIP3   OH234277   6.022   1.012   4.647
11445TIP3    H134278   5.932   0.980   4.651
11445TIP3    H234279   6.016   1.096   4.601
11446TIP3   OH234280   2.039   4.538   4.190
11446TIP3    H134281   2.104   4.572   4.251
11446TIP3    H234282   1.965   4.599   4.198
11447TIP3   OH234283   2.890   0.806   2.370
11447TIP3    H134284   2.887   0.721   2.414
11447TIP3    H234285   2.804   0.845   2.388
11448TIP3   OH234286   1.314   3.002   3.853
11448TIP3    H134287   1.250   2.989   3.923
11448TIP3    H234288   1.282   3.079   3.806
11449TIP3   OH234289   2.985   7.722   1.381
11449TIP3    H134290   2.896   7.708   1.413
11449TIP3    H234291   3.040   7.713   1.459
11450TIP3   OH234292   2.295   0.982   6.652
11450TIP3    H134293   2.391   0.984   6.645
11450TIP3    H234294   2.277   0.915   6.717
11451TIP3   OH234295   1.399   5.711   0.986
11451TIP3    H134296   1.367   5.715   1.076
11451TIP3    H234297   1.490   5.740   0.992
11452TIP3   OH234298   4.307   3.790   5.351
11452TIP3    H134299   4.217   3.818   5.368
11452TIP3    H234300   4.359   3.871   5.359
11453TIP3   OH234301   4.664   3.328   5.963
11453TIP3    H134302   4.606   3.347   6.037
11453TIP3    H234303   4.745   3.374   5.985
11454TIP3   OH234304   6.330   6.177   1.937
11454TIP3    H134305   6.267   6.108   1.915
11454TIP3    H234306   6.346   6.165   2.031
11455TIP3   OH234307   3.197   4.650   3.121
11455TIP3    H134308   3.196   4.556   3.139
11455TIP3    H234309   3.229   4.657   3.031
11456TIP3   OH234310   0.202   3.005   0.386
11456TIP3    H134311   0.254   2.943   0.335
11456TIP3    H234312   0.166   3.066   0.320
11457TIP3   OH234313   1.046   3.627   5.371
11457TIP3    H134314   1.062   3.535   5.390
11457TIP3    H234315   1.053   3.671   5.456
11458TIP3   OH234316   8.199   7.444   4.985
11458TIP3    H134317   8.283   7.407   4.959
11458TIP3    H234318   8.165   7.485   4.906
11459TIP3   OH234319   4.713   1.808   3.389
11459TIP3    H134320   4.618   1.820   3.393
11459TIP3    H234321   4.747   1.896   3.376
11460TIP3   OH234322   5.152   0.559   3.150
11460TIP3    H134323   5.220   0.494   3.163
11460TIP3    H234324   5.197   0.643   3.158
11461TIP3   OH234325   5.628   7.725   1.595
11461TIP3    H134326   5.613   7.697   1.505
11461TIP3    H234327   5.691   7.797   1.587
11462TIP3   OH234328   3.404   2.892   4.837
11462TIP3    H134329   3.349   2.828   4.792
11462TIP3    H234330   3.342   2.955   4.873
11463TIP3   OH234331   5.374   2.921   0.517
11463TIP3    H134332   5.421   3.004   0.511
11463TIP3    H234333   5.332   2.911   0.431
11464TIP3   OH234334   2.565   3.470   2.069
11464TIP3    H134335   2.566   3.555   2.112
11464TIP3    H234336   2.534   3.409   2.136
11465TIP3   OH234337   4.841   0.035   4.843
11465TIP3    H134338   4.870   0.124   4.862
11465TIP3    H234339   4.814   0.038   4.751
11466TIP3   OH234340   4.708   1.496   1.264
11466TIP3    H134341   4.760   1.483   1.343
11466TIP3    H234342   4.638   1.431   1.270
11467TIP3   OH234343   0.275   3.321   5.125
11467TIP3    H134344   0.255   3.415   5.124
11467TIP3    H234345   0.370   3.317   5.121
11468TIP3   OH234346   6.259   2.065   2.818
11468TIP3    H134347   6.234   1.974   2.834
11468TIP3    H234348   6.231   2.112   2.896
11469TIP3   OH234349   2.004   1.264   6.347
11469TIP3    H134350   2.017   1.179   6.388
11469TIP3    H234351   2.090   1.287   6.311
11470TIP3   OH234352   5.801   6.069   6.195
11470TIP3    H134353   5.880   6.016   6.208
11470TIP3    H234354   5.758   6.030   6.119
11471TIP3   OH234355   7.446   7.509   2.337
11471TIP3    H134356   7.486   7.589   2.305
11471TIP3    H234357   7.503   7.439   2.305
11472TIP3   OH234358   1.152   7.734   6.162
11472TIP3    H134359   1.132   7.693   6.078
11472TIP3    H234360   1.164   7.827   6.141
11473TIP3   OH234361   2.057   4.045   1.230
11473TIP3    H134362   2.147   4.026   1.203
11473TIP3    H234363   2.030   4.118   1.175
11474TIP3   OH234364   5.271   5.674   3.902
11474TIP3    H134365   5.322   5.593   3.903
11474TIP3    H234366   5.253   5.692   3.995
11475TIP3   OH234367   7.940   7.805   2.379
11475TIP3    H134368   8.017   7.842   2.424
11475TIP3    H234369   7.914   7.730   2.432
11476TIP3   OH234370   0.979   1.765   0.272
11476TIP3    H134371   0.889   1.780   0.301
11476TIP3    H234372   0.973   1.761   0.177
11477TIP3   OH234373   2.984   7.374   0.886
11477TIP3    H134374   2.914   7.428   0.923
11477TIP3    H234375   2.942   7.290   0.867
11478TIP3   OH234376   5.892   3.868   1.013
11478TIP3    H134377   5.886   3.837   0.923
11478TIP3    H234378   5.957   3.812   1.054
11479TIP3   OH234379   0.435   2.548   1.460
11479TIP3    H134380   0.417   2.631   1.415
11479TIP3    H234381   0.458   2.574   1.549
11480TIP3   OH234382   3.045   5.798   3.940
11480TIP3    H134383   3.081   5.838   4.019
11480TIP3    H234384   2.953   5.826   3.939
11481TIP3   OH234385   2.839   1.986   4.951
11481TIP3    H134386   2.932   1.965   4.959
11481TIP3    H234387   2.793   1.907   4.978
11482TIP3   OH234388   5.279   2.218   2.819
11482TIP3    H134389   5.294   2.150   2.885
11482TIP3    H234390   5.225   2.283   2.864
11483TIP3   OH234391   2.549   6.557   5.568
11483TIP3    H134392   2.477   6.549   5.630
11483TIP3    H234393   2.508   6.581   5.486
11484TIP3   OH234394   6.809   5.998   2.708
11484TIP3    H134395   6.852   5.915   2.730
11484TIP3    H234396   6.868   6.040   2.646
11485TIP3   OH234397   6.676   2.063   2.630
11485TIP3    H134398   6.714   2.095   2.548
11485TIP3    H234399   6.751   2.041   2.685
11486TIP3   OH234400   1.836   2.496   6.269
11486TIP3    H134401   1.887   2.498   6.350
11486TIP3    H234402   1.754   2.541   6.292
11487TIP3   OH234403   3.605   3.000   2.801
11487TIP3    H134404   3.538   2.967   2.742
11487TIP3    H234405   3.667   3.045   2.744
11488TIP3   OH234406   5.565   5.877   5.229
11488TIP3    H134407   5.647   5.916   5.200
11488TIP3    H234408   5.529   5.835   5.150
11489TIP3   OH234409   7.031   6.555   4.036
11489TIP3    H134410   7.067   6.504   3.964
11489TIP3    H234411   7.025   6.644   4.001
11490TIP3   OH234412   7.289   4.072   2.841
11490TIP3    H134413   7.220   4.058   2.906
11490TIP3    H234414   7.365   4.027   2.876
11491TIP3   OH234415   6.675   1.288   5.108
11491TIP3    H134416   6.702   1.197   5.104
11491TIP3    H234417   6.719   1.323   5.185
11492TIP3   OH234418   7.310   0.912   0.697
11492TIP3    H134419   7.390   0.936   0.743
11492TIP3    H234420   7.322   0.945   0.608
11493TIP3   OH234421   0.085   7.063   4.229
11493TIP3    H134422   0.071   6.987   4.173
11493TIP3    H234423   0.060   7.138   4.175
11494TIP3   OH234424   7.792   0.973   5.422
11494TIP3    H134425   7.875   0.927   5.414
11494TIP3    H234426   7.792   1.007   5.511
11495TIP3   OH234427   1.642   6.755   2.784
11495TIP3    H134428   1.597   6.735   2.702
11495TIP3    H234429   1.588   6.715   2.852
11496TIP3   OH234430   8.107   1.536   2.002
11496TIP3    H134431   8.138   1.565   1.917
11496TIP3    H234432   8.013   1.519   1.989
11497TIP3   OH234433   6.399   4.539   5.531
11497TIP3    H134434   6.419   4.581   5.447
11497TIP3    H234435   6.460   4.466   5.537
11498TIP3   OH234436   5.741   6.924  -0.015
11498TIP3    H134437   5.732   6.847   0.041
11498TIP3    H234438   5.770   6.994   0.045
11499TIP3   OH234439   5.767   0.699   2.326
11499TIP3    H134440   5.691   0.662   2.282
11499TIP3    H234441   5.818   0.740   2.257
11500TIP3   OH234442   7.899   3.082   4.486
11500TIP3    H134443   7.904   3.056   4.394
11500TIP3    H234444   7.990   3.091   4.514
11501TIP3   OH234445   4.518   6.733   0.591
11501TIP3    H134446   4.537   6.647   0.629
11501TIP3    H234447   4.464   6.777   0.657
11502TIP3   OH234448   1.777   7.410   0.559
11502TIP3    H134449   1.851   7.361   0.596
11502TIP3    H234450   1.764   7.483   0.620
11503TIP3   OH234451   6.679   5.719   2.504
11503TIP3    H134452   6.640   5.787   2.559
11503TIP3    H234453   6.618   5.708   2.432
11504TIP3   OH234454   5.424   0.429   5.546
11504TIP3    H134455   5.364   0.413   5.620
11504TIP3    H234456   5.369   0.418   5.468
11505TIP3   OH234457   1.173   2.539   2.879
11505TIP3    H134458   1.203   2.450   2.900
11505TIP3    H234459   1.090   2.526   2.833
11506TIP3   OH234460   2.798   2.191   6.529
11506TIP3    H134461   2.872   2.212   6.586
11506TIP3    H234462   2.836   2.134   6.461
11507TIP3   OH234463   2.420   1.920   2.277
11507TIP3    H134464   2.507   1.905   2.313
11507TIP3    H234465   2.436   1.965   2.194
11508TIP3   OH234466   5.001   2.806   2.014
11508TIP3    H134467   4.973   2.791   2.104
11508TIP3    H234468   5.093   2.832   2.021
11509TIP3   OH234469   2.544   2.305   4.203
11509TIP3    H134470   2.553   2.383   4.258
11509TIP3    H234471   2.549   2.232   4.265
11510TIP3   OH234472   5.189   3.172   3.486
11510TIP3    H134473   5.197   3.235   3.414
11510TIP3    H234474   5.097   3.145   3.483
11511TIP3   OH234475   6.657   7.144   6.723
11511TIP3    H134476   6.666   7.233   6.759
11511TIP3    H234477   6.591   7.153   6.655
11512TIP3   OH234478   5.876   2.565   4.566
11512TIP3    H134479   5.916   2.556   4.653
11512TIP3    H234480   5.822   2.644   4.572
11513TIP3   OH234481   5.460   0.238   3.223
11513TIP3    H134482   5.375   0.253   3.264
11513TIP3    H234483   5.485   0.323   3.187
11514TIP3   OH234484   4.226   6.035   4.375
11514TIP3    H134485   4.212   6.042   4.469
11514TIP3    H234486   4.207   5.944   4.354
11515TIP3   OH234487   4.388   2.193   3.888
11515TIP3    H134488   4.368   2.255   3.959
11515TIP3    H234489   4.482   2.177   3.896
11516TIP3   OH234490   8.213   1.826   4.521
11516TIP3    H134491   8.302   1.850   4.547
11516TIP3    H234492   8.172   1.908   4.495
11517TIP3   OH234493   7.776   1.324   6.031
11517TIP3    H134494   7.778   1.396   5.967
11517TIP3    H234495   7.727   1.254   5.986
11518TIP3   OH234496   1.494   1.000   2.363
11518TIP3    H134497   1.575   1.045   2.339
11518TIP3    H234498   1.498   0.917   2.316
11519TIP3   OH234499   2.516   2.899   5.823
11519TIP3    H134500   2.559   2.844   5.757
11519TIP3    H234501   2.507   2.985   5.780
11520TIP3   OH234502   0.542  -0.036   3.866
11520TIP3    H134503   0.458  -0.062   3.902
11520TIP3    H234504   0.543   0.059   3.872
11521TIP3   OH234505   8.244   1.724   2.396
11521TIP3    H134506   8.153   1.735   2.367
11521TIP3    H234507   8.240   1.733   2.491
11522TIP3   OH234508   4.856   0.648   3.911
11522TIP3    H134509   4.804   0.695   3.976
11522TIP3    H234510   4.866   0.710   3.839
11523TIP3   OH234511   2.560   0.092   3.516
11523TIP3    H134512   2.505   0.164   3.485
11523TIP3    H234513   2.632   0.135   3.562
11524TIP3   OH234514   6.098   6.936   6.613
11524TIP3    H134515   6.080   7.027   6.588
11524TIP3    H234516   6.148   6.943   6.694
11525TIP3   OH234517   1.872   7.112   5.155
11525TIP3    H134518   1.837   7.027   5.130
11525TIP3    H234519   1.954   7.093   5.200
11526TIP3   OH234520   5.744   4.441   0.692
11526TIP3    H134521   5.684   4.416   0.762
11526TIP3    H234522   5.697   4.419   0.611
11527TIP3   OH234523   2.805   5.480   3.254
11527TIP3    H134524   2.881   5.485   3.195
11527TIP3    H234525   2.745   5.419   3.210
11528TIP3   OH234526   2.614   4.641   5.670
11528TIP3    H134527   2.637   4.734   5.678
11528TIP3    H234528   2.601   4.628   5.576
11529TIP3   OH234529   6.579   3.643   3.946
11529TIP3    H134530   6.541   3.727   3.972
11529TIP3    H234531   6.651   3.667   3.888
11530TIP3   OH234532   3.666   7.122   2.084
11530TIP3    H134533   3.603   7.085   2.023
11530TIP3    H234534   3.744   7.137   2.032
11531TIP3   OH234535   6.687   4.085   6.478
11531TIP3    H134536   6.670   4.105   6.386
11531TIP3    H234537   6.600   4.082   6.518
11532TIP3   OH234538   6.267   5.199   6.640
11532TIP3    H134539   6.198   5.264   6.623
11532TIP3    H234540   6.318   5.237   6.711
11533TIP3   OH234541   1.031   7.768   3.201
11533TIP3    H134542   1.018   7.774   3.295
11533TIP3    H234543   0.950   7.802   3.163
11534TIP3   OH234544   5.513   1.973   6.635
11534TIP3    H134545   5.578   2.031   6.674
11534TIP3    H234546   5.432   2.024   6.633
11535TIP3   OH234547   7.331   5.478   0.459
11535TIP3    H134548   7.258   5.461   0.520
11535TIP3    H234549   7.315   5.568   0.429
11536TIP3   OH234550   2.768   5.222   4.087
11536TIP3    H134551   2.682   5.255   4.115
11536TIP3    H234552   2.800   5.289   4.027
11537TIP3   OH234553   6.996   2.682   4.131
11537TIP3    H134554   7.081   2.698   4.091
11537TIP3    H234555   7.016   2.640   4.215
11538TIP3   OH234556   5.114   3.602   5.838
11538TIP3    H134557   5.189   3.597   5.779
11538TIP3    H234558   5.041   3.569   5.785
11539TIP3   OH234559   4.676   7.077   2.556
11539TIP3    H134560   4.650   7.155   2.605
11539TIP3    H234561   4.747   7.107   2.499
11540TIP3   OH234562   8.143   2.462   4.950
11540TIP3    H134563   8.180   2.459   4.861
11540TIP3    H234564   8.114   2.552   4.961
11541TIP3   OH234565   3.237   5.199   5.690
11541TIP3    H134566   3.166   5.135   5.692
11541TIP3    H234567   3.261   5.205   5.597
11542TIP3   OH234568   3.338   5.035   4.794
11542TIP3    H134569   3.328   5.042   4.889
11542TIP3    H234570   3.273   4.970   4.768
11543TIP3   OH234571   3.404   2.070   5.086
11543TIP3    H134572   3.476   2.083   5.024
11543TIP3    H234573   3.372   1.981   5.067
11544TIP3   OH234574   7.260   0.396   2.936
11544TIP3    H134575   7.166   0.386   2.923
11544TIP3    H234576   7.268   0.449   3.015
11545TIP3   OH234577   1.681   3.555   2.234
11545TIP3    H134578   1.690   3.596   2.148
11545TIP3    H234579   1.666   3.462   2.214
11546TIP3   OH234580   6.524   4.429   1.627
11546TIP3    H134581   6.432   4.452   1.642
11546TIP3    H234582   6.571   4.509   1.649
11547TIP3   OH234583   0.972   0.020   3.781
11547TIP3    H134584   1.060   0.006   3.815
11547TIP3    H234585   0.974  -0.019   3.693
11548TIP3   OH234586   7.808   0.158   2.985
11548TIP3    H134587   7.877   0.221   2.966
11548TIP3    H234588   7.814   0.142   3.079
11549TIP3   OH234589   0.304   1.560   5.783
11549TIP3    H134590   0.303   1.472   5.821
11549TIP3    H234591   0.395   1.589   5.792
11550TIP3   OH234592   3.632   5.878   0.457
11550TIP3    H134593   3.545   5.841   0.468
11550TIP3    H234594   3.673   5.871   0.543
11551TIP3   OH234595   7.781   5.478   3.528
11551TIP3    H134596   7.871   5.497   3.503
11551TIP3    H234597   7.736   5.460   3.446
11552TIP3   OH234598   1.086   5.659   3.676
11552TIP3    H134599   1.109   5.569   3.699
11552TIP3    H234600   0.991   5.657   3.663
11553TIP3   OH234601   5.686   2.905   1.454
11553TIP3    H134602   5.726   2.991   1.443
11553TIP3    H234603   5.593   2.919   1.439
11554TIP3   OH234604   2.857   4.955   1.656
11554TIP3    H134605   2.900   4.874   1.683
11554TIP3    H234606   2.908   5.025   1.697
11555TIP3   OH234607   4.149   2.946   5.344
11555TIP3    H134608   4.135   2.885   5.273
11555TIP3    H234609   4.237   2.926   5.377
11556TIP3   OH234610   3.596   4.885   4.846
11556TIP3    H134611   3.549   4.881   4.763
11556TIP3    H234612   3.611   4.794   4.870
11557TIP3   OH234613   5.758   6.039   4.222
11557TIP3    H134614   5.830   6.006   4.167
11557TIP3    H234615   5.765   5.987   4.303
11558TIP3   OH234616   1.896   6.432   4.100
11558TIP3    H134617   1.949   6.484   4.040
11558TIP3    H234618   1.848   6.495   4.152
11559TIP3   OH234619   7.589   2.380   0.699
11559TIP3    H134620   7.560   2.460   0.655
11559TIP3    H234621   7.508   2.333   0.719
11560TIP3   OH234622   3.571   4.682   0.768
11560TIP3    H134623   3.619   4.620   0.823
11560TIP3    H234624   3.485   4.643   0.758
11561TIP3   OH234625   0.955   2.735   2.587
11561TIP3    H134626   1.040   2.767   2.617
11561TIP3    H234627   0.892   2.793   2.628
11562TIP3   OH234628   1.424   3.657   0.009
11562TIP3    H134629   1.501   3.625   0.056
11562TIP3    H234630   1.368   3.581   0.001
11563TIP3   OH234631   2.501   5.277   2.736
11563TIP3    H134632   2.417   5.236   2.714
11563TIP3    H234633   2.525   5.239   2.821
11564TIP3   OH234634   3.237   2.878   1.439
11564TIP3    H134635   3.332   2.865   1.435
11564TIP3    H234636   3.223   2.964   1.399
11565TIP3   OH234637   5.495   5.234   5.691
11565TIP3    H134638   5.415   5.250   5.741
11565TIP3    H234639   5.465   5.193   5.610
11566TIP3   OH234640   7.662   1.218   1.672
11566TIP3    H134641   7.616   1.289   1.717
11566TIP3    H234642   7.627   1.138   1.711
11567TIP3   OH234643   2.043   2.563   2.476
11567TIP3    H134644   1.956   2.599   2.463
11567TIP3    H234645   2.103   2.632   2.447
11568TIP3   OH234646   2.769   6.080   6.592
11568TIP3    H134647   2.740   5.991   6.615
11568TIP3    H234648   2.746   6.089   6.500
11569TIP3   OH234649   0.100   2.167   5.809
11569TIP3    H134650   0.143   2.236   5.860
11569TIP3    H234651   0.085   2.096   5.872
11570TIP3   OH234652   2.624   7.410   6.509
11570TIP3    H134653   2.693   7.344   6.517
11570TIP3    H234654   2.669   7.488   6.477
11571TIP3   OH234655   0.525   6.224   4.397
11571TIP3    H134656   0.489   6.257   4.315
11571TIP3    H234657   0.557   6.303   4.442
11572TIP3   OH234658   2.027   4.130   2.973
11572TIP3    H134659   1.974   4.210   2.980
11572TIP3    H234660   1.991   4.084   2.897
11573TIP3   OH234661   3.139   2.314   5.518
11573TIP3    H134662   3.184   2.377   5.461
11573TIP3    H234663   3.209   2.257   5.550
11574TIP3   OH234664   3.155   4.017   0.303
11574TIP3    H134665   3.118   4.090   0.353
11574TIP3    H234666   3.114   3.939   0.340
11575TIP3   OH234667   6.482   3.083   1.146
11575TIP3    H134668   6.400   3.131   1.152
11575TIP3    H234669   6.456   2.992   1.134
11576TIP3   OH234670   6.713   2.764   1.485
11576TIP3    H134671   6.756   2.787   1.568
11576TIP3    H234672   6.780   2.776   1.418
11577TIP3   OH234673   3.597   4.137   2.445
11577TIP3    H134674   3.580   4.044   2.459
11577TIP3    H234675   3.513   4.179   2.464
11578TIP3   OH234676   5.406   2.179   5.859
11578TIP3    H134677   5.501   2.185   5.870
11578TIP3    H234678   5.394   2.163   5.765
11579TIP3   OH234679   0.596   3.171   2.350
11579TIP3    H134680   0.562   3.158   2.261
11579TIP3    H234681   0.536   3.234   2.389
11580TIP3   OH234682   6.399   4.038   1.292
11580TIP3    H134683   6.493   4.052   1.294
11580TIP3    H234684   6.381   3.978   1.364
11581TIP3   OH234685   3.615   0.739   2.786
11581TIP3    H134686   3.694   0.771   2.828
11581TIP3    H234687   3.643   0.664   2.734
11582TIP3   OH234688   6.133   6.314   2.797
11582TIP3    H134689   6.169   6.255   2.863
11582TIP3    H234690   6.184   6.395   2.806
11583TIP3   OH234691   6.229   0.759   6.782
11583TIP3    H134692   6.257   0.809   6.705
11583TIP3    H234693   6.146   0.719   6.756
11584TIP3   OH234694   4.540   7.608   4.628
11584TIP3    H134695   4.522   7.659   4.707
11584TIP3    H234696   4.490   7.652   4.559
11585TIP3   OH234697   7.900   4.181   1.929
11585TIP3    H134698   7.863   4.212   1.846
11585TIP3    H234699   7.910   4.087   1.917
11586TIP3   OH234700   6.347   3.405   0.100
11586TIP3    H134701   6.373   3.315   0.079
11586TIP3    H234702   6.295   3.397   0.180
11587TIP3   OH234703   6.856   5.466   6.352
11587TIP3    H134704   6.854   5.400   6.421
11587TIP3    H234705   6.893   5.544   6.394
11588TIP3   OH234706   1.313   2.779   0.713
11588TIP3    H134707   1.242   2.763   0.775
11588TIP3    H234708   1.385   2.811   0.766
11589TIP3   OH234709   0.349   6.512   6.231
11589TIP3    H134710   0.328   6.426   6.193
11589TIP3    H234711   0.415   6.548   6.171
11590TIP3   OH234712   4.365   6.410   3.858
11590TIP3    H134713   4.291   6.451   3.902
11590TIP3    H234714   4.374   6.325   3.902
11591TIP3   OH234715   7.497   3.220   4.523
11591TIP3    H134716   7.428   3.284   4.541
11591TIP3    H234717   7.553   3.264   4.459
11592TIP3   OH234718   1.192   6.167   1.000
11592TIP3    H134719   1.274   6.167   1.049
11592TIP3    H234720   1.136   6.229   1.047
11593TIP3   OH234721   7.361   1.293   2.719
11593TIP3    H134722   7.299   1.232   2.679
11593TIP3    H234723   7.443   1.277   2.672
11594TIP3   OH234724   3.323   3.124   3.933
11594TIP3    H134725   3.385   3.161   3.995
11594TIP3    H234726   3.378   3.078   3.869
11595TIP3   OH234727   2.535   2.858   1.606
11595TIP3    H134728   2.485   2.918   1.551
11595TIP3    H234729   2.552   2.908   1.686
11596TIP3   OH234730   6.057   0.869   5.783
11596TIP3    H134731   6.080   0.778   5.801
11596TIP3    H234732   5.977   0.884   5.833
11597TIP3   OH234733   1.387   2.485   3.768
11597TIP3    H134734   1.308   2.525   3.731
11597TIP3    H234735   1.355   2.405   3.810
11598TIP3   OH234736   5.661   0.900   1.318
11598TIP3    H134737   5.610   0.980   1.303
11598TIP3    H234738   5.647   0.847   1.239
11599TIP3   OH234739   4.860   0.275   2.251
11599TIP3    H134740   4.868   0.361   2.212
11599TIP3    H234741   4.874   0.290   2.345
11600TIP3   OH234742   8.010   2.405   6.468
11600TIP3    H134743   8.025   2.474   6.403
11600TIP3    H234744   7.994   2.326   6.417
11601TIP3   OH234745   6.841   6.482   2.103
11601TIP3    H134746   6.804   6.394   2.108
11601TIP3    H234747   6.848   6.500   2.010
11602TIP3   OH234748   4.338   1.845   2.870
11602TIP3    H134749   4.295   1.839   2.956
11602TIP3    H234750   4.302   1.772   2.820
11603TIP3   OH234751   5.060   0.065   4.205
11603TIP3    H134752   5.015  -0.019   4.218
11603TIP3    H234753   5.131   0.045   4.144
11604TIP3   OH234754   4.007   0.400   5.146
11604TIP3    H134755   3.942   0.370   5.082
11604TIP3    H234756   4.045   0.320   5.182
11605TIP3   OH234757   5.151   4.261   2.155
11605TIP3    H134758   5.100   4.216   2.088
11605TIP3    H234759   5.234   4.282   2.112
11606TIP3   OH234760   4.946   7.608   2.821
11606TIP3    H134761   5.041   7.617   2.821
11606TIP3    H234762   4.930   7.532   2.877
11607TIP3   OH234763   6.024   4.959   6.662
11607TIP3    H134764   6.101   4.994   6.708
11607TIP3    H234765   5.976   5.037   6.634
11608TIP3   OH234766   2.171   2.034   6.633
11608TIP3    H134767   2.118   1.991   6.700
11608TIP3    H234768   2.254   2.055   6.677
11609TIP3   OH234769   5.329   1.765   4.763
11609TIP3    H134770   5.363   1.854   4.767
11609TIP3    H234771   5.238   1.773   4.791
11610TIP3   OH234772   5.953   7.018   5.238
11610TIP3    H134773   5.932   7.079   5.167
11610TIP3    H234774   5.869   7.002   5.281
11611TIP3   OH234775   4.454   0.277   1.480
11611TIP3    H134776   4.425   0.278   1.389
11611TIP3    H234777   4.492   0.364   1.494
11612TIP3   OH234778   7.614   4.637   6.451
11612TIP3    H134779   7.660   4.700   6.395
11612TIP3    H234780   7.609   4.681   6.536
11613TIP3   OH234781   5.204   6.487   4.426
11613TIP3    H134782   5.243   6.412   4.381
11613TIP3    H234783   5.112   6.463   4.437
11614TIP3   OH234784   5.657   4.283   2.242
11614TIP3    H134785   5.642   4.368   2.201
11614TIP3    H234786   5.697   4.303   2.326
11615TIP3   OH234787   1.311   2.000   6.731
11615TIP3    H134788   1.257   2.069   6.691
11615TIP3    H234789   1.366   1.968   6.659
11616TIP3   OH234790   5.647   1.800   5.838
11616TIP3    H134791   5.703   1.764   5.769
11616TIP3    H234792   5.676   1.756   5.917
11617TIP3   OH234793   1.044   3.825   5.008
11617TIP3    H134794   1.111   3.759   5.026
11617TIP3    H234795   1.056   3.891   5.076
11618TIP3   OH234796   0.248   6.297   2.717
11618TIP3    H134797   0.155   6.315   2.708
11618TIP3    H234798   0.259   6.209   2.682
11619TIP3   OH234799   1.653   7.362   1.690
11619TIP3    H134800   1.675   7.287   1.744
11619TIP3    H234801   1.692   7.437   1.735
11620TIP3   OH234802   2.015   0.254   1.928
11620TIP3    H134803   1.986   0.325   1.871
11620TIP3    H234804   1.972   0.271   2.012
11621TIP3   OH234805   6.867   1.913   6.691
11621TIP3    H134806   6.772   1.899   6.692
11621TIP3    H234807   6.879   1.995   6.738
11622TIP3   OH234808   5.759   5.363   4.943
11622TIP3    H134809   5.728   5.299   4.879
11622TIP3    H234810   5.845   5.331   4.971
11623TIP3   OH234811   7.392   7.786   3.333
11623TIP3    H134812   7.462   7.804   3.269
11623TIP3    H234813   7.353   7.704   3.303
11624TIP3   OH234814   6.918   6.078   5.561
11624TIP3    H134815   6.903   5.985   5.550
11624TIP3    H234816   6.835   6.113   5.593
11625TIP3   OH234817   2.486   6.675   3.827
11625TIP3    H134818   2.426   6.602   3.842
11625TIP3    H234819   2.511   6.704   3.914
11626TIP3   OH234820   2.646   1.827   4.312
11626TIP3    H134821   2.595   1.750   4.286
11626TIP3    H234822   2.631   1.835   4.406
11627TIP3   OH234823   2.440   0.655   3.866
11627TIP3    H134824   2.426   0.676   3.774
11627TIP3    H234825   2.380   0.713   3.913
11628TIP3   OH234826   4.940   6.975   4.073
11628TIP3    H134827   4.865   7.018   4.113
11628TIP3    H234828   5.007   6.975   4.141
11629TIP3   OH234829   3.342   1.428   2.694
11629TIP3    H134830   3.304   1.467   2.773
11629TIP3    H234831   3.435   1.448   2.700
11630TIP3   OH234832   3.629   6.194   4.826
11630TIP3    H134833   3.543   6.161   4.799
11630TIP3    H234834   3.619   6.213   4.919
11631TIP3   OH234835   1.542   3.548   4.245
11631TIP3    H134836   1.536   3.621   4.184
11631TIP3    H234837   1.454   3.541   4.282
11632TIP3   OH234838   7.907   4.402   4.877
11632TIP3    H134839   7.849   4.357   4.939
11632TIP3    H234840   7.953   4.467   4.930
11633TIP3   OH234841   4.158   0.318   0.262
11633TIP3    H134842   4.171   0.285   0.173
11633TIP3    H234843   4.063   0.323   0.272
11634TIP3   OH234844   7.024   2.936   2.064
11634TIP3    H134845   6.943   2.981   2.088
11634TIP3    H234846   7.029   2.945   1.969
11635TIP3   OH234847   1.970   3.980   3.317
11635TIP3    H134848   1.893   4.032   3.293
11635TIP3    H234849   1.944   3.889   3.301
11636TIP3   OH234850   2.074   2.793   3.690
11636TIP3    H134851   2.004   2.734   3.663
11636TIP3    H234852   2.147   2.772   3.631
11637TIP3   OH234853   7.101   2.297   6.311
11637TIP3    H134854   7.093   2.234   6.239
11637TIP3    H234855   7.050   2.259   6.382
11638TIP3   OH234856   6.406   7.105   6.326
11638TIP3    H134857   6.398   7.011   6.312
11638TIP3    H234858   6.500   7.122   6.326
11639TIP3   OH234859   5.718   6.449   4.583
11639TIP3    H134860   5.715   6.354   4.597
11639TIP3    H234861   5.637   6.468   4.535
11640TIP3   OH234862   4.436   3.613   0.269
11640TIP3    H134863   4.386   3.534   0.249
11640TIP3    H234864   4.521   3.598   0.227
11641TIP3   OH234865   0.216   5.636   5.642
11641TIP3    H134866   0.290   5.598   5.690
11641TIP3    H234867   0.249   5.720   5.610
11642TIP3   OH234868   0.148   4.168   0.597
11642TIP3    H134869   0.197   4.113   0.658
11642TIP3    H234870   0.203   4.171   0.518
11643TIP3   OH234871   8.169   1.986   0.508
11643TIP3    H134872   8.171   2.029   0.594
11643TIP3    H234873   8.147   1.895   0.528
11644TIP3   OH234874   2.288   7.694   2.791
11644TIP3    H134875   2.202   7.711   2.830
11644TIP3    H234876   2.342   7.665   2.864
11645TIP3   OH234877   6.074   4.741   5.442
11645TIP3    H134878   6.013   4.683   5.488
11645TIP3    H234879   6.120   4.684   5.381
11646TIP3   OH234880   2.735   1.814   1.276
11646TIP3    H134881   2.731   1.906   1.248
11646TIP3    H234882   2.798   1.814   1.348
11647TIP3   OH234883   6.425   1.660   6.586
11647TIP3    H134884   6.459   1.571   6.575
11647TIP3    H234885   6.335   1.648   6.616
11648TIP3   OH234886   4.593   0.659   3.181
11648TIP3    H134887   4.655   0.702   3.240
11648TIP3    H234888   4.510   0.660   3.229
11649TIP3   OH234889   0.051   2.675   1.774
11649TIP3    H134890   0.079   2.694   1.685
11649TIP3    H234891   0.013   2.757   1.806
11650TIP3   OH234892   7.935   4.473   6.119
11650TIP3    H134893   7.932   4.556   6.167
11650TIP3    H234894   8.028   4.461   6.097
11651TIP3   OH234895   4.945   1.197   3.878
11651TIP3    H134896   4.940   1.291   3.864
11651TIP3    H234897   5.007   1.166   3.812
11652TIP3   OH234898   5.056   3.224   2.526
11652TIP3    H134899   5.134   3.171   2.511
11652TIP3    H234900   4.985   3.160   2.531
11653TIP3   OH234901   2.844   3.627   2.326
11653TIP3    H134902   2.763   3.631   2.275
11653TIP3    H234903   2.815   3.597   2.413
11654TIP3   OH234904   2.643   7.507   5.147
11654TIP3    H134905   2.676   7.426   5.186
11654TIP3    H234906   2.711   7.533   5.085
11655TIP3   OH234907   3.438   6.740   2.820
11655TIP3    H134908   3.424   6.809   2.886
11655TIP3    H234909   3.458   6.662   2.871
11656TIP3   OH234910   5.862   6.244   3.699
11656TIP3    H134911   5.840   6.151   3.692
11656TIP3    H234912   5.779   6.290   3.688
11657TIP3   OH234913   4.087   5.329   6.365
11657TIP3    H134914   4.180   5.343   6.346
11657TIP3    H234915   4.076   5.358   6.455
11658TIP3   OH234916   3.632   1.843   1.236
11658TIP3    H134917   3.604   1.805   1.319
11658TIP3    H234918   3.610   1.936   1.243
11659TIP3   OH234919   2.369   0.967   2.058
11659TIP3    H134920   2.294   1.016   2.023
11659TIP3    H234921   2.352   0.876   2.033
11660TIP3   OH234922   1.541   4.475   6.126
11660TIP3    H134923   1.576   4.533   6.059
11660TIP3    H234924   1.608   4.473   6.194
11661TIP3   OH234925   6.382   6.839   5.724
11661TIP3    H134926   6.373   6.889   5.642
11661TIP3    H234927   6.444   6.770   5.703
11662TIP3   OH234928   2.874   3.723   1.789
11662TIP3    H134929   2.894   3.807   1.828
11662TIP3    H234930   2.778   3.717   1.792
11663TIP3   OH234931   6.477   7.289   2.730
11663TIP3    H134932   6.542   7.241   2.680
11663TIP3    H234933   6.523   7.368   2.759
11664TIP3   OH234934   1.377   3.544   6.440
11664TIP3    H134935   1.394   3.613   6.505
11664TIP3    H234936   1.305   3.493   6.477
11665TIP3   OH234937   5.813   2.607   6.652
11665TIP3    H134938   5.824   2.676   6.587
11665TIP3    H234939   5.893   2.609   6.703
11666TIP3   OH234940   7.035   4.891   1.900
11666TIP3    H134941   7.035   4.940   1.818
11666TIP3    H234942   7.109   4.830   1.891
11667TIP3   OH234943   3.672   3.632   6.293
11667TIP3    H134944   3.714   3.593   6.216
11667TIP3    H234945   3.624   3.708   6.259
11668TIP3   OH234946   4.120   0.977   4.130
11668TIP3    H134947   4.091   1.021   4.211
11668TIP3    H234948   4.179   0.908   4.160
11669TIP3   OH234949   2.032   4.243   1.037
11669TIP3    H134950   2.072   4.325   1.064
11669TIP3    H234951   2.014   4.253   0.944
11670TIP3   OH234952   0.681   2.123   1.494
11670TIP3    H134953   0.657   2.203   1.448
11670TIP3    H234954   0.749   2.084   1.439
11671TIP3   OH234955   2.048   6.080   1.933
11671TIP3    H134956   1.954   6.062   1.929
11671TIP3    H234957   2.088   5.994   1.949
11672TIP3   OH234958   1.159   2.572   3.616
11672TIP3    H134959   1.215   2.533   3.550
11672TIP3    H234960   1.079   2.596   3.569
11673TIP3   OH234961   1.045   3.515   6.222
11673TIP3    H134962   0.953   3.489   6.211
11673TIP3    H234963   1.091   3.432   6.235
11674TIP3   OH234964   1.274   0.939   6.651
11674TIP3    H134965   1.291   0.870   6.716
11674TIP3    H234966   1.334   1.009   6.676
11675TIP3   OH234967   0.296   0.467   2.563
11675TIP3    H134968   0.336   0.383   2.584
11675TIP3    H234969   0.308   0.520   2.642
11676TIP3   OH234970   5.408   3.739   1.029
11676TIP3    H134971   5.485   3.796   1.034
11676TIP3    H234972   5.421   3.674   1.098
11677TIP3   OH234973   1.245   6.257   4.447
11677TIP3    H134974   1.278   6.335   4.404
11677TIP3    H234975   1.254   6.276   4.541
11678TIP3   OH234976   5.050   3.440   2.289
11678TIP3    H134977   5.121   3.402   2.341
11678TIP3    H234978   5.089   3.517   2.247
11679TIP3   OH234979   3.931   5.196   4.635
11679TIP3    H134980   3.890   5.256   4.697
11679TIP3    H234981   3.889   5.112   4.650
11680TIP3   OH234982   2.775   1.664   6.324
11680TIP3    H134983   2.682   1.681   6.331
11680TIP3    H234984   2.782   1.571   6.303
11681TIP3   OH234985   4.340   5.189   3.018
11681TIP3    H134986   4.306   5.184   3.107
11681TIP3    H234987   4.282   5.250   2.973
11682TIP3   OH234988   0.491   0.493   6.359
11682TIP3    H134989   0.571   0.507   6.308
11682TIP3    H234990   0.504   0.407   6.401
11683TIP3   OH234991   1.548   1.764   0.397
11683TIP3    H134992   1.637   1.766   0.364
11683TIP3    H234993   1.558   1.752   0.492
11684TIP3   OH234994   7.203   2.493   1.160
11684TIP3    H134995   7.251   2.565   1.118
11684TIP3    H234996   7.113   2.525   1.165
11685TIP3   OH234997   2.748   5.811   6.208
11685TIP3    H134998   2.753   5.790   6.301
11685TIP3    H234999   2.800   5.891   6.198
11686TIP3   OH235000   7.605   3.212   0.114
11686TIP3    H135001   7.565   3.216   0.201
11686TIP3    H235002   7.628   3.303   0.094
11687TIP3   OH235003   0.839   6.251   0.537
11687TIP3    H135004   0.889   6.226   0.459
11687TIP3    H235005   0.838   6.173   0.592
11688TIP3   OH235006   5.538   0.060   5.601
11688TIP3    H135007   5.570  -0.010   5.659
11688TIP3    H235008   5.450   0.032   5.577
11689TIP3   OH235009   8.099   3.623   2.876
11689TIP3    H135010   8.015   3.645   2.835
11689TIP3    H235011   8.151   3.585   2.805
11690TIP3   OH235012   3.432   4.217   4.113
11690TIP3    H135013   3.409   4.126   4.095
11690TIP3    H235014   3.359   4.251   4.165
11691TIP3   OH235015   6.250   6.286   3.167
11691TIP3    H135016   6.338   6.316   3.145
11691TIP3    H235017   6.240   6.306   3.260
11692TIP3   OH235018   3.771   1.919   5.378
11692TIP3    H135019   3.834   1.847   5.373
11692TIP3    H235020   3.754   1.930   5.472
11693TIP3   OH235021   8.014   1.947   5.046
11693TIP3    H135022   8.035   1.975   4.957
11693TIP3    H235023   8.054   1.861   5.054
11694TIP3   OH235024   6.068   2.439   5.407
11694TIP3    H135025   5.984   2.395   5.423
11694TIP3    H235026   6.134   2.373   5.428
11695TIP3   OH235027   5.192   6.872   1.265
11695TIP3    H135028   5.147   6.880   1.181
11695TIP3    H235029   5.133   6.914   1.328
11696TIP3   OH235030   7.067   1.859   4.252
11696TIP3    H135031   7.160   1.838   4.252
11696TIP3    H235032   7.063   1.954   4.263
11697TIP3   OH235033   7.841   3.227   1.620
11697TIP3    H135034   7.880   3.309   1.650
11697TIP3    H235035   7.749   3.233   1.648
11698TIP3   OH235036   0.274   6.282   5.338
11698TIP3    H135037   0.187   6.323   5.333
11698TIP3    H235038   0.335   6.356   5.336
11699TIP3   OH235039   2.216   3.715   6.160
11699TIP3    H135040   2.244   3.649   6.223
11699TIP3    H235041   2.269   3.698   6.082
11700TIP3   OH235042   4.376   3.259   3.381
11700TIP3    H135043   4.355   3.325   3.446
11700TIP3    H235044   4.329   3.286   3.302
11701TIP3   OH235045   2.196   4.990   6.035
11701TIP3    H135046   2.131   4.920   6.040
11701TIP3    H235047   2.208   5.018   6.125
11702TIP3   OH235048   0.695   1.172   3.134
11702TIP3    H135049   0.704   1.209   3.221
11702TIP3    H235050   0.777   1.125   3.119
11703TIP3   OH235051   1.413   3.208   5.819
11703TIP3    H135052   1.386   3.292   5.783
11703TIP3    H235053   1.469   3.230   5.893
11704TIP3   OH235054   3.390   2.922   4.240
11704TIP3    H135055   3.357   3.012   4.230
11704TIP3    H235056   3.412   2.914   4.332
11705TIP3   OH235057   7.447   2.868   2.566
11705TIP3    H135058   7.539   2.865   2.594
11705TIP3    H235059   7.405   2.797   2.614
11706TIP3   OH235060   2.151   1.917   5.135
11706TIP3    H135061   2.243   1.903   5.158
11706TIP3    H235062   2.102   1.864   5.197
11707TIP3   OH235063   3.597   6.062   5.927
11707TIP3    H135064   3.535   6.108   5.872
11707TIP3    H235065   3.586   5.970   5.903
11708TIP3   OH235066   3.452   5.590   3.639
11708TIP3    H135067   3.414   5.632   3.561
11708TIP3    H235068   3.412   5.636   3.713
11709TIP3   OH235069   3.674   5.337   6.042
11709TIP3    H135070   3.607   5.367   6.102
11709TIP3    H235071   3.670   5.398   5.968
11710TIP3   OH235072   1.751   1.783   5.379
11710TIP3    H135073   1.775   1.744   5.463
11710TIP3    H235074   1.726   1.873   5.402
11711TIP3   OH235075   6.855   3.637   0.324
11711TIP3    H135076   6.762   3.615   0.322
11711TIP3    H235077   6.898   3.553   0.341
11712TIP3   OH235078   5.436   7.162   5.551
11712TIP3    H135079   5.473   7.178   5.638
11712TIP3    H235080   5.343   7.146   5.567
11713TIP3   OH235081   0.665   1.988   2.952
11713TIP3    H135082   0.759   2.003   2.956
11713TIP3    H235083   0.635   2.000   3.042
11714TIP3   OH235084   3.748   2.667   4.799
11714TIP3    H135085   3.821   2.644   4.742
11714TIP3    H235086   3.701   2.736   4.751
11715TIP3   OH235087   2.446   5.956   1.555
11715TIP3    H135088   2.417   5.980   1.467
11715TIP3    H235089   2.425   6.033   1.609
11716TIP3   OH235090   2.841   3.262   3.806
11716TIP3    H135091   2.916   3.253   3.748
11716TIP3    H235092   2.853   3.346   3.849
11717TIP3   OH235093   5.972   0.249   0.638
11717TIP3    H135094   6.048   0.235   0.581
11717TIP3    H235095   5.945   0.161   0.665
11718TIP3   OH235096   5.185   6.524   5.030
11718TIP3    H135097   5.181   6.438   4.988
11718TIP3    H235098   5.185   6.506   5.123
11719TIP3   OH235099   0.718   1.977   2.153
11719TIP3    H135100   0.623   1.961   2.162
11719TIP3    H235101   0.750   1.901   2.104
11720TIP3   OH235102   3.443   6.954   2.999
11720TIP3    H135103   3.437   7.030   2.941
11720TIP3    H235104   3.358   6.950   3.042
11721TIP3   OH235105   7.287   5.596   0.825
11721TIP3    H135106   7.266   5.687   0.801
11721TIP3    H235107   7.233   5.543   0.766
11722TIP3   OH235108   4.291   6.044   6.293
11722TIP3    H135109   4.276   6.126   6.246
11722TIP3    H235110   4.337   6.070   6.373
11723TIP3   OH235111   6.071   3.097   6.098
11723TIP3    H135112   6.024   3.078   6.016
11723TIP3    H235113   6.091   3.191   6.092
11724TIP3   OH235114   1.507   7.483   0.578
11724TIP3    H135115   1.456   7.481   0.497
11724TIP3    H235116   1.589   7.439   0.556
11725TIP3   OH235117   8.065   7.361   4.134
11725TIP3    H135118   8.110   7.371   4.050
11725TIP3    H235119   7.977   7.397   4.119
11726TIP3   OH235120   1.552   0.398   1.714
11726TIP3    H135121   1.592   0.357   1.791
11726TIP3    H235122   1.537   0.325   1.654
11727TIP3   OH235123   1.675   7.325   0.246
11727TIP3    H135124   1.743   7.296   0.185
11727TIP3    H235125   1.716   7.320   0.332
11728TIP3   OH235126   3.444   5.691   0.485
11728TIP3    H135127   3.384   5.627   0.524
11728TIP3    H235128   3.491   5.643   0.418
11729TIP3   OH235129   7.997   5.325   3.139
11729TIP3    H135130   8.018   5.319   3.046
11729TIP3    H235131   8.079   5.304   3.184
11730TIP3   OH235132   2.995   4.499   1.657
11730TIP3    H135133   2.940   4.426   1.628
11730TIP3    H235134   3.084   4.461   1.659
11731TIP3   OH235135   7.979   7.636   2.971
11731TIP3    H135136   8.019   7.578   2.906
11731TIP3    H235137   8.054   7.680   3.012
11732TIP3   OH235138   3.970   2.239   6.403
11732TIP3    H135139   3.953   2.223   6.496
11732TIP3    H235140   3.960   2.153   6.362
11733TIP3   OH235141   3.232   2.574   5.054
11733TIP3    H135142   3.186   2.650   5.091
11733TIP3    H235143   3.163   2.524   5.010
11734TIP3   OH235144   5.669   3.839   5.704
11734TIP3    H135145   5.701   3.872   5.620
11734TIP3    H235146   5.723   3.761   5.721
11735TIP3   OH235147   1.965   4.392   6.077
11735TIP3    H135148   2.007   4.449   6.012
11735TIP3    H235149   1.977   4.437   6.160
11736TIP3   OH235150   0.150   1.953   2.428
11736TIP3    H135151   0.063   1.920   2.404
11736TIP3    H235152   0.149   2.044   2.400
11737TIP3   OH235153   0.673   2.403   5.802
11737TIP3    H135154   0.662   2.497   5.784
11737TIP3    H235155   0.697   2.400   5.895
11738TIP3   OH235156   4.696   6.811   4.037
11738TIP3    H135157   4.789   6.812   4.063
11738TIP3    H235158   4.682   6.721   4.007
11739TIP3   OH235159   3.233   1.394   0.760
11739TIP3    H135160   3.182   1.340   0.820
11739TIP3    H235161   3.201   1.483   0.774
11740TIP3   OH235162   1.272   7.184   2.033
11740TIP3    H135163   1.210   7.190   1.960
11740TIP3    H235164   1.275   7.091   2.055
11741TIP3   OH235165   7.085   3.949   4.204
11741TIP3    H135166   7.023   3.935   4.275
11741TIP3    H235167   7.152   4.007   4.241
11742TIP3   OH235168   1.815   6.317   0.284
11742TIP3    H135169   1.854   6.404   0.277
11742TIP3    H235170   1.879   6.259   0.244
11743TIP3   OH235171   8.105   7.077   4.814
11743TIP3    H135172   8.037   7.049   4.752
11743TIP3    H235173   8.172   7.117   4.760
11744TIP3   OH235174   0.761   7.645   6.357
11744TIP3    H135175   0.699   7.655   6.429
11744TIP3    H235176   0.781   7.735   6.330
11745TIP3   OH235177   3.215   7.824   1.269
11745TIP3    H135178   3.245   7.757   1.207
11745TIP3    H235179   3.134   7.788   1.306
11746TIP3   OH235180   0.850   7.583   4.301
11746TIP3    H135181   0.841   7.597   4.206
11746TIP3    H235182   0.915   7.513   4.308
11747TIP3   OH235183   6.228   0.600   5.669
11747TIP3    H135184   6.160   0.570   5.729
11747TIP3    H235185   6.208   0.556   5.586
11748TIP3   OH235186   5.437   4.396   4.389
11748TIP3    H135187   5.368   4.426   4.329
11748TIP3    H235188   5.478   4.477   4.419
11749TIP3   OH235189   4.641   7.025   6.464
11749TIP3    H135190   4.650   7.114   6.498
11749TIP3    H235191   4.601   7.037   6.378
11750TIP3   OH235192   6.564   2.911   4.206
11750TIP3    H135193   6.512   2.945   4.279
11750TIP3    H235194   6.639   2.970   4.199
11751TIP3   OH235195   0.414   2.133   1.962
11751TIP3    H135196   0.501   2.155   1.996
11751TIP3    H235197   0.394   2.204   1.901
11752TIP3   OH235198   6.237   4.359   4.242
11752TIP3    H135199   6.214   4.340   4.151
11752TIP3    H235200   6.232   4.274   4.286
11753TIP3   OH235201   3.518   5.200   5.699
11753TIP3    H135202   3.553   5.132   5.757
11753TIP3    H235203   3.423   5.189   5.705
11754TIP3   OH235204   2.955   7.368   2.513
11754TIP3    H135205   2.880   7.361   2.572
11754TIP3    H235206   3.028   7.330   2.562
11755TIP3   OH235207   3.800   0.372   3.994
11755TIP3    H135208   3.743   0.299   3.972
11755TIP3    H235209   3.763   0.447   3.947
11756TIP3   OH235210   0.790   5.767   0.649
11756TIP3    H135211   0.800   5.679   0.614
11756TIP3    H235212   0.773   5.754   0.743
11757TIP3   OH235213   4.109   5.403   2.284
11757TIP3    H135214   4.090   5.316   2.321
11757TIP3    H235215   4.138   5.455   2.359
11758TIP3   OH235216   3.757   0.949   3.919
11758TIP3    H135217   3.773   0.879   3.982
11758TIP3    H235218   3.750   1.028   3.972
11759TIP3   OH235219   3.225   5.479   0.598
11759TIP3    H135220   3.211   5.501   0.690
11759TIP3    H235221   3.137   5.475   0.560
11760TIP3   OH235222   6.749   3.838   4.712
11760TIP3    H135223   6.825   3.876   4.668
11760TIP3    H235224   6.786   3.781   4.779
11761TIP3   OH235225   6.443   0.448   6.007
11761TIP3    H135226   6.422   0.512   5.940
11761TIP3    H235227   6.366   0.390   6.010
11762TIP3   OH235228   3.022   3.747   6.587
11762TIP3    H135229   2.996   3.828   6.632
11762TIP3    H235230   3.117   3.746   6.594
11763TIP3   OH235231   4.636   4.902   6.309
11763TIP3    H135232   4.591   4.903   6.224
11763TIP3    H235233   4.711   4.960   6.297
11764TIP3   OH235234   5.932   2.993   3.957
11764TIP3    H135235   5.905   3.085   3.958
11764TIP3    H235236   5.880   2.951   4.025
11765TIP3   OH235237   6.653   1.529   0.519
11765TIP3    H135238   6.658   1.473   0.597
11765TIP3    H235239   6.741   1.527   0.482
11766TIP3   OH235240   1.761   6.648   5.264
11766TIP3    H135241   1.728   6.688   5.344
11766TIP3    H235242   1.682   6.635   5.210
11767TIP3   OH235243   6.717   6.341   4.207
11767TIP3    H135244   6.657   6.371   4.138
11767TIP3    H235245   6.660   6.302   4.273
11768TIP3   OH235246   3.610   6.340   4.361
11768TIP3    H135247   3.698   6.322   4.327
11768TIP3    H235248   3.573   6.253   4.379
11769TIP3   OH235249   2.782   6.788   1.596
11769TIP3    H135250   2.702   6.796   1.544
11769TIP3    H235251   2.853   6.806   1.535
11770TIP3   OH235252   3.407   7.176   0.995
11770TIP3    H135253   3.440   7.091   0.966
11770TIP3    H235254   3.479   7.237   0.980
11771TIP3   OH235255   0.539   7.107   5.526
11771TIP3    H135256   0.629   7.073   5.534
11771TIP3    H235257   0.484   7.037   5.563
11772TIP3   OH235258   2.697   7.362   6.018
11772TIP3    H135259   2.690   7.423   5.944
11772TIP3    H235260   2.748   7.289   5.983
11773TIP3   OH235261   4.815   4.497   5.156
11773TIP3    H135262   4.773   4.427   5.106
11773TIP3    H235263   4.891   4.522   5.104
11774TIP3   OH235264   4.203   7.205   3.494
11774TIP3    H135265   4.126   7.236   3.540
11774TIP3    H235266   4.169   7.145   3.427
11775TIP3   OH235267   1.744   2.303   6.089
11775TIP3    H135268   1.819   2.245   6.079
11775TIP3    H235269   1.779   2.382   6.128
11776TIP3   OH235270   2.856   5.176   0.613
11776TIP3    H135271   2.817   5.121   0.545
11776TIP3    H235272   2.792   5.177   0.684
11777TIP3   OH235273   8.219   1.192   0.765
11777TIP3    H135274   8.186   1.123   0.709
11777TIP3    H235275   8.172   1.181   0.848
11778TIP3   OH235276   7.055   4.659   6.470
11778TIP3    H135277   7.007   4.620   6.544
11778TIP3    H235278   7.060   4.752   6.491
11779TIP3   OH235279   2.491   3.494   5.765
11779TIP3    H135280   2.434   3.553   5.716
11779TIP3    H235281   2.561   3.550   5.797
11780TIP3   OH235282   3.083   2.397   2.135
11780TIP3    H135283   3.078   2.487   2.102
11780TIP3    H235284   3.082   2.407   2.230
11781TIP3   OH235285   7.109   7.193   5.729
11781TIP3    H135286   7.152   7.218   5.647
11781TIP3    H235287   7.182   7.171   5.788
11782TIP3   OH235288   3.194   3.686   2.315
11782TIP3    H135289   3.200   3.598   2.277
11782TIP3    H235290   3.215   3.673   2.408
11783TIP3   OH235291   4.887   6.354   1.747
11783TIP3    H135292   4.917   6.359   1.656
11783TIP3    H235293   4.965   6.327   1.796
11784TIP3   OH235294   4.208   0.461   1.732
11784TIP3    H135295   4.205   0.373   1.770
11784TIP3    H235296   4.177   0.449   1.642
11785TIP3   OH235297   3.663   1.714   6.075
11785TIP3    H135298   3.712   1.767   6.012
11785TIP3    H235299   3.598   1.667   6.022
11786TIP3   OH235300   1.410   5.620   6.497
11786TIP3    H135301   1.342   5.648   6.437
11786TIP3    H235302   1.363   5.588   6.575
11787TIP3   OH235303   5.191   5.230   1.307
11787TIP3    H135304   5.101   5.217   1.336
11787TIP3    H235305   5.215   5.317   1.338
11788TIP3   OH235306   5.905   0.516   1.656
11788TIP3    H135307   5.939   0.487   1.571
11788TIP3    H235308   5.956   0.467   1.721
11789TIP3   OH235309   8.248   3.939   4.939
11789TIP3    H135310   8.334   3.970   4.970
11789TIP3    H235311   8.185   3.982   4.997
11790TIP3   OH235312   6.795   1.877   5.930
11790TIP3    H135313   6.878   1.856   5.972
11790TIP3    H235314   6.815   1.874   5.836
11791TIP3   OH235315   1.821   4.786   0.375
11791TIP3    H135316   1.859   4.853   0.431
11791TIP3    H235317   1.761   4.834   0.318
11792TIP3   OH235318   8.245   0.246   0.104
11792TIP3    H135319   8.193   0.188   0.049
11792TIP3    H235320   8.283   0.309   0.042
11793TIP3   OH235321   2.558   6.369   6.242
11793TIP3    H135322   2.531   6.445   6.293
11793TIP3    H235323   2.546   6.396   6.151
11794TIP3   OH235324  -0.022   7.092   6.607
11794TIP3    H135325   0.052   7.134   6.650
11794TIP3    H235326   0.014   7.013   6.567
11795TIP3   OH235327   7.044   5.582   0.526
11795TIP3    H135328   6.982   5.632   0.580
11795TIP3    H235329   7.060   5.501   0.576
11796TIP3   OH235330   2.774   4.994   3.907
11796TIP3    H135331   2.802   4.910   3.943
11796TIP3    H235332   2.805   5.059   3.970
11797TIP3   OH235333   6.179   5.231   3.886
11797TIP3    H135334   6.263   5.269   3.914
11797TIP3    H235335   6.159   5.166   3.953
11798TIP3   OH235336   2.619   4.534   6.741
11798TIP3    H135337   2.671   4.555   6.664
11798TIP3    H235338   2.550   4.477   6.708
11799TIP3   OH235339   5.800   3.047   4.616
11799TIP3    H135340   5.854   3.057   4.695
11799TIP3    H235341   5.858   3.070   4.544
11800TIP3   OH235342   7.342   3.087   5.149
11800TIP3    H135343   7.368   3.044   5.230
11800TIP3    H235344   7.324   3.016   5.088
11801TIP3   OH235345   2.549   3.232   5.184
11801TIP3    H135346   2.535   3.247   5.091
11801TIP3    H235347   2.630   3.278   5.204
11802TIP3   OH235348   7.882   1.162   2.741
11802TIP3    H135349   7.905   1.250   2.770
11802TIP3    H235350   7.845   1.120   2.818
11803TIP3   OH235351   7.315   1.216   5.714
11803TIP3    H135352   7.274   1.141   5.759
11803TIP3    H235353   7.292   1.291   5.769
11804TIP3   OH235354   6.680   7.076   6.280
11804TIP3    H135355   6.744   7.057   6.349
11804TIP3    H235356   6.709   7.025   6.205
11805TIP3   OH235357   0.830   3.327   2.333
11805TIP3    H135358   0.753   3.276   2.360
11805TIP3    H235359   0.819   3.411   2.377
11806TIP3   OH235360   5.378   3.568   2.228
11806TIP3    H135361   5.306   3.630   2.223
11806TIP3    H235362   5.388   3.536   2.138
11807TIP3   OH235363   6.526   2.382   3.538
11807TIP3    H135364   6.466   2.456   3.528
11807TIP3    H235365   6.612   2.418   3.519
11808TIP3   OH235366   1.306   7.620   4.995
11808TIP3    H135367   1.216   7.619   5.030
11808TIP3    H235368   1.360   7.594   5.070
11809TIP3   OH235369   1.789   2.262   1.825
11809TIP3    H135370   1.713   2.204   1.812
11809TIP3    H235371   1.771   2.306   1.908
11810TIP3   OH235372   3.690   6.376   4.639
11810TIP3    H135373   3.679   6.321   4.561
11810TIP3    H235374   3.698   6.314   4.711
11811TIP3   OH235375   5.621   2.839   5.724
11811TIP3    H135376   5.707   2.853   5.764
11811TIP3    H235377   5.566   2.907   5.761
11812TIP3   OH235378   6.437   2.715   0.318
11812TIP3    H135379   6.423   2.636   0.266
11812TIP3    H235380   6.353   2.762   0.314
11813TIP3   OH235381   4.048   4.644   2.969
11813TIP3    H135382   4.048   4.723   2.915
11813TIP3    H235383   4.057   4.572   2.907
11814TIP3   OH235384   2.231   4.624   0.606
11814TIP3    H135385   2.314   4.594   0.643
11814TIP3    H235386   2.218   4.570   0.528
11815TIP3   OH235387   1.105   5.447   3.853
11815TIP3    H135388   1.027   5.456   3.908
11815TIP3    H235389   1.175   5.486   3.906
11816TIP3   OH235390   5.662   3.654   6.324
11816TIP3    H135391   5.666   3.587   6.256
11816TIP3    H235392   5.662   3.737   6.277
11817TIP3   OH235393   6.636   0.681   2.648
11817TIP3    H135394   6.558   0.635   2.679
11817TIP3    H235395   6.690   0.613   2.608
11818TIP3   OH235396   2.109   0.731   4.862
11818TIP3    H135397   2.133   0.819   4.833
11818TIP3    H235398   2.083   0.742   4.954
11819TIP3   OH235399   8.249   0.902   2.523
11819TIP3    H135400   8.199   0.827   2.491
11819TIP3    H235401   8.268   0.954   2.445
11820TIP3   OH235402   6.943   4.708   4.055
11820TIP3    H135403   6.949   4.614   4.071
11820TIP3    H235404   7.033   4.739   4.056
11821TIP3   OH235405   6.017   4.415   5.259
11821TIP3    H135406   6.083   4.483   5.269
11821TIP3    H235407   5.937   4.463   5.238
11822TIP3   OH235408   6.665   0.937   5.140
11822TIP3    H135409   6.756   0.969   5.132
11822TIP3    H235410   6.624   0.996   5.203
11823TIP3   OH235411   4.288   2.253   0.849
11823TIP3    H135412   4.203   2.215   0.826
11823TIP3    H235413   4.274   2.347   0.849
11824TIP3   OH235414   1.548   4.110   2.511
11824TIP3    H135415   1.460   4.117   2.548
11824TIP3    H235416   1.595   4.184   2.548
11825TIP3   OH235417   7.527   3.497   2.788
11825TIP3    H135418   7.539   3.518   2.880
11825TIP3    H235419   7.614   3.507   2.749
11826TIP3   OH235420   2.382   4.107   6.662
11826TIP3    H135421   2.301   4.157   6.654
11826TIP3    H235422   2.367   4.029   6.608
11827TIP3   OH235423   8.061   0.688   4.424
11827TIP3    H135424   8.013   0.613   4.458
11827TIP3    H235425   7.994   0.754   4.407
11828TIP3   OH235426   1.721   6.716   4.460
11828TIP3    H135427   1.632   6.720   4.423
11828TIP3    H235428   1.765   6.650   4.406
11829TIP3   OH235429   7.522   3.636   1.573
11829TIP3    H135430   7.583   3.660   1.644
11829TIP3    H235431   7.576   3.588   1.510
11830TIP3   OH235432   2.549   6.833   2.276
11830TIP3    H135433   2.632   6.806   2.317
11830TIP3    H235434   2.547   6.928   2.287
11831TIP3   OH235435   6.840   1.839   5.333
11831TIP3    H135436   6.748   1.861   5.321
11831TIP3    H235437   6.848   1.751   5.295
11832TIP3   OH235438   0.777   4.624   1.224
11832TIP3    H135439   0.779   4.546   1.168
11832TIP3    H235440   0.704   4.676   1.190
11833TIP3   OH235441   1.973   2.264   0.412
11833TIP3    H135442   1.929   2.240   0.493
11833TIP3    H235443   1.946   2.354   0.395
11834TIP3   OH235444   7.035   4.227   6.719
11834TIP3    H135445   7.080   4.221   6.635
11834TIP3    H235446   7.099   4.267   6.778
11835TIP3   OH235447   2.607   2.198   3.440
11835TIP3    H135448   2.604   2.247   3.522
11835TIP3    H235449   2.537   2.133   3.448
11836TIP3   OH235450   7.768   7.720   1.855
11836TIP3    H135451   7.780   7.732   1.949
11836TIP3    H235452   7.673   7.722   1.842
11837TIP3   OH235453   0.611   0.660   0.031
11837TIP3    H135454   0.702   0.667   0.057
11837TIP3    H235455   0.588   0.569   0.047
11838TIP3   OH235456   6.562   6.825   1.396
11838TIP3    H135457   6.642   6.851   1.350
11838TIP3    H235458   6.577   6.853   1.487
11839TIP3   OH235459   3.269   5.094   3.667
11839TIP3    H135460   3.202   5.056   3.725
11839TIP3    H235461   3.278   5.184   3.696
11840TIP3   OH235462   8.066   6.926   4.103
11840TIP3    H135463   8.031   6.991   4.042
11840TIP3    H235464   8.140   6.887   4.057
11841TIP3   OH235465   4.127   3.521   5.852
11841TIP3    H135466   4.136   3.539   5.758
11841TIP3    H235467   4.033   3.531   5.869
11842TIP3   OH235468   6.380   4.024   2.671
11842TIP3    H135469   6.370   3.929   2.661
11842TIP3    H235470   6.290   4.057   2.676
11843TIP3   OH235471   2.702   0.901   1.498
11843TIP3    H135472   2.758   0.862   1.431
11843TIP3    H235473   2.702   0.995   1.478
11844TIP3   OH235474   1.781   4.352   5.395
11844TIP3    H135475   1.838   4.286   5.355
11844TIP3    H235476   1.817   4.365   5.483
11845TIP3   OH235477   3.315   1.783   1.894
11845TIP3    H135478   3.277   1.856   1.846
11845TIP3    H235479   3.330   1.817   1.982
11846TIP3   OH235480   2.987   3.148   4.743
11846TIP3    H135481   2.925   3.083   4.710
11846TIP3    H235482   2.943   3.187   4.818
11847TIP3   OH235483   4.374   4.208   6.083
11847TIP3    H135484   4.355   4.230   5.992
11847TIP3    H235485   4.288   4.192   6.123
11848TIP3   OH235486   6.010   2.855   2.196
11848TIP3    H135487   6.024   2.938   2.242
11848TIP3    H235488   6.089   2.804   2.214
11849TIP3   OH235489   6.494   5.600   1.258
11849TIP3    H135490   6.423   5.538   1.242
11849TIP3    H235491   6.492   5.616   1.352
11850TIP3   OH235492   0.768   0.211   5.320
11850TIP3    H135493   0.744   0.277   5.255
11850TIP3    H235494   0.814   0.260   5.388
11851TIP3   OH235495   1.134   1.663   6.547
11851TIP3    H135496   1.094   1.624   6.469
11851TIP3    H235497   1.214   1.613   6.560
11852TIP3   OH235498   3.292   1.719   4.365
11852TIP3    H135499   3.277   1.658   4.438
11852TIP3    H235500   3.382   1.750   4.379
11853TIP3   OH235501   0.063   7.680   2.271
11853TIP3    H135502   0.118   7.736   2.217
11853TIP3    H235503   0.048   7.602   2.219
11854TIP3   OH235504   2.120   4.264   3.680
11854TIP3    H135505   2.206   4.224   3.668
11854TIP3    H235506   2.058   4.200   3.644
11855TIP3   OH235507   0.415   4.189   2.035
11855TIP3    H135508   0.440   4.098   2.046
11855TIP3    H235509   0.383   4.195   1.945
11856TIP3   OH235510   0.464   5.607   1.257
11856TIP3    H135511   0.508   5.538   1.306
11856TIP3    H235512   0.503   5.688   1.290
11857TIP3   OH235513   2.360   1.000   6.206
11857TIP3    H135514   2.304   1.068   6.167
11857TIP3    H235515   2.324   0.918   6.174
11858TIP3   OH235516   1.170   6.529   2.220
11858TIP3    H135517   1.149   6.529   2.127
11858TIP3    H235518   1.167   6.436   2.245
11859TIP3   OH235519   6.867   0.121   5.435
11859TIP3    H135520   6.862   0.213   5.461
11859TIP3    H235521   6.946   0.116   5.382
11860TIP3   OH235522   4.515   1.262   0.991
11860TIP3    H135523   4.436   1.219   0.958
11860TIP3    H235524   4.542   1.321   0.920
11861TIP3   OH235525   3.032   2.981   5.388
11861TIP3    H135526   3.088   2.940   5.454
11861TIP3    H235527   2.998   3.059   5.431
11862TIP3   OH235528   3.968   3.621   4.732
11862TIP3    H135529   3.953   3.530   4.755
11862TIP3    H235530   3.882   3.655   4.711
11863TIP3   OH235531   3.018   3.571   0.293
11863TIP3    H135532   3.008   3.478   0.274
11863TIP3    H235533   3.018   3.614   0.207
11864TIP3   OH235534   5.860   7.155   0.114
11864TIP3    H135535   5.839   7.192   0.200
11864TIP3    H235536   5.955   7.162   0.107
11865TIP3   OH235537   0.676   7.493   3.109
11865TIP3    H135538   0.661   7.563   3.172
11865TIP3    H235539   0.596   7.441   3.110
11866TIP3   OH235540   0.265   2.625   1.948
11866TIP3    H135541   0.236   2.638   2.038
11866TIP3    H235542   0.184   2.625   1.897
11867TIP3   OH235543   5.055   4.262   2.438
11867TIP3    H135544   5.043   4.222   2.352
11867TIP3    H235545   5.147   4.287   2.441
11868TIP3   OH235546   7.899   7.720   5.754
11868TIP3    H135547   7.807   7.721   5.780
11868TIP3    H235548   7.909   7.639   5.705
11869TIP3   OH235549   7.208   6.120   0.676
11869TIP3    H135550   7.278   6.142   0.615
11869TIP3    H235551   7.238   6.041   0.721
11870TIP3   OH235552   4.229   5.389   2.773
11870TIP3    H135553   4.276   5.333   2.712
11870TIP3    H235554   4.297   5.439   2.818
11871TIP3   OH235555   6.307   0.756   6.279
11871TIP3    H135556   6.273   0.818   6.344
11871TIP3    H235557   6.394   0.790   6.256
11872TIP3   OH235558   1.539   4.489   4.473
11872TIP3    H135559   1.522   4.398   4.497
11872TIP3    H235560   1.453   4.524   4.448
11873TIP3   OH235561   5.092   1.809   4.271
11873TIP3    H135562   5.068   1.729   4.224
11873TIP3    H235563   5.031   1.811   4.345
11874TIP3   OH235564   3.582   4.199   3.358
11874TIP3    H135565   3.508   4.215   3.416
11874TIP3    H235566   3.605   4.286   3.323
11875TIP3   OH235567   1.791   7.488   0.829
11875TIP3    H135568   1.781   7.577   0.863
11875TIP3    H235569   1.885   7.469   0.838
11876TIP3   OH235570   6.203   2.806   4.724
11876TIP3    H135571   6.272   2.865   4.753
11876TIP3    H235572   6.146   2.860   4.669
11877TIP3   OH235573   1.344   2.225   6.585
11877TIP3    H135574   1.393   2.173   6.521
11877TIP3    H235575   1.252   2.203   6.570
11878TIP3   OH235576   6.966   5.930   4.895
11878TIP3    H135577   6.896   5.879   4.937
11878TIP3    H235578   6.985   6.000   4.957
11879TIP3   OH235579   5.542   5.935   0.764
11879TIP3    H135580   5.608   5.990   0.722
11879TIP3    H235581   5.461   5.952   0.716
11880TIP3   OH235582   2.354   2.128   0.142
11880TIP3    H135583   2.392   2.073   0.211
11880TIP3    H235584   2.383   2.088   0.060
11881TIP3   OH235585   0.604   5.136   0.997
11881TIP3    H135586   0.690   5.093   0.995
11881TIP3    H235587   0.565   5.116   0.912
11882TIP3   OH235588   3.478   1.453   6.219
11882TIP3    H135589   3.502   1.476   6.309
11882TIP3    H235590   3.454   1.360   6.223
11883TIP3   OH235591   1.884   7.212   2.776
11883TIP3    H135592   1.854   7.133   2.730
11883TIP3    H235593   1.898   7.276   2.707
11884TIP3   OH235594   2.061   2.978   2.733
11884TIP3    H135595   2.040   2.997   2.642
11884TIP3    H235596   2.043   3.061   2.779
11885TIP3   OH235597   1.088   0.435   4.527
11885TIP3    H135598   1.013   0.488   4.499
11885TIP3    H235599   1.090   0.444   4.623
11886TIP3   OH235600   7.912   2.729   1.492
11886TIP3    H135601   7.973   2.678   1.545
11886TIP3    H235602   7.961   2.753   1.413
11887TIP3   OH235603   3.444   2.193   4.302
11887TIP3    H135604   3.427   2.147   4.220
11887TIP3    H235605   3.458   2.123   4.366
11888TIP3   OH235606   2.077   2.211   2.455
11888TIP3    H135607   2.037   2.297   2.470
11888TIP3    H235608   2.019   2.169   2.392
11889TIP3   OH235609   6.063   5.325   3.421
11889TIP3    H135610   6.033   5.279   3.499
11889TIP3    H235611   6.000   5.396   3.410
11890TIP3   OH235612   8.081   0.389   5.068
11890TIP3    H135613   8.104   0.480   5.052
11890TIP3    H235614   7.987   0.384   5.046
11891TIP3   OH235615   0.022   3.264   3.175
11891TIP3    H135616  -0.070   3.248   3.196
11891TIP3    H235617   0.041   3.350   3.212
11892TIP3   OH235618   2.579   6.151   4.862
11892TIP3    H135619   2.653   6.137   4.803
11892TIP3    H235620   2.593   6.239   4.898
11893TIP3   OH235621   2.814   3.938   4.815
11893TIP3    H135622   2.895   3.967   4.856
11893TIP3    H235623   2.789   3.860   4.865
11894TIP3   OH235624   6.524   0.034   3.361
11894TIP3    H135625   6.499   0.124   3.382
11894TIP3    H235626   6.446  -0.002   3.319
11895TIP3   OH235627   7.967   7.775   5.327
11895TIP3    H135628   7.971   7.818   5.412
11895TIP3    H235629   7.907   7.829   5.275
11896TIP3   OH235630   1.813   0.309   5.132
11896TIP3    H135631   1.839   0.400   5.148
11896TIP3    H235632   1.751   0.289   5.201
11897TIP3   OH235633   4.440   5.417   4.211
11897TIP3    H135634   4.450   5.465   4.292
11897TIP3    H235635   4.506   5.455   4.152
11898TIP3   OH235636   1.312   6.792   2.950
11898TIP3    H135637   1.346   6.879   2.975
11898TIP3    H235638   1.229   6.784   2.998
11899TIP3   OH235639   5.133   3.667   2.150
11899TIP3    H135640   5.091   3.644   2.067
11899TIP3    H235641   5.194   3.737   2.127
11900TIP3   OH235642   3.623   2.926   4.085
11900TIP3    H135643   3.596   2.975   4.006
11900TIP3    H235644   3.543   2.917   4.136
11901TIP3   OH235645   6.914   0.997   3.641
11901TIP3    H135646   6.849   0.927   3.651
11901TIP3    H235647   6.979   0.979   3.709
11902TIP3   OH235648   6.729   3.965   4.441
11902TIP3    H135649   6.769   4.004   4.362
11902TIP3    H235650   6.751   3.872   4.435
11903TIP3   OH235651   8.093   2.581   5.403
11903TIP3    H135652   8.129   2.649   5.347
11903TIP3    H235653   8.021   2.543   5.352
11904TIP3   OH235654   3.184   6.739   6.184
11904TIP3    H135655   3.089   6.733   6.183
11904TIP3    H235656   3.207   6.752   6.276
11905TIP3   OH235657   0.833   7.815   5.953
11905TIP3    H135658   0.850   7.898   5.999
11905TIP3    H235659   0.917   7.769   5.956
11906TIP3   OH235660   3.255   2.017   0.724
11906TIP3    H135661   3.274   1.983   0.811
11906TIP3    H235662   3.319   1.973   0.667
11907TIP3   OH235663   1.489   1.062   3.846
11907TIP3    H135664   1.443   1.106   3.774
11907TIP3    H235665   1.421   1.011   3.890
11908TIP3   OH235666   6.896   2.922   1.285
11908TIP3    H135667   6.981   2.949   1.252
11908TIP3    H235668   6.866   2.995   1.339
11909TIP3   OH235669   0.983   1.347   6.300
11909TIP3    H135670   1.007   1.440   6.295
11909TIP3    H235671   1.067   1.301   6.301
11910TIP3   OH235672   7.892   2.931   4.731
11910TIP3    H135673   7.921   2.975   4.651
11910TIP3    H235674   7.882   3.002   4.795
11911TIP3   OH235675   5.503   6.718   5.560
11911TIP3    H135676   5.596   6.739   5.568
11911TIP3    H235677   5.501   6.624   5.539
11912TIP3   OH235678   1.663   6.294   4.346
11912TIP3    H135679   1.643   6.370   4.293
11912TIP3    H235680   1.666   6.327   4.436
11913TIP3   OH235681   6.912   2.829   2.802
11913TIP3    H135682   6.868   2.801   2.722
11913TIP3    H235683   6.925   2.923   2.790
11914TIP3   OH235684   7.726   0.074   0.158
11914TIP3    H135685   7.671   0.002   0.188
11914TIP3    H235686   7.692   0.096   0.072
11915TIP3   OH235687   1.880   2.073   3.893
11915TIP3    H135688   1.906   1.982   3.876
11915TIP3    H235689   1.960   2.116   3.923
11916TIP3   OH235690   5.348   6.069   3.495
11916TIP3    H135691   5.359   6.149   3.444
11916TIP3    H235692   5.437   6.032   3.500
11917TIP3   OH235693   7.958   2.445   5.180
11917TIP3    H135694   8.020   2.372   5.173
11917TIP3    H235695   7.975   2.497   5.101
11918TIP3   OH235696   4.353   1.192   2.889
11918TIP3    H135697   4.391   1.157   2.808
11918TIP3    H235698   4.396   1.143   2.959
11919TIP3   OH235699   3.226   4.412   5.109
11919TIP3    H135700   3.282   4.341   5.076
11919TIP3    H235701   3.285   4.486   5.120
11920TIP3   OH235702   7.526   2.705   3.256
11920TIP3    H135703   7.542   2.708   3.162
11920TIP3    H235704   7.437   2.738   3.267
11921TIP3   OH235705   2.362   3.398   4.240
11921TIP3    H135706   2.434   3.351   4.282
11921TIP3    H235707   2.285   3.377   4.293
11922TIP3   OH235708   1.540   6.101   6.104
11922TIP3    H135709   1.601   6.163   6.142
11922TIP3    H235710   1.513   6.045   6.176
11923TIP3   OH235711   8.201   4.465   3.168
11923TIP3    H135712   8.270   4.407   3.136
11923TIP3    H235713   8.120   4.418   3.151
11924TIP3   OH235714   6.099   4.353   3.276
11924TIP3    H135715   6.151   4.395   3.344
11924TIP3    H235716   6.128   4.261   3.277
11925TIP3   OH235717   8.019   1.122   2.081
11925TIP3    H135718   8.021   1.152   1.990
11925TIP3    H235719   7.953   1.053   2.082
11926TIP3   OH235720   0.834   2.094   6.088
11926TIP3    H135721   0.752   2.072   6.044
11926TIP3    H235722   0.896   2.109   6.017
11927TIP3   OH235723   7.535   6.036   0.619
11927TIP3    H135724   7.561   6.115   0.666
11927TIP3    H235725   7.551   5.965   0.682
11928TIP3   OH235726   4.096   5.670   2.906
11928TIP3    H135727   4.172   5.667   2.849
11928TIP3    H235728   4.117   5.611   2.978
11929TIP3   OH235729   7.244   7.318   3.597
11929TIP3    H135730   7.194   7.384   3.549
11929TIP3    H235731   7.197   7.236   3.581
11930TIP3   OH235732   6.143   1.079   1.148
11930TIP3    H135733   6.167   1.153   1.092
11930TIP3    H235734   6.053   1.097   1.174
11931TIP3   OH235735   2.035   5.876   2.397
11931TIP3    H135736   2.084   5.903   2.475
11931TIP3    H235737   2.102   5.873   2.328
11932TIP3   OH235738   6.822   5.211   5.706
11932TIP3    H135739   6.794   5.281   5.647
11932TIP3    H235740   6.741   5.166   5.728
11933TIP3   OH235741   0.894   5.104   4.442
11933TIP3    H135742   0.802   5.122   4.457
11933TIP3    H235743   0.940   5.180   4.478
11934TIP3   OH235744   2.856   1.658   3.423
11934TIP3    H135745   2.838   1.572   3.384
11934TIP3    H235746   2.929   1.643   3.482
11935TIP3   OH235747   3.654   1.691   1.882
11935TIP3    H135748   3.683   1.693   1.791
11935TIP3    H235749   3.681   1.776   1.918
11936TIP3   OH235750   1.145   5.370   3.085
11936TIP3    H135751   1.142   5.359   2.990
11936TIP3    H235752   1.232   5.338   3.110
11937TIP3   OH235753   1.169   0.933   3.006
11937TIP3    H135754   1.217   0.975   2.935
11937TIP3    H235755   1.181   0.839   2.991
11938TIP3   OH235756   6.637   0.232   6.126
11938TIP3    H135757   6.646   0.271   6.039
11938TIP3    H235758   6.564   0.170   6.117
11939TIP3   OH235759   4.206   0.627   0.209
11939TIP3    H135760   4.238   0.610   0.298
11939TIP3    H235761   4.115   0.654   0.221
11940TIP3   OH235762   5.545   4.877   4.919
11940TIP3    H135763   5.467   4.821   4.923
11940TIP3    H235764   5.518   4.951   4.865
11941TIP3   OH235765   2.727   6.934   3.116
11941TIP3    H135766   2.644   6.897   3.148
11941TIP3    H235767   2.762   6.982   3.191
11942TIP3   OH235768   4.616   7.241   0.431
11942TIP3    H135769   4.702   7.281   0.421
11942TIP3    H235770   4.630   7.148   0.411
11943TIP3   OH235771   7.235   2.289   4.676
11943TIP3    H135772   7.261   2.379   4.698
11943TIP3    H235773   7.231   2.244   4.760
11944TIP3   OH235774   7.663   3.425   0.579
11944TIP3    H135775   7.726   3.387   0.640
11944TIP3    H235776   7.717   3.467   0.512
11945TIP3   OH235777   1.208   2.508   1.077
11945TIP3    H135778   1.185   2.601   1.084
11945TIP3    H235779   1.299   2.507   1.047
11946TIP3   OH235780   3.248   4.013   2.849
11946TIP3    H135781   3.258   3.946   2.917
11946TIP3    H235782   3.325   4.068   2.859
11947TIP3   OH235783   1.156   3.327   5.003
11947TIP3    H135784   1.167   3.320   5.098
11947TIP3    H235785   1.246   3.329   4.969
11948TIP3   OH235786   1.530   6.185   3.409
11948TIP3    H135787   1.435   6.194   3.404
11948TIP3    H235788   1.557   6.259   3.464
11949TIP3   OH235789   5.024   1.549   1.424
11949TIP3    H135790   4.971   1.626   1.446
11949TIP3    H235791   4.977   1.475   1.462
11950TIP3   OH235792   6.723   4.273   3.223
11950TIP3    H135793   6.818   4.282   3.216
11950TIP3    H235794   6.708   4.180   3.205
11951TIP3   OH235795   5.545   0.805   4.814
11951TIP3    H135796   5.580   0.720   4.788
11951TIP3    H235797   5.462   0.812   4.767
11952TIP3   OH235798   2.324   7.024   2.162
11952TIP3    H135799   2.291   7.102   2.205
11952TIP3    H235800   2.287   6.951   2.211
11953TIP3   OH235801   1.736   2.008   1.568
11953TIP3    H135802   1.829   2.014   1.546
11953TIP3    H235803   1.734   1.959   1.650
11954TIP3   OH235804   0.883   2.897   4.567
11954TIP3    H135805   0.962   2.911   4.515
11954TIP3    H235806   0.868   2.803   4.564
11955TIP3   OH235807   6.195   1.103   5.846
11955TIP3    H135808   6.136   1.117   5.920
11955TIP3    H235809   6.168   1.020   5.808
11956TIP3   OH235810   4.110   7.508   0.467
11956TIP3    H135811   4.194   7.470   0.444
11956TIP3    H235812   4.053   7.433   0.481
11957TIP3   OH235813   2.607   7.081   1.784
11957TIP3    H135814   2.575   7.005   1.832
11957TIP3    H235815   2.535   7.144   1.788
11958TIP3   OH235816   2.582   1.209   4.335
11958TIP3    H135817   2.543   1.147   4.397
11958TIP3    H235818   2.519   1.214   4.263
11959TIP3   OH235819   4.300   3.721   5.961
11959TIP3    H135820   4.242   3.646   5.946
11959TIP3    H235821   4.241   3.795   5.973
11960TIP3   OH235822   5.384   0.735   5.605
11960TIP3    H135823   5.433   0.693   5.535
11960TIP3    H235824   5.298   0.693   5.603
11961TIP3   OH235825   0.189   1.199   0.605
11961TIP3    H135826   0.148   1.285   0.597
11961TIP3    H235827   0.126   1.146   0.654
11962TIP3   OH235828   6.693   1.700   3.825
11962TIP3    H135829   6.622   1.752   3.862
11962TIP3    H235830   6.770   1.726   3.875
11963TIP3   OH235831   2.924   5.303   6.045
11963TIP3    H135832   2.951   5.306   6.137
11963TIP3    H235833   2.975   5.372   6.003
11964TIP3   OH235834   4.359   1.134   5.573
11964TIP3    H135835   4.355   1.117   5.479
11964TIP3    H235836   4.303   1.211   5.585
11965TIP3   OH235837   7.580   5.630   4.276
11965TIP3    H135838   7.645   5.667   4.336
11965TIP3    H235839   7.620   5.639   4.190
11966TIP3   OH235840   1.205   1.080   2.368
11966TIP3    H135841   1.185   0.997   2.412
11966TIP3    H235842   1.295   1.100   2.395
11967TIP3   OH235843   2.291   6.790   5.589
11967TIP3    H135844   2.307   6.884   5.581
11967TIP3    H235845   2.335   6.751   5.513
11968TIP3   OH235846   3.568   3.195   4.386
11968TIP3    H135847   3.570   3.291   4.392
11968TIP3    H235848   3.660   3.169   4.384
11969TIP3   OH235849   2.564   4.764   4.550
11969TIP3    H135850   2.531   4.788   4.637
11969TIP3    H235851   2.540   4.838   4.494
11970TIP3   OH235852   1.879   6.613   2.861
11970TIP3    H135853   1.809   6.675   2.843
11970TIP3    H235854   1.959   6.666   2.861
11971TIP3   OH235855   6.383   3.622   6.607
11971TIP3    H135856   6.334   3.683   6.662
11971TIP3    H235857   6.473   3.653   6.612
11972TIP3   OH235858   4.896   0.850   5.090
11972TIP3    H135859   4.832   0.794   5.134
11972TIP3    H235860   4.953   0.881   5.161
11973TIP3   OH235861   1.378   4.642   4.127
11973TIP3    H135862   1.413   4.564   4.169
11973TIP3    H235863   1.384   4.710   4.194
11974TIP3   OH235864   4.618   5.497   5.812
11974TIP3    H135865   4.614   5.405   5.837
11974TIP3    H235866   4.635   5.495   5.718
11975TIP3   OH235867   4.245   5.770   4.678
11975TIP3    H135868   4.320   5.784   4.736
11975TIP3    H235869   4.201   5.693   4.715
11976TIP3   OH235870   0.795   4.963   3.046
11976TIP3    H135871   0.876   4.978   2.996
11976TIP3    H235872   0.739   5.037   3.024
11977TIP3   OH235873   3.474   3.826   3.020
11977TIP3    H135874   3.502   3.747   3.066
11977TIP3    H235875   3.527   3.896   3.058
11978TIP3   OH235876   0.656   2.829   1.545
11978TIP3    H135877   0.717   2.892   1.583
11978TIP3    H235878   0.664   2.841   1.451
11979TIP3   OH235879   1.095   1.778   2.949
11979TIP3    H135880   1.064   1.688   2.953
11979TIP3    H235881   1.082   1.804   2.858
11980TIP3   OH235882   1.008   3.817   4.698
11980TIP3    H135883   1.097   3.822   4.665
11980TIP3    H235884   1.017   3.781   4.786
11981TIP3   OH235885   1.955   3.215   2.838
11981TIP3    H135886   1.896   3.256   2.775
11981TIP3    H235887   1.920   3.238   2.923
11982TIP3   OH235888   7.323   0.606   1.420
11982TIP3    H135889   7.377   0.663   1.365
11982TIP3    H235890   7.385   0.565   1.480
11983TIP3   OH235891   3.539   2.920   5.368
11983TIP3    H135892   3.522   2.829   5.394
11983TIP3    H235893   3.626   2.918   5.327
11984TIP3   OH235894   0.381   6.381   1.066
11984TIP3    H135895   0.310   6.389   1.131
11984TIP3    H235896   0.456   6.421   1.108
11985TIP3   OH235897   3.322   3.553   2.865
11985TIP3    H135898   3.355   3.466   2.885
11985TIP3    H235899   3.330   3.601   2.948
11986TIP3   OH235900   7.357   7.071   5.019
11986TIP3    H135901   7.393   7.112   4.941
11986TIP3    H235902   7.301   7.138   5.058
11987TIP3   OH235903   1.029   2.968   5.161
11987TIP3    H135904   1.036   2.879   5.125
11987TIP3    H235905   1.061   3.024   5.090
11988TIP3   OH235906   2.886   0.428   3.265
11988TIP3    H135907   2.975   0.431   3.229
11988TIP3    H235908   2.885   0.495   3.333
11989TIP3   OH235909   0.706   4.084   1.922
11989TIP3    H135910   0.622   4.069   1.965
11989TIP3    H235911   0.729   3.999   1.884
11990TIP3   OH235912   4.349   0.690   6.124
11990TIP3    H135913   4.294   0.725   6.054
11990TIP3    H235914   4.303   0.611   6.153
11991TIP3   OH235915   3.197   7.655   3.187
11991TIP3    H135916   3.143   7.575   3.186
11991TIP3    H235917   3.175   7.697   3.270
11992TIP3   OH235918   3.835   0.313   3.279
11992TIP3    H135919   3.766   0.247   3.279
11992TIP3    H235920   3.832   0.352   3.367
11993TIP3   OH235921   0.671   3.635   1.664
11993TIP3    H135922   0.662   3.573   1.736
11993TIP3    H235923   0.581   3.653   1.636
11994TIP3   OH235924   8.036   3.347   0.923
11994TIP3    H135925   8.045   3.331   1.017
11994TIP3    H235926   8.112   3.401   0.900
11995TIP3   OH235927   1.246   7.706   2.250
11995TIP3    H135928   1.154   7.703   2.279
11995TIP3    H235929   1.277   7.616   2.263
11996TIP3   OH235930   7.289   2.747   6.240
11996TIP3    H135931   7.234   2.815   6.279
11996TIP3    H235932   7.360   2.796   6.197
11997TIP3   OH235933   4.922   7.608   6.586
11997TIP3    H135934   4.962   7.529   6.622
11997TIP3    H235935   4.830   7.604   6.612
11998TIP3   OH235936   1.958   6.633   3.891
11998TIP3    H135937   1.966   6.556   3.835
11998TIP3    H235938   1.996   6.704   3.839
11999TIP3   OH235939   0.789   1.137   0.219
11999TIP3    H135940   0.711   1.189   0.199
11999TIP3    H235941   0.838   1.189   0.282
12000TIP3   OH235942   6.615   1.392   4.189
12000TIP3    H135943   6.588   1.334   4.117
12000TIP3    H235944   6.542   1.389   4.251
12001TIP3   OH235945   8.210   4.337   4.766
12001TIP3    H135946   8.221   4.432   4.779
12001TIP3    H235947   8.117   4.322   4.783
12002TIP3   OH235948   1.121   1.031   0.102
12002TIP3    H135949   1.136   1.117   0.141
12002TIP3    H235950   1.075   0.982   0.170
12003TIP3   OH235951   0.362   6.954   5.224
12003TIP3    H135952   0.346   6.962   5.130
12003TIP3    H235953   0.452   6.922   5.230
12004TIP3   OH235954   6.837  -0.002   4.534
12004TIP3    H135955   6.779   0.007   4.458
12004TIP3    H235956   6.778  -0.016   4.608
12005TIP3   OH235957   2.679   3.510   6.509
12005TIP3    H135958   2.774   3.506   6.508
12005TIP3    H235959   2.653   3.451   6.580
12006TIP3   OH235960   0.700   5.766   1.513
12006TIP3    H135961   0.741   5.682   1.493
12006TIP3    H235962   0.658   5.793   1.431
12007TIP3   OH235963   1.538   1.253   5.703
12007TIP3    H135964   1.603   1.184   5.692
12007TIP3    H235965   1.579   1.331   5.665
12008TIP3   OH235966   6.841   3.707   3.804
12008TIP3    H135967   6.891   3.710   3.722
12008TIP3    H235968   6.868   3.787   3.850
12009TIP3   OH235969   6.854   1.297   3.811
12009TIP3    H135970   6.836   1.342   3.893
12009TIP3    H235971   6.800   1.218   3.814
12010TIP3   OH235972   2.543   4.180   1.052
12010TIP3    H135973   2.530   4.238   0.977
12010TIP3    H235974   2.562   4.239   1.125
12011TIP3   OH235975   6.420   3.893   3.971
12011TIP3    H135976   6.428   3.989   3.969
12011TIP3    H235977   6.424   3.867   3.879
12012TIP3   OH235978   2.561   5.888   2.879
12012TIP3    H135979   2.560   5.978   2.846
12012TIP3    H235980   2.498   5.888   2.950
12013TIP3   OH235981   7.047   5.868   5.345
12013TIP3    H135982   7.111   5.851   5.414
12013TIP3    H235983   7.068   5.956   5.314
12014TIP3   OH235984   1.716   2.278   3.153
12014TIP3    H135985   1.734   2.247   3.064
12014TIP3    H235986   1.797   2.319   3.181
12015TIP3   OH235987   3.894   7.586   6.123
12015TIP3    H135988   3.914   7.679   6.133
12015TIP3    H235989   3.885   7.553   6.213
12016TIP3   OH235990   0.639   2.854   3.769
12016TIP3    H135991   0.669   2.881   3.682
12016TIP3    H235992   0.608   2.934   3.810
12017TIP3   OH235993   0.343   0.549   4.342
12017TIP3    H135994   0.399   0.561   4.265
12017TIP3    H235995   0.271   0.610   4.329
12018TIP3   OH235996   0.967   6.461   4.063
12018TIP3    H135997   0.955   6.488   4.154
12018TIP3    H235998   0.976   6.366   4.066
12019TIP3   OH235999   6.504   7.496   6.134
12019TIP3    H136000   6.441   7.487   6.205
12019TIP3    H236001   6.464   7.559   6.074
12020TIP3   OH236002   4.441   4.201   1.841
12020TIP3    H136003   4.452   4.265   1.770
12020TIP3    H236004   4.365   4.149   1.814
12021TIP3   OH236005   6.730   4.529   1.160
12021TIP3    H136006   6.763   4.610   1.199
12021TIP3    H236007   6.798   4.502   1.098
12022TIP3   OH236008   0.519   0.246   6.532
12022TIP3    H136009   0.464   0.198   6.593
12022TIP3    H236010   0.581   0.293   6.588
12023TIP3   OH236011   5.562   7.724   6.781
12023TIP3    H136012   5.538   7.633   6.798
12023TIP3    H236013   5.620   7.720   6.705
12024TIP3   OH236014   6.891   6.750   5.444
12024TIP3    H136015   6.841   6.772   5.365
12024TIP3    H236016   6.881   6.656   5.453
12025TIP3   OH236017   0.759   6.145   6.062
12025TIP3    H136018   0.682   6.097   6.091
12025TIP3    H236019   0.788   6.194   6.139
12026TIP3   OH236020   3.590   6.087   2.697
12026TIP3    H136021   3.594   6.054   2.787
12026TIP3    H236022   3.497   6.099   2.680
12027TIP3   OH236023   5.053   5.245   3.099
12027TIP3    H136024   4.999   5.168   3.084
12027TIP3    H236025   4.990   5.314   3.120
12028TIP3   OH236026   6.815   0.398   1.039
12028TIP3    H136027   6.820   0.488   1.006
12028TIP3    H236028   6.803   0.408   1.133
12029TIP3   OH236029   3.995   3.850   4.142
12029TIP3    H136030   3.993   3.851   4.046
12029TIP3    H236031   4.088   3.853   4.164
12030TIP3   OH236032   3.920   6.446   1.682
12030TIP3    H136033   3.862   6.483   1.615
12030TIP3    H236034   3.861   6.418   1.752
12031TIP3   OH236035   4.591   3.404   1.345
12031TIP3    H136036   4.505   3.446   1.352
12031TIP3    H236037   4.578   3.317   1.382
12032TIP3   OH236038   2.077   5.072   2.794
12032TIP3    H136039   2.129   5.152   2.801
12032TIP3    H236040   2.134   5.012   2.745
12033TIP3   OH236041   8.221   5.980   5.551
12033TIP3    H136042   8.177   5.927   5.484
12033TIP3    H236043   8.170   6.061   5.554
12034TIP3   OH236044   7.131   2.813   1.700
12034TIP3    H136045   7.052   2.760   1.709
12034TIP3    H236046   7.203   2.750   1.701
12035TIP3   OH236047   2.500   1.480   6.264
12035TIP3    H136048   2.464   1.514   6.346
12035TIP3    H236049   2.435   1.416   6.234
12036TIP3   OH236050   5.130   7.276   3.670
12036TIP3    H136051   5.204   7.217   3.685
12036TIP3    H236052   5.062   7.244   3.728
12037TIP3   OH236053   6.471   3.339   0.847
12037TIP3    H136054   6.534   3.316   0.914
12037TIP3    H236055   6.503   3.421   0.810
12038TIP3   OH236056   0.918   5.579   0.216
12038TIP3    H136057   0.986   5.539   0.162
12038TIP3    H236058   0.960   5.657   0.253
12039TIP3   OH236059   6.400   0.169   1.051
12039TIP3    H136060   6.494   0.157   1.038
12039TIP3    H236061   6.360   0.114   0.984
12040TIP3   OH236062   1.332   1.438   6.499
12040TIP3    H136063   1.395   1.367   6.490
12040TIP3    H236064   1.386   1.518   6.500
12041TIP3   OH236065   1.618   6.544   4.224
12041TIP3    H136066   1.625   6.570   4.133
12041TIP3    H236067   1.535   6.583   4.254
12042TIP3   OH236068   0.711   1.667   1.882
12042TIP3    H136069   0.661   1.700   1.808
12042TIP3    H236070   0.648   1.661   1.953
12043TIP3   OH236071   6.934   0.291   5.954
12043TIP3    H136072   6.844   0.308   5.926
12043TIP3    H236073   6.987   0.304   5.876
12044TIP3   OH236074   3.520   6.558   6.408
12044TIP3    H136075   3.439   6.602   6.434
12044TIP3    H236076   3.516   6.554   6.312
12045TIP3   OH236077   2.142   0.079   1.209
12045TIP3    H136078   2.061   0.059   1.255
12045TIP3    H236079   2.211   0.054   1.270
12046TIP3   OH236080   7.937   0.647   5.049
12046TIP3    H136081   8.009   0.710   5.044
12046TIP3    H236082   7.906   0.653   5.139
12047TIP3   OH236083   8.160   0.898   2.832
12047TIP3    H136084   8.210   0.978   2.850
12047TIP3    H236085   8.179   0.878   2.740
12048TIP3   OH236086   6.211   0.091   6.569
12048TIP3    H136087   6.207   0.135   6.654
12048TIP3    H236088   6.291   0.125   6.528
12049TIP3   OH236089   7.159   6.873   4.966
12049TIP3    H136090   7.167   6.844   4.875
12049TIP3    H236091   7.227   6.940   4.976
12050TIP3   OH236092   2.545   6.538   4.512
12050TIP3    H136093   2.607   6.608   4.491
12050TIP3    H236094   2.460   6.582   4.518
12051TIP3   OH236095   2.231   0.464   6.431
12051TIP3    H136096   2.220   0.516   6.352
12051TIP3    H236097   2.325   0.465   6.449
12052TIP3   OH236098   3.842   4.958   0.513
12052TIP3    H136099   3.861   5.000   0.429
12052TIP3    H236100   3.840   4.865   0.493
12053TIP3   OH236101   5.635   4.573   4.494
12053TIP3    H136102   5.701   4.629   4.452
12053TIP3    H236103   5.681   4.492   4.514
12054TIP3   OH236104   6.965   1.654   0.230
12054TIP3    H136105   6.886   1.697   0.198
12054TIP3    H236106   6.934   1.569   0.263
12055TIP3   OH236107   0.127   1.324   4.945
12055TIP3    H136108   0.155   1.233   4.953
12055TIP3    H236109   0.142   1.345   4.853
12056TIP3   OH236110   6.700   4.869   2.773
12056TIP3    H136111   6.638   4.868   2.845
12056TIP3    H236112   6.697   4.781   2.737
12057TIP3   OH236113   0.047   7.022   5.176
12057TIP3    H136114  -0.011   7.091   5.143
12057TIP3    H236115   0.083   6.981   5.097
12058TIP3   OH236116   5.543   3.393   3.435
12058TIP3    H136117   5.461   3.413   3.478
12058TIP3    H236118   5.574   3.313   3.478
12059TIP3   OH236119   1.399   4.790   6.263
12059TIP3    H136120   1.407   4.885   6.258
12059TIP3    H236121   1.362   4.765   6.178
12060TIP3   OH236122   8.050   6.774   1.975
12060TIP3    H136123   8.000   6.854   1.989
12060TIP3    H236124   8.136   6.804   1.946
12061TIP3   OH236125   4.904   3.508   3.659
12061TIP3    H136126   4.978   3.532   3.605
12061TIP3    H236127   4.915   3.414   3.676
12062TIP3   OH236128   7.117   0.475   3.366
12062TIP3    H136129   7.194   0.459   3.310
12062TIP3    H236130   7.057   0.525   3.311
12063TIP3   OH236131   5.285   2.161   0.903
12063TIP3    H136132   5.271   2.155   0.997
12063TIP3    H236133   5.210   2.116   0.864
12064TIP3   OH236134   7.437   4.493   1.459
12064TIP3    H136135   7.429   4.438   1.536
12064TIP3    H236136   7.528   4.482   1.431
12065TIP3   OH236137   6.765   2.343   4.578
12065TIP3    H136138   6.701   2.274   4.566
12065TIP3    H236139   6.730   2.417   4.528
12066TIP3   OH236140   0.517   0.730   5.496
12066TIP3    H136141   0.574   0.691   5.563
12066TIP3    H236142   0.439   0.757   5.544
12067TIP3   OH236143   5.389   6.389   1.969
12067TIP3    H136144   5.453   6.438   2.021
12067TIP3    H236145   5.305   6.404   2.013
12068TIP3   OH236146   0.857   5.384   3.106
12068TIP3    H136147   0.948   5.356   3.111
12068TIP3    H236148   0.810   5.324   3.163
12069TIP3   OH236149   7.261   1.938   6.304
12069TIP3    H136150   7.199   1.993   6.256
12069TIP3    H236151   7.332   1.922   6.242
12070TIP3   OH236152   1.988   1.200   0.818
12070TIP3    H136153   2.000   1.256   0.741
12070TIP3    H236154   1.959   1.116   0.782
12071TIP3   OH236155   1.120   4.364   1.913
12071TIP3    H136156   1.124   4.456   1.884
12071TIP3    H236157   1.171   4.362   1.994
12072TIP3   OH236158   6.961   2.952   5.620
12072TIP3    H136159   7.054   2.965   5.601
12072TIP3    H236160   6.955   2.862   5.653
12073TIP3   OH236161   4.941   2.445   1.059
12073TIP3    H136162   5.019   2.496   1.079
12073TIP3    H236163   4.928   2.389   1.136
12074TIP3   OH236164   4.444   0.618   2.350
12074TIP3    H136165   4.472   0.673   2.278
12074TIP3    H236166   4.498   0.539   2.342
12075TIP3   OH236167   2.481   4.973   5.056
12075TIP3    H136168   2.529   4.894   5.081
12075TIP3    H236169   2.505   5.038   5.122
12076TIP3   OH236170   4.055   2.125   0.741
12076TIP3    H136171   3.964   2.137   0.767
12076TIP3    H236172   4.052   2.105   0.648
12077TIP3   OH236173   3.505   1.367   1.239
12077TIP3    H136174   3.591   1.406   1.227
12077TIP3    H236175   3.494   1.364   1.335
12078TIP3   OH236176   5.331   1.356   1.143
12078TIP3    H136177   5.371   1.332   1.060
12078TIP3    H236178   5.271   1.428   1.122
12079TIP3   OH236179   1.852   4.313   2.555
12079TIP3    H136180   1.818   4.297   2.467
12079TIP3    H236181   1.780   4.291   2.613
12080TIP3   OH236182   4.342   5.940   4.049
12080TIP3    H136183   4.374   6.030   4.056
12080TIP3    H236184   4.410   5.894   4.001
12081TIP3   OH236185   5.807   7.014   1.699
12081TIP3    H136186   5.872   6.974   1.757
12081TIP3    H236187   5.796   6.949   1.629
12082TIP3   OH236188   3.484   5.916   2.903
12082TIP3    H136189   3.423   5.928   2.976
12082TIP3    H236190   3.433   5.870   2.837
12083TIP3   OH236191   4.326   4.904   5.367
12083TIP3    H136192   4.392   4.945   5.311
12083TIP3    H236193   4.247   4.902   5.313
12084TIP3   OH236194   1.032   6.444   5.958
12084TIP3    H136195   0.988   6.520   5.997
12084TIP3    H236196   0.962   6.381   5.942
12085TIP3   OH236197   7.668   0.462   4.172
12085TIP3    H136198   7.663   0.382   4.121
12085TIP3    H236199   7.733   0.443   4.240
12086TIP3   OH236200   1.963   1.027   2.719
12086TIP3    H136201   1.875   1.008   2.686
12086TIP3    H236202   2.016   0.953   2.690
12087TIP3   OH236203   3.223   1.377   4.937
12087TIP3    H136204   3.280   1.452   4.921
12087TIP3    H236205   3.146   1.414   4.981
12088TIP3   OH236206   1.924   3.121   4.562
12088TIP3    H136207   1.937   3.026   4.568
12088TIP3    H236208   1.830   3.133   4.576
12089TIP3   OH236209   2.858   2.114   2.665
12089TIP3    H136210   2.943   2.071   2.681
12089TIP3    H236211   2.829   2.141   2.752
12090TIP3   OH236212   5.282   3.647   3.181
12090TIP3    H136213   5.250   3.625   3.094
12090TIP3    H236214   5.335   3.726   3.168
12091TIP3   OH236215   7.161   6.940   3.056
12091TIP3    H136216   7.173   6.944   2.962
12091TIP3    H236217   7.220   7.008   3.090
12092TIP3   OH236218   2.341   1.409   5.655
12092TIP3    H136219   2.286   1.334   5.677
12092TIP3    H236220   2.326   1.473   5.725
12093TIP3   OH236221   5.446   2.421   2.371
12093TIP3    H136222   5.447   2.349   2.435
12093TIP3    H236223   5.436   2.377   2.286
12094TIP3   OH236224   2.641   7.646   1.220
12094TIP3    H136225   2.554   7.685   1.221
12094TIP3    H236226   2.664   7.635   1.312
12095TIP3   OH236227   2.426   6.395   6.540
12095TIP3    H136228   2.354   6.390   6.603
12095TIP3    H236229   2.505   6.381   6.593
12096TIP3   OH236230   7.777   1.289   5.677
12096TIP3    H136231   7.854   1.336   5.709
12096TIP3    H236232   7.751   1.232   5.750
12097TIP3   OH236233   2.775   4.480   3.830
12097TIP3    H136234   2.727   4.559   3.805
12097TIP3    H236235   2.708   4.413   3.839
12098TIP3   OH236236   6.067   0.952   1.697
12098TIP3    H136237   6.087   0.981   1.609
12098TIP3    H236238   6.046   1.032   1.745
12099TIP3   OH236239   0.299   5.239   2.804
12099TIP3    H136240   0.307   5.149   2.836
12099TIP3    H236241   0.213   5.268   2.835
12100TIP3   OH236242   1.758   4.624   2.498
12100TIP3    H136243   1.836   4.608   2.444
12100TIP3    H236244   1.784   4.594   2.585
12101TIP3   OH236245   2.009   1.477   5.767
12101TIP3    H136246   2.008   1.398   5.822
12101TIP3    H236247   2.063   1.454   5.692
12102TIP3   OH236248   4.972   3.203   5.269
12102TIP3    H136249   5.024   3.236   5.342
12102TIP3    H236250   4.941   3.117   5.298
12103TIP3   OH236251   8.142   1.418   6.127
12103TIP3    H136252   8.128   1.509   6.152
12103TIP3    H236253   8.236   1.413   6.106
12104TIP3   OH236254   1.339   5.328   1.514
12104TIP3    H136255   1.391   5.363   1.587
12104TIP3    H236256   1.322   5.237   1.539
12105TIP3   OH236257   5.877   1.930   5.379
12105TIP3    H136258   5.797   1.880   5.359
12105TIP3    H236259   5.947   1.881   5.337
12106TIP3   OH236260   5.228   2.796   4.110
12106TIP3    H136261   5.279   2.865   4.153
12106TIP3    H236262   5.290   2.725   4.098
12107TIP3   OH236263   2.728   3.441   5.513
12107TIP3    H136264   2.781   3.394   5.449
12107TIP3    H236265   2.647   3.462   5.466
12108TIP3   OH236266   7.977   5.291   0.878
12108TIP3    H136267   8.006   5.204   0.907
12108TIP3    H236268   7.952   5.336   0.959
12109TIP3   OH236269   4.728   3.886   2.751
12109TIP3    H136270   4.652   3.887   2.692
12109TIP3    H236271   4.795   3.935   2.704
12110TIP3   OH236272   3.092   4.381   2.013
12110TIP3    H136273   3.109   4.297   2.055
12110TIP3    H236274   3.016   4.365   1.956
12111TIP3   OH236275   3.214   5.605   1.840
12111TIP3    H136276   3.208   5.625   1.933
12111TIP3    H236277   3.214   5.691   1.797
12112TIP3   OH236278   7.062   2.429   0.646
12112TIP3    H136279   7.008   2.466   0.578
12112TIP3    H236280   7.080   2.339   0.617
12113TIP3   OH236281   4.145   1.191   4.859
12113TIP3    H136282   4.158   1.104   4.897
12113TIP3    H236283   4.062   1.221   4.897
12114TIP3   OH236284   3.434   0.284   4.354
12114TIP3    H136285   3.523   0.258   4.375
12114TIP3    H236286   3.437   0.310   4.262
12115TIP3   OH236287   0.668   3.971   5.749
12115TIP3    H136288   0.716   4.025   5.811
12115TIP3    H236289   0.727   3.897   5.730
12116TIP3   OH236290   0.580   1.764   2.531
12116TIP3    H136291   0.507   1.731   2.478
12116TIP3    H236292   0.542   1.835   2.582
12117TIP3   OH236293   3.587   6.147   6.244
12117TIP3    H136294   3.672   6.103   6.242
12117TIP3    H236295   3.602   6.231   6.201
12118TIP3   OH236296   7.168   4.295   0.517
12118TIP3    H136297   7.238   4.231   0.505
12118TIP3    H236298   7.102   4.271   0.452
12119TIP3   OH236299   1.700   1.747   3.293
12119TIP3    H136300   1.757   1.755   3.217
12119TIP3    H236301   1.633   1.814   3.280
12120TIP3   OH236302   1.289   7.161   4.864
12120TIP3    H136303   1.223   7.117   4.917
12120TIP3    H236304   1.327   7.226   4.922
12121TIP3   OH236305   0.124   5.311   4.564
12121TIP3    H136306   0.051   5.369   4.544
12121TIP3    H236307   0.183   5.365   4.618
12122TIP3   OH236308   6.732   4.383   1.395
12122TIP3    H136309   6.641   4.378   1.425
12122TIP3    H236310   6.728   4.432   1.313
12123TIP3   OH236311   6.318   3.773   0.481
12123TIP3    H136312   6.317   3.706   0.549
12123TIP3    H236313   6.231   3.768   0.442
12124TIP3   OH236314   6.385   5.947   0.155
12124TIP3    H136315   6.421   5.985   0.074
12124TIP3    H236316   6.458   5.898   0.192
12125TIP3   OH236317   2.005   7.437   3.542
12125TIP3    H136318   1.928   7.488   3.515
12125TIP3    H236319   2.064   7.442   3.466
12126TIP3   OH236320   7.664   6.831   4.831
12126TIP3    H136321   7.583   6.780   4.823
12126TIP3    H236322   7.733   6.765   4.838
12127TIP3   OH236323   4.196   6.337   5.540
12127TIP3    H136324   4.131   6.362   5.605
12127TIP3    H236325   4.154   6.267   5.490
12128TIP3   OH236326   6.147   0.390   2.217
12128TIP3    H136327   6.130   0.459   2.281
12128TIP3    H236328   6.071   0.391   2.159
12129TIP3   OH236329   6.087   6.036   3.434
12129TIP3    H136330   6.114   5.962   3.489
12129TIP3    H236331   6.046   5.995   3.358
12130TIP3   OH236332   3.115   3.129   0.526
12130TIP3    H136333   3.129   3.168   0.612
12130TIP3    H236334   3.101   3.204   0.468
12131TIP3   OH236335   0.694   0.436   6.574
12131TIP3    H136336   0.725   0.490   6.646
12131TIP3    H236337   0.662   0.499   6.508
12132TIP3   OH236338   7.104   4.324   1.800
12132TIP3    H136339   7.049   4.398   1.824
12132TIP3    H236340   7.048   4.268   1.746
12133TIP3   OH236341   2.480   0.686   4.384
12133TIP3    H136342   2.525   0.654   4.462
12133TIP3    H236343   2.473   0.609   4.327
12134TIP3   OH236344   6.753   1.753   2.776
12134TIP3    H136345   6.807   1.782   2.702
12134TIP3    H236346   6.674   1.717   2.735
12135TIP3   OH236347   7.366   2.974   1.215
12135TIP3    H136348   7.317   2.914   1.272
12135TIP3    H236349   7.388   3.048   1.272
12136TIP3   OH236350   1.606   7.686   5.932
12136TIP3    H136351   1.636   7.700   5.842
12136TIP3    H236352   1.568   7.598   5.932
12137TIP3   OH236353   4.682   4.875   2.071
12137TIP3    H136354   4.720   4.962   2.087
12137TIP3    H236355   4.742   4.833   2.010
12138TIP3   OH236356   8.143   6.314   3.741
12138TIP3    H136357   8.187   6.265   3.672
12138TIP3    H236358   8.058   6.337   3.704
12139TIP3   OH236359   3.869   3.362   3.364
12139TIP3    H136360   3.885   3.269   3.348
12139TIP3    H236361   3.890   3.374   3.457
12140TIP3   OH236362   0.906   2.720   1.612
12140TIP3    H136363   0.814   2.728   1.587
12140TIP3    H236364   0.909   2.753   1.702
12141TIP3   OH236365   5.516   3.823   4.491
12141TIP3    H136366   5.550   3.780   4.412
12141TIP3    H236367   5.500   3.750   4.551
12142TIP3   OH236368   7.619   7.788   5.786
12142TIP3    H136369   7.529   7.820   5.779
12142TIP3    H236370   7.615   7.722   5.855
12143TIP3   OH236371   0.837   5.065   3.575
12143TIP3    H136372   0.876   5.136   3.524
12143TIP3    H236373   0.876   4.986   3.538
12144TIP3   OH236374   4.151   2.073   3.025
12144TIP3    H136375   4.180   2.152   2.979
12144TIP3    H236376   4.103   2.106   3.101
12145TIP3   OH236377   6.108   0.435   1.051
12145TIP3    H136378   6.067   0.406   1.133
12145TIP3    H236379   6.035   0.444   0.990
12146TIP3   OH236380   0.280   3.415   4.774
12146TIP3    H136381   0.317   3.453   4.854
12146TIP3    H236382   0.312   3.472   4.704
12147TIP3   OH236383   0.119   4.334   5.386
12147TIP3    H136384   0.117   4.306   5.477
12147TIP3    H236385   0.183   4.405   5.383
12148TIP3   OH236386   7.480   2.952   6.298
12148TIP3    H136387   7.391   2.985   6.292
12148TIP3    H236388   7.526   2.996   6.226
12149TIP3   OH236389   6.905   0.655   1.431
12149TIP3    H136390   6.831   0.668   1.490
12149TIP3    H236391   6.964   0.728   1.451
12150TIP3   OH236392   5.669   7.445   5.559
12150TIP3    H136393   5.591   7.439   5.614
12150TIP3    H236394   5.704   7.533   5.575
12151TIP3   OH236395   4.362   4.152   2.775
12151TIP3    H136396   4.359   4.071   2.825
12151TIP3    H236397   4.416   4.132   2.699
12152TIP3   OH236398   7.019   2.116   4.317
12152TIP3    H136399   6.932   2.112   4.277
12152TIP3    H236400   7.021   2.201   4.361
12153TIP3   OH236401   4.752   5.811   5.715
12153TIP3    H136402   4.765   5.719   5.691
12153TIP3    H236403   4.728   5.809   5.807
12154TIP3   OH236404   6.817   2.123   2.852
12154TIP3    H136405   6.877   2.081   2.914
12154TIP3    H236406   6.730   2.107   2.890
12155TIP3   OH236407   6.155   3.095   2.948
12155TIP3    H136408   6.199   3.179   2.939
12155TIP3    H236409   6.214   3.042   3.001
12156TIP3   OH236410   3.531   6.935   6.686
12156TIP3    H136411   3.604   6.928   6.624
12156TIP3    H236412   3.572   6.955   6.770
12157TIP3   OH236413   0.548   0.595   4.631
12157TIP3    H136414   0.472   0.543   4.607
12157TIP3    H236415   0.554   0.663   4.564
12158TIP3   OH236416   0.171   1.559   2.090
12158TIP3    H136417   0.225   1.485   2.118
12158TIP3    H236418   0.221   1.601   2.021
12159TIP3   OH236419   6.724   6.698   6.708
12159TIP3    H136420   6.664   6.712   6.635
12159TIP3    H236421   6.749   6.785   6.737
12160TIP3   OH236422   1.189   2.884   4.490
12160TIP3    H136423   1.173   2.823   4.418
12160TIP3    H236424   1.281   2.871   4.512
12161TIP3   OH236425   4.211   2.517   0.875
12161TIP3    H136426   4.272   2.579   0.914
12161TIP3    H236427   4.143   2.571   0.836
12162TIP3   OH236428   4.349   6.752   0.799
12162TIP3    H136429   4.307   6.693   0.862
12162TIP3    H236430   4.371   6.830   0.851
12163TIP3   OH236431   1.919   0.181   3.943
12163TIP3    H136432   1.879   0.098   3.918
12163TIP3    H236433   2.001   0.156   3.986
12164TIP3   OH236434   5.583   3.973   3.534
12164TIP3    H136435   5.642   3.974   3.610
12164TIP3    H236436   5.641   3.963   3.459
12165TIP3   OH236437   7.026   7.500   3.932
12165TIP3    H136438   7.098   7.450   3.892
12165TIP3    H236439   6.951   7.484   3.875
12166TIP3   OH236440   8.211   5.737   1.363
12166TIP3    H136441   8.303   5.717   1.378
12166TIP3    H236442   8.171   5.732   1.450
12167TIP3   OH236443   3.682   7.084   1.670
12167TIP3    H136444   3.694   7.159   1.728
12167TIP3    H236445   3.652   7.123   1.587
12168TIP3   OH236446   8.110   5.182   4.760
12168TIP3    H136447   8.084   5.213   4.673
12168TIP3    H236448   8.186   5.126   4.743
12169TIP3   OH236449   6.550   0.620   1.355
12169TIP3    H136450   6.548   0.528   1.326
12169TIP3    H236451   6.538   0.615   1.450
12170TIP3   OH236452   0.141   0.264   4.941
12170TIP3    H136453   0.095   0.274   4.858
12170TIP3    H236454   0.132   0.172   4.963
12171TIP3   OH236455   4.833   6.049   3.302
12171TIP3    H136456   4.912   5.996   3.314
12171TIP3    H236457   4.864   6.127   3.256
12172TIP3   OH236458   3.409   3.522   5.702
12172TIP3    H136459   3.449   3.497   5.619
12172TIP3    H236460   3.379   3.612   5.689
12173TIP3   OH236461   2.692   1.485   4.434
12173TIP3    H136462   2.701   1.397   4.398
12173TIP3    H236463   2.638   1.531   4.369
12174TIP3   OH236464   7.399   1.183   3.397
12174TIP3    H136465   7.323   1.129   3.415
12174TIP3    H236466   7.470   1.141   3.445
12175TIP3   OH236467   5.624   6.962   3.204
12175TIP3    H136468   5.670   7.046   3.211
12175TIP3    H236469   5.548   6.971   3.260
12176TIP3   OH236470   3.881   6.064   0.574
12176TIP3    H136471   3.867   6.057   0.479
12176TIP3    H236472   3.832   6.143   0.600
12177TIP3   OH236473   0.038   3.621   4.129
12177TIP3    H136474   0.032   3.525   4.122
12177TIP3    H236475   0.131   3.640   4.122
12178TIP3   OH236476   0.692   7.438   6.161
12178TIP3    H136477   0.760   7.495   6.197
12178TIP3    H236478   0.629   7.497   6.121
12179TIP3   OH236479   4.818   1.301   4.654
12179TIP3    H136480   4.908   1.330   4.640
12179TIP3    H236481   4.794   1.257   4.573
12180TIP3   OH236482   7.460   4.814   1.618
12180TIP3    H136483   7.440   4.893   1.669
12180TIP3    H236484   7.400   4.747   1.652
12181TIP3   OH236485   0.298   0.542   5.912
12181TIP3    H136486   0.261   0.522   5.999
12181TIP3    H236487   0.221   0.561   5.858
12182TIP3   OH236488   7.136   3.721   2.324
12182TIP3    H136489   7.156   3.666   2.400
12182TIP3    H236490   7.138   3.810   2.358
12183TIP3   OH236491   4.684   4.269   1.931
12183TIP3    H136492   4.729   4.286   1.848
12183TIP3    H236493   4.598   4.236   1.905
12184TIP3   OH236494   5.227   2.870   3.184
12184TIP3    H136495   5.227   2.915   3.100
12184TIP3    H236496   5.271   2.931   3.244
12185TIP3   OH236497   7.328   6.957   1.107
12185TIP3    H136498   7.367   7.037   1.072
12185TIP3    H236499   7.284   6.917   1.032
12186TIP3   OH236500   1.796   3.925   0.018
12186TIP3    H136501   1.888   3.949   0.031
12186TIP3    H236502   1.766   3.900   0.106
12187TIP3   OH236503   3.873   7.358   2.986
12187TIP3    H136504   3.927   7.436   2.976
12187TIP3    H236505   3.929   7.295   3.032
12188TIP3   OH236506   7.244   5.723   2.968
12188TIP3    H136507   7.305   5.765   2.907
12188TIP3    H236508   7.294   5.650   3.005
12189TIP3   OH236509   7.551   2.479   3.522
12189TIP3    H136510   7.458   2.455   3.511
12189TIP3    H236511   7.586   2.410   3.578
12190TIP3   OH236512   0.569   1.480   0.739
12190TIP3    H136513   0.617   1.401   0.711
12190TIP3    H236514   0.578   1.541   0.666
12191TIP3   OH236515   0.334   2.636   2.715
12191TIP3    H136516   0.259   2.661   2.662
12191TIP3    H236517   0.305   2.649   2.805
12192TIP3   OH236518   7.270   6.754   4.257
12192TIP3    H136519   7.238   6.739   4.346
12192TIP3    H236520   7.341   6.691   4.245
12193TIP3   OH236521   4.431   3.786   6.482
12193TIP3    H136522   4.394   3.831   6.405
12193TIP3    H236523   4.383   3.703   6.485
12194TIP3   OH236524   2.343   2.688   4.369
12194TIP3    H136525   2.409   2.631   4.409
12194TIP3    H236526   2.380   2.712   4.284
12195TIP3   OH236527   4.179   0.698   2.846
12195TIP3    H136528   4.230   0.619   2.863
12195TIP3    H236529   4.230   0.768   2.887
12196TIP3   OH236530   2.256   3.072   1.911
12196TIP3    H136531   2.239   3.107   1.824
12196TIP3    H236532   2.258   2.977   1.899
12197TIP3   OH236533   7.619   4.430   6.150
12197TIP3    H136534   7.577   4.502   6.104
12197TIP3    H236535   7.694   4.407   6.096
12198TIP3   OH236536   5.085   4.107   5.551
12198TIP3    H136537   5.003   4.130   5.594
12198TIP3    H236538   5.071   4.017   5.520
12199TIP3   OH236539   5.888   1.416   6.135
12199TIP3    H136540   5.807   1.456   6.104
12199TIP3    H236541   5.897   1.446   6.225
12200TIP3   OH236542   3.208   0.535   5.090
12200TIP3    H136543   3.240   0.595   5.157
12200TIP3    H236544   3.278   0.471   5.078
12201TIP3   OH236545   5.335   3.061   1.659
12201TIP3    H136546   5.415   3.109   1.636
12201TIP3    H236547   5.290   3.119   1.721
12202TIP3   OH236548   7.126   7.338   3.263
12202TIP3    H136549   7.184   7.264   3.249
12202TIP3    H236550   7.056   7.304   3.319
12203TIP3   OH236551   5.535   5.284   4.101
12203TIP3    H136552   5.587   5.257   4.025
12203TIP3    H236553   5.583   5.359   4.136
12204TIP3   OH236554   7.317   3.770   0.913
12204TIP3    H136555   7.305   3.854   0.868
12204TIP3    H236556   7.381   3.724   0.860
12205TIP3   OH236557   6.047   2.261   4.122
12205TIP3    H136558   6.087   2.336   4.165
12205TIP3    H236559   6.048   2.192   4.189
12206TIP3   OH236560   6.011   2.596   4.800
12206TIP3    H136561   6.072   2.666   4.776
12206TIP3    H236562   5.958   2.634   4.870
12207TIP3   OH236563   0.221   0.391   0.415
12207TIP3    H136564   0.269   0.310   0.436
12207TIP3    H236565   0.131   0.363   0.399
12208TIP3   OH236566   2.494   7.480   4.727
12208TIP3    H136567   2.429   7.455   4.662
12208TIP3    H236568   2.448   7.542   4.784
12209TIP3   OH236569   0.968   3.973   2.460
12209TIP3    H136570   1.008   3.895   2.422
12209TIP3    H236571   0.924   3.940   2.539
12210TIP3   OH236572   7.087   7.521   0.007
12210TIP3    H136573   7.041   7.531   0.090
12210TIP3    H236574   7.021   7.539  -0.060
12211TIP3   OH236575   1.092   2.912   4.794
12211TIP3    H136576   1.084   2.996   4.749
12211TIP3    H236577   1.164   2.867   4.750
12212TIP3   OH236578   1.895   4.507   0.146
12212TIP3    H136579   1.867   4.509   0.054
12212TIP3    H236580   1.955   4.581   0.154
12213TIP3   OH236581   5.754   2.574   5.458
12213TIP3    H136582   5.836   2.606   5.421
12213TIP3    H236583   5.689   2.640   5.434
12214TIP3   OH236584   2.540   2.013   3.825
12214TIP3    H136585   2.619   1.976   3.865
12214TIP3    H236586   2.571   2.089   3.777
12215TIP3   OH236587   8.132   6.534   2.627
12215TIP3    H136588   8.166   6.609   2.579
12215TIP3    H236589   8.039   6.554   2.640
12216TIP3   OH236590   7.650   7.554   0.101
12216TIP3    H136591   7.743   7.535   0.088
12216TIP3    H236592   7.638   7.548   0.196
12217TIP3   OH236593   5.851   5.687   4.266
12217TIP3    H136594   5.905   5.713   4.191
12217TIP3    H236595   5.862   5.758   4.329
12218TIP3   OH236596   4.307   3.267   2.075
12218TIP3    H136597   4.311   3.172   2.064
12218TIP3    H236598   4.323   3.281   2.168
12219TIP3   OH236599   0.514   2.855   2.162
12219TIP3    H136600   0.421   2.839   2.143
12219TIP3    H236601   0.517   2.869   2.257
12220TIP3   OH236602   6.105   4.844   0.667
12220TIP3    H136603   6.066   4.931   0.654
12220TIP3    H236604   6.041   4.796   0.719
12221TIP3   OH236605   3.095   0.537   1.820
12221TIP3    H136606   3.180   0.495   1.837
12221TIP3    H236607   3.036   0.497   1.883
12222TIP3   OH236608   0.785   3.047   2.158
12222TIP3    H136609   0.759   3.104   2.230
12222TIP3    H236610   0.768   2.959   2.190
12223TIP3   OH236611   5.110   1.938   0.191
12223TIP3    H136612   5.022   1.973   0.202
12223TIP3    H236613   5.168   2.009   0.219
12224TIP3   OH236614   0.429   2.317   4.049
12224TIP3    H136615   0.455   2.381   3.983
12224TIP3    H236616   0.336   2.334   4.064
12225TIP3   OH236617   4.679   1.046   5.034
12225TIP3    H136618   4.704   1.108   4.966
12225TIP3    H236619   4.748   0.980   5.032
12226TIP3   OH236620   0.385   2.935   6.565
12226TIP3    H136621   0.379   2.931   6.661
12226TIP3    H236622   0.380   3.029   6.545
12227TIP3   OH236623   1.045   5.834   5.175
12227TIP3    H136624   1.096   5.809   5.253
12227TIP3    H236625   1.021   5.751   5.135
12228TIP3   OH236626   2.886   3.519   6.256
12228TIP3    H136627   2.857   3.610   6.256
12228TIP3    H236628   2.929   3.507   6.341
12229TIP3   OH236629   5.651   4.938   4.106
12229TIP3    H136630   5.638   5.012   4.046
12229TIP3    H236631   5.742   4.913   4.093
12230TIP3   OH236632   4.857   1.341   6.033
12230TIP3    H136633   4.872   1.273   5.967
12230TIP3    H236634   4.768   1.327   6.063
12231TIP3   OH236635   7.715   5.748   6.571
12231TIP3    H136636   7.794   5.764   6.623
12231TIP3    H236637   7.696   5.832   6.531
12232TIP3   OH236638   0.730   7.729   4.948
12232TIP3    H136639   0.675   7.704   4.874
12232TIP3    H236640   0.820   7.726   4.913
12233TIP3   OH236641   4.604   1.887   1.922
12233TIP3    H136642   4.532   1.933   1.879
12233TIP3    H236643   4.628   1.818   1.861
12234TIP3   OH236644   4.453   6.983   5.490
12234TIP3    H136645   4.438   7.020   5.403
12234TIP3    H236646   4.548   6.989   5.501
12235TIP3   OH236647   5.638   2.476   3.597
12235TIP3    H136648   5.703   2.532   3.639
12235TIP3    H236649   5.689   2.417   3.542
12236TIP3   OH236650   5.617   5.110   3.896
12236TIP3    H136651   5.705   5.134   3.866
12236TIP3    H236652   5.559   5.138   3.825
12237TIP3   OH236653   2.679   0.181   4.430
12237TIP3    H136654   2.684   0.199   4.337
12237TIP3    H236655   2.726   0.098   4.441
12238TIP3   OH236656   0.135   6.837   5.771
12238TIP3    H136657   0.146   6.926   5.804
12238TIP3    H236658   0.199   6.829   5.701
12239TIP3   OH236659   5.866   0.969   0.588
12239TIP3    H136660   5.922   0.893   0.568
12239TIP3    H236661   5.876   1.026   0.512
12240TIP3   OH236662   4.689   6.734   3.389
12240TIP3    H136663   4.651   6.759   3.473
12240TIP3    H236664   4.769   6.785   3.382
12241TIP3   OH236665   8.127   1.701   0.537
12241TIP3    H136666   8.048   1.649   0.556
12241TIP3    H236667   8.162   1.661   0.458
12242TIP3   OH236668   0.856   3.144   4.974
12242TIP3    H136669   0.814   3.158   4.889
12242TIP3    H236670   0.928   3.206   4.977
12243TIP3   OH236671   0.017   0.041   4.351
12243TIP3    H136672   0.033  -0.046   4.313
12243TIP3    H236673   0.105   0.077   4.363
12244TIP3   OH236674   0.217   4.988   6.460
12244TIP3    H136675   0.215   4.949   6.372
12244TIP3    H236676   0.132   5.032   6.468
12245TIP3   OH236677   6.975   3.312   1.156
12245TIP3    H136678   6.972   3.302   1.061
12245TIP3    H236679   6.891   3.279   1.187
12246TIP3   OH236680   5.070   7.407   2.570
12246TIP3    H136681   4.988   7.451   2.547
12246TIP3    H236682   5.056   7.376   2.659
12247TIP3   OH236683   1.345   1.040   6.046
12247TIP3    H136684   1.383   0.958   6.014
12247TIP3    H236685   1.342   1.097   5.970
12248TIP3   OH236686   5.837   4.410   3.400
12248TIP3    H136687   5.926   4.394   3.370
12248TIP3    H236688   5.790   4.440   3.322
12249TIP3   OH236689   1.222   1.354   0.698
12249TIP3    H136690   1.311   1.325   0.714
12249TIP3    H236691   1.228   1.408   0.619
12250TIP3   OH236692   4.183   7.340   3.035
12250TIP3    H136693   4.217   7.355   3.123
12250TIP3    H236694   4.135   7.420   3.014
12251TIP3   OH236695   8.078   6.419   4.130
12251TIP3    H136696   7.999   6.455   4.089
12251TIP3    H236697   8.147   6.432   4.065
12252TIP3   OH236698   7.951   3.505   5.765
12252TIP3    H136699   8.005   3.553   5.703
12252TIP3    H236700   7.996   3.422   5.779
12253TIP3   OH236701   0.196   0.841   3.640
12253TIP3    H136702   0.101   0.851   3.652
12253TIP3    H236703   0.228   0.931   3.632
12254TIP3   OH236704   0.582   2.762   5.428
12254TIP3    H136705   0.572   2.763   5.333
12254TIP3    H236706   0.653   2.699   5.443
12255TIP3   OH236707   2.951   6.298   2.795
12255TIP3    H136708   2.948   6.366   2.727
12255TIP3    H236709   2.869   6.310   2.843
12256TIP3   OH236710   6.754   7.436   2.121
12256TIP3    H136711   6.773   7.387   2.201
12256TIP3    H236712   6.662   7.415   2.101
12257TIP3   OH236713   1.896   2.458   1.326
12257TIP3    H136714   1.971   2.508   1.295
12257TIP3    H236715   1.926   2.419   1.408
12258TIP3   OH236716   5.440   7.030   6.362
12258TIP3    H136717   5.379   6.958   6.376
12258TIP3    H236718   5.463   7.025   6.269
12259TIP3   OH236719   4.224   4.671   2.468
12259TIP3    H136720   4.255   4.761   2.468
12259TIP3    H236721   4.175   4.661   2.386
12260TIP3   OH236722   2.310   7.506   3.954
12260TIP3    H136723   2.298   7.412   3.947
12260TIP3    H236724   2.253   7.544   3.887
12261TIP3   OH236725   0.146   1.258   3.090
12261TIP3    H136726   0.236   1.228   3.102
12261TIP3    H236727   0.142   1.342   3.136
12262TIP3   OH236728   2.434   0.505   0.405
12262TIP3    H136729   2.516   0.472   0.368
12262TIP3    H236730   2.451   0.513   0.498
12263TIP3   OH236731   5.279   1.047   3.216
12263TIP3    H136732   5.247   1.007   3.296
12263TIP3    H236733   5.204   1.094   3.180
12264TIP3   OH236734   0.133   3.139   2.448
12264TIP3    H136735   0.038   3.134   2.446
12264TIP3    H236736   0.152   3.212   2.508
12265TIP3   OH236737   4.699   4.700   5.701
12265TIP3    H136738   4.762   4.711   5.772
12265TIP3    H236739   4.750   4.719   5.621
12266TIP3   OH236740   2.402   2.045   0.618
12266TIP3    H136741   2.367   2.099   0.547
12266TIP3    H236742   2.363   1.959   0.604
12267TIP3   OH236743   3.166   4.589   0.107
12267TIP3    H136744   3.232   4.637   0.057
12267TIP3    H236745   3.118   4.656   0.154
12268TIP3   OH236746   3.652   1.593   3.866
12268TIP3    H136747   3.673   1.579   3.774
12268TIP3    H236748   3.737   1.611   3.907
12269TIP3   OH236749   4.784   0.970   6.419
12269TIP3    H136750   4.850   0.944   6.356
12269TIP3    H236751   4.728   1.032   6.372
12270TIP3   OH236752   7.776   1.872   6.641
12270TIP3    H136753   7.691   1.845   6.676
12270TIP3    H236754   7.840   1.834   6.702
12271TIP3   OH236755   1.501   3.916   4.476
12271TIP3    H136756   1.478   3.926   4.384
12271TIP3    H236757   1.524   4.004   4.505
12272TIP3   OH236758   4.608   1.444   5.104
12272TIP3    H136759   4.512   1.439   5.108
12272TIP3    H236760   4.632   1.388   5.031
12273TIP3   OH236761   4.609   4.869   2.325
12273TIP3    H136762   4.658   4.837   2.249
12273TIP3    H236763   4.521   4.835   2.312
12274TIP3   OH236764   5.008   1.212   0.272
12274TIP3    H136765   4.959   1.184   0.350
12274TIP3    H236766   5.099   1.214   0.300
12275TIP3   OH236767   5.962   2.753   4.233
12275TIP3    H136768   5.897   2.747   4.164
12275TIP3    H236769   6.008   2.669   4.231
12276TIP3   OH236770   4.697   6.535   4.387
12276TIP3    H136771   4.654   6.451   4.377
12276TIP3    H236772   4.662   6.589   4.316
12277TIP3   OH236773   4.516   7.276   6.161
12277TIP3    H136774   4.511   7.332   6.238
12277TIP3    H236775   4.434   7.291   6.115
12278TIP3   OH236776   6.593   3.075   3.367
12278TIP3    H136777   6.601   3.053   3.275
12278TIP3    H236778   6.651   3.150   3.380
12279TIP3   OH236779   2.101   7.279   5.738
12279TIP3    H136780   2.142   7.254   5.655
12279TIP3    H236781   2.173   7.308   5.794
12280TIP3   OH236782   1.391   7.103   1.455
12280TIP3    H136783   1.299   7.125   1.438
12280TIP3    H236784   1.387   7.031   1.517
12281TIP3   OH236785   1.012   2.376   4.396
12281TIP3    H136786   1.080   2.347   4.457
12281TIP3    H236787   1.011   2.309   4.328
12282TIP3   OH236788   5.351   1.496   4.663
12282TIP3    H136789   5.354   1.586   4.695
12282TIP3    H236790   5.376   1.502   4.571
12283TIP3   OH236791   7.114   4.868   1.632
12283TIP3    H136792   7.023   4.839   1.622
12283TIP3    H236793   7.154   4.800   1.687
12284TIP3   OH236794   1.308   3.397   0.079
12284TIP3    H136795   1.262   3.313   0.072
12284TIP3    H236796   1.321   3.410   0.173
12285TIP3   OH236797   4.218   2.154   6.196
12285TIP3    H136798   4.278   2.171   6.124
12285TIP3    H236799   4.140   2.118   6.154
12286TIP3   OH236800   0.214   4.502   4.083
12286TIP3    H136801   0.230   4.438   4.152
12286TIP3    H236802   0.301   4.533   4.058
12287TIP3   OH236803   3.323   7.733   1.893
12287TIP3    H136804   3.289   7.795   1.957
12287TIP3    H236805   3.392   7.686   1.940
12288TIP3   OH236806   4.077   1.583   4.846
12288TIP3    H136807   4.067   1.677   4.830
12288TIP3    H236808   4.021   1.566   4.921
12289TIP3   OH236809   7.762   4.499   5.600
12289TIP3    H136810   7.823   4.562   5.561
12289TIP3    H236811   7.815   4.451   5.664
12290TIP3   OH236812   3.987   0.526   3.027
12290TIP3    H136813   3.996   0.468   2.951
12290TIP3    H236814   4.020   0.610   2.996
12291TIP3   OH236815   1.550   1.302   6.390
12291TIP3    H136816   1.554   1.225   6.332
12291TIP3    H236817   1.590   1.272   6.471
12292TIP3   OH236818   3.571   0.983   4.824
12292TIP3    H136819   3.626   0.910   4.851
12292TIP3    H236820   3.537   1.019   4.906
12293TIP3   OH236821   2.591   3.104   3.385
12293TIP3    H136822   2.532   3.048   3.436
12293TIP3    H236823   2.532   3.160   3.334
12294TIP3   OH236824   0.533   4.239   3.435
12294TIP3    H136825   0.483   4.202   3.362
12294TIP3    H236826   0.624   4.239   3.405
12295TIP3   OH236827   4.952   5.553   0.780
12295TIP3    H136828   4.980   5.492   0.848
12295TIP3    H236829   5.032   5.598   0.753
12296TIP3   OH236830   1.757   7.181   6.244
12296TIP3    H136831   1.742   7.271   6.274
12296TIP3    H236832   1.826   7.148   6.302
12297TIP3   OH236833   7.018   6.487   1.591
12297TIP3    H136834   7.042   6.442   1.510
12297TIP3    H236835   7.031   6.579   1.572
12298TIP3   OH236836   1.982   4.663   1.983
12298TIP3    H136837   1.907   4.650   1.925
12298TIP3    H236838   2.044   4.594   1.959
12299TIP3   OH236839   2.200   3.731   4.876
12299TIP3    H136840   2.184   3.783   4.797
12299TIP3    H236841   2.288   3.756   4.903
12300TIP3   OH236842   0.955   5.019   5.228
12300TIP3    H136843   1.015   5.091   5.208
12300TIP3    H236844   0.997   4.942   5.188
12301TIP3   OH236845   5.358   5.207   0.355
12301TIP3    H136846   5.274   5.162   0.365
12301TIP3    H236847   5.417   5.163   0.417
12302TIP3   OH236848   6.965   5.290   4.355
12302TIP3    H136849   6.910   5.212   4.356
12302TIP3    H236850   7.003   5.295   4.443
12303TIP3   OH236851   3.976   6.663   1.918
12303TIP3    H136852   3.989   6.723   1.844
12303TIP3    H236853   4.046   6.598   1.909
12304TIP3   OH236854   2.830   3.335   1.277
12304TIP3    H136855   2.787   3.333   1.192
12304TIP3    H236856   2.854   3.244   1.294
12305TIP3   OH236857   1.350   5.049   4.601
12305TIP3    H136858   1.258   5.060   4.579
12305TIP3    H236859   1.396   5.061   4.518
12306TIP3   OH236860   8.232   2.447   1.924
12306TIP3    H136861   8.227   2.538   1.895
12306TIP3    H236862   8.142   2.423   1.942
12307TIP3   OH236863   5.843   5.905   4.451
12307TIP3    H136864   5.816   5.894   4.542
12307TIP3    H236865   5.930   5.946   4.456
12308TIP3   OH236866   3.556   0.790   1.288
12308TIP3    H136867   3.465   0.817   1.277
12308TIP3    H236868   3.552   0.716   1.349
12309TIP3   OH236869   2.611   2.747   4.644
12309TIP3    H136870   2.659   2.764   4.725
12309TIP3    H236871   2.531   2.800   4.653
12310TIP3   OH236872   3.231   3.871   3.725
12310TIP3    H136873   3.211   3.962   3.746
12310TIP3    H236874   3.163   3.820   3.769
12311TIP3   OH236875   4.552   0.545   1.520
12311TIP3    H136876   4.539   0.572   1.611
12311TIP3    H236877   4.647   0.534   1.511
12312TIP3   OH236878   7.101   0.407   5.458
12312TIP3    H136879   7.143   0.332   5.416
12312TIP3    H236880   7.084   0.378   5.548
12313TIP3   OH236881   1.345   2.433   5.713
12313TIP3    H136882   1.255   2.402   5.707
12313TIP3    H236883   1.375   2.440   5.622
12314TIP3   OH236884   0.096   4.127   2.728
12314TIP3    H136885   0.060   4.181   2.658
12314TIP3    H236886   0.070   4.172   2.809
12315TIP3   OH236887   1.150   7.364   5.896
12315TIP3    H136888   1.198   7.282   5.893
12315TIP3    H236889   1.180   7.412   5.819
12316TIP3   OH236890   7.958   7.251   3.531
12316TIP3    H136891   7.984   7.315   3.466
12316TIP3    H236892   7.956   7.168   3.483
12317TIP3   OH236893   6.407   4.297   6.604
12317TIP3    H136894   6.471   4.363   6.576
12317TIP3    H236895   6.391   4.317   6.696
12318TIP3   OH236896   5.222   5.615   4.172
12318TIP3    H136897   5.243   5.544   4.233
12318TIP3    H236898   5.235   5.695   4.222
12319TIP3   OH236899   1.721   4.309   2.284
12319TIP3    H136900   1.704   4.401   2.268
12319TIP3    H236901   1.778   4.282   2.212
12320TIP3   OH236902   1.390   5.513   5.667
12320TIP3    H136903   1.422   5.474   5.586
12320TIP3    H236904   1.467   5.558   5.703
12321TIP3   OH236905   5.992   3.907   3.290
12321TIP3    H136906   6.074   3.953   3.307
12321TIP3    H236907   6.016   3.814   3.291
12322TIP3   OH236908   0.308   1.845   0.868
12322TIP3    H136909   0.395   1.847   0.829
12322TIP3    H236910   0.321   1.871   0.959
12323TIP3   OH236911   2.150   0.649   1.756
12323TIP3    H136912   2.225   0.607   1.714
12323TIP3    H236913   2.074   0.615   1.709
12324TIP3   OH236914   3.735   3.717   2.113
12324TIP3    H136915   3.771   3.663   2.183
12324TIP3    H236916   3.644   3.690   2.107
12325TIP3   OH236917   0.861   4.702   2.611
12325TIP3    H136918   0.897   4.789   2.623
12325TIP3    H236919   0.905   4.648   2.678
12326TIP3   OH236920   6.101   7.783   1.198
12326TIP3    H136921   6.125   7.874   1.213
12326TIP3    H236922   6.170   7.732   1.241
12327TIP3   OH236923   3.077   0.398   5.308
12327TIP3    H136924   3.114   0.457   5.242
12327TIP3    H236925   2.991   0.374   5.274
12328TIP3   OH236926   2.716   3.030   2.523
12328TIP3    H136927   2.775   3.095   2.561
12328TIP3    H236928   2.771   2.981   2.461
12329TIP3   OH236929   4.929   4.146   6.077
12329TIP3    H136930   5.018   4.176   6.097
12329TIP3    H236931   4.890   4.127   6.162
12330TIP3   OH236932   1.345   4.539   5.937
12330TIP3    H136933   1.426   4.591   5.941
12330TIP3    H236934   1.375   4.449   5.942
12331TIP3   OH236935   0.603   0.952   3.875
12331TIP3    H136936   0.605   1.004   3.955
12331TIP3    H236937   0.567   1.011   3.808
12332TIP3   OH236938   8.090   0.057   6.423
12332TIP3    H136939   8.010   0.038   6.472
12332TIP3    H236940   8.085   0.150   6.402
12333TIP3   OH236941   3.076   1.214   4.419
12333TIP3    H136942   3.111   1.130   4.387
12333TIP3    H236943   3.085   1.274   4.345
12334TIP3   OH236944   0.572   2.829   4.804
12334TIP3    H136945   0.527   2.890   4.862
12334TIP3    H236946   0.664   2.833   4.830
12335TIP3   OH236947   3.536   6.235   2.109
12335TIP3    H136948   3.576   6.320   2.089
12335TIP3    H236949   3.483   6.215   2.031
12336TIP3   OH236950   0.606   5.199   5.964
12336TIP3    H136951   0.547   5.158   5.902
12336TIP3    H236952   0.558   5.200   6.047
12337TIP3   OH236953   6.019   4.117   5.684
12337TIP3    H136954   6.009   4.056   5.610
12337TIP3    H236955   6.073   4.188   5.649
12338TIP3   OH236956   0.198   7.353   5.181
12338TIP3    H136957   0.269   7.297   5.213
12338TIP3    H236958   0.151   7.380   5.259
12339TIP3   OH236959   3.926   7.062   4.475
12339TIP3    H136960   3.986   7.134   4.459
12339TIP3    H236961   3.896   7.035   4.388
12340TIP3   OH236962   4.837   0.049   6.764
12340TIP3    H136963   4.802   0.032   6.677
12340TIP3    H236964   4.803   0.135   6.788
12341TIP3   OH236965   3.429   0.635   4.024
12341TIP3    H136966   3.338   0.663   4.015
12341TIP3    H236967   3.476   0.714   4.050
12342TIP3   OH236968   4.844   0.166   1.936
12342TIP3    H136969   4.841   0.072   1.952
12342TIP3    H236970   4.932   0.192   1.961
12343TIP3   OH236971   2.700   0.928   2.828
12343TIP3    H136972   2.708   0.950   2.735
12343TIP3    H236973   2.665   1.008   2.868
12344TIP3   OH236974   5.338   6.455   4.698
12344TIP3    H136975   5.335   6.550   4.700
12344TIP3    H236976   5.385   6.433   4.618
12345TIP3   OH236977   2.539   6.797   5.110
12345TIP3    H136978   2.533   6.723   5.049
12345TIP3    H236979   2.623   6.785   5.154
12346TIP3   OH236980   4.682   6.214   1.949
12346TIP3    H136981   4.626   6.289   1.930
12346TIP3    H236982   4.767   6.253   1.968
12347TIP3   OH236983   6.414   5.457   0.685
12347TIP3    H136984   6.353   5.511   0.635
12347TIP3    H236985   6.434   5.383   0.627
12348TIP3   OH236986   0.597   5.022   4.048
12348TIP3    H136987   0.613   5.043   3.955
12348TIP3    H236988   0.564   5.104   4.085
12349TIP3   OH236989   8.246   7.324   3.897
12349TIP3    H136990   8.309   7.278   3.842
12349TIP3    H236991   8.213   7.395   3.842
12350TIP3   OH236992   2.924   2.163   5.533
12350TIP3    H136993   2.863   2.214   5.586
12350TIP3    H236994   3.004   2.216   5.530
12351TIP3   OH236995   4.777   0.727   3.377
12351TIP3    H136996   4.818   0.812   3.390
12351TIP3    H236997   4.838   0.679   3.320
12352TIP3   OH236998   2.113   4.983   4.185
12352TIP3    H136999   2.036   4.925   4.185
12352TIP3    H237000   2.186   4.926   4.162
12353TIP3   OH237001   3.051   0.564   4.850
12353TIP3    H137002   3.098   0.576   4.932
12353TIP3    H237003   2.989   0.493   4.867
12354TIP3   OH237004   2.371   0.696   0.229
12354TIP3    H137005   2.388   0.617   0.280
12354TIP3    H237006   2.281   0.720   0.253
12355TIP3   OH237007   0.041   6.968   2.775
12355TIP3    H137008   0.063   7.000   2.863
12355TIP3    H237009  -0.037   6.914   2.789
12356TIP3   OH237010   4.649   1.284   4.884
12356TIP3    H137011   4.567   1.250   4.848
12356TIP3    H237012   4.708   1.289   4.809
12357TIP3   OH237013   7.569   4.285   2.757
12357TIP3    H137014   7.572   4.198   2.798
12357TIP3    H237015   7.482   4.318   2.777
12358TIP3   OH237016   3.582   5.636   4.951
12358TIP3    H137017   3.486   5.644   4.945
12358TIP3    H237018   3.596   5.558   5.005
12359TIP3   OH237019   4.570   3.759   5.915
12359TIP3    H137020   4.606   3.751   6.004
12359TIP3    H237021   4.482   3.721   5.922
12360TIP3   OH237022   7.442   5.319   3.686
12360TIP3    H137023   7.446   5.413   3.702
12360TIP3    H237024   7.447   5.279   3.773
12361TIP3   OH237025   1.994   1.286   5.971
12361TIP3    H137026   1.964   1.220   6.033
12361TIP3    H237027   2.058   1.338   6.021
12362TIP3   OH237028   7.700   0.816   3.313
12362TIP3    H137029   7.678   0.762   3.390
12362TIP3    H237030   7.649   0.778   3.242
12363TIP3   OH237031   3.583   7.473   0.518
12363TIP3    H137032   3.595   7.384   0.484
12363TIP3    H237033   3.499   7.471   0.563
12364TIP3   OH237034   2.304   0.906   5.851
12364TIP3    H137035   2.244   0.909   5.926
12364TIP3    H237036   2.334   0.815   5.848
12365TIP3   OH237037   0.812   2.381   6.707
12365TIP3    H137038   0.717   2.388   6.719
12365TIP3    H237039   0.845   2.351   6.792
12366TIP3   OH237040   5.771   5.160   5.431
12366TIP3    H137041   5.812   5.165   5.345
12366TIP3    H237042   5.677   5.149   5.412
12367TIP3   OH237043   6.667   5.145   0.739
12367TIP3    H137044   6.673   5.197   0.659
12367TIP3    H237045   6.575   5.118   0.744
12368TIP3   OH237046   1.326   0.805   0.113
12368TIP3    H137047   1.276   0.885   0.099
12368TIP3    H237048   1.387   0.828   0.183
12369TIP3   OH237049   0.654   7.207   5.979
12369TIP3    H137050   0.664   7.251   5.894
12369TIP3    H237051   0.680   7.273   6.043
12370TIP3   OH237052   4.583   1.246   3.419
12370TIP3    H137053   4.513   1.221   3.359
12370TIP3    H237054   4.620   1.326   3.380
12371TIP3   OH237055   0.973   1.520   5.627
12371TIP3    H137056   0.960   1.474   5.544
12371TIP3    H237057   0.896   1.497   5.679
12372TIP3   OH237058   3.511   1.478   2.379
12372TIP3    H137059   3.544   1.542   2.316
12372TIP3    H237060   3.585   1.461   2.437
12373TIP3   OH237061   6.700   0.480   3.059
12373TIP3    H137062   6.643   0.447   2.990
12373TIP3    H237063   6.774   0.520   3.012
12374TIP3   OH237064   5.134   7.242   1.544
12374TIP3    H137065   5.059   7.302   1.546
12374TIP3    H237066   5.098   7.158   1.575
12375TIP3   OH237067   7.569   3.220   0.417
12375TIP3    H137068   7.477   3.224   0.445
12375TIP3    H237069   7.619   3.229   0.498
12376TIP3   OH237070   1.198   6.231   6.617
12376TIP3    H137071   1.271   6.213   6.557
12376TIP3    H237072   1.120   6.222   6.563
12377TIP3   OH237073   1.631   4.562   0.300
12377TIP3    H137074   1.662   4.645   0.336
12377TIP3    H237075   1.709   4.523   0.260
12378TIP3   OH237076   1.876   4.863   5.657
12378TIP3    H137077   1.914   4.803   5.592
12378TIP3    H237078   1.799   4.899   5.614
12379TIP3   OH237079   2.112   2.104   6.360
12379TIP3    H137080   2.054   2.152   6.420
12379TIP3    H237081   2.154   2.039   6.416
12380TIP3   OH237082   2.378   5.343   1.982
12380TIP3    H137083   2.440   5.372   1.915
12380TIP3    H237084   2.420   5.366   2.065
12381TIP3   OH237085   4.092   4.233   5.784
12381TIP3    H137086   4.119   4.260   5.696
12381TIP3    H237087   4.104   4.138   5.784
12382TIP3   OH237088   4.725   0.191   1.276
12382TIP3    H137089   4.740   0.192   1.371
12382TIP3    H237090   4.717   0.098   1.254
12383TIP3   OH237091   2.836   7.484   2.286
12383TIP3    H137092   2.757   7.432   2.270
12383TIP3    H237093   2.875   7.444   2.364
12384TIP3   OH237094   1.246   2.054   2.202
12384TIP3    H137095   1.275   2.144   2.187
12384TIP3    H237096   1.264   2.038   2.295
12385TIP3   OH237097   5.849   6.460   2.668
12385TIP3    H137098   5.826   6.385   2.613
12385TIP3    H237099   5.827   6.537   2.615
12386TIP3   OH237100   0.738   1.880   6.731
12386TIP3    H137101   0.786   1.857   6.811
12386TIP3    H237102   0.806   1.884   6.663
12387TIP3   OH237103   1.677   0.733   6.249
12387TIP3    H137104   1.608   0.671   6.271
12387TIP3    H237105   1.634   0.819   6.252
12388TIP3   OH237106   1.690   4.564   6.623
12388TIP3    H137107   1.674   4.608   6.539
12388TIP3    H237108   1.659   4.475   6.610
12389TIP3   OH237109   2.782   6.918   4.856
12389TIP3    H137110   2.792   6.823   4.866
12389TIP3    H237111   2.695   6.929   4.817
12390TIP3   OH237112   2.438   4.216   3.645
12390TIP3    H137113   2.483   4.250   3.722
12390TIP3    H237114   2.448   4.286   3.579
12391TIP3   OH237115   2.432   0.796   3.586
12391TIP3    H137116   2.342   0.775   3.561
12391TIP3    H237117   2.480   0.797   3.503
12392TIP3   OH237118   2.626   3.420   6.118
12392TIP3    H137119   2.703   3.365   6.125
12392TIP3    H237120   2.641   3.491   6.180
12393TIP3   OH237121   1.378   4.069   0.165
12393TIP3    H137122   1.393   3.991   0.218
12393TIP3    H237123   1.444   4.132   0.195
12394TIP3   OH237124   4.873   5.452   2.725
12394TIP3    H137125   4.927   5.530   2.727
12394TIP3    H237126   4.930   5.384   2.688
12395TIP3   OH237127  -0.010   2.795   3.286
12395TIP3    H137128   0.048   2.724   3.316
12395TIP3    H237129   0.046   2.873   3.286
12396TIP3   OH237130   1.590   0.829   4.037
12396TIP3    H137131   1.611   0.907   3.987
12396TIP3    H237132   1.588   0.859   4.128
12397TIP3   OH237133   5.551   7.653   2.808
12397TIP3    H137134   5.571   7.746   2.801
12397TIP3    H237135   5.512   7.643   2.895
12398TIP3   OH237136   5.365   7.538   1.959
12398TIP3    H137137   5.332   7.499   1.879
12398TIP3    H237138   5.460   7.543   1.946
12399TIP3   OH237139   3.788   7.743   0.440
12399TIP3    H137140   3.865   7.799   0.455
12399TIP3    H237141   3.733   7.756   0.516
12400TIP3   OH237142   1.641   7.714   6.655
12400TIP3    H137143   1.660   7.805   6.681
12400TIP3    H237144   1.551   7.717   6.624
12401TIP3   OH237145   1.895   2.227   5.777
12401TIP3    H137146   1.956   2.221   5.850
12401TIP3    H237147   1.899   2.319   5.751
12402TIP3   OH237148   4.613   7.024   6.183
12402TIP3    H137149   4.548   6.959   6.156
12402TIP3    H237150   4.574   7.108   6.162
12403TIP3   OH237151   5.920   5.918   2.694
12403TIP3    H137152   5.874   5.989   2.739
12403TIP3    H237153   6.011   5.927   2.722
12404TIP3   OH237154   1.407   5.412   0.472
12404TIP3    H137155   1.397   5.471   0.547
12404TIP3    H237156   1.472   5.348   0.500
12405TIP3   OH237157   1.276   3.520   3.073
12405TIP3    H137158   1.275   3.600   3.021
12405TIP3    H237159   1.362   3.519   3.114
12406TIP3   OH237160   7.861   1.568   6.415
12406TIP3    H137161   7.947   1.602   6.391
12406TIP3    H237162   7.878   1.509   6.488
12407TIP3   OH237163   6.577   6.949   2.334
12407TIP3    H137164   6.492   6.971   2.372
12407TIP3    H237165   6.626   7.031   2.334
12408TIP3   OH237166   5.689   0.561   3.984
12408TIP3    H137167   5.731   0.593   4.063
12408TIP3    H237168   5.650   0.639   3.944
12409TIP3   OH237169   0.453   7.319   3.904
12409TIP3    H137170   0.490   7.405   3.886
12409TIP3    H237171   0.527   7.268   3.936
12410TIP3   OH237172   6.056   7.571   2.300
12410TIP3    H137173   6.019   7.636   2.360
12410TIP3    H237174   6.075   7.620   2.220
12411TIP3   OH237175   1.280   3.980   3.553
12411TIP3    H137176   1.281   4.075   3.560
12411TIP3    H237177   1.356   3.952   3.604
12412TIP3   OH237178   7.493   7.324   6.215
12412TIP3    H137179   7.411   7.372   6.204
12412TIP3    H237180   7.538   7.334   6.132
12413TIP3   OH237181   6.508   6.331   3.131
12413TIP3    H137182   6.514   6.389   3.055
12413TIP3    H237183   6.515   6.389   3.207
12414TIP3   OH237184   4.704   3.560   0.219
12414TIP3    H137185   4.734   3.502   0.149
12414TIP3    H237186   4.705   3.505   0.298
12415TIP3   OH237187   4.231   5.776   4.999
12415TIP3    H137188   4.251   5.705   4.938
12415TIP3    H237189   4.292   5.763   5.072
12416TIP3   OH237190   0.178   0.232   2.945
12416TIP3    H137191   0.156   0.190   3.028
12416TIP3    H237192   0.260   0.278   2.962
12417TIP3   OH237193   5.231   5.264   5.797
12417TIP3    H137194   5.252   5.331   5.862
12417TIP3    H237195   5.141   5.237   5.819
12418TIP3   OH237196   5.188   3.398   1.354
12418TIP3    H137197   5.118   3.431   1.298
12418TIP3    H237198   5.153   3.406   1.443
12419TIP3   OH237199   2.073   1.610   0.562
12419TIP3    H137200   2.009   1.663   0.610
12419TIP3    H237201   2.039   1.605   0.473
12420TIP3   OH237202   7.767   0.836   2.459
12420TIP3    H137203   7.845   0.890   2.447
12420TIP3    H237204   7.779   0.762   2.400
12421TIP3   OH237205  -0.004   0.923   1.635
12421TIP3    H137206   0.024   0.858   1.571
12421TIP3    H237207  -0.067   0.977   1.588
12422TIP3   OH237208   6.314   7.799   6.564
12422TIP3    H137209   6.308   7.748   6.483
12422TIP3    H237210   6.359   7.741   6.625
12423TIP3   OH237211   2.148   3.330   3.284
12423TIP3    H137212   2.056   3.352   3.270
12423TIP3    H237213   2.188   3.412   3.315
12424TIP3   OH237214   0.467   5.879   1.041
12424TIP3    H137215   0.437   5.970   1.032
12424TIP3    H237216   0.397   5.827   1.002
12425TIP3   OH237217   5.993   1.437   2.845
12425TIP3    H137218   6.074   1.396   2.876
12425TIP3    H237219   5.928   1.367   2.846
12426TIP3   OH237220   1.398   1.317   1.728
12426TIP3    H137221   1.375   1.343   1.817
12426TIP3    H237222   1.444   1.234   1.739
12427TIP3   OH237223   7.867   7.700   0.925
12427TIP3    H137224   7.888   7.737   1.011
12427TIP3    H237225   7.773   7.683   0.928
12428TIP3   OH237226   1.135   0.993   6.440
12428TIP3    H137227   1.151   0.992   6.534
12428TIP3    H237228   1.201   0.934   6.403
12429TIP3   OH237229   3.941   6.339   2.274
12429TIP3    H137230   3.977   6.352   2.186
12429TIP3    H237231   3.967   6.418   2.321
12430TIP3   OH237232   6.955   5.457   1.298
12430TIP3    H137233   7.037   5.414   1.274
12430TIP3    H237234   6.889   5.389   1.292
12431TIP3   OH237235   3.200   1.796   0.279
12431TIP3    H137236   3.185   1.822   0.188
12431TIP3    H237237   3.295   1.803   0.291
12432TIP3   OH237238   6.226   3.958   1.905
12432TIP3    H137239   6.208   3.924   1.817
12432TIP3    H237240   6.230   4.053   1.894
12433TIP3   OH237241   5.143   6.220   2.241
12433TIP3    H137242   5.182   6.302   2.270
12433TIP3    H237243   5.099   6.185   2.318
12434TIP3   OH237244   2.381   3.023   1.453
12434TIP3    H137245   2.311   3.052   1.512
12434TIP3    H237246   2.409   3.103   1.409
12435TIP3   OH237247   4.809   4.623   4.829
12435TIP3    H137248   4.889   4.594   4.873
12435TIP3    H237249   4.801   4.563   4.755
12436TIP3   OH237250   6.003   4.679   1.345
12436TIP3    H137251   5.910   4.656   1.337
12436TIP3    H237252   6.005   4.743   1.416
12437TIP3   OH237253   0.603   5.228   3.809
12437TIP3    H137254   0.588   5.260   3.898
12437TIP3    H237255   0.667   5.289   3.772
12438TIP3   OH237256   2.246   3.476   1.328
12438TIP3    H137257   2.208   3.390   1.345
12438TIP3    H237258   2.246   3.484   1.232
12439TIP3   OH237259   3.938   2.069   1.262
12439TIP3    H137260   3.928   2.041   1.171
12439TIP3    H237261   3.970   1.991   1.308
12440TIP3   OH237262   8.118   1.696   5.036
12440TIP3    H137263   8.122   1.607   5.070
12440TIP3    H237264   8.182   1.744   5.088
12441TIP3   OH237265   0.626   6.322   3.023
12441TIP3    H137266   0.543   6.371   3.021
12441TIP3    H237267   0.680   6.371   3.085
12442TIP3   OH237268   3.186   7.050   2.625
12442TIP3    H137269   3.263   7.003   2.593
12442TIP3    H237270   3.112   7.000   2.591
12443TIP3   OH237271   5.153   1.611   5.444
12443TIP3    H137272   5.152   1.571   5.531
12443TIP3    H237273   5.246   1.614   5.420
12444TIP3   OH237274   7.405   2.631   4.995
12444TIP3    H137275   7.373   2.563   5.054
12444TIP3    H237276   7.495   2.605   4.974
12445TIP3   OH237277   7.012   4.784   4.774
12445TIP3    H137278   6.954   4.708   4.760
12445TIP3    H237279   6.966   4.837   4.838
12446TIP3   OH237280   6.662   3.650   5.470
12446TIP3    H137281   6.695   3.731   5.510
12446TIP3    H237282   6.569   3.649   5.493
12447TIP3   OH237283   5.846   3.942   3.051
12447TIP3    H137284   5.896   3.943   3.133
12447TIP3    H237285   5.831   3.849   3.033
12448TIP3   OH237286   5.926   0.793   1.282
12448TIP3    H137287   5.922   0.756   1.194
12448TIP3    H237288   5.843   0.839   1.293
12449TIP3   OH237289   0.777   4.642   0.439
12449TIP3    H137290   0.757   4.730   0.471
12449TIP3    H237291   0.725   4.584   0.495
12450TIP3   OH237292   0.404   3.584   3.284
12450TIP3    H137293   0.426   3.647   3.353
12450TIP3    H237294   0.406   3.635   3.203
12451TIP3   OH237295   3.141   4.690   0.463
12451TIP3    H137296   3.048   4.705   0.481
12451TIP3    H237297   3.154   4.596   0.480
12452TIP3   OH237298   3.056   4.894   3.725
12452TIP3    H137299   3.133   4.851   3.688
12452TIP3    H237300   2.987   4.879   3.660
12453TIP3   OH237301   7.599   6.502   0.619
12453TIP3    H137302   7.584   6.586   0.577
12453TIP3    H237303   7.649   6.451   0.555
12454TIP3   OH237304   5.021   2.942   4.000
12454TIP3    H137305   5.093   2.893   4.039
12454TIP3    H237306   5.037   2.939   3.906
12455TIP3   OH237307   3.541   5.614   5.573
12455TIP3    H137308   3.626   5.652   5.550
12455TIP3    H237309   3.532   5.629   5.667
12456TIP3   OH237310   3.329   3.256   4.881
12456TIP3    H137311   3.411   3.223   4.845
12456TIP3    H237312   3.349   3.278   4.972
12457TIP3   OH237313   5.637   7.256   0.778
12457TIP3    H137314   5.662   7.191   0.843
12457TIP3    H237315   5.566   7.215   0.728
12458TIP3   OH237316   3.126   2.636   3.502
12458TIP3    H137317   3.193   2.578   3.465
12458TIP3    H237318   3.077   2.666   3.426
12459TIP3   OH237319   5.278   6.446   0.062
12459TIP3    H137320   5.313   6.369   0.017
12459TIP3    H237321   5.184   6.429   0.068
12460TIP3   OH237322   0.465   1.400   5.325
12460TIP3    H137323   0.524   1.446   5.266
12460TIP3    H237324   0.522   1.350   5.383
12461TIP3   OH237325   4.986   2.287   6.473
12461TIP3    H137326   4.969   2.244   6.556
12461TIP3    H237327   4.980   2.380   6.492
12462TIP3   OH237328   4.135   3.820   5.075
12462TIP3    H137329   4.142   3.767   5.154
12462TIP3    H237330   4.212   3.877   5.077
12463TIP3   OH237331   1.538   1.763   3.880
12463TIP3    H137332   1.458   1.723   3.915
12463TIP3    H237333   1.606   1.741   3.943
12464TIP3   OH237334   7.760   2.001   2.734
12464TIP3    H137335   7.769   2.096   2.737
12464TIP3    H237336   7.768   1.979   2.641
12465TIP3   OH237337   0.077   4.539   0.496
12465TIP3    H137338   0.088   4.534   0.401
12465TIP3    H237339   0.007   4.477   0.515
12466TIP3   OH237340   4.290   3.880   1.658
12466TIP3    H137341   4.288   3.791   1.623
12466TIP3    H237342   4.375   3.888   1.701
12467TIP3   OH237343   5.485   5.541   5.316
12467TIP3    H137344   5.522   5.532   5.228
12467TIP3    H237345   5.433   5.622   5.311
12468TIP3   OH237346   2.077   7.248   4.337
12468TIP3    H137347   2.156   7.268   4.286
12468TIP3    H237348   2.098   7.166   4.382
12469TIP3   OH237349   8.135   5.634   1.962
12469TIP3    H137350   8.216   5.588   1.940
12469TIP3    H237351   8.085   5.636   1.880
12470TIP3   OH237352   0.921   2.895   2.867
12470TIP3    H137353   0.932   2.974   2.814
12470TIP3    H237354   0.829   2.896   2.894
12471TIP3   OH237355   4.265   1.957   0.876
12471TIP3    H137356   4.278   1.933   0.784
12471TIP3    H237357   4.281   2.051   0.878
12472TIP3   OH237358   7.235   2.042   5.061
12472TIP3    H137359   7.245   2.137   5.054
12472TIP3    H237360   7.141   2.027   5.048
12473TIP3   OH237361   2.773   4.387   2.041
12473TIP3    H137362   2.684   4.353   2.038
12473TIP3    H237363   2.829   4.310   2.050
12474TIP3   OH237364   4.780   7.516   2.575
12474TIP3    H137365   4.783   7.439   2.632
12474TIP3    H237366   4.738   7.583   2.628
12475TIP3   OH237367   1.175   5.773   5.395
12475TIP3    H137368   1.243   5.722   5.352
12475TIP3    H237369   1.202   5.774   5.487
12476TIP3   OH237370   8.259   3.041   5.286
12476TIP3    H137371   8.287   3.053   5.195
12476TIP3    H237372   8.243   2.947   5.293
12477TIP3   OH237373   5.695   1.298   4.524
12477TIP3    H137374   5.674   1.353   4.600
12477TIP3    H237375   5.678   1.355   4.449
12478TIP3   OH237376   0.592   6.758   4.555
12478TIP3    H137377   0.619   6.796   4.471
12478TIP3    H237378   0.524   6.817   4.587
12479TIP3   OH237379   1.085   0.291   4.299
12479TIP3    H137380   1.110   0.346   4.224
12479TIP3    H237381   1.095   0.349   4.375
12480TIP3   OH237382   4.917   1.827   4.482
12480TIP3    H137383   4.982   1.863   4.541
12480TIP3    H237384   4.852   1.787   4.539
12481TIP3   OH237385   3.979   2.476   6.662
12481TIP3    H137386   4.021   2.511   6.584
12481TIP3    H237387   3.986   2.381   6.653
12482TIP3   OH237388   0.996   2.168   4.210
12482TIP3    H137389   1.050   2.149   4.132
12482TIP3    H237390   0.956   2.084   4.231
12483TIP3   OH237391   7.501   2.131   0.431
12483TIP3    H137392   7.553   2.175   0.498
12483TIP3    H237393   7.482   2.045   0.467
12484TIP3   OH237394   0.295   3.247   2.832
12484TIP3    H137395   0.359   3.178   2.817
12484TIP3    H237396   0.213   3.211   2.796
12485TIP3   OH237397   8.120   3.249   0.374
12485TIP3    H137398   8.046   3.301   0.344
12485TIP3    H237399   8.080   3.174   0.419
12486TIP3   OH237400   7.494   7.771   2.239
12486TIP3    H137401   7.436   7.843   2.266
12486TIP3    H237402   7.582   7.809   2.244
12487TIP3   OH237403   5.746   4.397   3.044
12487TIP3    H137404   5.686   4.385   3.118
12487TIP3    H237405   5.728   4.485   3.012
12488TIP3   OH237406   1.181   1.862   3.605
12488TIP3    H137407   1.116   1.815   3.553
12488TIP3    H237408   1.229   1.915   3.541
12489TIP3   OH237409   8.035   1.985   3.693
12489TIP3    H137410   8.047   2.068   3.740
12489TIP3    H237411   8.055   2.006   3.602
12490TIP3   OH237412   4.326   3.313   2.351
12490TIP3    H137413   4.420   3.301   2.363
12490TIP3    H237414   4.286   3.273   2.428
12491TIP3   OH237415   2.548   6.452   0.555
12491TIP3    H137416   2.496   6.533   0.557
12491TIP3    H237417   2.488   6.385   0.589
12492TIP3   OH237418   1.856   4.424   4.625
12492TIP3    H137419   1.919   4.362   4.662
12492TIP3    H237420   1.820   4.378   4.549
12493TIP3   OH237421   3.586   0.059   2.143
12493TIP3    H137422   3.565  -0.022   2.189
12493TIP3    H237423   3.681   0.067   2.151
12494TIP3   OH237424   1.601   0.511   5.876
12494TIP3    H137425   1.621   0.558   5.796
12494TIP3    H237426   1.587   0.420   5.848
12495TIP3   OH237427   6.104   5.789   4.176
12495TIP3    H137428   6.095   5.862   4.237
12495TIP3    H237429   6.184   5.744   4.204
12496TIP3   OH237430   0.413   7.776   6.140
12496TIP3    H137431   0.483   7.733   6.091
12496TIP3    H237432   0.364   7.705   6.180
12497TIP3   OH237433   6.075   3.391   1.436
12497TIP3    H137434   6.130   3.351   1.504
12497TIP3    H237435   6.013   3.446   1.484
12498TIP3   OH237436   6.938   5.658   3.833
12498TIP3    H137437   6.974   5.733   3.785
12498TIP3    H237438   6.843   5.674   3.833
12499TIP3   OH237439   8.186   6.672   1.146
12499TIP3    H137440   8.122   6.707   1.083
12499TIP3    H237441   8.195   6.742   1.211
12500TIP3   OH237442   6.689   7.614   5.055
12500TIP3    H137443   6.765   7.614   4.998
12500TIP3    H237444   6.693   7.529   5.100
12501TIP3   OH237445   7.984   1.240   1.836
12501TIP3    H137446   8.077   1.221   1.823
12501TIP3    H237447   7.963   1.305   1.769
12502TIP3   OH237448   3.083   7.624   2.287
12502TIP3    H137449   3.101   7.596   2.378
12502TIP3    H237450   2.997   7.587   2.267
12503TIP3   OH237451   3.029   1.198   2.313
12503TIP3    H137452   3.101   1.246   2.272
12503TIP3    H237453   3.057   1.107   2.309
12504TIP3   OH237454   3.356   3.538   1.580
12504TIP3    H137455   3.306   3.458   1.595
12504TIP3    H237456   3.393   3.528   1.492
12505TIP3   OH237457   7.604   2.808   1.242
12505TIP3    H137458   7.647   2.885   1.204
12505TIP3    H237459   7.511   2.831   1.243
12506TIP3   OH237460   0.985   0.407   6.231
12506TIP3    H137461   1.063   0.398   6.286
12506TIP3    H237462   1.020   0.433   6.145
12507TIP3   OH237463   7.754   1.912   4.680
12507TIP3    H137464   7.761   1.827   4.725
12507TIP3    H237465   7.747   1.889   4.588
12508TIP3   OH237466   0.286   6.380   4.537
12508TIP3    H137467   0.362   6.413   4.489
12508TIP3    H237468   0.317   6.369   4.627
12509TIP3   OH237469   1.533   4.519   3.226
12509TIP3    H137470   1.459   4.575   3.250
12509TIP3    H237471   1.581   4.506   3.308
12510TIP3   OH237472   8.209   6.664   6.338
12510TIP3    H137473   8.139   6.656   6.403
12510TIP3    H237474   8.173   6.722   6.272
12511TIP3   OH237475   4.866   6.046   2.495
12511TIP3    H137476   4.837   6.039   2.586
12511TIP3    H237477   4.947   6.096   2.500
12512TIP3   OH237478   0.456   6.856   0.401
12512TIP3    H137479   0.455   6.951   0.390
12512TIP3    H237480   0.543   6.829   0.372
12513TIP3   OH237481   5.360   2.201   0.638
12513TIP3    H137482   5.336   2.195   0.730
12513TIP3    H237483   5.438   2.257   0.637
12514TIP3   OH237484   0.780   0.079   3.402
12514TIP3    H137485   0.689   0.104   3.417
12514TIP3    H237486   0.778  -0.015   3.388
12515TIP3   OH237487   1.270   1.941   3.077
12515TIP3    H137488   1.206   1.876   3.048
12515TIP3    H237489   1.355   1.902   3.057
12516TIP3   OH237490   5.199   7.673   2.825
12516TIP3    H137491   5.198   7.758   2.781
12516TIP3    H237492   5.265   7.682   2.894
12517TIP3   OH237493   0.654   5.073   5.691
12517TIP3    H137494   0.586   5.045   5.752
12517TIP3    H237495   0.696   5.148   5.733
12518TIP3   OH237496   0.193   2.176   2.262
12518TIP3    H137497   0.171   2.161   2.170
12518TIP3    H237498   0.175   2.269   2.276
12519TIP3   OH237499   5.301   2.627   6.292
12519TIP3    H137500   5.344   2.706   6.325
12519TIP3    H237501   5.240   2.603   6.362
12520TIP3   OH237502   4.472   2.082   6.423
12520TIP3    H137503   4.475   2.152   6.357
12520TIP3    H237504   4.468   2.001   6.372
12521TIP3   OH237505   0.639   4.491   4.609
12521TIP3    H137506   0.698   4.555   4.649
12521TIP3    H237507   0.696   4.435   4.557
12522TIP3   OH237508   5.216   5.839   6.717
12522TIP3    H137509   5.272   5.881   6.652
12522TIP3    H237510   5.263   5.760   6.742
12523TIP3   OH237511   5.783   5.846   5.070
12523TIP3    H137512   5.802   5.792   4.993
12523TIP3    H237513   5.868   5.885   5.094
12524TIP3   OH237514   1.237   4.396   4.847
12524TIP3    H137515   1.267   4.481   4.816
12524TIP3    H237516   1.257   4.335   4.776
12525TIP3   OH237517   5.841   5.622   3.661
12525TIP3    H137518   5.843   5.633   3.566
12525TIP3    H237519   5.914   5.564   3.681
12526TIP3   OH237520   6.784   1.171   6.288
12526TIP3    H137521   6.779   1.136   6.200
12526TIP3    H237522   6.810   1.096   6.342
12527TIP3   OH237523   6.511   2.364   0.724
12527TIP3    H137524   6.532   2.343   0.633
12527TIP3    H237525   6.580   2.322   0.774
12528TIP3   OH237526   0.014   0.987   0.562
12528TIP3    H137527   0.083   0.972   0.498
12528TIP3    H237528  -0.019   0.899   0.583
12529TIP3   OH237529   3.451   6.180   2.417
12529TIP3    H137530   3.524   6.147   2.469
12529TIP3    H237531   3.490   6.244   2.358
12530TIP3   OH237532   2.167   5.799   5.968
12530TIP3    H137533   2.122   5.724   5.929
12530TIP3    H237534   2.256   5.794   5.933
12531TIP3   OH237535   3.399   4.859   2.514
12531TIP3    H137536   3.307   4.878   2.532
12531TIP3    H237537   3.398   4.772   2.474
12532TIP3   OH237538   2.056   2.138   5.219
12532TIP3    H137539   2.033   2.091   5.300
12532TIP3    H237540   2.080   2.070   5.157
12533TIP3   OH237541   2.499   4.926   4.780
12533TIP3    H137542   2.486   4.933   4.875
12533TIP3    H237543   2.543   5.008   4.756
12534TIP3   OH237544   2.403   0.019   0.182
12534TIP3    H137545   2.330  -0.012   0.128
12534TIP3    H237546   2.377  -0.003   0.271
12535TIP3   OH237547   4.794   0.818   4.477
12535TIP3    H137548   4.736   0.801   4.552
12535TIP3    H237549   4.739   0.800   4.401
12536TIP3   OH237550   1.508   6.928   4.035
12536TIP3    H137551   1.595   6.912   4.072
12536TIP3    H237552   1.524   6.988   3.962
12537TIP3   OH237553   5.417   3.906   6.534
12537TIP3    H137554   5.431   3.963   6.610
12537TIP3    H237555   5.503   3.865   6.520
12538TIP3   OH237556   0.078   5.852   3.477
12538TIP3    H137557   0.133   5.775   3.464
12538TIP3    H237558   0.033   5.836   3.560
12539TIP3   OH237559   3.159   5.931   3.404
12539TIP3    H137560   3.245   5.939   3.364
12539TIP3    H237561   3.106   5.999   3.362
12540TIP3   OH237562   8.094   3.747   0.283
12540TIP3    H137563   8.172   3.781   0.325
12540TIP3    H237564   8.123   3.720   0.196
12541TIP3   OH237565   2.036   4.373   1.852
12541TIP3    H137566   2.131   4.363   1.844
12541TIP3    H237567   2.005   4.380   1.762
12542TIP3   OH237568   4.851   4.961   0.228
12542TIP3    H137569   4.822   5.049   0.203
12542TIP3    H237570   4.844   4.960   0.324
12543TIP3   OH237571   2.781   6.563   3.767
12543TIP3    H137572   2.836   6.638   3.787
12543TIP3    H237573   2.778   6.512   3.848
12544TIP3   OH237574   5.540   2.035   0.930
12544TIP3    H137575   5.620   2.085   0.948
12544TIP3    H237576   5.475   2.102   0.906
12545TIP3   OH237577   4.695   0.177   2.461
12545TIP3    H137578   4.781   0.152   2.497
12545TIP3    H237579   4.641   0.194   2.538
12546TIP3   OH237580   6.075   2.660   5.076
12546TIP3    H137581   6.020   2.720   5.024
12546TIP3    H237582   6.020   2.583   5.088
12547TIP3   OH237583   3.051   7.100   5.100
12547TIP3    H137584   3.060   7.182   5.050
12547TIP3    H237585   2.957   7.086   5.106
12548TIP3   OH237586   4.433   4.481   1.223
12548TIP3    H137587   4.456   4.542   1.292
12548TIP3    H237588   4.363   4.427   1.260
12549TIP3   OH237589   2.510   1.975   2.019
12549TIP3    H137590   2.596   2.006   2.048
12549TIP3    H237591   2.485   2.035   1.949
12550TIP3   OH237592   0.428   6.230   3.983
12550TIP3    H137593   0.369   6.291   4.026
12550TIP3    H237594   0.416   6.246   3.890
12551TIP3   OH237595   4.926   1.660   4.023
12551TIP3    H137596   4.967   1.582   4.060
12551TIP3    H237597   4.987   1.691   3.956
12552TIP3   OH237598   0.129   1.194   3.486
12552TIP3    H137599   0.165   1.177   3.574
12552TIP3    H237600   0.136   1.288   3.475
12553TIP3   OH237601   1.723   3.645   0.406
12553TIP3    H137602   1.814   3.617   0.398
12553TIP3    H237603   1.693   3.608   0.489
12554TIP3   OH237604   8.047   0.461   3.922
12554TIP3    H137605   8.082   0.467   4.011
12554TIP3    H237606   8.101   0.394   3.880
12555TIP3   OH237607   4.379   2.002   6.753
12555TIP3    H137608   4.391   1.930   6.692
12555TIP3    H237609   4.468   2.032   6.773
12556TIP3   OH237610   5.469   7.559   2.293
12556TIP3    H137611   5.376   7.554   2.316
12556TIP3    H237612   5.473   7.628   2.227
12557TIP3   OH237613   2.881   1.829   2.666
12557TIP3    H137614   2.860   1.775   2.590
12557TIP3    H237615   2.847   1.916   2.644
12558TIP3   OH237616   1.841   5.709   2.551
12558TIP3    H137617   1.911   5.649   2.576
12558TIP3    H237618   1.859   5.730   2.459
12559TIP3   OH237619   2.434   2.679   1.098
12559TIP3    H137620   2.494   2.639   1.161
12559TIP3    H237621   2.472   2.660   1.012
12560TIP3   OH237622   2.275   5.407   0.897
12560TIP3    H137623   2.182   5.423   0.916
12560TIP3    H237624   2.298   5.334   0.954
12561TIP3   OH237625   6.043   7.297   2.325
12561TIP3    H137626   6.062   7.266   2.236
12561TIP3    H237627   6.020   7.389   2.314
12562TIP3   OH237628   5.152   1.739   5.909
12562TIP3    H137629   5.120   1.827   5.929
12562TIP3    H237630   5.077   1.695   5.867
12563TIP3   OH237631   2.187   5.524   3.535
12563TIP3    H137632   2.267   5.473   3.546
12563TIP3    H237633   2.216   5.604   3.490
12564TIP3   OH237634   5.384   5.647   2.561
12564TIP3    H137635   5.423   5.677   2.479
12564TIP3    H237636   5.321   5.716   2.584
12565TIP3   OH237637   7.612   1.774   3.612
12565TIP3    H137638   7.558   1.803   3.686
12565TIP3    H237639   7.587   1.683   3.598
12566TIP3   OH237640   4.519   5.692   6.102
12566TIP3    H137641   4.464   5.671   6.027
12566TIP3    H237642   4.460   5.739   6.162
12567TIP3   OH237643   1.394   5.299   3.133
12567TIP3    H137644   1.445   5.369   3.092
12567TIP3    H237645   1.429   5.293   3.222
12568TIP3   OH237646   4.392   5.908   1.130
12568TIP3    H137647   4.425   5.895   1.041
12568TIP3    H237648   4.298   5.921   1.119
12569TIP3   OH237649   5.770   6.412   4.082
12569TIP3    H137650   5.775   6.500   4.047
12569TIP3    H237651   5.847   6.367   4.046
12570TIP3   OH237652   4.649   2.511   6.497
12570TIP3    H137653   4.732   2.550   6.469
12570TIP3    H237654   4.667   2.479   6.586
12571TIP3   OH237655   6.611   1.358   3.123
12571TIP3    H137656   6.528   1.342   3.079
12571TIP3    H237657   6.648   1.434   3.078
12572TIP3   OH237658   5.070   4.460   3.051
12572TIP3    H137659   5.097   4.373   3.079
12572TIP3    H237660   5.117   4.520   3.108
12573TIP3   OH237661   0.610   4.102   2.925
12573TIP3    H137662   0.538   4.164   2.938
12573TIP3    H237663   0.568   4.016   2.921
12574TIP3   OH237664   0.714   2.095   0.125
12574TIP3    H137665   0.783   2.041   0.086
12574TIP3    H237666   0.657   2.117   0.051
12575TIP3   OH237667   2.707   1.192   5.683
12575TIP3    H137668   2.648   1.122   5.712
12575TIP3    H237669   2.788   1.147   5.659
12576TIP3   OH237670   8.262   2.806   2.235
12576TIP3    H137671   8.190   2.744   2.222
12576TIP3    H237672   8.239   2.852   2.316
12577TIP3   OH237673   0.353   7.645   3.502
12577TIP3    H137674   0.267   7.653   3.461
12577TIP3    H237675   0.410   7.610   3.433
12578TIP3   OH237676   6.433   1.069   6.043
12578TIP3    H137677   6.475   1.118   5.972
12578TIP3    H237678   6.340   1.067   6.018
12579TIP3   OH237679   3.897   3.774   4.966
12579TIP3    H137680   3.979   3.809   5.003
12579TIP3    H237681   3.926   3.711   4.900
12580TIP3   OH237682   1.460   1.694   6.524
12580TIP3    H137683   1.443   1.769   6.580
12580TIP3    H237684   1.421   1.718   6.440
12581TIP3   OH237685   3.368   1.838   2.169
12581TIP3    H137686   3.288   1.863   2.215
12581TIP3    H237687   3.429   1.909   2.189
12582TIP3   OH237688   6.303   5.528   6.085
12582TIP3    H137689   6.363   5.470   6.037
12582TIP3    H237690   6.238   5.469   6.122
12583TIP3   OH237691   1.466   7.461   5.874
12583TIP3    H137692   1.559   7.444   5.858
12583TIP3    H237693   1.432   7.378   5.907
12584TIP3   OH237694   3.739   2.387   0.848
12584TIP3    H137695   3.693   2.419   0.926
12584TIP3    H237696   3.726   2.292   0.850
12585TIP3   OH237697   1.092   2.360   6.049
12585TIP3    H137698   1.112   2.444   6.006
12585TIP3    H237699   1.046   2.309   5.982
12586TIP3   OH237700   3.852   1.600   6.609
12586TIP3    H137701   3.856   1.504   6.616
12586TIP3    H237702   3.935   1.625   6.569
12587TIP3   OH237703   5.853   4.748   2.771
12587TIP3    H137704   5.904   4.713   2.699
12587TIP3    H237705   5.825   4.835   2.742
12588TIP3   OH237706   5.156   6.456   6.529
12588TIP3    H137707   5.099   6.520   6.571
12588TIP3    H237708   5.098   6.405   6.473
12589TIP3   OH237709   6.233   7.099   2.138
12589TIP3    H137710   6.272   7.175   2.182
12589TIP3    H237711   6.165   7.137   2.082
12590TIP3   OH237712   6.469   0.994   1.352
12590TIP3    H137713   6.451   1.062   1.417
12590TIP3    H237714   6.563   0.998   1.337
12591TIP3   OH237715   4.349   6.796   4.562
12591TIP3    H137716   4.288   6.869   4.569
12591TIP3    H237717   4.357   6.780   4.468
12592TIP3   OH237718   0.110   4.074   4.120
12592TIP3    H137719   0.139   4.117   4.201
12592TIP3    H237720   0.059   3.998   4.150
12593TIP3   OH237721   5.532   4.029   2.267
12593TIP3    H137722   5.496   4.034   2.356
12593TIP3    H237723   5.563   4.117   2.249
12594TIP3   OH237724   2.550   3.489   0.899
12594TIP3    H137725   2.609   3.432   0.948
12594TIP3    H237726   2.571   3.578   0.929
12595TIP3   OH237727   0.894   7.794   6.680
12595TIP3    H137728   0.885   7.849   6.758
12595TIP3    H237729   0.861   7.709   6.707
12596TIP3   OH237730   2.407   0.702   1.976
12596TIP3    H137731   2.395   0.644   1.901
12596TIP3    H237732   2.499   0.694   1.998
12597TIP3   OH237733   5.039   5.719   1.279
12597TIP3    H137734   5.121   5.749   1.318
12597TIP3    H237735   5.000   5.798   1.242
12598TIP3   OH237736   5.646   7.411   3.731
12598TIP3    H137737   5.619   7.337   3.676
12598TIP3    H237738   5.732   7.386   3.765
12599TIP3   OH237739   0.190   5.011   5.504
12599TIP3    H137740   0.233   5.083   5.457
12599TIP3    H237741   0.165   5.049   5.588
12600TIP3   OH237742   1.094   6.348   5.544
12600TIP3    H137743   1.029   6.279   5.532
12600TIP3    H237744   1.169   6.319   5.491
12601TIP3   OH237745   0.298   2.457   5.199
12601TIP3    H137746   0.387   2.425   5.184
12601TIP3    H237747   0.270   2.492   5.115
12602TIP3   OH237748   7.186   1.361   1.621
12602TIP3    H137749   7.131   1.408   1.558
12602TIP3    H237750   7.144   1.275   1.630
12603TIP3   OH237751   1.042   4.297   3.865
12603TIP3    H137752   1.085   4.366   3.915
12603TIP3    H237753   0.978   4.342   3.811
12604TIP3   OH237754   0.534   7.101   6.403
12604TIP3    H137755   0.515   7.053   6.323
12604TIP3    H237756   0.448   7.117   6.443
12605TIP3   OH237757   1.007   5.539   2.420
12605TIP3    H137758   1.048   5.570   2.339
12605TIP3    H237759   0.913   5.535   2.400
12606TIP3   OH237760   5.964   4.930   2.112
12606TIP3    H137761   5.902   4.907   2.043
12606TIP3    H237762   5.984   4.847   2.155
12607TIP3   OH237763   7.797   6.594   1.199
12607TIP3    H137764   7.867   6.530   1.215
12607TIP3    H237765   7.717   6.542   1.204
12608TIP3   OH237766   6.754   5.546   1.030
12608TIP3    H137767   6.661   5.569   1.033
12608TIP3    H237768   6.799   5.627   1.054
12609TIP3   OH237769   5.448   0.168   2.807
12609TIP3    H137770   5.468   0.083   2.844
12609TIP3    H237771   5.386   0.150   2.736
12610TIP3   OH237772   2.378   7.337   6.391
12610TIP3    H137773   2.468   7.347   6.422
12610TIP3    H237774   2.381   7.365   6.299
12611TIP3   OH237775   4.760   5.558   2.175
12611TIP3    H137776   4.727   5.500   2.243
12611TIP3    H237777   4.777   5.641   2.221
12612TIP3   OH237778   4.581   5.344   0.961
12612TIP3    H137779   4.547   5.340   1.050
12612TIP3    H237780   4.676   5.344   0.971
12613TIP3   OH237781   5.246   6.470   5.788
12613TIP3    H137782   5.324   6.415   5.783
12613TIP3    H237783   5.247   6.506   5.876
12614TIP3   OH237784   2.888   0.386   1.112
12614TIP3    H137785   2.823   0.334   1.158
12614TIP3    H237786   2.957   0.401   1.177
12615TIP3   OH237787   2.246   1.817   1.575
12615TIP3    H137788   2.232   1.753   1.506
12615TIP3    H237789   2.340   1.814   1.592
12616TIP3   OH237790   5.145   4.739   3.793
12616TIP3    H137791   5.105   4.825   3.805
12616TIP3    H237792   5.215   4.753   3.730
12617TIP3   OH237793   1.471   1.214   4.997
12617TIP3    H137794   1.493   1.162   4.919
12617TIP3    H237795   1.550   1.264   5.016
12618TIP3   OH237796   4.223   5.685   1.850
12618TIP3    H137797   4.288   5.701   1.919
12618TIP3    H237798   4.144   5.661   1.898
12619TIP3   OH237799   2.974   4.536   2.202
12619TIP3    H137800   3.002   4.468   2.141
12619TIP3    H237801   2.883   4.552   2.179
12620TIP3   OH237802   7.939   0.325   1.420
12620TIP3    H137803   7.920   0.403   1.368
12620TIP3    H237804   8.033   0.331   1.440
12621TIP3   OH237805   0.298   3.730   4.146
12621TIP3    H137806   0.303   3.824   4.163
12621TIP3    H237807   0.381   3.695   4.180
12622TIP3   OH237808   6.324   0.664   0.251
12622TIP3    H137809   6.388   0.717   0.204
12622TIP3    H237810   6.339   0.685   0.343
12623TIP3   OH237811   6.243   2.156   0.799
12623TIP3    H137812   6.324   2.182   0.842
12623TIP3    H237813   6.180   2.224   0.822
12624TIP3   OH237814   4.185   6.127   3.728
12624TIP3    H137815   4.163   6.090   3.642
12624TIP3    H237816   4.250   6.067   3.764
12625TIP3   OH237817   4.388   3.550   4.410
12625TIP3    H137818   4.443   3.483   4.369
12625TIP3    H237819   4.378   3.521   4.501
12626TIP3   OH237820   4.385   5.617   5.861
12626TIP3    H137821   4.474   5.585   5.851
12626TIP3    H237822   4.330   5.543   5.834
12627TIP3   OH237823   1.155   4.379   5.640
12627TIP3    H137824   1.216   4.446   5.611
12627TIP3    H237825   1.077   4.427   5.668
12628TIP3   OH237826   6.590   4.958   1.118
12628TIP3    H137827   6.543   5.032   1.081
12628TIP3    H237828   6.667   4.996   1.161
12629TIP3   OH237829   7.288   5.463   4.750
12629TIP3    H137830   7.222   5.527   4.778
12629TIP3    H237831   7.273   5.387   4.805
12630TIP3   OH237832   1.682   0.739   1.256
12630TIP3    H137833   1.608   0.718   1.312
12630TIP3    H237834   1.737   0.797   1.309
12631TIP3   OH237835   1.908   3.447   1.178
12631TIP3    H137836   1.950   3.530   1.156
12631TIP3    H237837   1.962   3.381   1.134
12632TIP3   OH237838   0.584   0.077   0.246
12632TIP3    H137839   0.554  -0.011   0.267
12632TIP3    H237840   0.504   0.127   0.230
12633TIP3   OH237841   7.496   2.413   6.653
12633TIP3    H137842   7.449   2.385   6.575
12633TIP3    H237843   7.565   2.347   6.665
12634TIP3   OH237844   3.666   5.763   0.181
12634TIP3    H137845   3.647   5.673   0.207
12634TIP3    H237846   3.668   5.812   0.263
12635TIP3   OH237847   5.336   5.297   6.359
12635TIP3    H137848   5.281   5.260   6.289
12635TIP3    H237849   5.286   5.372   6.392
12636TIP3   OH237850   0.740   7.074   1.455
12636TIP3    H137851   0.671   7.065   1.389
12636TIP3    H237852   0.749   6.987   1.492
12637TIP3   OH237853   6.651   6.185   2.833
12637TIP3    H137854   6.718   6.128   2.794
12637TIP3    H237855   6.699   6.238   2.896
12638TIP3   OH237856   4.838   7.561   2.049
12638TIP3    H137857   4.880   7.560   2.135
12638TIP3    H237858   4.822   7.469   2.029
12639TIP3   OH237859   0.423   6.274   3.665
12639TIP3    H137860   0.500   6.261   3.609
12639TIP3    H237861   0.372   6.193   3.654
12640TIP3   OH237862   5.150   0.924   5.618
12640TIP3    H137863   5.196   0.946   5.699
12640TIP3    H237864   5.171   0.996   5.559
12641TIP3   OH237865   2.996   5.174   6.692
12641TIP3    H137866   2.917   5.186   6.638
12641TIP3    H237867   3.035   5.261   6.696
12642TIP3   OH237868   7.492   6.440   5.320
12642TIP3    H137869   7.436   6.363   5.312
12642TIP3    H237870   7.466   6.497   5.247
12643TIP3   OH237871   3.184   1.504   0.166
12643TIP3    H137872   3.235   1.434   0.127
12643TIP3    H237873   3.173   1.477   0.257
12644TIP3   OH237874   7.554   6.894   5.950
12644TIP3    H137875   7.502   6.934   5.881
12644TIP3    H237876   7.642   6.885   5.913
12645TIP3   OH237877   6.785   1.919   4.499
12645TIP3    H137878   6.775   1.870   4.417
12645TIP3    H237879   6.702   1.966   4.509
12646TIP3   OH237880   0.579   1.836   0.857
12646TIP3    H137881   0.591   1.890   0.935
12646TIP3    H237882   0.658   1.850   0.805
12647TIP3   OH237883   3.416   6.198   5.189
12647TIP3    H137884   3.471   6.216   5.113
12647TIP3    H237885   3.398   6.104   5.185
12648TIP3   OH237886   6.271   4.619   6.241
12648TIP3    H137887   6.276   4.700   6.191
12648TIP3    H237888   6.210   4.564   6.191
12649TIP3   OH237889   6.931   4.418   2.726
12649TIP3    H137890   7.017   4.406   2.685
12649TIP3    H237891   6.950   4.436   2.818
12650TIP3   OH237892   2.915   1.786   1.074
12650TIP3    H137893   2.974   1.743   1.136
12650TIP3    H237894   2.837   1.806   1.125
12651TIP3   OH237895   4.894   6.086   4.468
12651TIP3    H137896   4.848   6.169   4.481
12651TIP3    H237897   4.929   6.091   4.379
12652TIP3   OH237898   0.175   6.637   3.807
12652TIP3    H137899   0.161   6.727   3.777
12652TIP3    H237900   0.221   6.595   3.735
12653TIP3   OH237901   6.231   6.026   2.445
12653TIP3    H137902   6.202   5.955   2.502
12653TIP3    H237903   6.275   6.088   2.503
12654TIP3   OH237904   4.075   4.674   1.190
12654TIP3    H137905   4.029   4.590   1.185
12654TIP3    H237906   4.075   4.695   1.283
12655TIP3   OH237907   0.378   4.704   2.854
12655TIP3    H137908   0.301   4.670   2.807
12655TIP3    H237909   0.404   4.633   2.912
12656TIP3   OH237910   7.026   3.944   2.474
12656TIP3    H137911   6.960   3.970   2.539
12656TIP3    H237912   7.108   3.977   2.510
12657TIP3   OH237913   4.465   7.620   0.878
12657TIP3    H137914   4.436   7.581   0.796
12657TIP3    H237915   4.438   7.712   0.872
12658TIP3   OH237916   8.279   6.288   2.670
12658TIP3    H137917   8.275   6.221   2.602
12658TIP3    H237918   8.232   6.363   2.633
12659TIP3   OH237919   7.851   2.691   1.078
12659TIP3    H137920   7.794   2.759   1.114
12659TIP3    H237921   7.806   2.609   1.097
12660TIP3   OH237922   7.509   5.461   0.116
12660TIP3    H137923   7.491   5.545   0.159
12660TIP3    H237924   7.603   5.447   0.131
12661TIP3   OH237925   6.903   4.065   1.091
12661TIP3    H137926   6.958   4.127   1.138
12661TIP3    H237927   6.963   3.998   1.059
12662TIP3   OH237928   1.879   7.772   0.973
12662TIP3    H137929   1.887   7.849   0.916
12662TIP3    H237930   1.791   7.778   1.009
12663TIP3   OH237931   3.197   4.767   4.472
12663TIP3    H137932   3.198   4.673   4.491
12663TIP3    H237933   3.287   4.787   4.449
12664TIP3   OH237934   7.771   1.483   3.910
12664TIP3    H137935   7.764   1.554   3.974
12664TIP3    H237936   7.680   1.459   3.891
12665TIP3   OH237937   4.471   2.231   5.198
12665TIP3    H137938   4.401   2.239   5.133
12665TIP3    H237939   4.542   2.187   5.152
12666TIP3   OH237940   1.667   2.927   0.576
12666TIP3    H137941   1.593   2.987   0.569
12666TIP3    H237942   1.634   2.844   0.542
12667TIP3   OH237943   5.564   5.524   3.041
12667TIP3    H137944   5.651   5.494   3.014
12667TIP3    H237945   5.562   5.617   3.018
12668TIP3   OH237946   5.522   5.464   5.050
12668TIP3    H137947   5.476   5.501   4.975
12668TIP3    H237948   5.609   5.443   5.018
12669TIP3   OH237949   7.246   6.197   1.931
12669TIP3    H137950   7.165   6.181   1.979
12669TIP3    H237951   7.217   6.227   1.844
12670TIP3   OH237952   4.795   6.506   2.316
12670TIP3    H137953   4.812   6.413   2.331
12670TIP3    H237954   4.828   6.550   2.395
12671TIP3   OH237955   5.861   6.584   5.798
12671TIP3    H137956   5.944   6.619   5.764
12671TIP3    H237957   5.834   6.520   5.733
12672TIP3   OH237958   7.251   7.183   5.451
12672TIP3    H137959   7.297   7.100   5.435
12672TIP3    H237960   7.274   7.238   5.376
12673TIP3   OH237961   3.415   1.190   4.947
12673TIP3    H137962   3.343   1.253   4.945
12673TIP3    H237963   3.456   1.203   5.033
12674TIP3   OH237964   3.662   4.376   2.708
12674TIP3    H137965   3.621   4.387   2.622
12674TIP3    H237966   3.677   4.281   2.714
12675TIP3   OH237967   5.633   5.905   0.458
12675TIP3    H137968   5.711   5.867   0.499
12675TIP3    H237969   5.654   5.907   0.365
12676TIP3   OH237970   6.972   2.697   4.950
12676TIP3    H137971   7.003   2.758   4.883
12676TIP3    H237972   7.043   2.691   5.013
12677TIP3   OH237973   4.294   7.098   3.931
12677TIP3    H137974   4.372   7.104   3.986
12677TIP3    H237975   4.240   7.173   3.956
12678TIP3   OH237976   1.105  -0.003   2.796
12678TIP3    H137977   1.018   0.008   2.835
12678TIP3    H237978   1.117   0.075   2.743
12679TIP3   OH237979   2.863   5.572   5.334
12679TIP3    H137980   2.924   5.630   5.289
12679TIP3    H237981   2.795   5.554   5.270
12680TIP3   OH237982   1.042   2.091   0.795
12680TIP3    H137983   1.087   2.056   0.872
12680TIP3    H237984   1.100   2.070   0.722
12681TIP3   OH237985   3.542   2.075   2.116
12681TIP3    H137986   3.539   2.046   2.025
12681TIP3    H237987   3.518   2.167   2.113
12682TIP3   OH237988   6.567   4.849   3.880
12682TIP3    H137989   6.654   4.886   3.868
12682TIP3    H237990   6.544   4.816   3.793
12683TIP3   OH237991   2.924   2.110  -0.017
12683TIP3    H137992   2.926   2.108   0.079
12683TIP3    H237993   3.016   2.118  -0.043
12684TIP3   OH237994   3.946   4.464   1.243
12684TIP3    H137995   3.863   4.503   1.269
12684TIP3    H237996   3.926   4.370   1.235
12685TIP3   OH237997   0.450   1.729   0.223
12685TIP3    H137998   0.363   1.706   0.255
12685TIP3    H237999   0.434   1.803   0.163
12686TIP3   OH238000   4.457   0.590   0.570
12686TIP3    H138001   4.473   0.613   0.662
12686TIP3    H238002   4.376   0.540   0.573
12687TIP3   OH238003   0.050   0.666   0.178
12687TIP3    H138004   0.109   0.596   0.152
12687TIP3    H238005  -0.024   0.660   0.117
12688TIP3   OH238006   5.099   5.595   3.260
12688TIP3    H138007   5.191   5.582   3.238
12688TIP3    H238008   5.055   5.518   3.223
12689TIP3   OH238009   3.880   1.142   3.725
12689TIP3    H138010   3.905   1.091   3.648
12689TIP3    H238011   3.871   1.076   3.795
12690TIP3   OH238012   3.116   5.681   6.387
12690TIP3    H138013   3.206   5.666   6.412
12690TIP3    H238014   3.122   5.716   6.298
12691TIP3   OH238015   4.459   7.578   3.416
12691TIP3    H138016   4.514   7.616   3.485
12691TIP3    H238017   4.371   7.579   3.453
12692TIP3   OH238018   7.755   3.269   4.689
12692TIP3    H138019   7.740   3.196   4.629
12692TIP3    H238020   7.844   3.257   4.721
12693TIP3   OH238021   5.251   2.235   4.834
12693TIP3    H138022   5.214   2.195   4.913
12693TIP3    H238023   5.176   2.273   4.789
12694TIP3   OH238024   2.657   0.981   6.019
12694TIP3    H138025   2.588   1.047   6.009
12694TIP3    H238026   2.679   0.984   6.112
12695TIP3   OH238027   3.490   6.568   4.263
12695TIP3    H138028   3.543   6.647   4.252
12695TIP3    H238029   3.544   6.511   4.317
12696TIP3   OH238030   7.339   2.796   1.408
12696TIP3    H138031   7.264   2.802   1.467
12696TIP3    H238032   7.349   2.702   1.391
12697TIP3   OH238033   7.426   6.748   2.218
12697TIP3    H138034   7.495   6.751   2.152
12697TIP3    H238035   7.438   6.663   2.261
12698TIP3   OH238036   3.822   1.447   5.506
12698TIP3    H138037   3.780   1.492   5.580
12698TIP3    H238038   3.860   1.369   5.545
12699TIP3   OH238039   3.185   1.588   2.934
12699TIP3    H138040   3.139   1.603   3.016
12699TIP3    H238041   3.143   1.648   2.872
12700TIP3   OH238042   5.977   4.408   0.334
12700TIP3    H138043   6.063   4.441   0.306
12700TIP3    H238044   5.990   4.382   0.425
12701TIP3   OH238045   5.366   6.403   0.322
12701TIP3    H138046   5.314   6.458   0.380
12701TIP3    H238047   5.342   6.431   0.234
12702TIP3   OH238048   7.548   3.353   2.442
12702TIP3    H138049   7.577   3.404   2.518
12702TIP3    H238050   7.549   3.416   2.370
12703TIP3   OH238051   1.627   6.708   2.358
12703TIP3    H138052   1.613   6.788   2.307
12703TIP3    H238053   1.539   6.680   2.383
12704TIP3   OH238054   1.139   6.662   1.479
12704TIP3    H138055   1.047   6.689   1.484
12704TIP3    H238056   1.180   6.725   1.419
12705TIP3   OH238057   0.961   5.886   1.636
12705TIP3    H138058   0.980   5.793   1.624
12705TIP3    H238059   0.867   5.894   1.618
12706TIP3   OH238060   4.751   5.744   6.771
12706TIP3    H138061   4.829   5.738   6.826
12706TIP3    H238062   4.736   5.655   6.741
12707TIP3   OH238063   4.828   2.734   2.629
12707TIP3    H138064   4.862   2.682   2.701
12707TIP3    H238065   4.901   2.739   2.567
12708TIP3   OH238066   6.912   0.757   4.783
12708TIP3    H138067   7.007   0.768   4.775
12708TIP3    H238068   6.897   0.665   4.762
12709TIP3   OH238069   3.967   1.952   0.999
12709TIP3    H138070   4.052   1.975   0.961
12709TIP3    H238071   3.951   1.862   0.969
12710TIP3   OH238072   8.266   6.659   3.563
12710TIP3    H138073   8.235   6.630   3.477
12710TIP3    H238074   8.188   6.695   3.606
12711TIP3   OH238075   3.008   3.611   2.090
12711TIP3    H138076   3.062   3.533   2.083
12711TIP3    H238077   2.969   3.605   2.178
12712TIP3   OH238078   7.751   5.673   2.098
12712TIP3    H138079   7.765   5.630   2.182
12712TIP3    H238080   7.674   5.728   2.111
12713TIP3   OH238081   1.627   2.245   6.475
12713TIP3    H138082   1.605   2.236   6.382
12713TIP3    H238083   1.678   2.326   6.480
12714TIP3   OH238084   1.031   4.951   2.685
12714TIP3    H138085   0.964   5.008   2.721
12714TIP3    H238086   1.089   4.932   2.759
12715TIP3   OH238087   7.630   3.824   5.361
12715TIP3    H138088   7.552   3.862   5.320
12715TIP3    H238089   7.701   3.843   5.300
12716TIP3   OH238090   3.684   3.706  -0.044
12716TIP3    H138091   3.744   3.632  -0.034
12716TIP3    H238092   3.665   3.734   0.046
12717TIP3   OH238093   4.664   0.529   1.961
12717TIP3    H138094   4.590   0.542   1.902
12717TIP3    H238095   4.658   0.437   1.988
12718TIP3   OH238096   6.063   6.031   1.981
12718TIP3    H138097   6.049   6.095   2.050
12718TIP3    H238098   6.085   6.083   1.904
12719TIP3   OH238099   6.161   2.993   5.049
12719TIP3    H138100   6.185   2.908   5.014
12719TIP3    H238101   6.218   3.055   5.004
12720TIP3   OH238102   1.091   4.006   0.855
12720TIP3    H138103   1.138   3.949   0.916
12720TIP3    H238104   1.131   3.988   0.770
12721TIP3   OH238105   5.358   1.713   3.372
12721TIP3    H138106   5.295   1.673   3.312
12721TIP3    H238107   5.439   1.663   3.357
12722TIP3   OH238108   0.096   5.483   0.633
12722TIP3    H138109   0.029   5.511   0.694
12722TIP3    H238110   0.109   5.558   0.575
12723TIP3   OH238111   3.202   3.354   3.978
12723TIP3    H138112   3.263   3.381   4.047
12723TIP3    H238113   3.224   3.263   3.960
12724TIP3   OH238114   2.007   4.222   4.739
12724TIP3    H138115   2.075   4.219   4.672
12724TIP3    H238116   2.041   4.167   4.810
12725TIP3   OH238117   2.757   1.626   5.281
12725TIP3    H138118   2.670   1.629   5.320
12725TIP3    H238119   2.813   1.672   5.343
12726TIP3   OH238120   5.838   4.841   4.592
12726TIP3    H138121   5.907   4.896   4.630
12726TIP3    H238122   5.834   4.765   4.650
12727TIP3   OH238123   1.945   4.699   5.021
12727TIP3    H138124   2.033   4.705   5.058
12727TIP3    H238125   1.940   4.774   4.960
12728TIP3   OH238126   7.377   6.642   2.588
12728TIP3    H138127   7.459   6.668   2.545
12728TIP3    H238128   7.399   6.637   2.681
12729TIP3   OH238129   0.223   5.205   4.010
12729TIP3    H138130   0.181   5.250   4.084
12729TIP3    H238131   0.191   5.114   4.017
12730TIP3   OH238132   4.800   3.840   4.111
12730TIP3    H138133   4.713   3.861   4.075
12730TIP3    H238134   4.793   3.748   4.137
12731TIP3   OH238135   5.382   2.396   3.518
12731TIP3    H138136   5.377   2.420   3.426
12731TIP3    H238137   5.470   2.423   3.546
12732TIP3   OH238138   1.926   3.030   0.606
12732TIP3    H138139   1.844   2.983   0.586
12732TIP3    H238140   1.904   3.122   0.591
12733TIP3   OH238141   6.463   3.561   4.735
12733TIP3    H138142   6.392   3.506   4.768
12733TIP3    H238143   6.500   3.601   4.813
12734TIP3   OH238144   2.129   2.202   2.754
12734TIP3    H138145   2.051   2.255   2.773
12734TIP3    H238146   2.125   2.187   2.659
12735TIP3   OH238147   2.072   6.147   6.350
12735TIP3    H138148   2.060   6.061   6.310
12735TIP3    H238149   2.167   6.158   6.356
12736TIP3   OH238150   4.811   3.871   1.952
12736TIP3    H138151   4.808   3.790   2.003
12736TIP3    H238152   4.743   3.926   1.990
12737TIP3   OH238153   2.838   7.622   1.026
12737TIP3    H138154   2.791   7.612   1.109
12737TIP3    H238155   2.930   7.614   1.049
12738TIP3   OH238156   1.242   7.136   0.225
12738TIP3    H138157   1.318   7.108   0.276
12738TIP3    H238158   1.278   7.166   0.142
12739TIP3   OH238159   7.508   2.414   2.819
12739TIP3    H138160   7.562   2.343   2.855
12739TIP3    H238161   7.462   2.450   2.895
12740TIP3   OH238162   0.437   3.616   0.669
12740TIP3    H138163   0.341   3.610   0.671
12740TIP3    H238164   0.467   3.529   0.695
12741TIP3   OH238165   1.955   6.217   1.144
12741TIP3    H138166   1.982   6.128   1.121
12741TIP3    H238167   2.028   6.272   1.116
12742TIP3   OH238168   4.434   7.149   5.710
12742TIP3    H138169   4.527   7.166   5.726
12742TIP3    H238170   4.433   7.086   5.638
12743TIP3   OH238171   3.785   4.340   1.859
12743TIP3    H138172   3.820   4.292   1.784
12743TIP3    H238173   3.789   4.277   1.931
12744TIP3   OH238174   3.226   3.683   6.087
12744TIP3    H138175   3.224   3.761   6.143
12744TIP3    H238176   3.313   3.647   6.100
12745TIP3   OH238177   4.259   4.633   0.981
12745TIP3    H138178   4.196   4.662   1.048
12745TIP3    H238179   4.325   4.586   1.031
12746TIP3   OH238180   8.193   3.309   4.305
12746TIP3    H138181   8.282   3.311   4.270
12746TIP3    H238182   8.205   3.315   4.400
12747TIP3   OH238183   0.823   0.078   5.773
12747TIP3    H138184   0.867   0.145   5.825
12747TIP3    H238185   0.875   0.072   5.693
12748TIP3   OH238186   4.583   4.400   3.350
12748TIP3    H138187   4.650   4.458   3.313
12748TIP3    H238188   4.518   4.459   3.387
12749TIP3   OH238189   7.091   0.146   1.585
12749TIP3    H138190   7.137   0.111   1.510
12749TIP3    H238191   7.065   0.069   1.636
12750TIP3   OH238192   3.966   6.425   0.800
12750TIP3    H138193   3.904   6.363   0.837
12750TIP3    H238194   3.988   6.389   0.714
12751TIP3   OH238195   7.105   4.934   6.504
12751TIP3    H138196   7.096   5.007   6.566
12751TIP3    H238197   7.143   4.974   6.425
12752TIP3   OH238198   1.013   4.539   5.023
12752TIP3    H138199   1.064   4.589   5.087
12752TIP3    H238200   0.922   4.561   5.043
12753TIP3   OH238201   6.979   1.366   0.614
12753TIP3    H138202   7.014   1.293   0.665
12753TIP3    H238203   6.927   1.416   0.676
12754TIP3   OH238204   4.840   5.824   0.132
12754TIP3    H138205   4.911   5.761   0.118
12754TIP3    H238206   4.820   5.819   0.225
12755TIP3   OH238207   8.009   1.673   2.256
12755TIP3    H138208   7.964   1.694   2.174
12755TIP3    H238209   7.940   1.639   2.313
12756TIP3   OH238210   0.494   7.420   5.107
12756TIP3    H138211   0.520   7.508   5.136
12756TIP3    H238212   0.405   7.409   5.140
12757TIP3   OH238213   6.797   6.930   4.663
12757TIP3    H138214   6.827   7.021   4.663
12757TIP3    H238215   6.802   6.902   4.572
12758TIP3   OH238216   4.521   4.977   1.764
12758TIP3    H138217   4.568   5.057   1.789
12758TIP3    H238218   4.586   4.926   1.716
12759TIP3   OH238219   6.142   0.463   2.790
12759TIP3    H138220   6.131   0.373   2.758
12759TIP3    H238221   6.190   0.454   2.872
12760TIP3   OH238222   6.810   2.432   6.343
12760TIP3    H138223   6.867   2.460   6.414
12760TIP3    H238224   6.786   2.342   6.364
12761TIP3   OH238225   4.743   0.558   6.725
12761TIP3    H138226   4.766   0.625   6.790
12761TIP3    H238227   4.699   0.605   6.655
12762TIP3   OH238228   5.850   1.138   1.366
12762TIP3    H138229   5.794   1.060   1.370
12762TIP3    H238230   5.793   1.209   1.394
12763TIP3   OH238231   5.721   2.784   4.555
12763TIP3    H138232   5.674   2.789   4.472
12763TIP3    H238233   5.728   2.875   4.585
12764TIP3   OH238234   2.834   2.002   5.297
12764TIP3    H138235   2.895   1.972   5.229
12764TIP3    H238236   2.890   2.046   5.361
12765TIP3   OH238237   5.140   6.694   1.583
12765TIP3    H138238   5.156   6.690   1.677
12765TIP3    H238239   5.227   6.706   1.544
12766TIP3   OH238240   2.890   5.242   2.381
12766TIP3    H138241   2.951   5.233   2.454
12766TIP3    H238242   2.930   5.192   2.309
12767TIP3   OH238243   1.851   1.169   5.429
12767TIP3    H138244   1.790   1.167   5.503
12767TIP3    H238245   1.805   1.218   5.361
12768TIP3   OH238246   1.712   5.503   5.331
12768TIP3    H138247   1.791   5.545   5.364
12768TIP3    H238248   1.690   5.551   5.251
12769TIP3   OH238249   5.641   0.443   2.011
12769TIP3    H138250   5.677   0.513   1.956
12769TIP3    H238251   5.696   0.367   1.992
12770TIP3   OH238252   3.217   7.527   3.947
12770TIP3    H138253   3.192   7.594   4.011
12770TIP3    H238254   3.142   7.467   3.945
12771TIP3   OH238255   2.778   4.631   4.341
12771TIP3    H138256   2.727   4.698   4.386
12771TIP3    H238257   2.810   4.674   4.262
12772TIP3   OH238258   6.495   3.244   5.446
12772TIP3    H138259   6.410   3.267   5.408
12772TIP3    H238260   6.553   3.237   5.370
12773TIP3   OH238261   6.638   2.737   6.666
12773TIP3    H138262   6.668   2.729   6.757
12773TIP3    H238263   6.713   2.773   6.619
12774TIP3   OH238264   5.740   6.379   0.733
12774TIP3    H138265   5.831   6.389   0.705
12774TIP3    H238266   5.742   6.391   0.828
12775TIP3   OH238267   6.964   1.704   4.856
12775TIP3    H138268   6.876   1.710   4.895
12775TIP3    H238269   6.947   1.679   4.765
12776TIP3   OH238270   1.622   1.424   1.617
12776TIP3    H138271   1.674   1.445   1.695
12776TIP3    H238272   1.535   1.404   1.651
12777TIP3   OH238273   2.471   5.164   1.409
12777TIP3    H138274   2.466   5.257   1.387
12777TIP3    H238275   2.446   5.160   1.502
12778TIP3   OH238276   4.798   6.812   2.615
12778TIP3    H138277   4.746   6.893   2.611
12778TIP3    H238278   4.880   6.834   2.571
12779TIP3   OH238279   3.294   6.722   6.452
12779TIP3    H138280   3.306   6.816   6.462
12779TIP3    H238281   3.240   6.696   6.527
12780TIP3   OH238282   6.614   3.727   3.127
12780TIP3    H138283   6.630   3.636   3.151
12780TIP3    H238284   6.519   3.734   3.120
12781TIP3   OH238285   3.558   4.803   6.317
12781TIP3    H138286   3.576   4.710   6.313
12781TIP3    H238287   3.615   4.842   6.250
12782TIP3   OH238288   8.020   5.581   6.397
12782TIP3    H138289   7.958   5.538   6.338
12782TIP3    H238290   7.987   5.563   6.485
12783TIP3   OH238291   7.428   0.558   5.796
12783TIP3    H138292   7.350   0.612   5.784
12783TIP3    H238293   7.471   0.594   5.874
12784TIP3   OH238294   5.417   1.669   5.933
12784TIP3    H138295   5.330   1.701   5.910
12784TIP3    H238296   5.477   1.717   5.876
12785TIP3   OH238297   3.707   6.041   2.043
12785TIP3    H138298   3.690   5.962   2.093
12785TIP3    H238299   3.650   6.107   2.083
12786TIP3   OH238300   0.060   0.459   2.147
12786TIP3    H138301  -0.022   0.502   2.172
12786TIP3    H238302   0.088   0.413   2.226
12787TIP3   OH238303   4.830   6.757   2.929
12787TIP3    H138304   4.838   6.709   2.847
12787TIP3    H238305   4.752   6.720   2.971
12788TIP3   OH238306   5.982   6.720   1.400
12788TIP3    H138307   6.071   6.755   1.391
12788TIP3    H238308   5.933   6.760   1.328
12789TIP3   OH238309   6.184   4.612   6.698
12789TIP3    H138310   6.235   4.661   6.634
12789TIP3    H238311   6.099   4.598   6.655
12790TIP3   OH238312   5.626   0.643   3.358
12790TIP3    H138313   5.712   0.603   3.374
12790TIP3    H238314   5.568   0.604   3.423
12791TIP3   OH238315   3.521   4.679   0.204
12791TIP3    H138316   3.446   4.728   0.239
12791TIP3    H238317   3.597   4.726   0.237
12792TIP3   OH238318   7.128   0.064   6.493
12792TIP3    H138319   7.064   0.085   6.561
12792TIP3    H238320   7.211   0.054   6.541
12793TIP3   OH238321   0.700   7.212   3.376
12793TIP3    H138322   0.717   7.194   3.469
12793TIP3    H238323   0.670   7.128   3.341
12794TIP3   OH238324   3.735   3.920   3.186
12794TIP3    H138325   3.733   3.982   3.114
12794TIP3    H238326   3.657   3.941   3.238
12795TIP3   OH238327   6.424   6.889   3.636
12795TIP3    H138328   6.411   6.839   3.717
12795TIP3    H238329   6.454   6.824   3.572
12796TIP3   OH238330   3.295   5.814   1.025
12796TIP3    H138331   3.314   5.808   1.119
12796TIP3    H238332   3.366   5.765   0.983
12797TIP3   OH238333   7.578   2.358   2.169
12797TIP3    H138334   7.599   2.275   2.212
12797TIP3    H238335   7.532   2.334   2.089
12798TIP3   OH238336   2.175   3.437   1.750
12798TIP3    H138337   2.176   3.517   1.697
12798TIP3    H238338   2.235   3.455   1.822
12799TIP3   OH238339   7.488   1.389   3.212
12799TIP3    H138340   7.481   1.343   3.129
12799TIP3    H238341   7.449   1.329   3.276
12800TIP3   OH238342   1.249   0.602   6.439
12800TIP3    H138343   1.244   0.507   6.452
12800TIP3    H238344   1.209   0.638   6.518
12801TIP3   OH238345   2.439   7.080   1.104
12801TIP3    H138346   2.534   7.080   1.112
12801TIP3    H238347   2.407   7.112   1.188
12802TIP3   OH238348   5.695   6.231   1.601
12802TIP3    H138349   5.737   6.226   1.687
12802TIP3    H238350   5.679   6.324   1.586
12803TIP3   OH238351   6.969   4.160   4.790
12803TIP3    H138352   6.916   4.080   4.783
12803TIP3    H238353   6.967   4.198   4.703
12804TIP3   OH238354   5.029   3.035   2.832
12804TIP3    H138355   5.080   2.975   2.777
12804TIP3    H238356   4.953   3.057   2.778
12805TIP3   OH238357   5.055   2.019   2.941
12805TIP3    H138358   5.150   2.025   2.945
12805TIP3    H238359   5.032   1.948   3.001
12806TIP3   OH238360   4.653   3.179   3.227
12806TIP3    H138361   4.609   3.202   3.145
12806TIP3    H238362   4.583   3.156   3.287
12807TIP3   OH238363   4.202   6.897   6.026
12807TIP3    H138364   4.211   6.852   5.941
12807TIP3    H238365   4.186   6.988   6.003
12808TIP3   OH238366   5.979   1.436   0.947
12808TIP3    H138367   5.899   1.462   0.902
12808TIP3    H238368   6.025   1.519   0.964
12809TIP3   OH238369   4.893   7.692   5.199
12809TIP3    H138370   4.811   7.677   5.246
12809TIP3    H238371   4.959   7.646   5.251
12810TIP3   OH238372   1.733   4.442   5.910
12810TIP3    H138373   1.666   4.373   5.914
12810TIP3    H238374   1.799   4.413   5.973
12811TIP3   OH238375   5.033   5.280   2.578
12811TIP3    H138376   5.126   5.303   2.574
12811TIP3    H238377   5.007   5.265   2.487
12812TIP3   OH238378   5.166   2.269   6.098
12812TIP3    H138379   5.231   2.319   6.050
12812TIP3    H238380   5.084   2.286   6.052
12813TIP3   OH238381   3.518   4.794   4.585
12813TIP3    H138382   3.518   4.703   4.614
12813TIP3    H238383   3.469   4.792   4.502
12814TIP3   OH238384   0.436   5.005   2.609
12814TIP3    H138385   0.453   4.911   2.610
12814TIP3    H238386   0.375   5.019   2.681
12815TIP3   OH238387   3.894   4.523   2.263
12815TIP3    H138388   3.825   4.535   2.197
12815TIP3    H238389   3.862   4.452   2.318
12816TIP3   OH238390   7.907   7.014   0.228
12816TIP3    H138391   7.989   7.054   0.259
12816TIP3    H238392   7.928   6.986   0.138
12817TIP3   OH238393   5.774   0.293   6.173
12817TIP3    H138394   5.757   0.212   6.125
12817TIP3    H238395   5.817   0.350   6.109
12818TIP3   OH238396   7.552   7.190   0.210
12818TIP3    H138397   7.472   7.233   0.182
12818TIP3    H238398   7.543   7.181   0.304
12819TIP3   OH238399   7.156   1.732   2.456
12819TIP3    H138400   7.238   1.682   2.461
12819TIP3    H238401   7.182   1.821   2.478
12820TIP3   OH238402   1.715   5.887   0.867
12820TIP3    H138403   1.650   5.848   0.809
12820TIP3    H238404   1.797   5.879   0.819
12821TIP3   OH238405   1.789   7.250   6.578
12821TIP3    H138406   1.814   7.340   6.595
12821TIP3    H238407   1.714   7.234   6.634
12822TIP3   OH238408   6.697   3.953   0.427
12822TIP3    H138409   6.666   4.042   0.415
12822TIP3    H238410   6.755   3.937   0.352
12823TIP3   OH238411   6.458   5.468   0.960
12823TIP3    H138412   6.459   5.379   0.993
12823TIP3    H238413   6.462   5.458   0.865
12824TIP3   OH238414   7.317   1.098   3.752
12824TIP3    H138415   7.256   1.159   3.708
12824TIP3    H238416   7.340   1.035   3.684
12825TIP3   OH238417   2.512   0.114   2.117
12825TIP3    H138418   2.479   0.028   2.142
12825TIP3    H238419   2.456   0.142   2.046
12826TIP3   OH238420   0.377   0.809   3.314
12826TIP3    H138421   0.295   0.857   3.322
12826TIP3    H238422   0.413   0.838   3.230
12827TIP3   OH238423   4.660   4.450   4.572
12827TIP3    H138424   4.651   4.440   4.478
12827TIP3    H238425   4.714   4.375   4.600
12828TIP3   OH238426   6.405   3.077   6.391
12828TIP3    H138427   6.488   3.087   6.343
12828TIP3    H238428   6.354   3.016   6.338
12829TIP3   OH238429   1.823   6.316   1.881
12829TIP3    H138430   1.786   6.245   1.829
12829TIP3    H238431   1.853   6.274   1.961
12830TIP3   OH238432   0.973   7.321   0.944
12830TIP3    H138433   0.976   7.276   1.028
12830TIP3    H238434   1.039   7.277   0.890
12831TIP3   OH238435   3.058   0.011   0.517
12831TIP3    H138436   3.080   0.104   0.521
12831TIP3    H238437   3.142  -0.034   0.513
12832TIP3   OH238438   6.531   6.415   2.251
12832TIP3    H138439   6.566   6.378   2.170
12832TIP3    H238440   6.570   6.503   2.256
12833TIP3   OH238441   6.389   2.284   4.685
12833TIP3    H138442   6.359   2.375   4.693
12833TIP3    H238443   6.331   2.235   4.743
12834TIP3   OH238444   7.718   4.125   4.111
12834TIP3    H138445   7.715   4.213   4.073
12834TIP3    H238446   7.796   4.126   4.167
12835TIP3   OH238447   0.822   3.192   1.922
12835TIP3    H138448   0.733   3.177   1.890
12835TIP3    H238449   0.826   3.145   2.005
12836TIP3   OH238450   2.491   1.198   0.186
12836TIP3    H138451   2.563   1.176   0.127
12836TIP3    H238452   2.473   1.117   0.234
12837TIP3   OH238453   3.323   1.210   2.530
12837TIP3    H138454   3.367   1.263   2.595
12837TIP3    H238455   3.256   1.162   2.579
12838TIP3   OH238456   7.524   7.679   5.565
12838TIP3    H138457   7.610   7.680   5.524
12838TIP3    H238458   7.539   7.710   5.654
12839TIP3   OH238459   7.695   5.967   3.038
12839TIP3    H138460   7.669   5.875   3.031
12839TIP3    H238461   7.759   5.978   2.967
12840TIP3   OH238462   0.280   0.118   4.326
12840TIP3    H138463   0.302   0.168   4.247
12840TIP3    H238464   0.316   0.170   4.398
12841TIP3   OH238465   5.075   1.366   2.898
12841TIP3    H138466   5.169   1.364   2.880
12841TIP3    H238467   5.037   1.307   2.833
12842TIP3   OH238468   0.191   4.568   1.086
12842TIP3    H138469   0.123   4.576   1.019
12842TIP3    H238470   0.151   4.517   1.155
12843TIP3   OH238471   5.980   7.193   1.534
12843TIP3    H138472   5.976   7.288   1.525
12843TIP3    H238473   5.906   7.170   1.590
12844TIP3   OH238474   3.240   1.591   4.624
12844TIP3    H138475   3.294   1.584   4.703
12844TIP3    H238476   3.235   1.502   4.590
12845TIP3   OH238477   7.309   1.243   2.421
12845TIP3    H138478   7.262   1.178   2.473
12845TIP3    H238479   7.376   1.193   2.375
12846TIP3   OH238480   6.940   7.229   3.484
12846TIP3    H138481   6.990   7.160   3.528
12846TIP3    H238482   6.917   7.191   3.399
12847TIP3   OH238483   0.587   7.389   6.536
12847TIP3    H138484   0.604   7.450   6.608
12847TIP3    H238485   0.672   7.348   6.518
12848TIP3   OH238486   1.054   7.066   5.743
12848TIP3    H138487   1.027   6.991   5.690
12848TIP3    H238488   1.055   7.032   5.833
12849TIP3   OH238489   7.893   6.742   4.439
12849TIP3    H138490   7.814   6.758   4.490
12849TIP3    H238491   7.916   6.651   4.458
12850TIP3   OH238492   3.646   7.673   4.555
12850TIP3    H138493   3.567   7.624   4.530
12850TIP3    H238494   3.696   7.611   4.608
12851TIP3   OH238495   7.466   6.129   3.373
12851TIP3    H138496   7.375   6.134   3.401
12851TIP3    H238497   7.496   6.044   3.406
12852TIP3   OH238498   6.226   6.607   3.700
12852TIP3    H138499   6.184   6.524   3.676
12852TIP3    H238500   6.172   6.641   3.771
12853TIP3   OH238501   6.170   0.938   0.404
12853TIP3    H138502   6.133   0.915   0.318
12853TIP3    H238503   6.255   0.976   0.385
12854TIP3   OH238504   6.530   6.366   3.977
12854TIP3    H138505   6.561   6.438   3.923
12854TIP3    H238506   6.524   6.292   3.917
12855TIP3   OH238507   0.546   0.590   1.614
12855TIP3    H138508   0.485   0.643   1.563
12855TIP3    H238509   0.521   0.606   1.705
12856TIP3   OH238510   1.040   5.069   1.259
12856TIP3    H138511   1.027   5.162   1.242
12856TIP3    H238512   1.092   5.037   1.185
12857TIP3   OH238513   5.695   4.023   4.102
12857TIP3    H138514   5.653   4.046   4.185
12857TIP3    H238515   5.635   4.057   4.035
12858TIP3   OH238516   3.813   2.989   4.259
12858TIP3    H138517   3.840   3.078   4.236
12858TIP3    H238518   3.745   2.967   4.195
12859TIP3   OH238519   4.938   3.388   0.176
12859TIP3    H138520   5.010   3.327   0.191
12859TIP3    H238521   4.957   3.462   0.233
12860TIP3   OH238522   6.358   0.444   1.837
12860TIP3    H138523   6.350   0.477   1.927
12860TIP3    H238524   6.428   0.496   1.799
12861TIP3   OH238525   0.924   4.831   1.641
12861TIP3    H138526   0.983   4.904   1.622
12861TIP3    H238527   0.912   4.835   1.736
12862TIP3   OH238528   6.773   1.154   0.588
12862TIP3    H138529   6.803   1.241   0.563
12862TIP3    H238530   6.794   1.148   0.681
12863TIP3   OH238531   5.820   1.249   2.904
12863TIP3    H138532   5.765   1.170   2.907
12863TIP3    H238533   5.870   1.246   2.985
12864TIP3   OH238534   3.396   6.541   5.853
12864TIP3    H138535   3.318   6.590   5.827
12864TIP3    H238536   3.469   6.598   5.830
12865TIP3   OH238537   0.670   4.512   0.798
12865TIP3    H138538   0.753   4.467   0.785
12865TIP3    H238539   0.626   4.508   0.713
12866TIP3   OH238540   4.937   6.754   3.604
12866TIP3    H138541   4.857   6.702   3.614
12866TIP3    H238542   4.969   6.765   3.693
12867TIP3   OH238543   2.142   7.351   6.111
12867TIP3    H138544   2.199   7.308   6.048
12867TIP3    H238545   2.062   7.370   6.062
12868TIP3   OH238546   8.069   5.559   4.621
12868TIP3    H138547   8.012   5.493   4.661
12868TIP3    H238548   8.075   5.628   4.687
12869TIP3   OH238549   5.750   4.239   5.577
12869TIP3    H138550   5.788   4.326   5.572
12869TIP3    H238551   5.823   4.180   5.559
12870TIP3   OH238552   3.382   0.589   1.122
12870TIP3    H138553   3.404   0.672   1.081
12870TIP3    H238554   3.286   0.586   1.119
12871TIP3   OH238555   0.235   1.994   1.139
12871TIP3    H138556   0.234   1.996   1.234
12871TIP3    H238557   0.205   1.906   1.116
12872TIP3   OH238558   8.135   4.993   3.522
12872TIP3    H138559   8.107   5.056   3.455
12872TIP3    H238560   8.112   5.034   3.605
12873TIP3   OH238561   3.360   1.758   5.946
12873TIP3    H138562   3.269   1.729   5.948
12873TIP3    H238563   3.407   1.689   5.899
12874TIP3   OH238564   6.451   4.779   1.885
12874TIP3    H138565   6.458   4.733   1.969
12874TIP3    H238566   6.420   4.713   1.823
12875TIP3   OH238567   2.706   2.526   2.759
12875TIP3    H138568   2.778   2.567   2.710
12875TIP3    H238569   2.748   2.491   2.837
12876TIP3   OH238570   0.176   3.066   0.765
12876TIP3    H138571   0.238   2.995   0.783
12876TIP3    H238572   0.198   3.133   0.829
12877TIP3   OH238573   7.319   6.652   5.669
12877TIP3    H138574   7.305   6.601   5.749
12877TIP3    H238575   7.272   6.603   5.601
12878TIP3   OH238576   6.717   4.515   5.272
12878TIP3    H138577   6.766   4.549   5.197
12878TIP3    H238578   6.774   4.448   5.309
12879TIP3   OH238579   4.221   7.160   4.216
12879TIP3    H138580   4.165   7.149   4.139
12879TIP3    H238581   4.304   7.192   4.181
12880TIP3   OH238582   2.068   3.321   5.694
12880TIP3    H138583   2.084   3.240   5.741
12880TIP3    H238584   2.101   3.390   5.753
12881TIP3   OH238585   6.892   1.524   3.671
12881TIP3    H138586   6.865   1.586   3.739
12881TIP3    H238587   6.856   1.440   3.700
12882TIP3   OH238588   0.458   2.528   0.856
12882TIP3    H138589   0.497   2.481   0.930
12882TIP3    H238590   0.525   2.526   0.788
12883TIP3   OH238591   0.698   4.284   5.654
12883TIP3    H138592   0.655   4.311   5.735
12883TIP3    H238593   0.627   4.261   5.595
12884TIP3   OH238594   6.200   3.954   0.662
12884TIP3    H138595   6.242   3.893   0.602
12884TIP3    H238596   6.216   3.917   0.749
12885TIP3   OH238597   0.764   6.463   0.105
12885TIP3    H138598   0.800   6.492   0.189
12885TIP3    H238599   0.732   6.374   0.122
12886TIP3   OH238600   6.670   6.072   4.818
12886TIP3    H138601   6.672   5.989   4.866
12886TIP3    H238602   6.685   6.047   4.727
12887TIP3   OH238603   1.531   1.067   1.746
12887TIP3    H138604   1.527   1.016   1.665
12887TIP3    H238605   1.590   1.016   1.803
12888TIP3   OH238606   8.099   7.602   4.786
12888TIP3    H138607   8.133   7.675   4.734
12888TIP3    H238608   8.024   7.570   4.735
12889TIP3   OH238609   2.339   2.251   2.916
12889TIP3    H138610   2.263   2.269   2.861
12889TIP3    H238611   2.321   2.165   2.955
12890TIP3   OH238612   6.543   5.764   5.639
12890TIP3    H138613   6.516   5.695   5.578
12890TIP3    H238614   6.615   5.808   5.595
12891TIP3   OH238615   7.657   6.833   6.277
12891TIP3    H138616   7.653   6.929   6.271
12891TIP3    H238617   7.707   6.806   6.200
12892TIP3   OH238618   0.278   3.219   1.390
12892TIP3    H138619   0.267   3.179   1.476
12892TIP3    H238620   0.222   3.296   1.392
12893TIP3   OH238621   3.318   7.674   4.712
12893TIP3    H138622   3.340   7.764   4.735
12893TIP3    H238623   3.360   7.621   4.781
12894TIP3   OH238624   2.278   3.120   2.465
12894TIP3    H138625   2.351   3.162   2.509
12894TIP3    H238626   2.318   3.053   2.409
12895TIP3   OH238627   3.753   1.387   0.380
12895TIP3    H138628   3.807   1.466   0.379
12895TIP3    H238629   3.669   1.417   0.414
12896TIP3   OH238630   3.987   1.552   3.241
12896TIP3    H138631   3.940   1.470   3.231
12896TIP3    H238632   3.925   1.619   3.212
12897TIP3   OH238633   5.008   1.133   6.148
12897TIP3    H138634   4.948   1.202   6.176
12897TIP3    H238635   5.075   1.130   6.216
12898TIP3   OH238636   7.286   7.285   1.316
12898TIP3    H138637   7.245   7.201   1.339
12898TIP3    H238638   7.332   7.268   1.235
12899TIP3   OH238639   6.336   2.541   6.396
12899TIP3    H138640   6.383   2.555   6.478
12899TIP3    H238641   6.258   2.596   6.402
12900TIP3   OH238642   6.336   2.156   3.166
12900TIP3    H138643   6.397   2.222   3.135
12900TIP3    H238644   6.387   2.104   3.229
12901TIP3   OH238645   4.630   0.061   5.595
12901TIP3    H138646   4.548   0.041   5.640
12901TIP3    H238647   4.646  -0.014   5.538
12902TIP3   OH238648   5.262   0.826   6.494
12902TIP3    H138649   5.286   0.769   6.421
12902TIP3    H238650   5.338   0.882   6.507
12903TIP3   OH238651   1.674   7.726   1.835
12903TIP3    H138652   1.632   7.786   1.773
12903TIP3    H238653   1.683   7.777   1.916
12904TIP3   OH238654   4.523   1.818   3.836
12904TIP3    H138655   4.502   1.733   3.797
12904TIP3    H238656   4.506   1.806   3.930
12905TIP3   OH238657   2.668   3.313   2.995
12905TIP3    H138658   2.619   3.396   2.997
12905TIP3    H238659   2.758   3.339   3.012
12906TIP3   OH238660   0.090   7.734   0.692
12906TIP3    H138661   0.179   7.736   0.656
12906TIP3    H238662   0.066   7.641   0.692
12907TIP3   OH238663   0.492   5.698   1.674
12907TIP3    H138664   0.575   5.721   1.632
12907TIP3    H238665   0.517   5.664   1.760
12908TIP3   OH238666   7.554   7.054   4.650
12908TIP3    H138667   7.513   7.035   4.565
12908TIP3    H238668   7.503   7.003   4.713
12909TIP3   OH238669   4.035   3.248   0.738
12909TIP3    H138670   3.954   3.228   0.784
12909TIP3    H238671   4.099   3.188   0.776
12910TIP3   OH238672   2.602   2.588   1.357
12910TIP3    H138673   2.657   2.516   1.326
12910TIP3    H238674   2.528   2.546   1.400
12911TIP3   OH238675   7.762   1.630   4.668
12911TIP3    H138676   7.835   1.642   4.608
12911TIP3    H238677   7.801   1.593   4.747
12912TIP3   OH238678   7.613   2.203   3.384
12912TIP3    H138679   7.582   2.127   3.434
12912TIP3    H238680   7.539   2.263   3.383
12913TIP3   OH238681   4.364   5.559   4.824
12913TIP3    H138682   4.437   5.562   4.885
12913TIP3    H238683   4.348   5.465   4.811
12914TIP3   OH238684   6.242   2.724   0.074
12914TIP3    H138685   6.250   2.801   0.130
12914TIP3    H238686   6.202   2.658   0.130
12915TIP3   OH238687   7.164   4.362   5.146
12915TIP3    H138688   7.193   4.333   5.059
12915TIP3    H238689   7.211   4.305   5.207
12916TIP3   OH238690   5.887   1.138   3.255
12916TIP3    H138691   5.978   1.115   3.237
12916TIP3    H238692   5.843   1.055   3.274
12917TIP3   OH238693   7.395   4.013   1.640
12917TIP3    H138694   7.461   4.024   1.708
12917TIP3    H238695   7.446   4.008   1.559
12918TIP3   OH238696   1.387   6.098   5.632
12918TIP3    H138697   1.293   6.096   5.615
12918TIP3    H238698   1.397   6.155   5.708
12919TIP3   OH238699   0.430   3.323   3.203
12919TIP3    H138700   0.426   3.406   3.250
12919TIP3    H238701   0.359   3.328   3.139
12920TIP3   OH238702   2.362   2.880   6.624
12920TIP3    H138703   2.417   2.830   6.684
12920TIP3    H238704   2.401   2.864   6.538
12921TIP3   OH238705   0.463   0.479   5.318
12921TIP3    H138706   0.452   0.551   5.379
12921TIP3    H238707   0.552   0.490   5.283
12922TIP3   OH238708   0.153   5.234   0.327
12922TIP3    H138709   0.147   5.228   0.422
12922TIP3    H238710   0.139   5.327   0.308
12923TIP3   OH238711   0.348   1.266   1.753
12923TIP3    H138712   0.342   1.182   1.707
12923TIP3    H238713   0.386   1.244   1.838
12924TIP3   OH238714   5.477   1.191   3.530
12924TIP3    H138715   5.399   1.136   3.528
12924TIP3    H238716   5.518   1.179   3.444
12925TIP3   OH238717   1.913   6.573   1.624
12925TIP3    H138718   1.965   6.537   1.552
12925TIP3    H238719   1.832   6.522   1.623
12926TIP3   OH238720   6.286   5.086   1.405
12926TIP3    H138721   6.314   5.171   1.439
12926TIP3    H238722   6.251   5.040   1.482
12927TIP3   OH238723   2.100   2.614   5.614
12927TIP3    H138724   2.156   2.540   5.589
12927TIP3    H238725   2.018   2.573   5.643
12928TIP3   OH238726   4.604   2.748   5.262
12928TIP3    H138727   4.647   2.807   5.200
12928TIP3    H238728   4.672   2.683   5.283
12929TIP3   OH238729   1.057   5.801   1.281
12929TIP3    H138730   1.005   5.752   1.218
12929TIP3    H238731   1.012   5.885   1.290
12930TIP3   OH238732   6.195   2.057   5.257
12930TIP3    H138733   6.166   1.969   5.281
12930TIP3    H238734   6.266   2.042   5.194
12931TIP3   OH238735   8.004   3.290   3.177
12931TIP3    H138736   8.065   3.362   3.159
12931TIP3    H238737   7.920   3.321   3.143
12932TIP3   OH238738   3.873   2.597   0.240
12932TIP3    H138739   3.901   2.541   0.168
12932TIP3    H238740   3.783   2.569   0.259
12933TIP3   OH238741   5.199   7.305   2.040
12933TIP3    H138742   5.240   7.379   1.994
12933TIP3    H238743   5.190   7.336   2.130
12934TIP3   OH238744   7.964   4.631   2.783
12934TIP3    H138745   7.887   4.586   2.817
12934TIP3    H238746   7.968   4.713   2.834
12935TIP3   OH238747   4.314   7.080   2.632
12935TIP3    H138748   4.360   7.103   2.713
12935TIP3    H238749   4.244   7.021   2.660
12936TIP3   OH238750   4.857   5.177   1.855
12936TIP3    H138751   4.857   5.149   1.947
12936TIP3    H238752   4.812   5.262   1.856
12937TIP3   OH238753   4.418   1.153   4.783
12937TIP3    H138754   4.422   1.163   4.688
12937TIP3    H238755   4.327   1.130   4.801
12938TIP3   OH238756   6.347   4.432   5.960
12938TIP3    H138757   6.267   4.411   6.007
12938TIP3    H238758   6.399   4.352   5.963
12939TIP3   OH238759   6.688   7.348   6.311
12939TIP3    H138760   6.620   7.389   6.258
12939TIP3    H238761   6.681   7.255   6.292
12940TIP3   OH238762   6.006   2.742   2.544
12940TIP3    H138763   6.039   2.684   2.612
12940TIP3    H238764   5.976   2.684   2.474
12941TIP3   OH238765   1.652   4.317   4.992
12941TIP3    H138766   1.632   4.402   4.953
12941TIP3    H238767   1.735   4.291   4.953
12942TIP3   OH238768   7.855   6.782   1.560
12942TIP3    H138769   7.786   6.764   1.496
12942TIP3    H238770   7.923   6.825   1.509
12943TIP3   OH238771   6.266   5.011   2.705
12943TIP3    H138772   6.185   4.986   2.750
12943TIP3    H238773   6.271   5.106   2.716
12944TIP3   OH238774   7.204   1.803   4.740
12944TIP3    H138775   7.186   1.884   4.694
12944TIP3    H238776   7.120   1.778   4.779
12945TIP3   OH238777   1.041   5.965   0.890
12945TIP3    H138778   1.015   5.920   0.970
12945TIP3    H238779   1.081   6.047   0.920
12946TIP3   OH238780   4.018   6.335   2.016
12946TIP3    H138781   4.031   6.240   2.017
12946TIP3    H238782   4.087   6.369   1.960
12947TIP3   OH238783   4.927   6.327   1.471
12947TIP3    H138784   4.841   6.301   1.438
12947TIP3    H238785   4.961   6.387   1.405
12948TIP3   OH238786   2.781   4.679   0.777
12948TIP3    H138787   2.870   4.712   0.789
12948TIP3    H238788   2.727   4.757   0.766
12949TIP3   OH238789   0.090   6.571   2.766
12949TIP3    H138790   0.109   6.539   2.854
12949TIP3    H238791  -0.004   6.558   2.755
12950TIP3   OH238792   4.213   6.009   1.837
12950TIP3    H138793   4.158   6.009   1.914
12950TIP3    H238794   4.193   5.927   1.792
12951TIP3   OH238795   2.592   0.514   5.151
12951TIP3    H138796   2.504   0.541   5.124
12951TIP3    H238797   2.586   0.419   5.159
12952TIP3   OH238798   0.540   4.116   2.317
12952TIP3    H138799   0.515   4.192   2.266
12952TIP3    H238800   0.630   4.134   2.345
12953TIP3   OH238801   2.734   5.639   0.083
12953TIP3    H138802   2.825   5.646   0.057
12953TIP3    H238803   2.701   5.729   0.082
12954TIP3   OH238804   0.394   6.014   4.171
12954TIP3    H138805   0.307   5.984   4.195
12954TIP3    H238806   0.380   6.101   4.134
12955TIP3   OH238807   7.661   4.383   2.334
12955TIP3    H138808   7.572   4.412   2.312
12955TIP3    H238809   7.681   4.428   2.416
12956TIP3   OH238810   1.684   6.126   1.675
12956TIP3    H138811   1.701   6.084   1.590
12956TIP3    H238812   1.590   6.145   1.674
12957TIP3   OH238813   5.183   2.115   5.083
12957TIP3    H138814   5.106   2.092   5.134
12957TIP3    H238815   5.256   2.073   5.128
12958TIP3   OH238816   0.733   6.071   6.699
12958TIP3    H138817   0.683   6.153   6.697
12958TIP3    H238818   0.738   6.043   6.608
12959TIP3   OH238819   6.380   1.283   1.273
12959TIP3    H138820   6.399   1.242   1.188
12959TIP3    H238821   6.305   1.340   1.256
12960TIP3   OH238822   6.438   6.441   4.508
12960TIP3    H138823   6.429   6.536   4.495
12960TIP3    H238824   6.349   6.408   4.499
12961TIP3   OH238825   2.098   3.728   5.714
12961TIP3    H138826   2.091   3.792   5.643
12961TIP3    H238827   2.082   3.778   5.794
12962TIP3   OH238828   4.850   2.775   2.229
12962TIP3    H138829   4.805   2.715   2.289
12962TIP3    H238830   4.785   2.843   2.211
12963TIP3   OH238831   3.580   7.141   5.995
12963TIP3    H138832   3.606   7.162   5.906
12963TIP3    H238833   3.575   7.046   5.998
12964TIP3   OH238834   6.221   2.105   6.659
12964TIP3    H138835   6.297   2.162   6.668
12964TIP3    H238836   6.240   2.051   6.582
12965TIP3   OH238837   3.646   5.835   3.146
12965TIP3    H138838   3.736   5.811   3.124
12965TIP3    H238839   3.608   5.861   3.063
12966TIP3   OH238840   0.228   3.588   5.211
12966TIP3    H138841   0.180   3.568   5.291
12966TIP3    H238842   0.178   3.659   5.170
12967TIP3   OH238843   7.923   2.112   0.506
12967TIP3    H138844   7.904   2.133   0.597
12967TIP3    H238845   8.017   2.095   0.504
12968TIP3   OH238846   0.734   1.497   5.212
12968TIP3    H138847   0.822   1.507   5.248
12968TIP3    H238848   0.747   1.459   5.126
12969TIP3   OH238849   0.716   2.840   1.281
12969TIP3    H138850   0.688   2.894   1.208
12969TIP3    H238851   0.811   2.852   1.285
12970TIP3   OH238852   3.317   6.146   0.957
12970TIP3    H138853   3.297   6.201   0.881
12970TIP3    H238854   3.244   6.084   0.961
12971TIP3   OH238855   2.177   7.461   3.316
12971TIP3    H138856   2.204   7.553   3.330
12971TIP3    H238857   2.142   7.459   3.227
12972TIP3   OH238858   2.026   4.735   6.068
12972TIP3    H138859   2.047   4.667   6.003
12972TIP3    H238860   1.952   4.782   6.029
12973TIP3   OH238861   4.958   4.465   1.682
12973TIP3    H138862   5.005   4.387   1.711
12973TIP3    H238863   4.866   4.441   1.687
12974TIP3   OH238864   4.479   2.040   2.424
12974TIP3    H138865   4.384   2.034   2.430
12974TIP3    H238866   4.511   1.971   2.482
12975TIP3   OH238867   4.397   4.461   6.434
12975TIP3    H138868   4.433   4.416   6.358
12975TIP3    H238869   4.474   4.486   6.486
12976TIP3   OH238870   7.945   7.617   6.174
12976TIP3    H138871   7.885   7.682   6.210
12976TIP3    H238872   7.942   7.544   6.235
12977TIP3   OH238873   0.410   5.064   3.463
12977TIP3    H138874   0.429   5.152   3.495
12977TIP3    H238875   0.348   5.078   3.391
12978TIP3   OH238876   4.116   1.481   0.902
12978TIP3    H138877   4.023   1.505   0.904
12978TIP3    H238878   4.137   1.475   0.809
12979TIP3   OH238879   2.302   2.289   3.230
12979TIP3    H138880   2.298   2.278   3.325
12979TIP3    H238881   2.372   2.353   3.216
12980TIP3   OH238882   1.990   0.066   5.227
12980TIP3    H138883   2.081   0.065   5.198
12980TIP3    H238884   1.961   0.156   5.213
12981TIP3   OH238885   1.612   4.067   3.623
12981TIP3    H138886   1.608   4.009   3.547
12981TIP3    H238887   1.573   4.017   3.694
12982TIP3   OH238888   3.514   4.857   4.063
12982TIP3    H138889   3.581   4.884   4.125
12982TIP3    H238890   3.553   4.785   4.015
12983TIP3   OH238891   0.449   4.489   1.118
12983TIP3    H138892   0.485   4.519   1.201
12983TIP3    H238893   0.355   4.504   1.125
12984TIP3   OH238894   0.228   5.728   4.182
12984TIP3    H138895   0.181   5.810   4.197
12984TIP3    H238896   0.274   5.711   4.265
12985TIP3   OH238897   6.897   5.141   0.256
12985TIP3    H138898   6.908   5.208   0.323
12985TIP3    H238899   6.977   5.089   0.260
12986TIP3   OH238900   3.200   0.035   0.207
12986TIP3    H138901   3.249  -0.045   0.227
12986TIP3    H238902   3.241   0.102   0.261
12987TIP3   OH238903   6.444   5.239   4.986
12987TIP3    H138904   6.526   5.288   4.977
12987TIP3    H238905   6.440   5.184   4.908
12988TIP3   OH238906   2.504   4.252   2.962
12988TIP3    H138907   2.444   4.284   2.894
12988TIP3    H238908   2.590   4.284   2.934
12989TIP3   OH238909   3.940   7.689   1.188
12989TIP3    H138910   3.970   7.642   1.266
12989TIP3    H238911   3.869   7.744   1.220
12990TIP3   OH238912   3.082   4.346   0.050
12990TIP3    H138913   3.146   4.280   0.076
12990TIP3    H238914   3.122   4.429   0.075
12991TIP3   OH238915   8.324   7.785   5.007
12991TIP3    H138916   8.268   7.713   4.978
12991TIP3    H238917   8.341   7.766   5.099
12992TIP3   OH238918   2.313   7.109   0.275
12992TIP3    H138919   2.258   7.136   0.349
12992TIP3    H238920   2.255   7.115   0.199
12993TIP3   OH238921   3.458   4.626   5.007
12993TIP3    H138922   3.393   4.632   5.077
12993TIP3    H238923   3.407   4.604   4.928
12994TIP3   OH238924   6.898   7.107   3.235
12994TIP3    H138925   6.901   7.147   3.148
12994TIP3    H238926   6.815   7.060   3.236
12995TIP3   OH238927   0.119   2.474   5.849
12995TIP3    H138928   0.204   2.517   5.835
12995TIP3    H238929   0.098   2.493   5.941
12996TIP3   OH238930   2.576   7.565   0.929
12996TIP3    H138931   2.634   7.571   1.006
12996TIP3    H238932   2.491   7.539   0.965
12997TIP3   OH238933   0.704   6.457   4.191
12997TIP3    H138934   0.710   6.375   4.141
12997TIP3    H238935   0.757   6.440   4.269
12998TIP3   OH238936   3.064   1.747   3.660
12998TIP3    H138937   2.996   1.814   3.663
12998TIP3    H238938   3.084   1.729   3.752
12999TIP3   OH238939   7.370   5.928   5.188
12999TIP3    H138940   7.375   5.889   5.275
12999TIP3    H238941   7.358   5.853   5.129
13000TIP3   OH238942   0.311   5.688   0.905
13000TIP3    H138943   0.313   5.741   0.825
13000TIP3    H238944   0.354   5.606   0.879
13001TIP3   OH238945   4.790   2.685   3.667
13001TIP3    H138946   4.766   2.639   3.586
13001TIP3    H238947   4.849   2.625   3.712
13002TIP3   OH238948   6.333   3.538   1.461
13002TIP3    H138949   6.350   3.548   1.368
13002TIP3    H238950   6.240   3.513   1.465
13003TIP3   OH238951   8.108   4.137   4.436
13003TIP3    H138952   8.190   4.113   4.479
13003TIP3    H238953   8.109   4.233   4.434
13004TIP3   OH238954   6.135   7.210   4.519
13004TIP3    H138955   6.183   7.292   4.527
13004TIP3    H238956   6.158   7.161   4.598
13005TIP3   OH238957   2.610   6.672   3.568
13005TIP3    H138958   2.553   6.709   3.635
13005TIP3    H238959   2.676   6.623   3.617
13006TIP3   OH238960   1.487   5.126   5.401
13006TIP3    H138961   1.405   5.080   5.415
13006TIP3    H238962   1.547   5.088   5.465
13007TIP3   OH238963   1.869   3.043   6.160
13007TIP3    H138964   1.868   2.964   6.106
13007TIP3    H238965   1.862   3.115   6.098
13008TIP3   OH238966   8.041   6.369   6.569
13008TIP3    H138967   8.041   6.464   6.575
13008TIP3    H238968   8.025   6.340   6.659
13009TIP3   OH238969   2.262   0.843   3.987
13009TIP3    H138970   2.173   0.869   3.964
13009TIP3    H238971   2.315   0.921   3.972
13010TIP3   OH238972   5.487   5.794   2.978
13010TIP3    H138973   5.543   5.830   3.047
13010TIP3    H238974   5.498   5.855   2.905
13011TIP3   OH238975   2.599   6.970   5.816
13011TIP3    H138976   2.559   6.883   5.812
13011TIP3    H238977   2.634   6.976   5.905
13012TIP3   OH238978   7.340   1.891   2.127
13012TIP3    H138979   7.421   1.847   2.152
13012TIP3    H238980   7.284   1.822   2.092
13013TIP3   OH238981   4.368   4.579   0.633
13013TIP3    H138982   4.330   4.584   0.721
13013TIP3    H238983   4.293   4.571   0.574
13014TIP3   OH238984   2.004   3.113   6.524
13014TIP3    H138985   1.959   3.173   6.465
13014TIP3    H238986   1.938   3.088   6.588
13015TIP3   OH238987   4.544   1.250   1.627
13015TIP3    H138988   4.492   1.328   1.606
13015TIP3    H238989   4.515   1.184   1.564
13016TIP3   OH238990   7.310   2.355   3.931
13016TIP3    H138991   7.255   2.287   3.970
13016TIP3    H238992   7.389   2.309   3.902
13017TIP3   OH238993   5.876   4.541   5.553
13017TIP3    H138994   5.850   4.580   5.636
13017TIP3    H238995   5.963   4.506   5.569
13018TIP3   OH238996   2.861   6.754   5.472
13018TIP3    H138997   2.951   6.750   5.439
13018TIP3    H238998   2.847   6.847   5.491
13019TIP3   OH238999   0.012   3.984   5.767
13019TIP3    H139000   0.031   4.070   5.730
13019TIP3    H239001  -0.023   4.002   5.854
13020TIP3   OH239002   0.747   6.001   3.066
13020TIP3    H139003   0.655   5.976   3.079
13020TIP3    H239004   0.747   6.050   2.984
13021TIP3   OH239005   1.320   3.702   0.733
13021TIP3    H139006   1.378   3.730   0.803
13021TIP3    H239007   1.239   3.675   0.778
13022TIP3   OH239008   3.023   3.325   0.187
13022TIP3    H139009   3.054   3.237   0.207
13022TIP3    H239010   3.010   3.325   0.093
13023TIP3   OH239011   0.652   3.253   2.963
13023TIP3    H139012   0.667   3.294   3.049
13023TIP3    H239013   0.647   3.160   2.981
13024TIP3   OH239014   6.645   5.213   0.142
13024TIP3    H139015   6.608   5.286   0.191
13024TIP3    H239016   6.719   5.183   0.195
13025TIP3   OH239017   0.838   3.714   5.740
13025TIP3    H139018   0.866   3.650   5.806
13025TIP3    H239019   0.766   3.672   5.694
13026TIP3   OH239020   0.246   0.926   0.313
13026TIP3    H139021   0.203   0.985   0.251
13026TIP3    H239022   0.337   0.956   0.314
13027TIP3   OH239023   0.847   4.102   5.943
13027TIP3    H139024   0.937   4.081   5.918
13027TIP3    H239025   0.847   4.197   5.955
13028TIP3   OH239026   1.572   1.460   3.847
13028TIP3    H139027   1.653   1.509   3.852
13028TIP3    H239028   1.563   1.438   3.754
13029TIP3   OH239029   2.977   1.512   2.275
13029TIP3    H139030   3.049   1.452   2.297
13029TIP3    H239031   3.015   1.572   2.211
13030TIP3   OH239032   4.044   3.692   4.396
13030TIP3    H139033   3.986   3.754   4.351
13030TIP3    H239034   4.070   3.737   4.476
13031TIP3   OH239035   7.200   7.315   4.742
13031TIP3    H139036   7.283   7.335   4.784
13031TIP3    H239037   7.165   7.399   4.716
13032TIP3   OH239038   0.054   2.158   4.551
13032TIP3    H139039   0.017   2.237   4.511
13032TIP3    H239040   0.129   2.191   4.601
13033TIP3   OH239041   4.705   6.094   6.307
13033TIP3    H139042   4.630   6.151   6.326
13033TIP3    H239043   4.768   6.113   6.376
13034TIP3   OH239044   5.192   2.785   1.413
13034TIP3    H139045   5.197   2.695   1.445
13034TIP3    H239046   5.281   2.819   1.421
13035TIP3   OH239047   1.962   0.873   3.995
13035TIP3    H139048   1.939   0.937   4.062
13035TIP3    H239049   1.894   0.881   3.929
13036TIP3   OH239050   6.545   7.173   5.523
13036TIP3    H139051   6.496   7.094   5.547
13036TIP3    H239052   6.622   7.140   5.476
13037TIP3   OH239053   2.239   0.541   2.611
13037TIP3    H139054   2.313   0.561   2.668
13037TIP3    H239055   2.171   0.507   2.670
13038TIP3   OH239056   4.960   0.015   0.688
13038TIP3    H139057   4.984   0.094   0.737
13038TIP3    H239058   4.924   0.048   0.605
13039TIP3   OH239059   4.858   0.411   3.798
13039TIP3    H139060   4.873   0.431   3.706
13039TIP3    H239061   4.881   0.491   3.845
13040TIP3   OH239062   6.368   5.736   1.029
13040TIP3    H139063   6.297   5.757   1.090
13040TIP3    H239064   6.407   5.656   1.064
13041TIP3   OH239065   3.724   1.341   4.165
13041TIP3    H139066   3.784   1.276   4.129
13041TIP3    H239067   3.692   1.301   4.246
13042TIP3   OH239068   7.170   6.462   5.054
13042TIP3    H139069   7.192   6.433   4.965
13042TIP3    H239070   7.244   6.517   5.080
13043TIP3   OH239071   6.292   1.424   2.484
13043TIP3    H139072   6.273   1.512   2.516
13043TIP3    H239073   6.216   1.401   2.430
13044TIP3   OH239074   2.474   3.058   0.628
13044TIP3    H139075   2.560   3.098   0.641
13044TIP3    H239076   2.477   2.977   0.679
13045TIP3   OH239077   7.373   7.751   0.843
13045TIP3    H139078   7.464   7.753   0.871
13045TIP3    H239079   7.358   7.837   0.804
13046TIP3   OH239080   1.686   4.930   4.718
13046TIP3    H139081   1.626   4.953   4.789
13046TIP3    H239082   1.684   4.835   4.714
13047TIP3   OH239083   5.489   3.589   6.759
13047TIP3    H139084   5.536   3.637   6.827
13047TIP3    H239085   5.553   3.526   6.725
13048TIP3   OH239086   0.237   5.829   1.341
13048TIP3    H139087   0.238   5.747   1.291
13048TIP3    H239088   0.218   5.896   1.276
13049TIP3   OH239089   6.561   3.231   5.836
13049TIP3    H139090   6.630   3.164   5.839
13049TIP3    H239091   6.592   3.294   5.771
13050TIP3   OH239092   0.456   4.253   0.710
13050TIP3    H139093   0.499   4.261   0.795
13050TIP3    H239094   0.448   4.343   0.679
13051TIP3   OH239095   6.207   3.156   0.422
13051TIP3    H139096   6.172   3.210   0.350
13051TIP3    H239097   6.161   3.187   0.500
13052TIP3   OH239098   1.500   1.775   1.259
13052TIP3    H139099   1.524   1.867   1.257
13052TIP3    H239100   1.571   1.730   1.214
13053TIP3   OH239101   6.794   2.139   2.360
13053TIP3    H139102   6.770   2.229   2.338
13053TIP3    H239103   6.888   2.134   2.345
13054TIP3   OH239104   7.591   7.311   0.488
13054TIP3    H139105   7.644   7.234   0.508
13054TIP3    H239106   7.653   7.372   0.446
13055TIP3   OH239107   2.206   3.263   6.617
13055TIP3    H139108   2.130   3.210   6.597
13055TIP3    H239109   2.191   3.294   6.706
13056TIP3   OH239110   1.709   5.183   3.910
13056TIP3    H139111   1.785   5.129   3.887
13056TIP3    H239112   1.712   5.256   3.848
13057TIP3   OH239113   5.306   5.137   4.214
13057TIP3    H139114   5.368   5.069   4.239
13057TIP3    H239115   5.360   5.212   4.188
13058TIP3   OH239116   0.705   2.264   3.183
13058TIP3    H139117   0.796   2.280   3.207
13058TIP3    H239118   0.656   2.330   3.231
13059TIP3   OH239119   5.635   6.766   5.098
13059TIP3    H139120   5.697   6.748   5.027
13059TIP3    H239121   5.592   6.682   5.115
13060TIP3   OH239122   0.009   2.097   3.010
13060TIP3    H139123   0.092   2.062   2.978
13060TIP3    H239124  -0.044   2.110   2.931
13061TIP3   OH239125   1.552   6.948   0.853
13061TIP3    H139126   1.615   6.879   0.872
13061TIP3    H239127   1.605   7.018   0.814
13062TIP3   OH239128   0.423   1.139   4.023
13062TIP3    H139129   0.341   1.092   4.037
13062TIP3    H239130   0.396   1.227   3.998
13063TIP3   OH239131   1.061   7.316   3.683
13063TIP3    H139132   1.112   7.247   3.641
13063TIP3    H239133   1.018   7.362   3.610
13064TIP3   OH239134   6.646   4.965   0.327
13064TIP3    H139135   6.666   4.996   0.238
13064TIP3    H239136   6.612   4.876   0.313
13065TIP3   OH239137   3.118   4.869   2.504
13065TIP3    H139138   3.030   4.836   2.488
13065TIP3    H239139   3.105   4.953   2.548
13066TIP3   OH239140   5.699   3.514   5.472
13066TIP3    H139141   5.627   3.453   5.457
13066TIP3    H239142   5.698   3.529   5.567
13067TIP3   OH239143   5.863   2.469   0.151
13067TIP3    H139144   5.842   2.411   0.077
13067TIP3    H239145   5.954   2.449   0.171
13068TIP3   OH239146   0.389   2.548   5.545
13068TIP3    H139147   0.407   2.462   5.508
13068TIP3    H239148   0.451   2.606   5.502
13069TIP3   OH239149   3.076   1.934   4.059
13069TIP3    H139150   3.013   2.006   4.046
13069TIP3    H239151   3.085   1.927   4.154
13070TIP3   OH239152   6.173   6.211   5.845
13070TIP3    H139153   6.257   6.212   5.892
13070TIP3    H239154   6.195   6.238   5.756
13071TIP3   OH239155   0.226   3.228   3.569
13071TIP3    H139156   0.188   3.257   3.486
13071TIP3    H239157   0.170   3.155   3.596
13072TIP3   OH239158   0.316   0.913   4.817
13072TIP3    H139159   0.367   0.850   4.868
13072TIP3    H239160   0.261   0.958   4.881
13073TIP3   OH239161   1.157   4.280   4.525
13073TIP3    H139162   1.134   4.187   4.532
13073TIP3    H239163   1.082   4.320   4.481
13074TIP3   OH239164   0.903   6.669   6.076
13074TIP3    H139165   0.922   6.752   6.121
13074TIP3    H239166   0.846   6.622   6.137
13075TIP3   OH239167   1.916   6.979   3.405
13075TIP3    H139168   2.000   6.942   3.376
13075TIP3    H239169   1.882   6.915   3.467
13076TIP3   OH239170   2.069   6.580   4.964
13076TIP3    H139171   1.997   6.517   4.965
13076TIP3    H239172   2.145   6.529   4.992
13077TIP3   OH239173   7.441   4.492   2.975
13077TIP3    H139174   7.477   4.407   3.000
13077TIP3    H239175   7.356   4.471   2.936
13078TIP3   OH239176   6.414   0.534   2.689
13078TIP3    H139177   6.372   0.451   2.664
13078TIP3    H239178   6.350   0.601   2.667
13079TIP3   OH239179   7.138   4.350   0.145
13079TIP3    H139180   7.157   4.362   0.052
13079TIP3    H239181   7.219   4.312   0.181
13080TIP3   OH239182   7.397   5.342   1.950
13080TIP3    H139183   7.331   5.395   1.994
13080TIP3    H239184   7.467   5.403   1.929
13081TIP3   OH239185   7.329   2.617   1.725
13081TIP3    H139186   7.422   2.598   1.712
13081TIP3    H239187   7.284   2.557   1.664
13082TIP3   OH239188   7.287   4.039   1.133
13082TIP3    H139189   7.267   4.129   1.158
13082TIP3    H239190   7.209   4.008   1.088
13083TIP3   OH239191   2.101   3.053   2.144
13083TIP3    H139192   2.182   3.075   2.098
13083TIP3    H239193   2.058   2.989   2.087
13084TIP3   OH239194   7.194   2.938   3.511
13084TIP3    H139195   7.215   2.871   3.576
13084TIP3    H239196   7.254   3.010   3.530
13085TIP3   OH239197   4.277   6.434   2.129
13085TIP3    H139198   4.308   6.393   2.048
13085TIP3    H239199   4.356   6.450   2.179
13086TIP3   OH239200   5.943   6.283   6.254
13086TIP3    H139201   5.916   6.351   6.193
13086TIP3    H239202   5.882   6.211   6.239
13087TIP3   OH239203   4.996   5.903   0.781
13087TIP3    H139204   5.033   5.973   0.835
13087TIP3    H239205   5.069   5.874   0.726
13088TIP3   OH239206   0.166   0.756   2.367
13088TIP3    H139207   0.085   0.784   2.324
13088TIP3    H239208   0.160   0.661   2.370
13089TIP3   OH239209   3.688   2.758   6.487
13089TIP3    H139210   3.625   2.744   6.416
13089TIP3    H239211   3.774   2.746   6.446
13090TIP3   OH239212   1.728   5.235   6.631
13090TIP3    H139213   1.762   5.214   6.544
13090TIP3    H239214   1.633   5.238   6.620
13091TIP3   OH239215   5.829   2.828   2.013
13091TIP3    H139216   5.879   2.854   2.090
13091TIP3    H239217   5.895   2.793   1.953
13092TIP3   OH239218   2.687   1.391   3.521
13092TIP3    H139219   2.760   1.330   3.514
13092TIP3    H239220   2.696   1.430   3.608
13093TIP3   OH239221   0.103   2.456   1.075
13093TIP3    H139222   0.150   2.437   1.156
13093TIP3    H239223   0.069   2.371   1.047
13094TIP3   OH239224   6.120   6.168   1.751
13094TIP3    H139225   6.083   6.243   1.704
13094TIP3    H239226   6.185   6.132   1.690
13095TIP3   OH239227   3.508   7.169   5.106
13095TIP3    H139228   3.449   7.185   5.179
13095TIP3    H239229   3.465   7.100   5.055
13096TIP3   OH239230   3.890   3.224   2.244
13096TIP3    H139231   3.868   3.152   2.303
13096TIP3    H239232   3.890   3.301   2.300
13097TIP3   OH239233   3.095   1.088   4.864
13097TIP3    H139234   3.001   1.068   4.869
13097TIP3    H239235   3.101   1.163   4.805
13098TIP3   OH239236   4.149   6.499   1.810
13098TIP3    H139237   4.067   6.477   1.766
13098TIP3    H239238   4.216   6.449   1.764
13099TIP3   OH239239   4.012   4.869   3.326
13099TIP3    H139240   4.033   4.775   3.326
13099TIP3    H239241   4.020   4.895   3.234
13100TIP3   OH239242   3.909   0.496   0.524
13100TIP3    H139243   3.937   0.588   0.527
13100TIP3    H239244   3.919   0.466   0.615
13101TIP3   OH239245   7.038   6.432   0.468
13101TIP3    H139246   7.047   6.377   0.546
13101TIP3    H239247   6.965   6.491   0.488
13102TIP3   OH239248   2.393   3.115   4.133
13102TIP3    H139249   2.359   3.040   4.085
13102TIP3    H239250   2.457   3.155   4.073
13103TIP3   OH239251   6.279   1.405   3.244
13103TIP3    H139252   6.321   1.319   3.251
13103TIP3    H239253   6.212   1.405   3.312
13104TIP3   OH239254   5.276   7.550   4.957
13104TIP3    H139255   5.191   7.581   4.928
13104TIP3    H239256   5.299   7.480   4.895
13105TIP3   OH239257   2.656   3.971   2.024
13105TIP3    H139258   2.711   4.035   2.068
13105TIP3    H239259   2.582   4.021   1.990
13106TIP3   OH239260   4.120   2.589   2.711
13106TIP3    H139261   4.188   2.601   2.777
13106TIP3    H239262   4.159   2.620   2.629
13107TIP3   OH239263   2.558   6.178   3.463
13107TIP3    H139264   2.650   6.176   3.490
13107TIP3    H239265   2.509   6.177   3.545
13108TIP3   OH239266   5.562   1.895   2.287
13108TIP3    H139267   5.489   1.957   2.289
13108TIP3    H239268   5.629   1.936   2.343
13109TIP3   OH239269   3.651   2.353   4.278
13109TIP3    H139270   3.589   2.281   4.285
13109TIP3    H239271   3.596   2.430   4.262
13110TIP3   OH239272   4.813   2.628   6.211
13110TIP3    H139273   4.796   2.667   6.125
13110TIP3    H239274   4.798   2.535   6.198
13111TIP3   OH239275   1.397   2.483   0.842
13111TIP3    H139276   1.492   2.488   0.853
13111TIP3    H239277   1.378   2.542   0.769
13112TIP3   OH239278   0.265   7.499   4.376
13112TIP3    H139279   0.353   7.463   4.385
13112TIP3    H239280   0.278   7.581   4.328
13113TIP3   OH239281   2.874   7.412   2.013
13113TIP3    H139282   2.947   7.466   1.983
13113TIP3    H239283   2.846   7.453   2.095
13114TIP3   OH239284   6.822   3.640   2.540
13114TIP3    H139285   6.835   3.590   2.460
13114TIP3    H239286   6.753   3.703   2.519
13115TIP3   OH239287   4.256   4.910   0.713
13115TIP3    H139288   4.191   4.980   0.725
13115TIP3    H239289   4.204   4.834   0.684
13116TIP3   OH239290   5.891   3.401   2.141
13116TIP3    H139291   5.831   3.351   2.085
13116TIP3    H239292   5.848   3.401   2.227
13117TIP3   OH239293   4.087   2.771   5.117
13117TIP3    H139294   4.026   2.703   5.086
13117TIP3    H239295   4.105   2.823   5.038
13118TIP3   OH239296   2.763   7.268   6.301
13118TIP3    H139297   2.706   7.274   6.224
13118TIP3    H239298   2.808   7.352   6.304
13119TIP3   OH239299   7.177   6.473   4.448
13119TIP3    H139300   7.133   6.551   4.481
13119TIP3    H239301   7.119   6.441   4.379
13120TIP3   OH239302   8.222   0.193   4.134
13120TIP3    H139303   8.217   0.164   4.225
13120TIP3    H239304   8.277   0.127   4.091
13121TIP3   OH239305   1.818   0.655   5.030
13121TIP3    H139306   1.833   0.672   4.937
13121TIP3    H239307   1.726   0.632   5.036
13122TIP3   OH239308   2.625   4.931   0.181
13122TIP3    H139309   2.609   4.960   0.091
13122TIP3    H239310   2.645   4.837   0.172
13123TIP3   OH239311   5.365   1.427   0.557
13123TIP3    H139312   5.447   1.407   0.601
13123TIP3    H239313   5.305   1.357   0.585
13124TIP3   OH239314   8.292   7.072   3.045
13124TIP3    H139315   8.373   7.067   3.096
13124TIP3    H239316   8.239   7.138   3.090
13125TIP3   OH239317   0.856   1.615   0.636
13125TIP3    H139318   0.877   1.709   0.638
13125TIP3    H239319   0.778   1.609   0.581
13126TIP3   OH239320   5.608   4.527   6.628
13126TIP3    H139321   5.567   4.600   6.582
13126TIP3    H239322   5.572   4.531   6.717
13127TIP3   OH239323   5.903   0.618   6.350
13127TIP3    H139324   5.810   0.595   6.355
13127TIP3    H239325   5.949   0.536   6.368
13128TIP3   OH239326   4.280   2.510   1.847
13128TIP3    H139327   4.303   2.478   1.935
13128TIP3    H239328   4.272   2.605   1.857
13129TIP3   OH239329   3.372   0.301   0.285
13129TIP3    H139330   3.414   0.252   0.214
13129TIP3    H239331   3.439   0.363   0.314
13130TIP3   OH239332   4.898   6.333   5.562
13130TIP3    H139333   4.975   6.376   5.526
13130TIP3    H239334   4.840   6.321   5.486
13131TIP3   OH239335   5.061   6.286   5.901
13131TIP3    H139336   5.071   6.369   5.856
13131TIP3    H239337   4.980   6.248   5.865
13132TIP3   OH239338   0.036   5.296   5.314
13132TIP3    H139339   0.125   5.260   5.311
13132TIP3    H239340   0.043   5.371   5.374
13133TIP3   OH239341   4.103   2.923   3.722
13133TIP3    H139342   4.019   2.920   3.768
13133TIP3    H239343   4.157   2.856   3.764
13134TIP3   OH239344   7.050   4.360   2.108
13134TIP3    H139345   7.069   4.451   2.089
13134TIP3    H239346   7.021   4.323   2.024
13135TIP3   OH239347   1.920   7.048   0.243
13135TIP3    H139348   1.937   7.129   0.196
13135TIP3    H239349   1.980   6.984   0.204
13136TIP3   OH239350   7.342   6.124   1.202
13136TIP3    H139351   7.395   6.151   1.128
13136TIP3    H239352   7.368   6.034   1.219
13137TIP3   OH239353   6.982   4.620   6.200
13137TIP3    H139354   6.989   4.626   6.295
13137TIP3    H239355   7.073   4.619   6.169
13138TIP3   OH239356   4.990   7.657   0.828
13138TIP3    H139357   5.001   7.735   0.882
13138TIP3    H239358   5.064   7.601   0.852
13139TIP3   OH239359   4.152   5.758   4.133
13139TIP3    H139360   4.169   5.766   4.227
13139TIP3    H239361   4.229   5.797   4.092
13140TIP3   OH239362   0.895   5.139   2.109
13140TIP3    H139363   0.807   5.161   2.137
13140TIP3    H239364   0.919   5.062   2.161
13141TIP3   OH239365   1.256   3.591   4.742
13141TIP3    H139366   1.246   3.615   4.834
13141TIP3    H239367   1.244   3.674   4.695
13142TIP3   OH239368  -0.026   4.543   5.844
13142TIP3    H139369   0.036   4.476   5.817
13142TIP3    H239370   0.028   4.616   5.874
13143TIP3   OH239371   1.541   2.157   1.469
13143TIP3    H139372   1.603   2.093   1.504
13143TIP3    H239373   1.552   2.234   1.525
13144TIP3   OH239374   7.674   2.445   5.284
13144TIP3    H139375   7.743   2.509   5.272
13144TIP3    H239376   7.704   2.389   5.355
13145TIP3   OH239377   7.652   5.756   6.142
13145TIP3    H139378   7.607   5.721   6.219
13145TIP3    H239379   7.584   5.761   6.075
13146TIP3   OH239380   0.183   6.438   1.738
13146TIP3    H139381   0.264   6.399   1.771
13146TIP3    H239382   0.143   6.369   1.685
13147TIP3   OH239383   3.127   0.103   2.524
13147TIP3    H139384   3.214   0.116   2.562
13147TIP3    H239385   3.133   0.018   2.480
13148TIP3   OH239386   3.449   3.976   3.272
13148TIP3    H139387   3.359   4.008   3.271
13148TIP3    H239388   3.501   4.051   3.301
13149TIP3   OH239389   4.348   1.978   5.030
13149TIP3    H139390   4.348   2.065   5.070
13149TIP3    H239391   4.438   1.965   5.001
13150TIP3   OH239392   5.910   5.744   1.902
13150TIP3    H139393   5.991   5.784   1.871
13150TIP3    H239394   5.899   5.666   1.848
13151TIP3   OH239395   1.905   5.813   5.878
13151TIP3    H139396   1.974   5.838   5.940
13151TIP3    H239397   1.828   5.798   5.933
13152TIP3   OH239398   8.012   7.512   5.186
13152TIP3    H139399   8.066   7.498   5.108
13152TIP3    H239400   8.034   7.600   5.215
13153TIP3   OH239401   4.308   5.299   1.470
13153TIP3    H139402   4.371   5.315   1.540
13153TIP3    H239403   4.222   5.306   1.511
13154TIP3   OH239404   3.316   0.774   1.573
13154TIP3    H139405   3.294   0.775   1.480
13154TIP3    H239406   3.359   0.858   1.589
13155TIP3   OH239407   6.163   0.024   5.513
13155TIP3    H139408   6.184   0.014   5.420
13155TIP3    H239409   6.146   0.117   5.524
13156TIP3   OH239410   4.665   5.255   6.486
13156TIP3    H139411   4.654   5.233   6.393
13156TIP3    H239412   4.759   5.244   6.502
13157TIP3   OH239413   6.587   4.252   3.652
13157TIP3    H139414   6.654   4.218   3.593
13157TIP3    H239415   6.592   4.197   3.730
13158TIP3   OH239416   6.948   5.505   5.069
13158TIP3    H139417   6.915   5.419   5.046
13158TIP3    H239418   6.997   5.492   5.150
13159TIP3   OH239419   1.015   3.583   0.087
13159TIP3    H139420   0.961   3.507   0.112
13159TIP3    H239421   1.050   3.615   0.171
13160TIP3   OH239422   4.936   6.306   5.114
13160TIP3    H139423   5.012   6.329   5.169
13160TIP3    H239424   4.911   6.219   5.144
13161TIP3   OH239425   0.770   3.520   6.161
13161TIP3    H139426   0.699   3.584   6.164
13161TIP3    H239427   0.728   3.438   6.135
13162TIP3   OH239428   3.091   1.316   1.023
13162TIP3    H139429   3.134   1.361   1.096
13162TIP3    H239430   3.044   1.243   1.064
13163TIP3   OH239431   0.295   1.930   1.818
13163TIP3    H139432   0.329   1.979   1.893
13163TIP3    H239433   0.341   1.967   1.742
13164TIP3   OH239434   1.731   3.878   4.128
13164TIP3    H139435   1.667   3.828   4.077
13164TIP3    H239436   1.678   3.937   4.182
13165TIP3   OH239437   1.333   4.386   3.984
13165TIP3    H139438   1.370   4.442   4.052
13165TIP3    H239439   1.392   4.311   3.979
13166TIP3   OH239440   0.794   2.371   1.664
13166TIP3    H139441   0.788   2.361   1.569
13166TIP3    H239442   0.810   2.282   1.696
13167TIP3   OH239443   6.323   0.904   5.091
13167TIP3    H139444   6.282   0.989   5.079
13167TIP3    H239445   6.417   0.921   5.085
13168TIP3   OH239446   2.286   2.819   1.293
13168TIP3    H139447   2.353   2.801   1.228
13168TIP3    H239448   2.330   2.869   1.361
13169TIP3   OH239449   7.141   4.639   3.252
13169TIP3    H139450   7.107   4.597   3.331
13169TIP3    H239451   7.085   4.606   3.182
13170TIP3   OH239452   6.770   0.103   1.557
13170TIP3    H139453   6.847   0.105   1.613
13170TIP3    H239454   6.780   0.023   1.504
13171TIP3   OH239455   3.253   4.490   3.483
13171TIP3    H139456   3.199   4.502   3.406
13171TIP3    H239457   3.343   4.494   3.451
13172TIP3   OH239458   4.073   5.442   1.624
13172TIP3    H139459   4.142   5.408   1.680
13172TIP3    H239460   4.019   5.497   1.681
13173TIP3   OH239461   1.838   5.923   0.178
13173TIP3    H139462   1.791   5.870   0.113
13173TIP3    H239463   1.770   5.966   0.229
13174TIP3   OH239464   4.859   5.240   0.712
13174TIP3    H139465   4.852   5.315   0.771
13174TIP3    H239466   4.897   5.276   0.632
13175TIP3   OH239467   5.748   1.795   5.013
13175TIP3    H139468   5.794   1.800   5.097
13175TIP3    H239469   5.818   1.788   4.948
13176TIP3   OH239470   2.192   1.889   2.730
13176TIP3    H139471   2.099   1.869   2.735
13176TIP3    H239472   2.199   1.981   2.753
13177TIP3   OH239473   0.956   6.144   2.090
13177TIP3    H139474   0.952   6.203   2.014
13177TIP3    H239475   1.030   6.176   2.142
13178TIP3   OH239476   6.255   2.734   2.177
13178TIP3    H139477   6.277   2.775   2.261
13178TIP3    H239478   6.273   2.641   2.192
13179TIP3   OH239479   0.238   5.705   1.586
13179TIP3    H139480   0.250   5.744   1.499
13179TIP3    H239481   0.327   5.697   1.621
13180TIP3   OH239482   4.625   5.176   5.021
13180TIP3    H139483   4.600   5.187   4.929
13180TIP3    H239484   4.655   5.086   5.027
13181TIP3   OH239485   0.555   1.698   5.133
13181TIP3    H139486   0.627   1.639   5.157
13181TIP3    H239487   0.573   1.722   5.043
13182TIP3   OH239488   2.931   4.228   2.486
13182TIP3    H139489   3.017   4.187   2.500
13182TIP3    H239490   2.884   4.165   2.431
13183TIP3   OH239491   6.656   2.589   0.645
13183TIP3    H139492   6.690   2.632   0.724
13183TIP3    H239493   6.619   2.507   0.678
13184TIP3   OH239494   7.926   0.316   0.146
13184TIP3    H139495   8.007   0.288   0.187
13184TIP3    H239496   7.919   0.264   0.066
13185TIP3   OH239497   5.605   1.428   3.592
13185TIP3    H139498   5.552   1.354   3.560
13185TIP3    H239499   5.603   1.491   3.519
13186TIP3   OH239500   3.788   0.565   0.219
13186TIP3    H139501   3.850   0.636   0.203
13186TIP3    H239502   3.839   0.485   0.202
13187TIP3   OH239503   3.325   1.401   3.083
13187TIP3    H139504   3.308   1.473   3.022
13187TIP3    H239505   3.250   1.402   3.143
13188TIP3   OH239506   0.392   6.683   1.591
13188TIP3    H139507   0.343   6.681   1.674
13188TIP3    H239508   0.466   6.625   1.607
13189TIP3   OH239509   1.454   6.447   6.680
13189TIP3    H139510   1.440   6.534   6.719
13189TIP3    H239511   1.425   6.386   6.747
13190TIP3   OH239512   5.528   0.328   1.510
13190TIP3    H139513   5.507   0.283   1.591
13190TIP3    H239514   5.515   0.262   1.442
13191TIP3   OH239515   3.645   0.206   1.197
13191TIP3    H139516   3.692   0.194   1.279
13191TIP3    H239517   3.624   0.300   1.195
13192TIP3   OH239518   6.897   6.043   6.269
13192TIP3    H139519   6.878   6.088   6.187
13192TIP3    H239520   6.827   5.979   6.278
13193TIP3   OH239521   5.633   7.045   0.989
13193TIP3    H139522   5.575   7.075   1.059
13193TIP3    H239523   5.575   6.993   0.932
13194TIP3   OH239524   3.695   1.943   0.356
13194TIP3    H139525   3.746   1.910   0.430
13194TIP3    H239526   3.713   2.037   0.356
13195TIP3   OH239527   3.568   0.592   5.110
13195TIP3    H139528   3.493   0.648   5.132
13195TIP3    H239529   3.533   0.528   5.047
13196TIP3   OH239530   5.127   2.120   2.485
13196TIP3    H139531   5.205   2.066   2.496
13196TIP3    H239532   5.059   2.074   2.535
13197TIP3   OH239533   4.877   2.602   5.922
13197TIP3    H139534   4.802   2.553   5.888
13197TIP3    H239535   4.948   2.539   5.926
13198TIP3   OH239536   3.027   1.514   5.093
13198TIP3    H139537   3.073   1.549   5.169
13198TIP3    H239538   2.962   1.454   5.129
13199TIP3   OH239539   4.803   7.031   5.134
13199TIP3    H139540   4.849   7.044   5.051
13199TIP3    H239541   4.842   6.953   5.172
13200TIP3   OH239542   1.066   4.586   2.929
13200TIP3    H139543   1.031   4.520   2.868
13200TIP3    H239544   1.026   4.565   3.013
13201TIP3   OH239545   1.330   4.472   0.663
13201TIP3    H139546   1.407   4.474   0.607
13201TIP3    H239547   1.364   4.490   0.751
13202TIP3   OH239548   6.688   1.917   1.347
13202TIP3    H139549   6.741   1.914   1.267
13202TIP3    H239550   6.752   1.927   1.418
13203TIP3   OH239551   2.515   3.168   4.356
13203TIP3    H139552   2.490   3.149   4.266
13203TIP3    H239553   2.609   3.187   4.351
13204TIP3   OH239554   6.141   3.702   4.829
13204TIP3    H139555   6.169   3.622   4.784
13204TIP3    H239556   6.057   3.723   4.789
13205TIP3   OH239557   3.877   6.090   5.899
13205TIP3    H139558   3.865   6.047   5.814
13205TIP3    H239559   3.788   6.109   5.929
13206TIP3   OH239560   3.229   1.730  -0.003
13206TIP3    H139561   3.148   1.720  -0.052
13206TIP3    H239562   3.215   1.681   0.078
13207TIP3   OH239563   7.099   0.781   1.147
13207TIP3    H139564   7.008   0.806   1.165
13207TIP3    H239565   7.098   0.685   1.148
13208TIP3   OH239566   2.551   0.939   5.677
13208TIP3    H139567   2.565   0.851   5.712
13208TIP3    H239568   2.461   0.960   5.702
13209TIP3   OH239569   0.706   7.273   1.218
13209TIP3    H139570   0.727   7.296   1.127
13209TIP3    H239571   0.783   7.300   1.268
13210TIP3   OH239572   4.924   6.777   0.485
13210TIP3    H139573   4.874   6.757   0.564
13210TIP3    H239574   4.935   6.693   0.442
13211TIP3   OH239575   0.178   4.724   6.633
13211TIP3    H139576   0.191   4.778   6.712
13211TIP3    H239577   0.127   4.780   6.575
13212TIP3   OH239578   4.521   0.210   4.440
13212TIP3    H139579   4.425   0.212   4.447
13212TIP3    H239580   4.538   0.219   4.346
13213TIP3   OH239581   0.385   5.496   0.062
13213TIP3    H139582   0.300   5.467   0.094
13213TIP3    H239583   0.438   5.416   0.056
13214TIP3   OH239584   7.442   7.545   3.917
13214TIP3    H139585   7.408   7.634   3.930
13214TIP3    H239586   7.538   7.557   3.920
13215TIP3   OH239587   1.068   2.487   2.022
13215TIP3    H139588   0.983   2.493   1.978
13215TIP3    H239589   1.046   2.475   2.114
13216TIP3   OH239590   2.144   6.714   1.608
13216TIP3    H139591   2.149   6.757   1.694
13216TIP3    H239592   2.061   6.667   1.610
13217TIP3   OH239593   1.948   4.842   6.338
13217TIP3    H139594   1.970   4.934   6.326
13217TIP3    H239595   1.979   4.798   6.259
13218TIP3   OH239596   7.637   0.918   3.984
13218TIP3    H139597   7.611   0.828   4.003
13218TIP3    H239598   7.718   0.909   3.933
13219TIP3   OH239599   4.928   7.184   3.847
13219TIP3    H139600   4.962   7.116   3.905
13219TIP3    H239601   4.855   7.142   3.801
13220TIP3   OH239602   6.600   1.921   4.181
13220TIP3    H139603   6.560   1.998   4.141
13220TIP3    H239604   6.533   1.885   4.238
13221TIP3   OH239605   1.629   7.118   4.428
13221TIP3    H139606   1.666   7.098   4.342
13221TIP3    H239607   1.547   7.068   4.432
13222TIP3   OH239608   1.550   7.780   3.054
13222TIP3    H139609   1.600   7.746   3.128
13222TIP3    H239610   1.461   7.788   3.087
13223TIP3   OH239611   7.094   3.897   0.987
13223TIP3    H139612   7.166   3.838   0.964
13223TIP3    H239613   7.036   3.893   0.911
13224TIP3   OH239614   0.812   5.916   1.994
13224TIP3    H139615   0.765   5.908   2.077
13224TIP3    H239616   0.881   5.980   2.012
13225TIP3   OH239617   2.471   3.923   6.471
13225TIP3    H139618   2.388   3.880   6.492
13225TIP3    H239619   2.513   3.865   6.408
13226TIP3   OH239620   2.877   0.228   5.219
13226TIP3    H139621   2.801   0.188   5.262
13226TIP3    H239622   2.939   0.156   5.208
13227TIP3   OH239623   1.089   5.995   5.579
13227TIP3    H139624   1.011   5.976   5.527
13227TIP3    H239625   1.146   5.919   5.566
13228TIP3   OH239626   4.089   1.277   2.891
13228TIP3    H139627   4.054   1.263   2.803
13228TIP3    H239628   4.182   1.261   2.882
13229TIP3   OH239629   2.871   7.120   6.637
13229TIP3    H139630   2.947   7.075   6.675
13229TIP3    H239631   2.799   7.101   6.697
13230TIP3   OH239632   7.339   3.812   0.530
13230TIP3    H139633   7.305   3.724   0.549
13230TIP3    H239634   7.425   3.814   0.573
13231TIP3   OH239635   6.106   5.586   4.676
13231TIP3    H139636   6.049   5.652   4.714
13231TIP3    H239637   6.178   5.577   4.738
13232TIP3   OH239638   4.149   2.924   6.204
13232TIP3    H139639   4.212   2.995   6.215
13232TIP3    H239640   4.089   2.956   6.136
13233TIP3   OH239641   7.677   2.884   4.403
13233TIP3    H139642   7.729   2.812   4.367
13233TIP3    H239643   7.734   2.924   4.469
13234TIP3   OH239644   5.803   5.027   2.999
13234TIP3    H139645   5.858   4.961   3.041
13234TIP3    H239646   5.731   4.977   2.959
13235TIP3   OH239647   1.435   3.207   3.263
13235TIP3    H139648   1.430   3.111   3.257
13235TIP3    H239649   1.424   3.237   3.173
13236TIP3   OH239650   2.209   1.261   0.964
13236TIP3    H139651   2.260   1.289   0.888
13236TIP3    H239652   2.119   1.258   0.932
13237TIP3   OH239653   0.051   3.849   2.369
13237TIP3    H139654   0.043   3.829   2.462
13237TIP3    H239655   0.084   3.938   2.366
13238TIP3   OH239656   1.466   3.657   5.527
13238TIP3    H139657   1.551   3.658   5.482
13238TIP3    H239658   1.402   3.669   5.456
13239TIP3   OH239659   5.434   1.181   6.409
13239TIP3    H139660   5.523   1.206   6.385
13239TIP3    H239661   5.401   1.256   6.460
13240TIP3   OH239662   4.650   1.349   5.368
13240TIP3    H139663   4.641   1.367   5.274
13240TIP3    H239664   4.700   1.268   5.372
13241TIP3   OH239665   1.797   1.035   0.661
13241TIP3    H139666   1.755   1.032   0.747
13241TIP3    H239667   1.725   1.021   0.599
13242TIP3   OH239668   0.175   1.719   4.260
13242TIP3    H139669   0.115   1.786   4.229
13242TIP3    H239670   0.144   1.638   4.219
13243TIP3   OH239671   7.467   6.433   4.470
13243TIP3    H139672   7.496   6.474   4.389
13243TIP3    H239673   7.371   6.434   4.465
13244TIP3   OH239674   5.340   0.804   0.964
13244TIP3    H139675   5.346   0.712   0.987
13244TIP3    H239676   5.268   0.809   0.902
13245TIP3   OH239677   1.363   0.622   5.600
13245TIP3    H139678   1.329   0.691   5.543
13245TIP3    H239679   1.457   0.641   5.607
13246TIP3   OH239680   2.044   6.057   6.739
13246TIP3    H139681   1.989   6.100   6.673
13246TIP3    H239682   1.992   6.059   6.819
13247TIP3   OH239683   3.172   5.721   2.097
13247TIP3    H139684   3.096   5.708   2.154
13247TIP3    H239685   3.197   5.813   2.111
13248TIP3   OH239686   4.541   5.368   2.012
13248TIP3    H139687   4.617   5.423   1.992
13248TIP3    H239688   4.499   5.412   2.086
13249TIP3   OH239689   2.446   3.530   1.533
13249TIP3    H139690   2.470   3.443   1.565
13249TIP3    H239691   2.394   3.513   1.454
13250TIP3   OH239692   1.985   1.222   0.367
13250TIP3    H139693   2.014   1.271   0.290
13250TIP3    H239694   2.062   1.171   0.393
13251TIP3   OH239695   2.962   5.194   0.882
13251TIP3    H139696   3.018   5.124   0.916
13251TIP3    H239697   2.992   5.208   0.792
13252TIP3   OH239698   2.902   0.653   5.362
13252TIP3    H139699   2.808   0.669   5.378
13252TIP3    H239700   2.905   0.612   5.275
13253TIP3   OH239701   4.376   2.509   6.111
13253TIP3    H139702   4.391   2.540   6.021
13253TIP3    H239703   4.399   2.416   6.108
13254TIP3   OH239704   2.539   5.349   4.273
13254TIP3    H139705   2.498   5.420   4.223
13254TIP3    H239706   2.478   5.276   4.266
13255TIP3   OH239707   6.246   5.283   2.703
13255TIP3    H139708   6.258   5.335   2.783
13255TIP3    H239709   6.332   5.287   2.660
13256TIP3   OH239710   5.905   3.985   0.026
13256TIP3    H139711   5.958   3.947  -0.043
13256TIP3    H239712   5.822   3.937   0.022
13257TIP3   OH239713   0.322   7.742   6.552
13257TIP3    H139714   0.312   7.816   6.492
13257TIP3    H239715   0.253   7.681   6.527
13258TIP3   OH239716   2.585   6.094   0.581
13258TIP3    H139717   2.529   6.061   0.510
13258TIP3    H239718   2.674   6.085   0.548
13259TIP3   OH239719   2.704   0.527   4.846
13259TIP3    H139720   2.624   0.476   4.839
13259TIP3    H239721   2.765   0.469   4.892
13260TIP3   OH239722   7.485   5.092   1.972
13260TIP3    H139723   7.507   5.085   2.064
13260TIP3    H239724   7.437   5.175   1.965
13261TIP3   OH239725   7.825   1.430   1.262
13261TIP3    H139726   7.827   1.335   1.279
13261TIP3    H239727   7.913   1.460   1.283
13262TIP3   OH239728   5.378   1.518   1.690
13262TIP3    H139729   5.332   1.592   1.650
13262TIP3    H239730   5.324   1.442   1.669
13263TIP3   OH239731   5.707   0.264   5.563
13263TIP3    H139732   5.646   0.192   5.578
13263TIP3    H239733   5.673   0.308   5.484
13264TIP3   OH239734   7.379   3.520   6.353
13264TIP3    H139735   7.455   3.577   6.343
13264TIP3    H239736   7.304   3.579   6.350
13265TIP3   OH239737   1.723   6.743   0.895
13265TIP3    H139738   1.805   6.748   0.944
13265TIP3    H239739   1.733   6.663   0.842
13266TIP3   OH239740   5.126   3.267   0.492
13266TIP3    H139741   5.153   3.269   0.400
13266TIP3    H239742   5.104   3.176   0.509
13267TIP3   OH239743   6.734   3.031   5.789
13267TIP3    H139744   6.696   2.978   5.718
13267TIP3    H239745   6.827   3.036   5.767
13268TIP3   OH239746   2.175   1.673   5.534
13268TIP3    H139747   2.237   1.740   5.507
13268TIP3    H239748   2.219   1.590   5.515
13269TIP3   OH239749   2.560   3.269   1.594
13269TIP3    H139750   2.562   3.210   1.670
13269TIP3    H239751   2.648   3.308   1.592
13270TIP3   OH239752   0.197   0.332   6.114
13270TIP3    H139753   0.219   0.277   6.190
13270TIP3    H239754   0.270   0.318   6.054
13271TIP3   OH239755   6.010   5.988   5.117
13271TIP3    H139756   6.062   6.066   5.136
13271TIP3    H239757   6.068   5.933   5.064
13272TIP3   OH239758   1.411   6.896   1.924
13272TIP3    H139759   1.454   6.810   1.917
13272TIP3    H239760   1.318   6.875   1.931
13273TIP3   OH239761   1.090   4.355   0.208
13273TIP3    H139762   1.006   4.400   0.197
13273TIP3    H239763   1.154   4.426   0.208
13274TIP3   OH239764   2.405   3.761   1.137
13274TIP3    H139765   2.387   3.855   1.140
13274TIP3    H239766   2.353   3.725   1.210
13275TIP3   OH239767   2.808   4.978   4.484
13275TIP3    H139768   2.801   4.916   4.557
13275TIP3    H239769   2.901   4.979   4.463
13276TIP3   OH239770   5.085   2.413   4.687
13276TIP3    H139771   5.072   2.489   4.743
13276TIP3    H239772   5.071   2.446   4.598
13277TIP3   OH239773   4.460   6.558   4.204
13277TIP3    H139774   4.365   6.569   4.204
13277TIP3    H239775   4.474   6.469   4.237
13278TIP3   OH239776   1.941   4.299   4.154
13278TIP3    H139777   1.978   4.387   4.161
13278TIP3    H239778   1.973   4.266   4.070
13279TIP3   OH239779   5.476   5.735   2.327
13279TIP3    H139780   5.391   5.752   2.286
13279TIP3    H239781   5.537   5.792   2.282
13280TIP3   OH239782   4.999   5.360   3.617
13280TIP3    H139783   4.939   5.320   3.554
13280TIP3    H239784   4.982   5.314   3.699
13281TIP3   OH239785   6.755   4.943   5.939
13281TIP3    H139786   6.727   4.985   5.858
13281TIP3    H239787   6.699   4.865   5.946
13282TIP3   OH239788   5.378   6.568   6.671
13282TIP3    H139789   5.376   6.541   6.763
13282TIP3    H239790   5.314   6.510   6.628
13283TIP3   OH239791   3.631   5.826   1.447
13283TIP3    H139792   3.575   5.876   1.388
13283TIP3    H239793   3.714   5.818   1.400
13284TIP3   OH239794   6.529   5.886   2.642
13284TIP3    H139795   6.486   5.967   2.672
13284TIP3    H239796   6.468   5.848   2.579
13285TIP3   OH239797   6.090   4.845   4.274
13285TIP3    H139798   6.143   4.881   4.345
13285TIP3    H239799   6.146   4.779   4.233
13286TIP3   OH239800   1.180   2.439   2.371
13286TIP3    H139801   1.187   2.531   2.347
13286TIP3    H239802   1.116   2.437   2.441
13287TIP3   OH239803   2.379   3.218   5.869
13287TIP3    H139804   2.322   3.262   5.933
13287TIP3    H239805   2.321   3.156   5.824
13288TIP3   OH239806   3.695   2.695   2.155
13288TIP3    H139807   3.747   2.775   2.151
13288TIP3    H239808   3.694   2.663   2.065
13289TIP3   OH239809   4.239   3.195   2.572
13289TIP3    H139810   4.147   3.217   2.588
13289TIP3    H239811   4.250   3.108   2.611
13290TIP3   OH239812   7.206   6.962   4.086
13290TIP3    H139813   7.111   6.966   4.100
13290TIP3    H239814   7.233   6.882   4.130
13291TIP3   OH239815   4.041   0.270   3.867
13291TIP3    H139816   3.989   0.341   3.905
13291TIP3    H239817   3.998   0.252   3.783
13292TIP3   OH239818   0.960   5.614   6.560
13292TIP3    H139819   0.901   5.608   6.636
13292TIP3    H239820   0.906   5.586   6.486
13293TIP3   OH239821   5.550   4.718   0.532
13293TIP3    H139822   5.611   4.655   0.493
13293TIP3    H239823   5.596   4.752   0.609
13294TIP3   OH239824   4.691   5.020   2.772
13294TIP3    H139825   4.748   4.952   2.807
13294TIP3    H239826   4.699   5.011   2.677
13295TIP3   OH239827   2.854   7.676   5.779
13295TIP3    H139828   2.888   7.644   5.863
13295TIP3    H239829   2.870   7.604   5.718
13296TIP3   OH239830   7.557   5.879   3.427
13296TIP3    H139831   7.612   5.802   3.436
13296TIP3    H239832   7.469   5.849   3.451
13297TIP3   OH239833   7.992   3.570   2.559
13297TIP3    H139834   8.073   3.520   2.574
13297TIP3    H239835   8.017   3.638   2.497
13298TIP3   OH239836   0.433   1.151   0.487
13298TIP3    H139837   0.403   1.241   0.495
13298TIP3    H239838   0.354   1.098   0.499
13299TIP3   OH239839   4.367   6.674   2.833
13299TIP3    H139840   4.419   6.684   2.753
13299TIP3    H239841   4.280   6.707   2.809
13300TIP3   OH239842   0.152   3.447   3.726
13300TIP3    H139843   0.203   3.371   3.698
13300TIP3    H239844   0.214   3.500   3.776
13301TIP3   OH239845   3.260   5.262   4.629
13301TIP3    H139846   3.301   5.344   4.656
13301TIP3    H239847   3.289   5.198   4.695
13302TIP3   OH239848   4.706   7.101   3.732
13302TIP3    H139849   4.686   7.185   3.690
13302TIP3    H239850   4.669   7.035   3.674
13303TIP3   OH239851   5.509   2.385   2.928
13303TIP3    H139852   5.423   2.344   2.925
13303TIP3    H239853   5.493   2.477   2.906
13304TIP3   OH239854   2.456   6.618   6.345
13304TIP3    H139855   2.465   6.592   6.437
13304TIP3    H239856   2.380   6.675   6.344
13305TIP3   OH239857   0.539   5.440   0.950
13305TIP3    H139858   0.527   5.412   1.041
13305TIP3    H239859   0.466   5.401   0.902
13306TIP3   OH239860   5.806   1.437   1.973
13306TIP3    H139861   5.849   1.514   1.935
13306TIP3    H239862   5.878   1.383   2.005
13307TIP3   OH239863   1.613   3.160   3.784
13307TIP3    H139864   1.633   3.246   3.821
13307TIP3    H239865   1.564   3.179   3.704
13308TIP3   OH239866   1.402   4.898   1.408
13308TIP3    H139867   1.471   4.836   1.433
13308TIP3    H239868   1.421   4.918   1.316
13309TIP3   OH239869   1.597   7.582   2.384
13309TIP3    H139870   1.554   7.653   2.337
13309TIP3    H239871   1.672   7.559   2.329
13310TIP3   OH239872   3.832   0.773   6.550
13310TIP3    H139873   3.799   0.825   6.477
13310TIP3    H239874   3.921   0.748   6.524
13311TIP3   OH239875   3.949   4.370   6.686
13311TIP3    H139876   4.043   4.356   6.682
13311TIP3    H239877   3.933   4.403   6.774
13312TIP3   OH239878   2.114   6.042   4.280
13312TIP3    H139879   2.049   6.109   4.259
13312TIP3    H239880   2.071   5.959   4.256
13313TIP3   OH239881   0.041   2.022   0.309
13313TIP3    H139882  -0.026   2.008   0.376
13313TIP3    H239883  -0.009   2.026   0.227
13314TIP3   OH239884   3.365   2.427   5.652
13314TIP3    H139885   3.313   2.475   5.717
13314TIP3    H239886   3.366   2.337   5.684
13315TIP3   OH239887   2.105   6.027   3.077
13315TIP3    H139888   2.111   5.946   3.128
13315TIP3    H239889   2.017   6.025   3.039
13316TIP3   OH239890   5.017   3.594   0.335
13316TIP3    H139891   4.933   3.571   0.374
13316TIP3    H239892   5.069   3.628   0.407
13317TIP3   OH239893   2.854   0.896   3.367
13317TIP3    H139894   2.883   0.932   3.283
13317TIP3    H239895   2.762   0.872   3.353
13318TIP3   OH239896   7.133   1.832   5.323
13318TIP3    H139897   7.171   1.917   5.304
13318TIP3    H239898   7.038   1.844   5.311
13319TIP3   OH239899   4.995   3.838   3.547
13319TIP3    H139900   4.914   3.863   3.502
13319TIP3    H239901   5.016   3.752   3.512
13320TIP3   OH239902   2.919   1.343   5.445
13320TIP3    H139903   2.930   1.358   5.351
13320TIP3    H239904   2.944   1.425   5.486
13321TIP3   OH239905   5.210   7.243   5.380
13321TIP3    H139906   5.228   7.321   5.432
13321TIP3    H239907   5.294   7.221   5.341
13322TIP3   OH239908   2.235   4.118   2.185
13322TIP3    H139909   2.265   4.109   2.094
13322TIP3    H239910   2.229   4.028   2.217
13323TIP3   OH239911   6.489   0.474   5.702
13323TIP3    H139912   6.537   0.527   5.639
13323TIP3    H239913   6.404   0.518   5.711
13324TIP3   OH239914   1.199   3.362   3.607
13324TIP3    H139915   1.208   3.267   3.615
13324TIP3    H239916   1.262   3.397   3.670
13325TIP3   OH239917   0.328   3.781   1.660
13325TIP3    H139918   0.301   3.746   1.744
13325TIP3    H239919   0.338   3.704   1.604
13326TIP3   OH239920   0.547   2.653   3.368
13326TIP3    H139921   0.637   2.683   3.355
13326TIP3    H239922   0.509   2.716   3.429
13327TIP3   OH239923   0.894   0.842   5.843
13327TIP3    H139924   0.966   0.891   5.804
13327TIP3    H239925   0.862   0.899   5.914
13328TIP3   OH239926   1.417   1.926   5.403
13328TIP3    H139927   1.462   1.943   5.320
13328TIP3    H239928   1.449   1.995   5.462
13329TIP3   OH239929   5.043   1.545   4.975
13329TIP3    H139930   4.983   1.548   5.050
13329TIP3    H239931   5.128   1.571   5.011
13330TIP3   OH239932   2.305   5.458   0.618
13330TIP3    H139933   2.298   5.365   0.594
13330TIP3    H239934   2.307   5.458   0.713
13331TIP3   OH239935   5.220   3.341   3.280
13331TIP3    H139936   5.266   3.407   3.229
13331TIP3    H239937   5.140   3.323   3.230
13332TIP3   OH239938   5.632   1.355   4.257
13332TIP3    H139939   5.563   1.302   4.218
13332TIP3    H239940   5.714   1.314   4.229
13333TIP3   OH239941   1.522   6.809   3.503
13333TIP3    H139942   1.565   6.852   3.577
13333TIP3    H239943   1.442   6.772   3.541
13334TIP3   OH239944   6.528   2.077   2.078
13334TIP3    H139945   6.576   2.034   2.007
13334TIP3    H239946   6.564   2.038   2.158
13335TIP3   OH239947   2.914   1.686   5.889
13335TIP3    H139948   2.957   1.612   5.932
13335TIP3    H239949   2.981   1.722   5.831
13336TIP3   OH239950   0.570   6.556   0.659
13336TIP3    H139951   0.490   6.597   0.690
13336TIP3    H239952   0.621   6.539   0.738
13337TIP3   OH239953   7.383   2.956   1.791
13337TIP3    H139954   7.375   2.863   1.770
13337TIP3    H239955   7.366   2.961   1.885
13338TIP3   OH239956   5.689   2.078   5.894
13338TIP3    H139957   5.657   2.084   5.984
13338TIP3    H239958   5.681   1.985   5.872
13339TIP3   OH239959   7.799   0.825   0.230
13339TIP3    H139960   7.863   0.754   0.225
13339TIP3    H239961   7.778   0.831   0.323
13340TIP3   OH239962   8.146   3.916   2.987
13340TIP3    H139963   8.182   3.893   2.902
13340TIP3    H239964   8.058   3.949   2.968
13341TIP3   OH239965   8.091   3.926   2.647
13341TIP3    H139966   8.027   3.997   2.657
13341TIP3    H239967   8.038   3.846   2.646
13342TIP3   OH239968   5.133   4.003   2.941
13342TIP3    H139969   5.212   4.044   2.977
13342TIP3    H239970   5.097   4.068   2.882
13343TIP3   OH239971   3.578   6.838   3.246
13343TIP3    H139972   3.661   6.791   3.234
13343TIP3    H239973   3.570   6.892   3.167
13344TIP3   OH239974   1.397   6.472   6.209
13344TIP3    H139975   1.489   6.492   6.226
13344TIP3    H239976   1.355   6.478   6.294
13345TIP3   OH239977   7.798   2.800   3.649
13345TIP3    H139978   7.709   2.792   3.616
13345TIP3    H239979   7.810   2.723   3.704
13346TIP3   OH239980   6.948   0.642   0.965
13346TIP3    H139981   7.018   0.707   0.964
13346TIP3    H239982   6.869   0.692   0.944
13347TIP3   OH239983   3.347   5.303   2.565
13347TIP3    H139984   3.407   5.241   2.525
13347TIP3    H239985   3.303   5.345   2.491
13348TIP3   OH239986   7.348   2.806   5.976
13348TIP3    H139987   7.397   2.817   5.895
13348TIP3    H239988   7.258   2.790   5.948
13349TIP3   OH239989   1.288   2.286   4.843
13349TIP3    H139990   1.279   2.197   4.807
13349TIP3    H239991   1.241   2.341   4.781
13350TIP3   OH239992   6.214   1.687   2.596
13350TIP3    H139993   6.256   1.756   2.544
13350TIP3    H239994   6.149   1.734   2.649
13351TIP3   OH239995   2.422   1.508   3.960
13351TIP3    H139996   2.382   1.536   3.878
13351TIP3    H239997   2.360   1.444   3.997
13352TIP3   OH239998   2.882   7.639   0.524
13352TIP3    H139999   2.928   7.590   0.591
13352TIP3    H240000   2.789   7.630   0.546
13353TIP3   OH240001   1.621   2.295   5.757
13353TIP3    H140002   1.564   2.373   5.759
13353TIP3    H240003   1.709   2.330   5.749
13354TIP3   OH240004   7.408   5.650   4.577
13354TIP3    H140005   7.364   5.577   4.620
13354TIP3    H240006   7.458   5.692   4.647
13355TIP3   OH240007   2.029   0.350   4.752
13355TIP3    H140008   2.086   0.315   4.821
13355TIP3    H240009   2.065   0.314   4.671
13356TIP3   OH240010   1.484   3.096   2.543
13356TIP3    H140011   1.488   3.190   2.562
13356TIP3    H240012   1.392   3.073   2.560
13357TIP3   OH240013   2.998  -0.013   2.111
13357TIP3    H140014   3.080  -0.049   2.145
13357TIP3    H240015   3.020   0.076   2.084
13358TIP3   OH240016   3.073   6.385   0.498
13358TIP3    H140017   2.990   6.382   0.546
13358TIP3    H240018   3.118   6.305   0.523
13359TIP3   OH240019   2.074   7.746   5.947
13359TIP3    H140020   2.005   7.811   5.936
13359TIP3    H240021   2.034   7.678   6.001
13360TIP3   OH240022   6.610   5.532   1.998
13360TIP3    H140023   6.542   5.592   2.027
13360TIP3    H240024   6.562   5.459   1.958
13361TIP3   OH240025   6.414   3.197   2.982
13361TIP3    H140026   6.435   3.278   2.935
13361TIP3    H240027   6.427   3.128   2.918
13362TIP3   OH240028   6.754   7.729   2.280
13362TIP3    H140029   6.834   7.682   2.302
13362TIP3    H240030   6.684   7.675   2.318
13363TIP3   OH240031   4.683   2.633   4.266
13363TIP3    H140032   4.771   2.612   4.234
13363TIP3    H240033   4.637   2.550   4.265
13364TIP3   OH240034   0.349   1.401   4.087
13364TIP3    H140035   0.409   1.437   4.152
13364TIP3    H240036   0.281   1.358   4.138
13365TIP3   OH240037   5.288   4.611   1.908
13365TIP3    H140038   5.310   4.701   1.931
13365TIP3    H240039   5.194   4.603   1.929
13366TIP3   OH240040   6.417   5.351   1.516
13366TIP3    H140041   6.496   5.304   1.542
13366TIP3    H240042   6.434   5.442   1.541
13367TIP3   OH240043   7.743   4.308   3.135
13367TIP3    H140044   7.706   4.356   3.209
13367TIP3    H240045   7.670   4.259   3.098
13368TIP3   OH240046   4.009   2.720   5.485
13368TIP3    H140047   4.009   2.784   5.414
13368TIP3    H240048   4.083   2.662   5.465
13369TIP3   OH240049   5.413   7.442   3.901
13369TIP3    H140050   5.385   7.357   3.933
13369TIP3    H240051   5.483   7.422   3.839
13370TIP3   OH240052   5.650   1.793   0.893
13370TIP3    H140053   5.610   1.877   0.916
13370TIP3    H240054   5.576   1.733   0.884
13371TIP3   OH240055   6.902   7.094   5.594
13371TIP3    H140056   6.927   7.072   5.504
13371TIP3    H240057   6.985   7.112   5.639
13372TIP3   OH240058   0.635   1.229   5.451
13372TIP3    H140059   0.629   1.180   5.369
13372TIP3    H240060   0.601   1.170   5.517
13373TIP3   OH240061   5.390   1.693   2.345
13373TIP3    H140062   5.434   1.766   2.301
13373TIP3    H240063   5.433   1.615   2.312
13374TIP3   OH240064   0.781   5.482   1.519
13374TIP3    H140065   0.729   5.403   1.503
13374TIP3    H240066   0.838   5.488   1.442
13375TIP3   OH240067   1.127   3.353   0.855
13375TIP3    H140068   1.081   3.282   0.811
13375TIP3    H240069   1.220   3.334   0.841
13376TIP3   OH240070   3.648   4.383   6.699
13376TIP3    H140071   3.670   4.301   6.656
13376TIP3    H240072   3.563   4.367   6.740
13377TIP3   OH240073   1.456   0.295   2.315
13377TIP3    H140074   1.538   0.256   2.347
13377TIP3    H240075   1.483   0.375   2.271
13378TIP3   OH240076   0.236   2.507   3.834
13378TIP3    H140077   0.332   2.510   3.831
13378TIP3    H240078   0.209   2.598   3.817
13379TIP3   OH240079   1.719   3.180   3.072
13379TIP3    H140080   1.759   3.240   3.135
13379TIP3    H240081   1.632   3.163   3.107
13380TIP3   OH240082   0.950   4.383   2.804
13380TIP3    H140083   1.038   4.386   2.766
13380TIP3    H240084   0.908   4.309   2.761
13381TIP3   OH240085   7.205   0.198   5.307
13381TIP3    H140086   7.281   0.235   5.262
13381TIP3    H240087   7.202   0.107   5.279
13382TIP3   OH240088   6.439   7.615   3.325
13382TIP3    H140089   6.528   7.579   3.326
13382TIP3    H240090   6.401   7.581   3.244
13383TIP3   OH240091   2.070   7.699   5.103
13383TIP3    H140092   1.987   7.654   5.084
13383TIP3    H240093   2.072   7.772   5.041
13384TIP3   OH240094   0.072   2.528   2.156
13384TIP3    H140095   0.049   2.614   2.191
13384TIP3    H240096  -0.006   2.500   2.107
13385TIP3   OH240097   5.228   4.389   3.297
13385TIP3    H140098   5.273   4.449   3.357
13385TIP3    H240099   5.298   4.337   3.259
13386TIP3   OH240100   6.370   5.511   4.525
13386TIP3    H140101   6.319   5.484   4.602
13386TIP3    H240102   6.414   5.431   4.497
13387TIP3   OH240103   2.597   0.416   3.876
13387TIP3    H140104   2.542   0.373   3.811
13387TIP3    H240105   2.567   0.507   3.877
13388TIP3   OH240106   6.612   7.686   1.906
13388TIP3    H140107   6.692   7.722   1.868
13388TIP3    H240108   6.619   7.706   2.000
13389TIP3   OH240109   7.869   1.699   4.094
13389TIP3    H140110   7.876   1.761   4.166
13389TIP3    H240111   7.870   1.753   4.015
13390TIP3   OH240112   1.990   3.505   0.347
13390TIP3    H140113   1.918   3.442   0.344
13390TIP3    H240114   2.069   3.452   0.352
13391TIP3   OH240115   2.860   2.824   3.467
13391TIP3    H140116   2.808   2.887   3.417
13391TIP3    H240117   2.835   2.839   3.558
13392TIP3   OH240118   6.063   2.072   2.608
13392TIP3    H140119   6.122   2.037   2.541
13392TIP3    H240120   6.122   2.108   2.675
13393TIP3   OH240121   3.831   2.429   6.261
13393TIP3    H140122   3.898   2.406   6.196
13393TIP3    H240123   3.859   2.385   6.341
13394TIP3   OH240124   6.739   7.652   6.120
13394TIP3    H140125   6.731   7.728   6.062
13394TIP3    H240126   6.652   7.612   6.119
13395TIP3   OH240127   7.265   2.074   5.919
13395TIP3    H140128   7.315   2.118   5.850
13395TIP3    H240129   7.298   1.984   5.918
13396TIP3   OH240130   1.689   2.077   5.386
13396TIP3    H140131   1.628   2.100   5.455
13396TIP3    H240132   1.681   2.149   5.322
13397TIP3   OH240133   5.706   1.882   1.156
13397TIP3    H140134   5.682   1.824   1.083
13397TIP3    H240135   5.690   1.970   1.123
13398TIP3   OH240136   0.047   1.084   5.294
13398TIP3    H140137  -0.036   1.130   5.276
13398TIP3    H240138   0.094   1.143   5.353
13399TIP3   OH240139   2.015   6.879   3.758
13399TIP3    H140140   2.003   6.866   3.664
13399TIP3    H240141   2.009   6.973   3.771
13400TIP3   OH240142   1.653   2.329   3.686
13400TIP3    H140143   1.629   2.281   3.765
13400TIP3    H240144   1.681   2.262   3.624
13401TIP3   OH240145   7.289   5.733   4.982
13401TIP3    H140146   7.285   5.639   4.999
13401TIP3    H240147   7.247   5.744   4.897
13402TIP3   OH240148   1.794   6.090   2.483
13402TIP3    H140149   1.887   6.075   2.465
13402TIP3    H240150   1.757   6.002   2.490
13403TIP3   OH240151   4.618   4.541   6.574
13403TIP3    H140152   4.691   4.481   6.559
13403TIP3    H240153   4.653   4.628   6.554
13404TIP3   OH240154   0.934   4.155   6.227
13404TIP3    H140155   0.890   4.198   6.154
13404TIP3    H240156   0.862   4.118   6.279
13405TIP3   OH240157   4.169   0.650   6.771
13405TIP3    H140158   4.112   0.575   6.787
13405TIP3    H240159   4.175   0.656   6.675
13406TIP3   OH240160   4.435   7.133   1.091
13406TIP3    H140161   4.380   7.082   1.151
13406TIP3    H240162   4.402   7.222   1.099
13407TIP3   OH240163   6.482   4.185   5.931
13407TIP3    H140164   6.409   4.125   5.944
13407TIP3    H240165   6.560   4.129   5.938
13408TIP3   OH240166   2.848   5.989   0.732
13408TIP3    H140167   2.846   5.894   0.745
13408TIP3    H240168   2.847   6.000   0.637
13409TIP3   OH240169   1.329   4.791   5.412
13409TIP3    H140170   1.283   4.746   5.483
13409TIP3    H240171   1.418   4.759   5.417
13410TIP3   OH240172   3.785   3.383   1.065
13410TIP3    H140173   3.844   3.395   1.139
13410TIP3    H240174   3.702   3.356   1.105
13411TIP3   OH240175   2.956   0.123   4.840
13411TIP3    H140176   2.883   0.063   4.859
13411TIP3    H240177   2.965   0.119   4.744
13412TIP3   OH240178   3.129   1.825   5.756
13412TIP3    H140179   3.187   1.900   5.772
13412TIP3    H240180   3.057   1.861   5.705
13413TIP3   OH240181   3.188   4.024   3.310
13413TIP3    H140182   3.168   4.014   3.403
13413TIP3    H240183   3.140   4.102   3.284
13414TIP3   OH240184   2.456   6.595   2.958
13414TIP3    H140185   2.492   6.548   3.034
13414TIP3    H240186   2.525   6.591   2.892
13415TIP3   OH240187   4.738   0.895   1.833
13415TIP3    H140188   4.783   0.818   1.798
13415TIP3    H240189   4.656   0.900   1.783
13416TIP3   OH240190   2.131   6.485   0.820
13416TIP3    H140191   2.224   6.508   0.821
13416TIP3    H240192   2.093   6.533   0.893
13417TIP3   OH240193   3.650   5.062   4.233
13417TIP3    H140194   3.609   5.122   4.295
13417TIP3    H240195   3.686   5.119   4.164
13418TIP3   OH240196   8.028   1.190   0.972
13418TIP3    H140197   7.965   1.206   0.902
13418TIP3    H240198   7.979   1.140   1.038
13419TIP3   OH240199   2.375   7.119   1.372
13419TIP3    H140200   2.297   7.138   1.423
13419TIP3    H240201   2.409   7.038   1.409
13420TIP3   OH240202   8.273   1.742   6.048
13420TIP3    H140203   8.221   1.727   6.127
13420TIP3    H240204   8.268   1.837   6.033
13421TIP3   OH240205   5.866   6.972   2.970
13421TIP3    H140206   5.876   7.021   2.888
13421TIP3    H240207   5.927   7.015   3.030
13422TIP3   OH240208   7.242   5.308   6.418
13422TIP3    H140209   7.216   5.266   6.500
13422TIP3    H240210   7.181   5.274   6.353
13423TIP3   OH240211   8.198   2.184   1.294
13423TIP3    H140212   8.132   2.117   1.275
13423TIP3    H240213   8.247   2.194   1.212
13424TIP3   OH240214   7.571   7.163   3.149
13424TIP3    H140215   7.488   7.128   3.182
13424TIP3    H240216   7.572   7.255   3.177
13425TIP3   OH240217   1.843   1.799   1.394
13425TIP3    H140218   1.761   1.840   1.423
13425TIP3    H240219   1.886   1.866   1.340
13426TIP3   OH240220   5.652   0.088   2.300
13426TIP3    H140221   5.574   0.142   2.287
13426TIP3    H240222   5.633   0.036   2.378
13427TIP3   OH240223   1.726   1.621   6.589
13427TIP3    H140224   1.634   1.644   6.578
13427TIP3    H240225   1.770   1.704   6.606
13428TIP3   OH240226   2.872   1.927   3.713
13428TIP3    H140227   2.925   2.001   3.746
13428TIP3    H240228   2.816   1.904   3.787
13429TIP3   OH240229   6.252   3.848   6.681
13429TIP3    H140230   6.226   3.800   6.759
13429TIP3    H240231   6.262   3.938   6.709
13430TIP3   OH240232   3.244   5.677   0.285
13430TIP3    H140233   3.315   5.716   0.337
13430TIP3    H240234   3.277   5.590   0.262
13431TIP3   OH240235   0.998   5.087   1.542
13431TIP3    H140236   1.091   5.109   1.546
13431TIP3    H240237   0.981   5.067   1.450
13432TIP3   OH240238   3.858   0.998   1.126
13432TIP3    H140239   3.764   1.015   1.122
13432TIP3    H240240   3.865   0.918   1.177
13433TIP3   OH240241   6.751   4.481   2.186
13433TIP3    H140242   6.808   4.554   2.165
13433TIP3    H240243   6.666   4.505   2.148
13434TIP3   OH240244   1.727   3.281   0.856
13434TIP3    H140245   1.775   3.344   0.909
13434TIP3    H240246   1.778   3.200   0.862
13435TIP3   OH240247   7.737   2.705   5.158
13435TIP3    H140248   7.719   2.790   5.117
13435TIP3    H240249   7.711   2.641   5.093
13436TIP3   OH240250   4.195   2.081   2.427
13436TIP3    H140251   4.159   2.017   2.488
13436TIP3    H240252   4.140   2.159   2.438
13437TIP3   OH240253   0.341   2.040   5.934
13437TIP3    H140254   0.308   1.950   5.940
13437TIP3    H240255   0.337   2.060   5.840
13438TIP3   OH240256   4.747   5.781   5.984
13438TIP3    H140257   4.804   5.705   5.977
13438TIP3    H240258   4.678   5.754   6.044
13439TIP3   OH240259   7.745   2.332   2.490
13439TIP3    H140260   7.681   2.274   2.450
13439TIP3    H240261   7.813   2.343   2.424
13440TIP3   OH240262   2.273   5.568   3.114
13440TIP3    H140263   2.311   5.575   3.026
13440TIP3    H240264   2.197   5.511   3.102
13441TIP3   OH240265   1.134   7.608   1.582
13441TIP3    H140266   1.057   7.635   1.632
13441TIP3    H240267   1.140   7.672   1.511
13442TIP3   OH240268   2.682   2.879   2.979
13442TIP3    H140269   2.701   2.932   3.056
13442TIP3    H240270   2.667   2.942   2.909
13443TIP3   OH240271   4.774   3.138   1.557
13443TIP3    H140272   4.866   3.128   1.582
13443TIP3    H240273   4.741   3.048   1.554
13444TIP3   OH240274   6.331   0.259   4.009
13444TIP3    H140275   6.409   0.291   3.964
13444TIP3    H240276   6.274   0.335   4.017
13445TIP3   OH240277   4.309   1.170   1.362
13445TIP3    H140278   4.253   1.228   1.311
13445TIP3    H240279   4.398   1.199   1.342
13446TIP3   OH240280   7.076   5.104   2.595
13446TIP3    H140281   6.991   5.142   2.569
13446TIP3    H240282   7.134   5.179   2.602
13447TIP3   OH240283   4.191   1.343   2.107
13447TIP3    H140284   4.151   1.330   2.193
13447TIP3    H240285   4.197   1.255   2.070
13448TIP3   OH240286   7.950   2.986   4.228
13448TIP3    H140287   8.039   2.961   4.205
13448TIP3    H240288   7.930   3.060   4.171
13449TIP3   OH240289   4.666   6.008   2.163
13449TIP3    H140290   4.656   6.070   2.091
13449TIP3    H240291   4.734   5.947   2.134
13450TIP3   OH240292   1.146   6.004   2.460
13450TIP3    H140293   1.213   6.043   2.517
13450TIP3    H240294   1.064   6.047   2.487
13451TIP3   OH240295   4.418   0.176   0.221
13451TIP3    H140296   4.377   0.259   0.244
13451TIP3    H240297   4.510   0.198   0.205
13452TIP3   OH240298   4.720   5.273   2.927
13452TIP3    H140299   4.775   5.329   2.873
13452TIP3    H240300   4.706   5.194   2.874
13453TIP3   OH240301   2.957   2.060   1.005
13453TIP3    H140302   2.973   2.147   1.041
13453TIP3    H240303   2.922   2.010   1.079
13454TIP3   OH240304   0.209   6.587   2.263
13454TIP3    H140305   0.189   6.619   2.351
13454TIP3    H240306   0.125   6.592   2.216
13455TIP3   OH240307   3.581   1.672   2.163
13455TIP3    H140308   3.585   1.670   2.067
13455TIP3    H240309   3.500   1.717   2.183
13456TIP3   OH240310   5.100   5.692   2.009
13456TIP3    H140311   5.109   5.609   2.055
13456TIP3    H240312   5.190   5.715   1.984
13457TIP3   OH240313   0.846   6.193   5.473
13457TIP3    H140314   0.871   6.200   5.381
13457TIP3    H240315   0.799   6.110   5.479
13458TIP3   OH240316   2.443   2.303   1.688
13458TIP3    H140317   2.394   2.222   1.669
13458TIP3    H240318   2.462   2.298   1.782
13459TIP3   OH240319   5.403   3.002   5.354
13459TIP3    H140320   5.363   2.974   5.437
13459TIP3    H240321   5.346   2.966   5.287
13460TIP3   OH240322   6.786   6.825   5.192
13460TIP3    H140323   6.831   6.900   5.155
13460TIP3    H240324   6.847   6.752   5.182
13461TIP3   OH240325   2.953   3.502   6.514
13461TIP3    H140326   2.969   3.577   6.571
13461TIP3    H240327   3.014   3.435   6.545
13462TIP3   OH240328   5.368   2.317   2.126
13462TIP3    H140329   5.429   2.253   2.089
13462TIP3    H240330   5.293   2.266   2.154
13463TIP3   OH240331   4.723   3.099   2.888
13463TIP3    H140332   4.719   3.082   2.794
13463TIP3    H240333   4.667   3.176   2.901
13464TIP3   OH240334   5.906   5.178   5.195
13464TIP3    H140335   5.959   5.243   5.149
13464TIP3    H240336   5.896   5.106   5.133
13465TIP3   OH240337   4.280   0.082   3.981
13465TIP3    H140338   4.334   0.161   3.984
13465TIP3    H240339   4.191   0.115   3.970
13466TIP3   OH240340   6.634   5.852   1.661
13466TIP3    H140341   6.544   5.823   1.675
13466TIP3    H240342   6.687   5.793   1.713
13467TIP3   OH240343   5.818   2.292   3.463
13467TIP3    H140344   5.908   2.282   3.494
13467TIP3    H240345   5.826   2.299   3.368
13468TIP3   OH240346   6.862   3.786   3.131
13468TIP3    H140347   6.879   3.692   3.124
13468TIP3    H240348   6.769   3.795   3.112
13469TIP3   OH240349   4.708   4.177   0.078
13469TIP3    H140350   4.743   4.152  -0.008
13469TIP3    H240351   4.712   4.273   0.079
13470TIP3   OH240352   6.475   0.823   0.727
13470TIP3    H140353   6.565   0.856   0.724
13470TIP3    H240354   6.431   0.880   0.790
13471TIP3   OH240355   5.961   3.825   6.374
13471TIP3    H140356   6.040   3.771   6.363
13471TIP3    H240357   5.950   3.833   6.469
13472TIP3   OH240358   3.671   4.334   4.299
13472TIP3    H140359   3.626   4.289   4.228
13472TIP3    H240360   3.732   4.393   4.254
13473TIP3   OH240361   1.461   4.198   6.363
13473TIP3    H140362   1.430   4.244   6.285
13473TIP3    H240363   1.407   4.119   6.366
13474TIP3   OH240364   1.097   5.753   3.271
13474TIP3    H140365   1.101   5.662   3.301
13474TIP3    H240366   1.132   5.751   3.182
13475TIP3   OH240367   4.750   6.954   5.487
13475TIP3    H140368   4.826   7.010   5.474
13475TIP3    H240369   4.782   6.865   5.470
13476TIP3   OH240370   7.207   6.466   3.450
13476TIP3    H140371   7.244   6.554   3.440
13476TIP3    H240372   7.113   6.480   3.449
13477TIP3   OH240373   3.823   4.263   2.383
13477TIP3    H140374   3.729   4.252   2.397
13477TIP3    H240375   3.862   4.186   2.424
13478TIP3   OH240376   5.554   2.869   6.180
13478TIP3    H140377   5.571   2.795   6.238
13478TIP3    H240378   5.487   2.921   6.225
13479TIP3   OH240379   1.536   4.382   5.262
13479TIP3    H140380   1.563   4.339   5.181
13479TIP3    H240381   1.578   4.332   5.332
13480TIP3   OH240382   1.903   5.585   0.230
13480TIP3    H140383   1.832   5.635   0.270
13480TIP3    H240384   1.872   5.566   0.142
13481TIP3   OH240385   2.832   3.228   0.398
13481TIP3    H140386   2.834   3.150   0.343
13481TIP3    H240387   2.864   3.298   0.341
13482TIP3   OH240388   2.191   7.542   6.536
13482TIP3    H140389   2.283   7.529   6.558
13482TIP3    H240390   2.190   7.550   6.441
13483TIP3   OH240391   7.225   5.858   0.770
13483TIP3    H140392   7.199   5.868   0.678
13483TIP3    H240393   7.145   5.880   0.819
13484TIP3   OH240394   2.456   1.913   0.285
13484TIP3    H140395   2.524   1.956   0.337
13484TIP3    H240396   2.484   1.822   0.279
13485TIP3   OH240397   2.995   4.816   5.851
13485TIP3    H140398   3.005   4.738   5.907
13485TIP3    H240399   3.022   4.889   5.907
13486TIP3   OH240400   3.776   1.858   4.300
13486TIP3    H140401   3.811   1.914   4.230
13486TIP3    H240402   3.712   1.802   4.257
13487TIP3   OH240403   5.145   3.649   6.759
13487TIP3    H140404   5.191   3.708   6.699
13487TIP3    H240405   5.187   3.564   6.747
13488TIP3   OH240406   8.285   3.176   1.516
13488TIP3    H140407   8.219   3.109   1.496
13488TIP3    H240408   8.236   3.258   1.520
13489TIP3   OH240409   5.258   2.231   6.348
13489TIP3    H140410   5.232   2.237   6.257
13489TIP3    H240411   5.176   2.233   6.397
13490TIP3   OH240412   6.479   4.141   4.004
13490TIP3    H140413   6.544   4.211   4.011
13490TIP3    H240414   6.395   4.184   4.020
13491TIP3   OH240415   4.601   0.972   4.680
13491TIP3    H140416   4.680   0.963   4.734
13491TIP3    H240417   4.539   1.019   4.735
13492TIP3   OH240418   6.729   3.294   1.986
13492TIP3    H140419   6.789   3.337   1.925
13492TIP3    H240420   6.667   3.247   1.929
13493TIP3   OH240421   1.830   3.736   5.029
13493TIP3    H140422   1.879   3.677   4.972
13493TIP3    H240423   1.886   3.749   5.105
13494TIP3   OH240424   0.934   4.541   4.097
13494TIP3    H140425   0.891   4.479   4.037
13494TIP3    H240426   0.996   4.487   4.146
13495TIP3   OH240427   0.504   5.253   0.007
13495TIP3    H140428   0.582   5.213   0.045
13495TIP3    H240429   0.435   5.188   0.019
13496TIP3   OH240430   7.822   5.948   5.749
13496TIP3    H140431   7.734   5.915   5.766
13496TIP3    H240432   7.825   5.963   5.655
13497TIP3   OH240433   0.056   1.409   0.150
13497TIP3    H140434   0.068   1.429   0.057
13497TIP3    H240435  -0.029   1.448   0.172
13498TIP3   OH240436   7.144   3.571   4.940
13498TIP3    H140437   7.150   3.479   4.966
13498TIP3    H240438   7.226   3.609   4.969
13499TIP3   OH240439   1.983   4.829   1.688
13499TIP3    H140440   2.052   4.785   1.736
13499TIP3    H240441   1.906   4.773   1.699
13500TIP3   OH240442   6.176   2.787   5.549
13500TIP3    H140443   6.096   2.776   5.499
13500TIP3    H240444   6.151   2.841   5.624
13501TIP3   OH240445   3.814   4.501   5.357
13501TIP3    H140446   3.888   4.548   5.396
13501TIP3    H240447   3.750   4.569   5.337
13502TIP3   OH240448   4.217   5.763   4.419
13502TIP3    H140449   4.208   5.668   4.432
13502TIP3    H240450   4.248   5.797   4.503
13503TIP3   OH240451   5.231   5.660   3.006
13503TIP3    H140452   5.257   5.571   2.982
13503TIP3    H240453   5.313   5.709   3.007
13504TIP3   OH240454   1.413   0.242   5.452
13504TIP3    H140455   1.399   0.161   5.402
13504TIP3    H240456   1.330   0.288   5.448
13505TIP3   OH240457   0.187   4.843   1.116
13505TIP3    H140458   0.222   4.754   1.108
13505TIP3    H240459   0.245   4.896   1.062
13506TIP3   OH240460   1.527   5.529   6.160
13506TIP3    H140461   1.592   5.570   6.217
13506TIP3    H240462   1.469   5.601   6.134
13507TIP3   OH240463   6.964   4.484   5.975
13507TIP3    H140464   6.897   4.419   5.996
13507TIP3    H240465   6.980   4.530   6.057
13508TIP3   OH240466   8.020   4.613   3.572
13508TIP3    H140467   7.991   4.524   3.555
13508TIP3    H240468   8.099   4.604   3.625
13509TIP3   OH240469   6.811   6.139   3.516
13509TIP3    H140470   6.876   6.074   3.488
13509TIP3    H240471   6.849   6.223   3.492
13510TIP3   OH240472   3.834   4.875   6.582
13510TIP3    H140473   3.881   4.947   6.540
13510TIP3    H240474   3.856   4.883   6.675
13511TIP3   OH240475   2.501   2.099   5.467
13511TIP3    H140476   2.497   2.181   5.419
13511TIP3    H240477   2.453   2.116   5.548
13512TIP3   OH240478   3.740   3.845   4.255
13512TIP3    H140479   3.818   3.845   4.200
13512TIP3    H240480   3.667   3.859   4.194
13513TIP3   OH240481   1.470   7.138   3.757
13513TIP3    H140482   1.493   7.140   3.664
13513TIP3    H240483   1.511   7.216   3.794
13514TIP3   OH240484   1.770   0.361   1.060
13514TIP3    H140485   1.804   0.390   0.975
13514TIP3    H240486   1.803   0.425   1.123
13515TIP3   OH240487   4.622   6.024   4.180
13515TIP3    H140488   4.651   5.993   4.094
13515TIP3    H240489   4.616   5.944   4.233
13516TIP3   OH240490   1.785   3.029   0.308
13516TIP3    H140491   1.777   2.991   0.395
13516TIP3    H240492   1.851   2.974   0.265
13517TIP3   OH240493   8.048   4.733   3.288
13517TIP3    H140494   8.059   4.738   3.383
13517TIP3    H240495   7.990   4.805   3.266
13518TIP3   OH240496   6.683   5.585   0.442
13518TIP3    H140497   6.663   5.559   0.532
13518TIP3    H240498   6.779   5.585   0.438
13519TIP3   OH240499   3.173   2.140   6.151
13519TIP3    H140500   3.101   2.116   6.210
13519TIP3    H240501   3.228   2.197   6.204
13520TIP3   OH240502   4.437   6.060   5.093
13520TIP3    H140503   4.362   6.065   5.033
13520TIP3    H240504   4.398   6.056   5.180
13521TIP3   OH240505   7.383   0.609   6.634
13521TIP3    H140506   7.442   0.666   6.586
13521TIP3    H240507   7.310   0.593   6.573
13522TIP3   OH240508   8.069   5.088   0.996
13522TIP3    H140509   8.079   4.993   1.001
13522TIP3    H240510   8.139   5.123   1.050
13523TIP3   OH240511   7.541   6.219   4.634
13523TIP3    H140512   7.530   6.212   4.729
13523TIP3    H240513   7.509   6.307   4.612
13524TIP3   OH240514   5.224   6.682   2.110
13524TIP3    H140515   5.156   6.733   2.155
13524TIP3    H240516   5.302   6.691   2.166
13525TIP3   OH240517   3.249   1.575   5.257
13525TIP3    H140518   3.282   1.540   5.340
13525TIP3    H240519   3.326   1.617   5.217
13526TIP3   OH240520   4.942   0.342   1.702
13526TIP3    H140521   4.989   0.315   1.781
13526TIP3    H240522   4.960   0.273   1.638
13527TIP3   OH240523   2.795   2.589   3.954
13527TIP3    H140524   2.776   2.497   3.936
13527TIP3    H240525   2.810   2.592   4.048
13528TIP3   OH240526   6.861   6.442   5.453
13528TIP3    H140527   6.783   6.433   5.508
13528TIP3    H240528   6.835   6.403   5.370
13529TIP3   OH240529   5.765   7.634   0.669
13529TIP3    H140530   5.852   7.609   0.639
13529TIP3    H240531   5.720   7.665   0.590
13530TIP3   OH240532   8.145   6.741   5.942
13530TIP3    H140533   8.059   6.723   5.904
13530TIP3    H240534   8.194   6.782   5.871
13531TIP3   OH240535   3.857   6.726   4.188
13531TIP3    H140536   3.872   6.820   4.199
13531TIP3    H240537   3.890   6.707   4.100
13532TIP3   OH240538   8.000   0.338   2.865
13532TIP3    H140539   8.091   0.329   2.838
13532TIP3    H240540   7.997   0.420   2.915
13533TIP3   OH240541   6.438   4.450   3.789
13533TIP3    H140542   6.482   4.367   3.768
13533TIP3    H240543   6.456   4.506   3.713
13534TIP3   OH240544   6.356   4.887   4.831
13534TIP3    H140545   6.280   4.944   4.819
13534TIP3    H240546   6.386   4.905   4.920
13535TIP3   OH240547   0.410   7.224   5.328
13535TIP3    H140548   0.464   7.206   5.405
13535TIP3    H240549   0.389   7.137   5.293
13536TIP3   OH240550   1.982   1.630   1.207
13536TIP3    H140551   1.901   1.589   1.176
13536TIP3    H240552   1.954   1.689   1.277
13537TIP3   OH240553   4.946   6.542   5.819
13537TIP3    H140554   4.900   6.625   5.821
13537TIP3    H240555   5.008   6.550   5.747
13538TIP3   OH240556   4.337   6.272   4.612
13538TIP3    H140557   4.253   6.229   4.632
13538TIP3    H240558   4.313   6.345   4.555
13539TIP3   OH240559   1.054   3.417   4.330
13539TIP3    H140560   1.006   3.438   4.410
13539TIP3    H240561   1.029   3.326   4.311
13540TIP3   OH240562   0.729   7.317   4.408
13540TIP3    H140563   0.765   7.338   4.494
13540TIP3    H240564   0.801   7.330   4.347
13541TIP3   OH240565   0.348   3.283   4.004
13541TIP3    H140566   0.431   3.248   3.973
13541TIP3    H240567   0.297   3.205   4.027
13542TIP3   OH240568   6.888   2.789   6.155
13542TIP3    H140569   6.852   2.798   6.243
13542TIP3    H240570   6.853   2.865   6.107
13543TIP3   OH240571   3.964   1.458   5.271
13543TIP3    H140572   4.030   1.388   5.270
13543TIP3    H240573   3.927   1.456   5.359
13544TIP3   OH240574   6.980   3.480   6.339
13544TIP3    H140575   6.956   3.440   6.423
13544TIP3    H240576   6.912   3.450   6.278
13545TIP3   OH240577   8.005   2.224   4.977
13545TIP3    H140578   8.048   2.160   5.033
13545TIP3    H240579   8.072   2.289   4.957
13546TIP3   OH240580   7.860   1.272   4.529
13546TIP3    H140581   7.841   1.311   4.615
13546TIP3    H240582   7.782   1.220   4.509
13547TIP3   OH240583   5.617   2.719   0.382
13547TIP3    H140584   5.646   2.635   0.418
13547TIP3    H240585   5.614   2.778   0.457
13548TIP3   OH240586   1.288   4.247   6.620
13548TIP3    H140587   1.256   4.331   6.655
13548TIP3    H240588   1.220   4.217   6.561
13549TIP3   OH240589   3.775   2.918   2.518
13549TIP3    H140590   3.751   3.006   2.489
13549TIP3    H240591   3.756   2.861   2.443
13550TIP3   OH240592   4.194   1.817   3.122
13550TIP3    H140593   4.197   1.788   3.213
13550TIP3    H240594   4.137   1.894   3.123
13551TIP3   OH240595   1.785   6.005   1.888
13551TIP3    H140596   1.781   5.910   1.893
13551TIP3    H240597   1.737   6.027   1.809
13552TIP3   OH240598   4.955   4.318   0.246
13552TIP3    H140599   4.894   4.246   0.262
13552TIP3    H240600   4.901   4.397   0.255
13553TIP3   OH240601   7.110   2.157   5.658
13553TIP3    H140602   7.160   2.177   5.579
13553TIP3    H240603   7.169   2.104   5.711
13554TIP3   OH240604   7.296   4.781   6.707
13554TIP3    H140605   7.204   4.787   6.682
13554TIP3    H240606   7.317   4.688   6.701
13555TIP3   OH240607   8.147   5.037   0.668
13555TIP3    H140608   8.187   5.021   0.754
13555TIP3    H240609   8.152   4.952   0.623
13556TIP3   OH240610   2.351   5.332   1.159
13556TIP3    H140611   2.400   5.393   1.214
13556TIP3    H240612   2.260   5.345   1.185
13557TIP3   OH240613   1.783   1.283   3.699
13557TIP3    H140614   1.806   1.206   3.647
13557TIP3    H240615   1.688   1.293   3.687
13558TIP3   OH240616   4.321   0.106   1.660
13558TIP3    H140617   4.280   0.144   1.737
13558TIP3    H240618   4.356   0.181   1.612
13559TIP3   OH240619   5.667   6.634   6.750
13559TIP3    H140620   5.606   6.584   6.696
13559TIP3    H240621   5.740   6.653   6.692
13560TIP3   OH240622   4.706   3.309   4.071
13560TIP3    H140623   4.647   3.283   4.142
13560TIP3    H240624   4.694   3.241   4.004
13561TIP3   OH240625   1.195   6.263   6.253
13561TIP3    H140626   1.135   6.332   6.279
13561TIP3    H240627   1.276   6.309   6.229
13562TIP3   OH240628   6.248   0.225   5.197
13562TIP3    H140629   6.280   0.245   5.285
13562TIP3    H240630   6.326   0.225   5.142
13563TIP3   OH240631   7.711   7.567   3.530
13563TIP3    H140632   7.720   7.473   3.517
13563TIP3    H240633   7.619   7.580   3.551
13564TIP3   OH240634   5.700   4.981   2.731
13564TIP3    H140635   5.640   5.001   2.659
13564TIP3    H240636   5.729   5.067   2.762
13565TIP3   OH240637   4.300   1.772   1.497
13565TIP3    H140638   4.273   1.793   1.408
13565TIP3    H240639   4.225   1.799   1.551
13566TIP3   OH240640   1.248   1.537   5.594
13566TIP3    H140641   1.200   1.515   5.674
13566TIP3    H240642   1.198   1.608   5.554
13567TIP3   OH240643   0.708   2.435   6.363
13567TIP3    H140644   0.716   2.451   6.457
13567TIP3    H240645   0.618   2.458   6.342
13568TIP3   OH240646   4.272   6.276   5.154
13568TIP3    H140647   4.202   6.237   5.206
13568TIP3    H240648   4.257   6.243   5.065
13569TIP3   OH240649   1.652   5.269   5.641
13569TIP3    H140650   1.694   5.202   5.587
13569TIP3    H240651   1.703   5.348   5.625
13570TIP3   OH240652   5.485   6.068   1.861
13570TIP3    H140653   5.565   6.026   1.891
13570TIP3    H240654   5.499   6.161   1.877
13571TIP3   OH240655   3.377   2.478   3.441
13571TIP3    H140656   3.308   2.437   3.389
13571TIP3    H240657   3.431   2.405   3.471
13572TIP3   OH240658   0.653   6.885   6.719
13572TIP3    H140659   0.711   6.934   6.777
13572TIP3    H240660   0.707   6.814   6.686
13573TIP3   OH240661   0.716   5.637   6.292
13573TIP3    H140662   0.784   5.704   6.289
13573TIP3    H240663   0.750   5.565   6.238
13574TIP3   OH240664   4.805   4.458   3.236
13574TIP3    H140665   4.866   4.429   3.168
13574TIP3    H240666   4.859   4.468   3.314
13575TIP3   OH240667   5.233   6.608   1.192
13575TIP3    H140668   5.225   6.691   1.239
13575TIP3    H240669   5.325   6.583   1.203
13576TIP3   OH240670   2.739   5.905   2.217
13576TIP3    H140671   2.819   5.927   2.169
13576TIP3    H240672   2.739   5.966   2.291
13577TIP3   OH240673   4.447   1.893   2.166
13577TIP3    H140674   4.515   1.959   2.182
13577TIP3    H240675   4.425   1.904   2.073
13578TIP3   OH240676   1.247   3.659   1.589
13578TIP3    H140677   1.288   3.658   1.676
13578TIP3    H240678   1.165   3.706   1.602
13579TIP3   OH240679   1.650   2.801   6.533
13579TIP3    H140680   1.661   2.746   6.456
13579TIP3    H240681   1.622   2.741   6.602
13580TIP3   OH240682   3.287   6.307   4.440
13580TIP3    H140683   3.350   6.235   4.443
13580TIP3    H240684   3.201   6.264   4.442
13581TIP3   OH240685   3.706   7.260   4.674
13581TIP3    H140686   3.698   7.269   4.769
13581TIP3    H240687   3.631   7.205   4.649
13582TIP3   OH240688   2.133   5.188   1.814
13582TIP3    H140689   2.150   5.100   1.847
13582TIP3    H240690   2.086   5.232   1.885
13583TIP3   OH240691   2.727   6.462   0.864
13583TIP3    H140692   2.727   6.419   0.949
13583TIP3    H240693   2.711   6.391   0.801
13584TIP3   OH240694   1.817   4.227   4.437
13584TIP3    H140695   1.850   4.212   4.349
13584TIP3    H240696   1.779   4.143   4.463
13585TIP3   OH240697   6.880   5.397   1.624
13585TIP3    H140698   6.832   5.314   1.631
13585TIP3    H240699   6.969   5.375   1.653
13586TIP3   OH240700   4.890   1.692   3.558
13586TIP3    H140701   4.943   1.760   3.598
13586TIP3    H240702   4.837   1.738   3.493
13587TIP3   OH240703   4.043   3.366   6.450
13587TIP3    H140704   4.106   3.372   6.523
13587TIP3    H240705   3.981   3.299   6.478
13588TIP3   OH240706   6.649   3.119   3.657
13588TIP3    H140707   6.720   3.062   3.627
13588TIP3    H240708   6.641   3.185   3.588
13589TIP3   OH240709   4.526   4.391   5.450
13589TIP3    H140710   4.603   4.340   5.425
13589TIP3    H240711   4.454   4.353   5.399
13590TIP3   OH240712   2.879   3.347   6.037
13590TIP3    H140713   2.941   3.274   6.031
13590TIP3    H240714   2.908   3.396   6.114
13591TIP3   OH240715   2.116   2.201   3.964
13591TIP3    H140716   2.115   2.177   4.056
13591TIP3    H240717   2.202   2.241   3.950
13592TIP3   OH240718   2.876   4.812   3.529
13592TIP3    H140719   2.903   4.831   3.439
13592TIP3    H240720   2.781   4.814   3.527
13593TIP3   OH240721   6.074   5.477   3.122
13593TIP3    H140722   6.003   5.524   3.167
13593TIP3    H240723   6.052   5.385   3.133
13594TIP3   OH240724   1.322   3.391   2.229
13594TIP3    H140725   1.247   3.350   2.271
13594TIP3    H240726   1.398   3.343   2.261
13595TIP3   OH240727   0.924   7.518   1.296
13595TIP3    H140728   0.950   7.549   1.209
13595TIP3    H240729   0.976   7.572   1.356
13596TIP3   OH240730   2.480   7.636   6.356
13596TIP3    H140731   2.461   7.552   6.313
13596TIP3    H240732   2.499   7.696   6.283
13597TIP3   OH240733   4.555   1.125   0.009
13597TIP3    H140734   4.563   1.033  -0.017
13597TIP3    H240735   4.461   1.143   0.006
13598TIP3   OH240736   4.810   0.268   0.710
13598TIP3    H140737   4.851   0.235   0.630
13598TIP3    H240738   4.829   0.362   0.710
13599TIP3   OH240739   2.934   6.888   6.488
13599TIP3    H140740   2.854   6.869   6.438
13599TIP3    H240741   2.923   6.979   6.516
13600TIP3   OH240742   3.384   4.101   6.014
13600TIP3    H140743   3.466   4.139   6.045
13600TIP3    H240744   3.319   4.131   6.077
13601TIP3   OH240745   1.439   5.899   1.787
13601TIP3    H140746   1.381   5.858   1.724
13601TIP3    H240747   1.525   5.860   1.770
13602TIP3   OH240748   6.884   5.104   1.778
13602TIP3    H140749   6.823   5.150   1.836
13602TIP3    H240750   6.963   5.159   1.779
13603TIP3   OH240751   0.586   2.004   0.526
13603TIP3    H140752   0.621   2.055   0.599
13603TIP3    H240753   0.663   1.976   0.477
13604TIP3   OH240754   0.377   2.906   5.554
13604TIP3    H140755   0.439   2.845   5.514
13604TIP3    H240756   0.383   2.985   5.501
13605TIP3   OH240757   4.576   4.750   0.587
13605TIP3    H140758   4.514   4.680   0.568
13605TIP3    H240759   4.662   4.707   0.590
13606TIP3   OH240760   1.911   1.094   6.135
13606TIP3    H140761   1.945   1.123   6.220
13606TIP3    H240762   1.819   1.120   6.136
13607TIP3   OH240763   1.006   5.058   5.489
13607TIP3    H140764   0.941   5.001   5.449
13607TIP3    H240765   0.985   5.145   5.455
13608TIP3   OH240766   0.940   2.483   2.512
13608TIP3    H140767   0.929   2.578   2.511
13608TIP3    H240768   0.927   2.458   2.603
13609TIP3   OH240769   2.277   2.173   3.492
13609TIP3    H140770   2.217   2.102   3.467
13609TIP3    H240771   2.338   2.131   3.552
13610TIP3   OH240772   6.095   7.671   1.730
13610TIP3    H140773   6.152   7.746   1.713
13610TIP3    H240774   6.016   7.688   1.679
13611TIP3   OH240775   4.010   0.360   5.605
13611TIP3    H140776   3.978   0.349   5.694
13611TIP3    H240777   4.031   0.453   5.598
13612TIP3   OH240778   4.627   6.445   0.987
13612TIP3    H140779   4.633   6.351   1.004
13612TIP3    H240780   4.592   6.452   0.899
13613TIP3   OH240781   8.054   3.037   1.096
13613TIP3    H140782   8.119   3.091   1.141
13613TIP3    H240783   8.045   2.960   1.152
13614TIP3   OH240784   4.851   7.002   3.309
13614TIP3    H140785   4.914   7.037   3.372
13614TIP3    H240786   4.893   6.924   3.273
13615TIP3   OH240787   4.081   6.830   2.414
13615TIP3    H140788   4.081   6.767   2.342
13615TIP3    H240789   4.034   6.906   2.380
13616TIP3   OH240790   4.351   1.710   5.648
13616TIP3    H140791   4.368   1.680   5.737
13616TIP3    H240792   4.386   1.641   5.592
13617TIP3   OH240793   5.088   1.093   4.562
13617TIP3    H140794   5.168   1.138   4.589
13617TIP3    H240795   5.064   1.135   4.480
13618TIP3   OH240796   1.920   5.393   0.595
13618TIP3    H140797   1.979   5.467   0.584
13618TIP3    H240798   1.836   5.423   0.560
13619TIP3   OH240799   0.636   6.274   0.285
13619TIP3    H140800   0.597   6.315   0.362
13619TIP3    H240801   0.561   6.240   0.236
13620TIP3   OH240802   1.276   6.603   0.094
13620TIP3    H140803   1.367   6.575   0.095
13620TIP3    H240804   1.260   6.634   0.184
13621TIP3   OH240805   6.877   4.019   5.280
13621TIP3    H140806   6.935   3.979   5.215
13621TIP3    H240807   6.936   4.053   5.347
13622TIP3   OH240808   7.707   2.546   0.242
13622TIP3    H140809   7.768   2.611   0.208
13622TIP3    H240810   7.621   2.586   0.232
13623TIP3   OH240811   7.683   3.775   1.345
13623TIP3    H140812   7.682   3.866   1.373
13623TIP3    H240813   7.608   3.767   1.286
13624TIP3   OH240814   4.517   4.703   3.405
13624TIP3    H140815   4.445   4.749   3.361
13624TIP3    H240816   4.474   4.639   3.462
13625TIP3   OH240817   4.094   7.400   5.057
13625TIP3    H140818   4.130   7.349   4.985
13625TIP3    H240819   4.150   7.379   5.132
13626TIP3   OH240820   3.375   5.516   2.106
13626TIP3    H140821   3.324   5.590   2.075
13626TIP3    H240822   3.416   5.480   2.027
13627TIP3   OH240823   5.188   5.866   4.359
13627TIP3    H140824   5.280   5.881   4.379
13627TIP3    H240825   5.145   5.868   4.445
13628TIP3   OH240826   5.869   0.180   5.262
13628TIP3    H140827   5.851   0.094   5.225
13628TIP3    H240828   5.908   0.229   5.190
13629TIP3   OH240829   4.619   4.622   3.086
13629TIP3    H140830   4.694   4.595   3.140
13629TIP3    H240831   4.575   4.690   3.138
13630TIP3   OH240832   5.998   7.688   0.028
13630TIP3    H140833   5.920   7.677   0.082
13630TIP3    H240834   6.015   7.782   0.029
13631TIP3   OH240835   4.126   1.209   5.163
13631TIP3    H140836   4.213   1.247   5.159
13631TIP3    H240837   4.137   1.127   5.212
13632TIP3   OH240838   5.336   2.018   3.023
13632TIP3    H140839   5.423   1.981   3.004
13632TIP3    H240840   5.335   2.028   3.119
13633TIP3   OH240841   8.277   0.614   1.351
13633TIP3    H140842   8.182   0.621   1.350
13633TIP3    H240843   8.303   0.639   1.262
13634TIP3   OH240844   4.546   1.851   0.519
13634TIP3    H140845   4.629   1.891   0.545
13634TIP3    H240846   4.564   1.815   0.432
13635TIP3   OH240847   2.631   2.668   3.254
13635TIP3    H140848   2.647   2.722   3.177
13635TIP3    H240849   2.545   2.630   3.240
13636TIP3   OH240850   2.753   5.128   1.411
13636TIP3    H140851   2.795   5.152   1.494
13636TIP3    H240852   2.660   5.126   1.431
13637TIP3   OH240853   7.963   1.008   2.504
13637TIP3    H140854   7.938   1.039   2.591
13637TIP3    H240855   8.049   0.968   2.517
13638TIP3   OH240856   2.580   2.030   1.698
13638TIP3    H140857   2.504   2.033   1.640
13638TIP3    H240858   2.646   2.085   1.654
13639TIP3   OH240859   7.696   4.937   5.204
13639TIP3    H140860   7.628   4.974   5.260
13639TIP3    H240861   7.764   5.005   5.201
13640TIP3   OH240862   2.135   0.942   3.319
13640TIP3    H140863   2.163   0.851   3.327
13640TIP3    H240864   2.212   0.988   3.286
13641TIP3   OH240865   2.109   6.205   4.787
13641TIP3    H140866   2.039   6.179   4.726
13641TIP3    H240867   2.077   6.177   4.873
13642TIP3   OH240868   2.449   1.988   1.386
13642TIP3    H140869   2.450   1.892   1.391
13642TIP3    H240870   2.541   2.012   1.377
13643TIP3   OH240871   4.038   2.478   3.354
13643TIP3    H140872   3.971   2.506   3.291
13643TIP3    H240873   4.061   2.558   3.401
13644TIP3   OH240874   5.733   4.097   6.609
13644TIP3    H140875   5.646   4.135   6.621
13644TIP3    H240876   5.758   4.123   6.521
13645TIP3   OH240877   5.385   3.976   5.773
13645TIP3    H140878   5.386   3.909   5.705
13645TIP3    H240879   5.473   4.014   5.769
13646TIP3   OH240880   4.401   7.723   6.276
13646TIP3    H140881   4.317   7.700   6.237
13646TIP3    H240882   4.379   7.772   6.355
13647TIP3   OH240883   3.452   3.538   6.090
13647TIP3    H140884   3.498   3.467   6.134
13647TIP3    H240885   3.516   3.575   6.030
13648TIP3   OH240886   7.720   3.136   6.769
13648TIP3    H140887   7.661   3.062   6.787
13648TIP3    H240888   7.681   3.180   6.694
13649TIP3   OH240889   4.558   6.635   0.303
13649TIP3    H140890   4.505   6.666   0.377
13649TIP3    H240891   4.591   6.550   0.332
13650TIP3   OH240892   1.177   5.930   2.807
13650TIP3    H140893   1.159   6.023   2.796
13650TIP3    H240894   1.101   5.887   2.768
13651TIP3   OH240895   3.906   2.404   4.744
13651TIP3    H140896   3.858   2.351   4.808
13651TIP3    H240897   3.841   2.429   4.679
13652TIP3   OH240898   5.862   1.470   0.130
13652TIP3    H140899   5.851   1.475   0.225
13652TIP3    H240900   5.812   1.544   0.096
13653TIP3   OH240901   6.334   6.673   0.402
13653TIP3    H140902   6.405   6.662   0.339
13653TIP3    H240903   6.255   6.679   0.347
13654TIP3   OH240904   7.123   6.314   0.871
13654TIP3    H140905   7.186   6.380   0.842
13654TIP3    H240906   7.122   6.249   0.801
13655TIP3   OH240907   0.408   7.385   5.649
13655TIP3    H140908   0.337   7.328   5.621
13655TIP3    H240909   0.467   7.390   5.573
13656TIP3   OH240910   2.925   1.343   4.007
13656TIP3    H140911   3.020   1.336   4.001
13656TIP3    H240912   2.897   1.256   4.035
13657TIP3   OH240913   2.732   3.168   6.653
13657TIP3    H140914   2.658   3.142   6.598
13657TIP3    H240915   2.798   3.100   6.639
13658TIP3   OH240916   8.175   6.326   0.090
13658TIP3    H140917   8.257   6.313   0.137
13658TIP3    H240918   8.189   6.282   0.006
13659TIP3   OH240919   5.424   6.717   2.349
13659TIP3    H140920   5.428   6.682   2.438
13659TIP3    H240921   5.455   6.807   2.358
13660TIP3   OH240922   8.093   2.842   2.448
13660TIP3    H140923   8.037   2.920   2.441
13660TIP3    H240924   8.046   2.774   2.401
13661TIP3   OH240925   1.416   0.685   3.879
13661TIP3    H140926   1.495   0.722   3.919
13661TIP3    H240927   1.418   0.716   3.789
13662TIP3   OH240928   6.779   0.041   4.906
13662TIP3    H140929   6.790   0.044   5.001
13662TIP3    H240930   6.685   0.029   4.893
13663TIP3   OH240931   4.312   4.334   4.395
13663TIP3    H140932   4.371   4.261   4.415
13663TIP3    H240933   4.314   4.340   4.299
13664TIP3   OH240934   3.518   2.288   2.396
13664TIP3    H140935   3.476   2.220   2.345
13664TIP3    H240936   3.525   2.363   2.337
13665TIP3   OH240937   1.853   2.813   5.178
13665TIP3    H140938   1.876   2.805   5.085
13665TIP3    H240939   1.937   2.805   5.224
13666TIP3   OH240940   1.468   3.953   0.655
13666TIP3    H140941   1.382   3.923   0.623
13666TIP3    H240942   1.451   3.982   0.744
13667TIP3   OH240943   2.781   7.755   6.389
13667TIP3    H140944   2.690   7.736   6.412
13667TIP3    H240945   2.784   7.851   6.380
13668TIP3   OH240946   8.138   1.681   6.308
13668TIP3    H140947   8.178   1.757   6.350
13668TIP3    H240948   8.175   1.606   6.354
13669TIP3   OH240949   0.111   4.770   5.125
13669TIP3    H140950   0.188   4.757   5.180
13669TIP3    H240951   0.126   4.855   5.082
13670TIP3   OH240952   7.085   7.347   1.568
13670TIP3    H140953   7.030   7.282   1.611
13670TIP3    H240954   7.136   7.297   1.505
13671TIP3   OH240955   0.402   4.179   5.417
13671TIP3    H140956   0.336   4.233   5.459
13671TIP3    H240957   0.418   4.107   5.478
13672TIP3   OH240958   1.279   4.180   1.290
13672TIP3    H140959   1.350   4.115   1.281
13672TIP3    H240960   1.324   4.260   1.317
13673TIP3   OH240961   1.574   6.039   4.294
13673TIP3    H140962   1.583   5.971   4.361
13673TIP3    H240963   1.603   6.119   4.337
13674TIP3   OH240964   0.104   4.017   1.954
13674TIP3    H140965   0.113   4.064   2.037
13674TIP3    H240966   0.099   3.925   1.979
13675TIP3   OH240967   1.653   7.096   0.579
13675TIP3    H140968   1.655   7.004   0.554
13675TIP3    H240969   1.740   7.129   0.556
13676TIP3   OH240970   7.742   3.951   6.641
13676TIP3    H140971   7.708   4.037   6.616
13676TIP3    H240972   7.682   3.919   6.708
13677TIP3   OH240973   7.472   2.057   3.621
13677TIP3    H140974   7.421   2.073   3.700
13677TIP3    H240975   7.417   1.999   3.569
13678TIP3   OH240976   3.977   0.444   0.029
13678TIP3    H140977   4.042   0.409  -0.031
13678TIP3    H240978   3.917   0.495  -0.026
13679TIP3   OH240979   1.157   0.176   5.718
13679TIP3    H140980   1.147   0.271   5.712
13679TIP3    H240981   1.092   0.141   5.657
13680TIP3   OH240982   3.551   7.023   0.627
13680TIP3    H140983   3.595   6.947   0.666
13680TIP3    H240984   3.617   7.092   0.628
13681TIP3   OH240985   1.346   3.200   6.106
13681TIP3    H140986   1.388   3.277   6.144
13681TIP3    H240987   1.402   3.127   6.130
13682TIP3   OH240988   7.910   1.000   5.711
13682TIP3    H140989   7.950   0.914   5.730
13682TIP3    H240990   7.948   1.059   5.775
13683TIP3   OH240991   6.899   5.798   5.596
13683TIP3    H140992   6.858   5.834   5.675
13683TIP3    H240993   6.958   5.730   5.629
13684TIP3   OH240994   5.700   0.896   3.239
13684TIP3    H140995   5.691   0.810   3.280
13684TIP3    H240996   5.675   0.883   3.148
13685TIP3   OH240997   1.878   3.285   2.382
13685TIP3    H140998   1.853   3.234   2.305
13685TIP3    H240999   1.957   3.332   2.356
13686TIP3   OH241000   2.294   3.739   3.912
13686TIP3    H141001   2.230   3.704   3.849
13686TIP3    H241002   2.330   3.817   3.868
13687TIP3   OH241003   7.171   6.798   0.878
13687TIP3    H141004   7.203   6.875   0.832
13687TIP3    H241005   7.082   6.785   0.844
13688TIP3   OH241006   4.665   0.397   3.355
13688TIP3    H141007   4.737   0.459   3.346
13688TIP3    H241008   4.597   0.445   3.401
13689TIP3   OH241009   1.457   2.522   5.477
13689TIP3    H141010   1.550   2.499   5.470
13689TIP3    H241011   1.450   2.607   5.433
13690TIP3   OH241012   8.206   3.663   4.489
13690TIP3    H141013   8.134   3.701   4.438
13690TIP3    H241014   8.177   3.574   4.507
13691TIP3   OH241015   5.039   1.966   4.675
13691TIP3    H141016   4.966   2.028   4.686
13691TIP3    H241017   5.060   1.938   4.764
13692TIP3   OH241018   7.835   3.774   4.697
13692TIP3    H141019   7.838   3.713   4.623
13692TIP3    H241020   7.860   3.859   4.660
13693TIP3   OH241021   3.421   4.169   5.616
13693TIP3    H141022   3.421   4.073   5.619
13693TIP3    H241023   3.491   4.191   5.554
13694TIP3   OH241024   3.615   7.577   3.809
13694TIP3    H141025   3.626   7.637   3.735
13694TIP3    H241026   3.663   7.498   3.784
13695TIP3   OH241027   0.619   0.968   1.386
13695TIP3    H141028   0.714   0.978   1.396
13695TIP3    H241029   0.582   1.020   1.458
13696TIP3   OH241030   6.974   1.145   5.490
13696TIP3    H141031   7.062   1.171   5.463
13696TIP3    H241032   6.935   1.225   5.526
13697TIP3   OH241033   3.817   2.248   0.322
13697TIP3    H141034   3.900   2.257   0.369
13697TIP3    H241035   3.752   2.291   0.379
13698TIP3   OH241036   2.194   5.188   5.213
13698TIP3    H141037   2.210   5.219   5.124
13698TIP3    H241038   2.117   5.131   5.206
13699TIP3   OH241039   5.201   3.430   6.289
13699TIP3    H141040   5.123   3.410   6.341
13699TIP3    H241041   5.273   3.431   6.353
13700TIP3   OH241042   3.671   3.891   3.989
13700TIP3    H141043   3.732   3.941   3.935
13700TIP3    H241044   3.602   3.863   3.929
13701TIP3   OH241045   5.636   1.210   0.348
13701TIP3    H141046   5.641   1.291   0.297
13701TIP3    H241047   5.722   1.170   0.338
13702TIP3   OH241048   8.068   4.186   5.859
13702TIP3    H141049   8.092   4.129   5.931
13702TIP3    H241050   8.151   4.216   5.823
13703TIP3   OH241051   3.554   1.076   2.173
13703TIP3    H141052   3.606   1.156   2.177
13703TIP3    H241053   3.517   1.067   2.261
13704TIP3   OH241054   3.805   6.379   6.343
13704TIP3    H141055   3.875   6.337   6.294
13704TIP3    H241056   3.740   6.403   6.276
13705TIP3   OH241057   4.768   2.078   0.680
13705TIP3    H141058   4.861   2.059   0.664
13705TIP3    H241059   4.769   2.147   0.746
13706TIP3   OH241060   0.504   3.895   2.490
13706TIP3    H141061   0.424   3.942   2.467
13706TIP3    H241062   0.572   3.934   2.436
13707TIP3   OH241063   5.638   7.280   4.355
13707TIP3    H141064   5.622   7.340   4.283
13707TIP3    H241065   5.573   7.211   4.343
13708TIP3   OH241066   7.906   6.256   3.182
13708TIP3    H141067   7.862   6.190   3.235
13708TIP3    H241068   7.840   6.284   3.118
13709TIP3   OH241069   6.915   2.360   6.770
13709TIP3    H141070   6.883   2.399   6.689
13709TIP3    H241071   6.998   2.320   6.745
13710TIP3   OH241072   5.922   5.017   1.163
13710TIP3    H141073   5.916   4.990   1.255
13710TIP3    H241074   5.869   5.096   1.158
13711TIP3   OH241075   5.281   0.055   0.912
13711TIP3    H141076   5.355   0.104   0.948
13711TIP3    H241077   5.313  -0.034   0.902
13712TIP3   OH241078   6.735   1.414   4.808
13712TIP3    H141079   6.702   1.463   4.733
13712TIP3    H241080   6.710   1.465   4.884
13713TIP3   OH241081   7.809   0.845   1.863
13713TIP3    H141082   7.733   0.812   1.815
13713TIP3    H241083   7.867   0.879   1.795
13714TIP3   OH241084   6.427   3.870   5.884
13714TIP3    H141085   6.499   3.928   5.859
13714TIP3    H241086   6.397   3.905   5.968
13715TIP3   OH241087   6.061   1.241   1.735
13715TIP3    H141088   5.967   1.257   1.723
13715TIP3    H241089   6.098   1.258   1.648
13716TIP3   OH241090   5.935   0.357   5.966
13716TIP3    H141091   5.918   0.283   5.907
13716TIP3    H241092   6.030   0.356   5.979
13717TIP3   OH241093   5.688   7.416   6.072
13717TIP3    H141094   5.617   7.391   6.132
13717TIP3    H241095   5.766   7.375   6.109
13718TIP3   OH241096   5.799   1.522   0.754
13718TIP3    H141097   5.715   1.568   0.761
13718TIP3    H241098   5.851   1.577   0.695
13719TIP3   OH241099   7.926   7.452   0.819
13719TIP3    H141100   7.910   7.534   0.865
13719TIP3    H241101   7.890   7.467   0.731
13720TIP3   OH241102   6.930   7.041   5.072
13720TIP3    H141103   6.997   6.973   5.062
13720TIP3    H241104   6.951   7.106   5.005
13721TIP3   OH241105   2.629   3.421   4.720
13721TIP3    H141106   2.699   3.459   4.774
13721TIP3    H241107   2.583   3.361   4.778
13722TIP3   OH241108   2.462   6.720   0.014
13722TIP3    H141109   2.521   6.751  -0.054
13722TIP3    H241110   2.471   6.784   0.085
13723TIP3   OH241111   5.965   5.499   2.686
13723TIP3    H141112   5.972   5.421   2.740
13723TIP3    H241113   6.018   5.565   2.730
13724TIP3   OH241114   7.194   4.929   5.387
13724TIP3    H141115   7.272   4.963   5.430
13724TIP3    H241116   7.125   4.992   5.408
13725TIP3   OH241117   5.022   4.863   4.803
13725TIP3    H141118   4.970   4.941   4.784
13725TIP3    H241119   5.025   4.815   4.720
13726TIP3   OH241120   1.562   2.530   6.658
13726TIP3    H141121   1.499   2.543   6.588
13726TIP3    H241122   1.525   2.460   6.712
13727TIP3   OH241123   7.620   4.093   2.390
13727TIP3    H141124   7.628   4.184   2.364
13727TIP3    H241125   7.553   4.056   2.333
13728TIP3   OH241126   4.526   1.583   3.590
13728TIP3    H141127   4.489   1.652   3.534
13728TIP3    H241128   4.582   1.533   3.532
13729TIP3   OH241129   5.351   7.461   5.539
13729TIP3    H141130   5.309   7.494   5.618
13729TIP3    H241131   5.393   7.538   5.499
13730TIP3   OH241132   1.930   6.814   0.431
13730TIP3    H141133   1.933   6.908   0.449
13730TIP3    H241134   1.969   6.774   0.509
13731TIP3   OH241135   6.694   3.635   3.556
13731TIP3    H141136   6.719   3.617   3.647
13731TIP3    H241137   6.627   3.569   3.536
13732TIP3   OH241138   3.633   5.831   2.582
13732TIP3    H141139   3.590   5.756   2.621
13732TIP3    H241140   3.659   5.886   2.656
13733TIP3   OH241141   2.059   6.088   1.629
13733TIP3    H141142   1.968   6.105   1.603
13733TIP3    H241143   2.057   6.087   1.725
13734TIP3   OH241144   0.781   0.792   0.482
13734TIP3    H141145   0.747   0.716   0.434
13734TIP3    H241146   0.802   0.758   0.569
13735TIP3   OH241147   1.830   6.983   2.624
13735TIP3    H141148   1.839   6.888   2.613
13735TIP3    H241149   1.781   7.011   2.547
13736TIP3   OH241150   0.538   6.012   1.508
13736TIP3    H141151   0.610   6.039   1.564
13736TIP3    H241152   0.532   5.917   1.520
13737TIP3   OH241153   1.170   3.944   3.852
13737TIP3    H141154   1.199   3.995   3.776
13737TIP3    H241155   1.114   4.004   3.901
13738TIP3   OH241156   4.735   6.269   3.914
13738TIP3    H141157   4.776   6.183   3.905
13738TIP3    H241158   4.797   6.320   3.966
13739TIP3   OH241159   6.412   1.344   0.050
13739TIP3    H141160   6.502   1.322   0.075
13739TIP3    H241161   6.413   1.345  -0.046
13740TIP3   OH241162   7.348   1.521   2.456
13740TIP3    H141163   7.353   1.544   2.363
13740TIP3    H241164   7.337   1.426   2.456
13741TIP3   OH241165   4.506   0.895   1.671
13741TIP3    H141166   4.450   0.970   1.690
13741TIP3    H241167   4.445   0.821   1.664
13742TIP3   OH241168   2.830   6.868   0.036
13742TIP3    H141169   2.920   6.835   0.034
13742TIP3    H241170   2.833   6.949  -0.016
13743TIP3   OH241171   3.096   2.201   1.546
13743TIP3    H141172   3.139   2.173   1.627
13743TIP3    H241173   3.008   2.165   1.552
13744TIP3   OH241174   2.913   0.435   1.996
13744TIP3    H141175   2.857   0.513   1.996
13744TIP3    H241176   2.854   0.362   2.008
13745TIP3   OH241177   7.620   2.408   5.918
13745TIP3    H141178   7.608   2.486   5.863
13745TIP3    H241179   7.590   2.435   6.005
13746TIP3   OH241180   8.190   3.684   1.807
13746TIP3    H141181   8.254   3.740   1.762
13746TIP3    H241182   8.179   3.725   1.893
13747TIP3   OH241183   0.585   6.465   4.529
13747TIP3    H141184   0.669   6.438   4.492
13747TIP3    H241185   0.587   6.560   4.525
13748TIP3   OH241186   6.138   7.311   6.587
13748TIP3    H141187   6.148   7.360   6.669
13748TIP3    H241188   6.056   7.344   6.550
13749TIP3   OH241189   6.233   3.462   0.910
13749TIP3    H141190   6.214   3.415   0.991
13749TIP3    H241191   6.315   3.424   0.878
13750TIP3   OH241192   7.929   5.741   0.803
13750TIP3    H141193   8.012   5.733   0.755
13750TIP3    H241194   7.890   5.822   0.769
13751TIP3   OH241195   7.077   0.529   6.010
13751TIP3    H141196   7.153   0.471   6.018
13751TIP3    H241197   7.002   0.471   6.015
13752TIP3   OH241198   2.101   5.616   6.303
13752TIP3    H141199   2.134   5.629   6.391
13752TIP3    H241200   2.128   5.527   6.279
13753TIP3   OH241201   1.186   2.175   3.688
13753TIP3    H141202   1.187   2.101   3.627
13753TIP3    H241203   1.112   2.229   3.661
13754TIP3   OH241204   1.536   4.629   5.469
13754TIP3    H141205   1.534   4.552   5.412
13754TIP3    H241206   1.596   4.605   5.540
13755TIP3   OH241207   2.117   3.080   5.489
13755TIP3    H141208   2.114   3.057   5.582
13755TIP3    H241209   2.203   3.050   5.459
13756TIP3   OH241210   3.850   4.150   6.317
13756TIP3    H141211   3.917   4.083   6.335
13756TIP3    H241212   3.870   4.220   6.379
13757TIP3   OH241213   0.717   2.888   3.343
13757TIP3    H141214   0.762   2.908   3.425
13757TIP3    H241215   0.679   2.971   3.315
13758TIP3   OH241216   5.053   2.920   4.307
13758TIP3    H141217   4.959   2.941   4.304
13758TIP3    H241218   5.071   2.878   4.223
13759TIP3   OH241219   2.247   3.491   1.052
13759TIP3    H141220   2.263   3.398   1.038
13759TIP3    H241221   2.316   3.536   1.004
13760TIP3   OH241222   4.739   2.387   4.593
13760TIP3    H141223   4.674   2.401   4.661
13760TIP3    H241224   4.745   2.471   4.548
13761TIP3   OH241225   6.115   5.104   3.257
13761TIP3    H141226   6.084   5.185   3.297
13761TIP3    H241227   6.043   5.076   3.200
13762TIP3   OH241228   7.945   4.252   6.305
13762TIP3    H141229   7.933   4.328   6.247
13762TIP3    H241230   7.890   4.184   6.267
13763TIP3   OH241231   5.292   3.640   2.660
13763TIP3    H141232   5.346   3.710   2.697
13763TIP3    H241233   5.202   3.670   2.672
13764TIP3   OH241234   5.402   2.214   2.563
13764TIP3    H141235   5.361   2.217   2.649
13764TIP3    H241236   5.395   2.122   2.536
13765TIP3   OH241237   0.446   5.715   0.404
13765TIP3    H141238   0.495   5.760   0.473
13765TIP3    H241239   0.356   5.712   0.437
13766TIP3   OH241240   5.458   5.207   1.492
13766TIP3    H141241   5.539   5.247   1.524
13766TIP3    H241242   5.390   5.242   1.549
13767TIP3   OH241243   4.890   4.878   0.981
13767TIP3    H141244   4.944   4.814   1.027
13767TIP3    H241245   4.820   4.899   1.042
13768TIP3   OH241246   7.083   1.771   1.499
13768TIP3    H141247   7.124   1.732   1.576
13768TIP3    H241248   7.037   1.699   1.457
13769TIP3   OH241249   6.668   5.581   0.715
13769TIP3    H141250   6.581   5.544   0.708
13769TIP3    H241251   6.654   5.674   0.735
13770TIP3   OH241252   6.668   7.436   6.642
13770TIP3    H141253   6.726   7.511   6.653
13770TIP3    H241254   6.662   7.423   6.548
13771TIP3   OH241255   7.867   1.283   0.419
13771TIP3    H141256   7.788   1.275   0.472
13771TIP3    H241257   7.908   1.197   0.423
13772TIP3   OH241258   3.584   4.992   0.588
13772TIP3    H141259   3.677   4.990   0.565
13772TIP3    H241260   3.564   5.084   0.598
13773TIP3   OH241261   2.170   3.098   0.253
13773TIP3    H141262   2.257   3.060   0.246
13773TIP3    H241263   2.112   3.023   0.264
13774TIP3   OH241264   7.152   7.421   1.948
13774TIP3    H141265   7.189   7.359   1.886
13774TIP3    H241266   7.192   7.398   2.032
13775TIP3   OH241267   5.894   3.529   1.592
13775TIP3    H141268   5.844   3.448   1.598
13775TIP3    H241269   5.873   3.577   1.672
13776TIP3   OH241270   7.620   0.542   0.783
13776TIP3    H141271   7.557   0.504   0.722
13776TIP3    H241272   7.706   0.517   0.747
13777TIP3   OH241273   0.310   0.464   4.588
13777TIP3    H141274   0.346   0.483   4.502
13777TIP3    H241275   0.251   0.390   4.574
13778TIP3   OH241276   0.349   7.030   4.097
13778TIP3    H141277   0.269   6.997   4.056
13778TIP3    H241278   0.335   7.124   4.103
13779TIP3   OH241279   4.819   1.216   2.290
13779TIP3    H141280   4.798   1.216   2.197
13779TIP3    H241281   4.899   1.268   2.296
13780TIP3   OH241282   1.493   5.131   4.363
13780TIP3    H141283   1.540   5.190   4.422
13780TIP3    H241284   1.508   5.167   4.276
13781TIP3   OH241285   3.579   4.053   6.454
13781TIP3    H141286   3.665   4.065   6.494
13781TIP3    H241287   3.597   4.034   6.362
13782TIP3   OH241288   3.460   2.749   3.501
13782TIP3    H141289   3.459   2.667   3.452
13782TIP3    H241290   3.521   2.732   3.574
13783TIP3   OH241291   4.336   2.088   1.598
13783TIP3    H141292   4.289   2.052   1.523
13783TIP3    H241293   4.363   2.175   1.569
13784TIP3   OH241294   4.721   3.661   4.430
13784TIP3    H141295   4.812   3.630   4.433
13784TIP3    H241296   4.728   3.756   4.433
13785TIP3   OH241297   4.138   1.821   6.267
13785TIP3    H141298   4.114   1.771   6.345
13785TIP3    H241299   4.222   1.861   6.289
13786TIP3   OH241300   5.323   4.703   5.685
13786TIP3    H141301   5.251   4.762   5.709
13786TIP3    H241302   5.379   4.754   5.627
13787TIP3   OH241303   5.643   6.391   4.928
13787TIP3    H141304   5.678   6.303   4.940
13787TIP3    H241305   5.573   6.380   4.864
13788TIP3   OH241306   3.472   1.791   1.463
13788TIP3    H141307   3.467   1.706   1.507
13788TIP3    H241308   3.381   1.818   1.453
13789TIP3   OH241309   5.043   0.850   2.589
13789TIP3    H141310   4.968   0.805   2.550
13789TIP3    H241311   5.113   0.785   2.588
13790TIP3   OH241312   2.662   2.060   1.162
13790TIP3    H141313   2.674   2.154   1.172
13790TIP3    H241314   2.621   2.050   1.076
13791TIP3   OH241315   8.123   4.371   2.781
13791TIP3    H141316   8.042   4.373   2.831
13791TIP3    H241317   8.113   4.442   2.717
13792TIP3   OH241318   8.266   6.876   2.220
13792TIP3    H141319   8.212   6.929   2.162
13792TIP3    H241320   8.274   6.792   2.176
13793TIP3   OH241321   6.326   7.654   6.016
13793TIP3    H141322   6.317   7.734   5.964
13793TIP3    H241323   6.298   7.584   5.957
13794TIP3   OH241324   6.642   2.987   5.308
13794TIP3    H141325   6.586   2.922   5.265
13794TIP3    H241326   6.603   3.071   5.286
13795TIP3   OH241327   3.147   2.041   0.420
13795TIP3    H141328   3.217   2.068   0.361
13795TIP3    H241329   3.147   1.946   0.415
13796TIP3   OH241330   2.685   0.049   6.229
13796TIP3    H141331   2.687   0.021   6.138
13796TIP3    H241332   2.694   0.144   6.225
13797TIP3   OH241333   1.891   4.328   5.680
13797TIP3    H141334   1.830   4.258   5.703
13797TIP3    H241335   1.916   4.367   5.765
13798TIP3   OH241336   1.647   2.187   0.758
13798TIP3    H141337   1.710   2.256   0.780
13798TIP3    H241338   1.698   2.126   0.705
13799TIP3   OH241339   3.889   4.722   4.145
13799TIP3    H141340   3.905   4.630   4.165
13799TIP3    H241341   3.959   4.747   4.085
13800TIP3   OH241342   7.024   6.715   4.501
13800TIP3    H141343   7.056   6.798   4.468
13800TIP3    H241344   6.932   6.712   4.475
13801TIP3   OH241345   3.961   6.493   6.542
13801TIP3    H141346   3.907   6.515   6.466
13801TIP3    H241347   4.002   6.410   6.519
13802TIP3   OH241348   4.854   4.662   0.655
13802TIP3    H141349   4.857   4.682   0.749
13802TIP3    H241350   4.849   4.566   0.652
13803TIP3   OH241351   0.603   7.678   3.297
13803TIP3    H141352   0.596   7.771   3.274
13803TIP3    H241353   0.626   7.678   3.390
13804TIP3   OH241354   2.814   1.414   3.270
13804TIP3    H141355   2.738   1.373   3.310
13804TIP3    H241356   2.777   1.475   3.206
13805TIP3   OH241357   1.998   7.721   2.877
13805TIP3    H141358   1.965   7.731   2.787
13805TIP3    H241359   1.923   7.690   2.927
13806TIP3   OH241360   7.932   6.279   1.149
13806TIP3    H141361   7.852   6.281   1.201
13806TIP3    H241362   7.931   6.193   1.108
13807TIP3   OH241363   0.275   5.036   2.102
13807TIP3    H141364   0.298   5.075   2.187
13807TIP3    H241365   0.190   4.994   2.117
13808TIP3   OH241366   6.976   2.400   4.982
13808TIP3    H141367   6.949   2.492   4.992
13808TIP3    H241368   6.920   2.366   4.912
13809TIP3   OH241369   4.572   6.954   1.438
13809TIP3    H141370   4.543   6.875   1.483
13809TIP3    H241371   4.600   6.923   1.352
13810TIP3   OH241372   4.241   3.625   1.048
13810TIP3    H141373   4.179   3.603   0.979
13810TIP3    H241374   4.190   3.673   1.112
13811TIP3   OH241375   2.144   5.312   6.130
13811TIP3    H141376   2.083   5.240   6.114
13811TIP3    H241377   2.168   5.302   6.222
13812TIP3   OH241378   1.032   1.470   0.497
13812TIP3    H141379   0.986   1.530   0.556
13812TIP3    H241380   0.988   1.480   0.413
13813TIP3   OH241381   3.273   1.653   3.464
13813TIP3    H141382   3.246   1.567   3.432
13813TIP3    H241383   3.196   1.687   3.508
13814TIP3   OH241384   1.971   0.159   6.418
13814TIP3    H141385   1.904   0.102   6.454
13814TIP3    H241386   1.995   0.118   6.334
13815TIP3   OH241387   7.635   5.311   1.496
13815TIP3    H141388   7.653   5.370   1.423
13815TIP3    H241389   7.587   5.364   1.559
13816TIP3   OH241390   5.204   2.815   5.499
13816TIP3    H141391   5.240   2.865   5.572
13816TIP3    H241392   5.272   2.751   5.477
13817TIP3   OH241393   1.322   5.551   4.016
13817TIP3    H141394   1.366   5.558   3.932
13817TIP3    H241395   1.333   5.637   4.056
13818TIP3   OH241396   6.535   5.093   3.709
13818TIP3    H141397   6.466   5.130   3.765
13818TIP3    H241398   6.539   5.152   3.633
13819TIP3   OH241399   5.928   1.742   1.270
13819TIP3    H141400   5.840   1.776   1.253
13819TIP3    H241401   5.919   1.647   1.264
13820TIP3   OH241402   6.129   2.932   3.772
13820TIP3    H141403   6.189   3.007   3.775
13820TIP3    H241404   6.062   2.953   3.837
13821TIP3   OH241405   6.104   6.563   3.336
13821TIP3    H141406   6.068   6.598   3.417
13821TIP3    H241407   6.120   6.471   3.354
13822TIP3   OH241408   7.805   0.623   2.632
13822TIP3    H141409   7.790   0.634   2.726
13822TIP3    H241410   7.775   0.705   2.593
13823TIP3   OH241411   7.413   2.974   4.420
13823TIP3    H141412   7.449   3.050   4.466
13823TIP3    H241413   7.490   2.922   4.395
13824TIP3   OH241414   0.529   0.812   4.483
13824TIP3    H141415   0.598   0.817   4.417
13824TIP3    H241416   0.450   0.839   4.437
13825TIP3   OH241417   5.933   4.177   2.174
13825TIP3    H141418   5.873   4.118   2.219
13825TIP3    H241419   5.971   4.231   2.244
13826TIP3   OH241420   1.578   6.081   2.145
13826TIP3    H141421   1.595   5.989   2.166
13826TIP3    H241422   1.594   6.087   2.051
13827TIP3   OH241423   6.556   6.160   4.410
13827TIP3    H141424   6.565   6.091   4.476
13827TIP3    H241425   6.525   6.236   4.460
13828TIP3   OH241426   2.893   0.747   1.391
13828TIP3    H141427   2.927   0.706   1.470
13828TIP3    H241428   2.816   0.694   1.368
13829TIP3   OH241429   3.942   4.932   5.754
13829TIP3    H141430   3.871   4.870   5.771
13829TIP3    H241431   3.947   4.937   5.658
13830TIP3   OH241432  -0.002   7.261   4.728
13830TIP3    H141433   0.073   7.259   4.787
13830TIP3    H241434   0.018   7.331   4.665
13831TIP3   OH241435   0.375   4.029   4.713
13831TIP3    H141436   0.400   4.113   4.677
13831TIP3    H241437   0.305   3.998   4.656
13832TIP3   OH241438   7.468   4.876   2.674
13832TIP3    H141439   7.458   4.819   2.598
13832TIP3    H241440   7.433   4.961   2.646
13833TIP3   OH241441   5.645   6.203   3.376
13833TIP3    H141442   5.694   6.284   3.366
13833TIP3    H241443   5.705   6.144   3.421
13834TIP3   OH241444   4.335   5.447   0.373
13834TIP3    H141445   4.391   5.382   0.330
13834TIP3    H241446   4.386   5.478   0.447
13835TIP3   OH241447   7.165   7.695   5.621
13835TIP3    H141448   7.156   7.697   5.716
13835TIP3    H241449   7.086   7.739   5.589
13836TIP3   OH241450   1.967   6.603   1.086
13836TIP3    H141451   1.911   6.667   1.130
13836TIP3    H241452   2.015   6.560   1.157
13837TIP3   OH241453   3.202   1.661   5.544
13837TIP3    H141454   3.165   1.710   5.617
13837TIP3    H241455   3.295   1.679   5.548
13838TIP3   OH241456   4.328   6.378   2.774
13838TIP3    H141457   4.392   6.319   2.733
13838TIP3    H241458   4.366   6.465   2.761
13839TIP3   OH241459   1.333   0.918   4.270
13839TIP3    H141460   1.260   0.863   4.301
13839TIP3    H241461   1.311   0.937   4.179
13840TIP3   OH241462   0.899   5.615   6.007
13840TIP3    H141463   0.940   5.700   5.994
13840TIP3    H241464   0.922   5.565   5.929
13841TIP3   OH241465   2.188   2.619   5.150
13841TIP3    H141466   2.137   2.656   5.223
13841TIP3    H241467   2.167   2.525   5.152
13842TIP3   OH241468   2.409   1.501   0.506
13842TIP3    H141469   2.409   1.446   0.428
13842TIP3    H241470   2.489   1.554   0.498
13843TIP3   OH241471   2.297   1.788   4.227
13843TIP3    H141472   2.300   1.864   4.285
13843TIP3    H241473   2.328   1.821   4.142
13844TIP3   OH241474   4.220   7.449   6.475
13844TIP3    H141475   4.207   7.540   6.504
13844TIP3    H241476   4.208   7.453   6.380
13845TIP3   OH241477   0.594   1.566   0.042
13845TIP3    H141478   0.547   1.599   0.119
13845TIP3    H241479   0.656   1.635   0.020
13846TIP3   OH241480   5.691   5.352   3.240
13846TIP3    H141481   5.622   5.410   3.207
13846TIP3    H241482   5.760   5.411   3.271
13847TIP3   OH241483   6.592   6.275   1.515
13847TIP3    H141484   6.535   6.229   1.453
13847TIP3    H241485   6.657   6.319   1.460
13848TIP3   OH241486   4.057   1.827   0.617
13848TIP3    H141487   4.103   1.775   0.551
13848TIP3    H241488   4.111   1.905   0.628
13849TIP3   OH241489   6.484   4.920   3.319
13849TIP3    H141490   6.416   4.942   3.383
13849TIP3    H241491   6.516   4.834   3.348
13850TIP3   OH241492   4.779   4.651   4.333
13850TIP3    H141493   4.701   4.603   4.304
13850TIP3    H241494   4.847   4.625   4.271
13851TIP3   OH241495   5.234   6.238   3.801
13851TIP3    H141496   5.252   6.256   3.894
13851TIP3    H241497   5.283   6.158   3.783
13852TIP3   OH241498   3.559   0.467   3.832
13852TIP3    H141499   3.615   0.519   3.773
13852TIP3    H241500   3.499   0.531   3.869
13853TIP3   OH241501   7.111   3.982   3.869
13853TIP3    H141502   7.086   4.053   3.928
13853TIP3    H241503   7.151   3.916   3.926
13854TIP3   OH241504   3.341   7.184   6.156
13854TIP3    H141505   3.359   7.132   6.235
13854TIP3    H241506   3.411   7.159   6.095
13855TIP3   OH241507   2.729   1.011   3.984
13855TIP3    H141508   2.636   1.025   4.000
13855TIP3    H241509   2.766   0.997   4.071
13856TIP3   OH241510   7.393   2.117   3.101
13856TIP3    H141511   7.375   2.100   3.008
13856TIP3    H241512   7.489   2.115   3.107
13857TIP3   OH241513   4.380   6.009   5.782
13857TIP3    H141514   4.329   5.976   5.856
13857TIP3    H241515   4.421   6.090   5.814
13858TIP3   OH241516   2.492   7.554   3.525
13858TIP3    H141517   2.490   7.509   3.440
13858TIP3    H241518   2.585   7.561   3.547
13859TIP3   OH241519   2.913   6.309   6.582
13859TIP3    H141520   2.856   6.233   6.577
13859TIP3    H241521   2.856   6.383   6.560
13860TIP3   OH241522   6.545   4.774   4.210
13860TIP3    H141523   6.619   4.817   4.167
13860TIP3    H241524   6.568   4.772   4.302
13861TIP3   OH241525   5.236   1.609   3.149
13861TIP3    H141526   5.273   1.636   3.065
13861TIP3    H241527   5.166   1.548   3.125
13862TIP3   OH241528   4.249   3.540   2.635
13862TIP3    H141529   4.196   3.469   2.597
13862TIP3    H241530   4.286   3.585   2.559
13863TIP3   OH241531   1.535   4.400   0.484
13863TIP3    H141532   1.560   4.442   0.402
13863TIP3    H241533   1.561   4.308   0.473
13864TIP3   OH241534   6.113   0.916   3.987
13864TIP3    H141535   6.102   0.969   3.908
13864TIP3    H241536   6.135   0.829   3.955
13865TIP3   OH241537   5.802   6.784   3.318
13865TIP3    H141538   5.737   6.836   3.271
13865TIP3    H241539   5.886   6.811   3.282
13866TIP3   OH241540   5.233   0.188   4.374
13866TIP3    H141541   5.168   0.146   4.317
13866TIP3    H241542   5.268   0.117   4.427
13867TIP3   OH241543   6.893   7.116   0.077
13867TIP3    H141544   6.818   7.175   0.087
13867TIP3    H241545   6.909   7.082   0.165
13868TIP3   OH241546   5.840   0.708   1.035
13868TIP3    H141547   5.908   0.751   0.983
13868TIP3    H241548   5.761   0.715   0.982
13869TIP3   OH241549   6.517   2.366   5.604
13869TIP3    H141550   6.439   2.392   5.653
13869TIP3    H241551   6.579   2.336   5.670
13870TIP3   OH241552   1.110   2.543   1.617
13870TIP3    H141553   1.195   2.576   1.648
13870TIP3    H241554   1.046   2.606   1.649
13871TIP3   OH241555   2.771   1.061   6.273
13871TIP3    H141556   2.749   1.153   6.259
13871TIP3    H241557   2.733   1.039   6.357
13872TIP3   OH241558   7.195   4.631   0.375
13872TIP3    H141559   7.251   4.708   0.386
13872TIP3    H241560   7.179   4.600   0.464
13873TIP3   OH241561   5.083   4.306   0.526
13873TIP3    H141562   4.999   4.287   0.485
13873TIP3    H241563   5.103   4.396   0.499
13874TIP3   OH241564   3.121   7.307   0.613
13874TIP3    H141565   3.036   7.294   0.654
13874TIP3    H241566   3.173   7.231   0.639
13875TIP3   OH241567   7.353   1.040   2.028
13875TIP3    H141568   7.271   1.047   1.980
13875TIP3    H241569   7.418   1.013   1.962
13876TIP3   OH241570   0.298   1.483   2.405
13876TIP3    H141571   0.297   1.450   2.495
13876TIP3    H241572   0.206   1.480   2.378
13877TIP3   OH241573   7.543   0.947   5.305
13877TIP3    H141574   7.535   0.854   5.284
13877TIP3    H241575   7.633   0.957   5.337
13878TIP3   OH241576   4.139   6.735   5.168
13878TIP3    H141577   4.173   6.697   5.249
13878TIP3    H241578   4.180   6.684   5.098
13879TIP3   OH241579   5.007   0.490   5.804
13879TIP3    H141580   5.101   0.477   5.816
13879TIP3    H241581   4.996   0.497   5.709
13880TIP3   OH241582   4.184   1.443   6.688
13880TIP3    H141583   4.147   1.358   6.664
13880TIP3    H241584   4.216   1.431   6.777
13881TIP3   OH241585   4.766   0.822   4.102
13881TIP3    H141586   4.776   0.916   4.087
13881TIP3    H241587   4.685   0.814   4.152
13882TIP3   OH241588   0.767   5.444   2.324
13882TIP3    H141589   0.741   5.381   2.257
13882TIP3    H241590   0.695   5.507   2.327
13883TIP3   OH241591   4.599   5.264   1.422
13883TIP3    H141592   4.570   5.182   1.382
13883TIP3    H241593   4.579   5.331   1.356
13884TIP3   OH241594   1.196   2.045   1.864
13884TIP3    H141595   1.251   2.122   1.851
13884TIP3    H241596   1.107   2.078   1.858
13885TIP3   OH241597   2.964   6.482   4.986
13885TIP3    H141598   3.002   6.484   5.074
13885TIP3    H241599   2.985   6.395   4.953
13886TIP3   OH241600   4.865   4.550   0.931
13886TIP3    H141601   4.775   4.518   0.944
13886TIP3    H241602   4.881   4.606   1.007
13887TIP3   OH241603   5.552   4.444   4.886
13887TIP3    H141604   5.590   4.375   4.833
13887TIP3    H241605   5.578   4.525   4.842
13888TIP3   OH241606   3.784   4.297   3.981
13888TIP3    H141607   3.804   4.227   3.919
13888TIP3    H241608   3.829   4.270   4.062
13889TIP3   OH241609   0.955   5.057   1.815
13889TIP3    H141610   0.965   5.110   1.736
13889TIP3    H241611   0.864   5.071   1.842
13890TIP3   OH241612   2.255   4.630   5.598
13890TIP3    H141613   2.282   4.651   5.687
13890TIP3    H241614   2.321   4.568   5.567
13891TIP3   OH241615   6.022   1.250   4.977
13891TIP3    H141616   6.029   1.307   4.900
13891TIP3    H241617   5.950   1.190   4.957
13892TIP3   OH241618   7.813   2.409   1.303
13892TIP3    H141619   7.905   2.425   1.322
13892TIP3    H241620   7.766   2.454   1.374
13893TIP3   OH241621   7.018   1.271   0.029
13893TIP3    H141622   7.043   1.251   0.119
13893TIP3    H241623   7.012   1.185  -0.014
13894TIP3   OH241624   4.655   4.077   4.273
13894TIP3    H141625   4.658   4.043   4.184
13894TIP3    H241626   4.703   4.160   4.269
13895TIP3   OH241627   5.908   3.486   4.940
13895TIP3    H141628   5.822   3.444   4.947
13895TIP3    H241629   5.908   3.526   4.854
13896TIP3   OH241630   4.154   7.591   5.614
13896TIP3    H141631   4.119   7.618   5.529
13896TIP3    H241632   4.189   7.504   5.599
13897TIP3   OH241633   2.277   1.929   1.122
13897TIP3    H141634   2.256   1.876   1.200
13897TIP3    H241635   2.250   2.017   1.146
13898TIP3   OH241636   6.730   1.028   5.856
13898TIP3    H141637   6.753   0.976   5.933
13898TIP3    H241638   6.714   0.963   5.787
13899TIP3   OH241639   4.248   7.328   5.524
13899TIP3    H141640   4.318   7.282   5.571
13899TIP3    H241641   4.169   7.308   5.575
13900TIP3   OH241642   3.007   0.132   6.310
13900TIP3    H141643   3.004   0.224   6.285
13900TIP3    H241644   3.065   0.092   6.246
13901TIP3   OH241645   7.535   4.934   3.670
13901TIP3    H141646   7.521   4.860   3.610
13901TIP3    H241647   7.461   4.992   3.654
13902TIP3   OH241648   3.442   4.311   4.915
13902TIP3    H141649   3.528   4.280   4.885
13902TIP3    H241650   3.413   4.372   4.848
13903TIP3   OH241651   2.894   0.555   2.521
13903TIP3    H141652   2.823   0.509   2.566
13903TIP3    H241653   2.941   0.486   2.473
13904TIP3   OH241654   5.084   1.287   4.949
13904TIP3    H141655   5.053   1.376   4.966
13904TIP3    H241656   5.024   1.231   4.999
13905TIP3   OH241657   7.899   0.957   1.637
13905TIP3    H141658   7.883   1.040   1.684
13905TIP3    H241659   7.934   0.984   1.552
13906TIP3   OH241660   1.653   1.034   2.822
13906TIP3    H141661   1.687   1.122   2.839
13906TIP3    H241662   1.660   1.023   2.727
13907TIP3   OH241663   0.099   6.293   4.801
13907TIP3    H141664   0.181   6.312   4.847
13907TIP3    H241665   0.051   6.235   4.859
13908TIP3   OH241666   2.791   1.135   4.518
13908TIP3    H141667   2.721   1.173   4.465
13908TIP3    H241668   2.860   1.201   4.518
13909TIP3   OH241669   6.700   3.679   2.845
13909TIP3    H141670   6.655   3.706   2.925
13909TIP3    H241671   6.652   3.721   2.774
13910TIP3   OH241672   2.640   5.820   3.596
13910TIP3    H141673   2.689   5.739   3.587
13910TIP3    H241674   2.700   5.888   3.567
13911TIP3   OH241675   7.558   3.711   3.551
13911TIP3    H141676   7.506   3.632   3.535
13911TIP3    H241677   7.505   3.783   3.516
13912TIP3   OH241678   7.999   2.844   2.009
13912TIP3    H141679   7.979   2.751   2.010
13912TIP3    H241680   7.922   2.885   1.971
13913TIP3   OH241681   7.568   3.115   6.529
13913TIP3    H141682   7.481   3.076   6.536
13913TIP3    H241683   7.590   3.109   6.436
13914TIP3   OH241684   3.703   2.037   3.888
13914TIP3    H141685   3.709   2.033   3.793
13914TIP3    H241686   3.623   1.988   3.909
13915TIP3   OH241687   3.075   2.621   6.677
13915TIP3    H141688   3.145   2.594   6.617
13915TIP3    H241689   3.117   2.680   6.738
13916TIP3   OH241690   1.021   5.302   0.141
13916TIP3    H141691   0.999   5.273   0.053
13916TIP3    H241692   0.981   5.237   0.199
13917TIP3   OH241693   4.683   5.787   5.322
13917TIP3    H141694   4.644   5.847   5.385
13917TIP3    H241695   4.668   5.828   5.237
13918TIP3   OH241696   2.198   2.970   5.170
13918TIP3    H141697   2.102   2.965   5.174
13918TIP3    H241698   2.218   2.958   5.077
13919TIP3   OH241699   2.189   3.197   1.629
13919TIP3    H141700   2.202   3.281   1.674
13919TIP3    H241701   2.113   3.212   1.573
13920TIP3   OH241702   4.354   4.506   3.536
13920TIP3    H141703   4.272   4.473   3.500
13920TIP3    H241704   4.332   4.535   3.625
13921TIP3   OH241705   0.089   4.429   2.861
13921TIP3    H141706   0.000   4.409   2.834
13921TIP3    H241707   0.119   4.496   2.800
13922TIP3   OH241708   4.743   6.692   2.137
13922TIP3    H141709   4.662   6.740   2.155
13922TIP3    H241710   4.751   6.630   2.209
13923TIP3   OH241711   4.074   1.844   4.721
13923TIP3    H141712   4.084   1.819   4.628
13923TIP3    H241713   4.136   1.916   4.733
13924TIP3   OH241714   2.333   3.417   3.833
13924TIP3    H141715   2.322   3.322   3.837
13924TIP3    H241716   2.338   3.436   3.739
13925TIP3   OH241717   2.813   7.442   3.184
13925TIP3    H141718   2.855   7.429   3.269
13925TIP3    H241719   2.860   7.516   3.145
13926TIP3   OH241720   0.854   3.383   4.520
13926TIP3    H141721   0.852   3.466   4.568
13926TIP3    H241722   0.801   3.324   4.573
13927TIP3   OH241723   2.987   5.600   1.164
13927TIP3    H141724   3.004   5.681   1.115
13927TIP3    H241725   2.937   5.545   1.104
13928TIP3   OH241726   5.427   5.081   3.330
13928TIP3    H141727   5.479   5.084   3.251
13928TIP3    H241728   5.489   5.060   3.400
13929TIP3   OH241729   1.230   6.761   1.175
13929TIP3    H141730   1.206   6.804   1.093
13929TIP3    H241731   1.319   6.730   1.161
13930TIP3   OH241732   6.097   7.109   1.761
13930TIP3    H141733   6.089   7.017   1.734
13930TIP3    H241734   6.099   7.158   1.678
13931TIP3   OH241735   3.167   0.126   3.568
13931TIP3    H141736   3.256   0.125   3.534
13931TIP3    H241737   3.147   0.034   3.584
13932TIP3   OH241738   1.379   6.575   2.740
13932TIP3    H141739   1.339   6.638   2.800
13932TIP3    H241740   1.358   6.490   2.777
13933TIP3   OH241741   7.559   4.700   0.569
13933TIP3    H141742   7.474   4.660   0.584
13933TIP3    H241743   7.542   4.770   0.505
13934TIP3   OH241744   3.051   5.732   3.557
13934TIP3    H141745   3.091   5.799   3.502
13934TIP3    H241746   2.957   5.751   3.553
13935TIP3   OH241747   7.055   4.554   2.362
13935TIP3    H141748   7.148   4.551   2.341
13935TIP3    H241749   7.045   4.631   2.417
13936TIP3   OH241750   5.543   6.106   3.111
13936TIP3    H141751   5.582   6.128   3.195
13936TIP3    H241752   5.603   6.040   3.073
13937TIP3   OH241753   3.885   1.154   4.076
13937TIP3    H141754   3.955   1.105   4.035
13937TIP3    H241755   3.903   1.148   4.170
13938TIP3   OH241756   4.018   2.219   3.259
13938TIP3    H141757   4.063   2.172   3.328
13938TIP3    H241758   4.022   2.311   3.285
13939TIP3   OH241759   3.775   3.513   6.077
13939TIP3    H141760   3.859   3.502   6.121
13939TIP3    H241761   3.755   3.426   6.041
13940TIP3   OH241762   1.615   6.417   2.900
13940TIP3    H141763   1.710   6.424   2.906
13940TIP3    H241764   1.582   6.497   2.940
13941TIP3   OH241765   3.402   4.223   0.756
13941TIP3    H141766   3.430   4.262   0.673
13941TIP3    H241767   3.457   4.265   0.822
13942TIP3   OH241768   5.284   3.925   2.132
13942TIP3    H141769   5.315   3.894   2.047
13942TIP3    H241770   5.361   3.966   2.172
13943TIP3   OH241771   1.652   1.711   4.595
13943TIP3    H141772   1.636   1.681   4.684
13943TIP3    H241773   1.571   1.692   4.548
13944TIP3   OH241774   5.601   5.386   6.526
13944TIP3    H141775   5.566   5.342   6.449
13944TIP3    H241776   5.559   5.343   6.600
13945TIP3   OH241777   5.200   4.079   6.139
13945TIP3    H141778   5.181   4.016   6.070
13945TIP3    H241779   5.285   4.052   6.173
13946TIP3   OH241780   3.969   0.604   1.632
13946TIP3    H141781   4.021   0.563   1.701
13946TIP3    H241782   3.881   0.568   1.643
13947TIP3   OH241783   0.225   1.821   5.891
13947TIP3    H141784   0.172   1.766   5.948
13947TIP3    H241785   0.224   1.776   5.806
13948TIP3   OH241786   3.247   7.768   2.589
13948TIP3    H141787   3.155   7.743   2.595
13948TIP3    H241788   3.295   7.685   2.590
13949TIP3   OH241789   4.759   7.298   2.780
13949TIP3    H141790   4.854   7.286   2.783
13949TIP3    H241791   4.727   7.257   2.860
13950TIP3   OH241792   1.125   0.771   2.147
13950TIP3    H141793   1.138   0.807   2.235
13950TIP3    H241794   1.064   0.698   2.160
13951TIP3   OH241795   1.362   4.985   1.812
13951TIP3    H141796   1.413   5.053   1.856
13951TIP3    H241797   1.304   4.952   1.880
13952TIP3   OH241798   2.442   7.521   6.683
13952TIP3    H141799   2.495   7.512   6.763
13952TIP3    H241800   2.504   7.506   6.612
13953TIP3   OH241801   0.194   3.968   6.418
13953TIP3    H141802   0.248   4.031   6.466
13953TIP3    H241803   0.240   3.885   6.428
13954TIP3   OH241804   5.545   5.503   6.033
13954TIP3    H141805   5.529   5.547   5.950
13954TIP3    H241806   5.568   5.573   6.094
13955TIP3   OH241807   3.618   1.463   2.792
13955TIP3    H141808   3.566   1.541   2.809
13955TIP3    H241809   3.708   1.495   2.788
13956TIP3   OH241810   7.258   6.907   2.494
13956TIP3    H141811   7.171   6.875   2.470
13956TIP3    H241812   7.318   6.861   2.435
13957TIP3   OH241813   7.713   0.382   5.226
13957TIP3    H141814   7.702   0.477   5.232
13957TIP3    H241815   7.755   0.357   5.308
13958TIP3   OH241816   0.062   3.174   5.033
13958TIP3    H141817   0.128   3.221   5.084
13958TIP3    H241818  -0.006   3.239   5.016
13959TIP3   OH241819   8.131   7.265   2.089
13959TIP3    H141820   8.107   7.302   2.004
13959TIP3    H241821   8.207   7.316   2.118
13960TIP3   OH241822   4.909   4.956   1.374
13960TIP3    H141823   4.831   4.955   1.429
13960TIP3    H241824   4.960   4.880   1.401
13961TIP3   OH241825   0.669   3.620   5.003
13961TIP3    H141826   0.665   3.578   5.089
13961TIP3    H241827   0.749   3.585   4.964
13962TIP3   OH241828   6.150   2.517   0.209
13962TIP3    H141829   6.235   2.473   0.216
13962TIP3    H241830   6.113   2.511   0.297
13963TIP3   OH241831   1.420   7.444   0.284
13963TIP3    H141832   1.513   7.420   0.292
13963TIP3    H241833   1.391   7.398   0.206
13964TIP3   OH241834   5.414   1.826   5.178
13964TIP3    H141835   5.375   1.765   5.115
13964TIP3    H241836   5.386   1.793   5.263
13965TIP3   OH241837   2.101   3.466   4.078
13965TIP3    H141838   2.068   3.377   4.092
13965TIP3    H241839   2.037   3.522   4.121
13966TIP3   OH241840   7.589   4.939   0.390
13966TIP3    H141841   7.542   4.961   0.310
13966TIP3    H241842   7.661   5.003   0.394
13967TIP3   OH241843   1.751   1.515   0.858
13967TIP3    H141844   1.811   1.506   0.783
13967TIP3    H241845   1.673   1.557   0.822
13968TIP3   OH241846   1.576   0.393   0.264
13968TIP3    H141847   1.540   0.447   0.194
13968TIP3    H241848   1.622   0.322   0.218
13969TIP3   OH241849   4.359   3.553   1.305
13969TIP3    H141850   4.339   3.585   1.217
13969TIP3    H241851   4.273   3.538   1.345
13970TIP3   OH241852   0.223   3.830   5.733
13970TIP3    H141853   0.145   3.885   5.737
13970TIP3    H241854   0.190   3.741   5.737
13971TIP3   OH241855   3.692   3.848   0.978
13971TIP3    H141856   3.604   3.854   1.013
13971TIP3    H241857   3.681   3.804   0.893
13972TIP3   OH241858   0.250   7.569   0.092
13972TIP3    H141859   0.311   7.495   0.094
13972TIP3    H241860   0.214   7.571   0.181
13973TIP3   OH241861   6.382   3.124   0.071
13973TIP3    H141862   6.454   3.061   0.077
13973TIP3    H241863   6.375   3.145  -0.022
13974TIP3   OH241864   7.998   5.326   5.444
13974TIP3    H141865   7.976   5.418   5.425
13974TIP3    H241866   7.936   5.276   5.391
13975TIP3   OH241867   6.374   7.179   5.004
13975TIP3    H141868   6.359   7.204   5.095
13975TIP3    H241869   6.458   7.132   5.006
13976TIP3   OH241870   5.642   5.104   6.016
13976TIP3    H141871   5.651   5.186   5.968
13976TIP3    H241872   5.692   5.041   5.964
13977TIP3   OH241873   0.056   6.288   2.278
13977TIP3    H141874   0.128   6.332   2.323
13977TIP3    H241875   0.057   6.324   2.189
13978TIP3   OH241876   6.213   7.353   0.546
13978TIP3    H141877   6.144   7.406   0.586
13978TIP3    H241878   6.290   7.369   0.601
13979TIP3   OH241879   4.103   5.144   1.316
13979TIP3    H141880   4.187   5.152   1.361
13979TIP3    H241881   4.117   5.073   1.253
13980TIP3   OH241882   5.608   0.599   6.155
13980TIP3    H141883   5.551   0.676   6.154
13980TIP3    H241884   5.603   0.564   6.066
13981TIP3   OH241885   1.078   1.371   4.467
13981TIP3    H141886   1.095   1.421   4.388
13981TIP3    H241887   1.050   1.285   4.435
13982TIP3   OH241888   1.345   5.623   0.307
13982TIP3    H141889   1.375   5.539   0.342
13982TIP3    H241890   1.282   5.600   0.240
13983TIP3   OH241891   8.075   2.480   3.775
13983TIP3    H141892   8.147   2.434   3.732
13983TIP3    H241893   8.031   2.527   3.705
13984TIP3   OH241894   3.075   1.700   3.933
13984TIP3    H141895   3.071   1.786   3.974
13984TIP3    H241896   2.988   1.662   3.945
13985TIP3   OH241897   5.073   6.949   4.676
13985TIP3    H141898   5.151   6.983   4.719
13985TIP3    H241899   5.105   6.908   4.596
13986TIP3   OH241900   6.725   7.443   4.330
13986TIP3    H141901   6.805   7.495   4.335
13986TIP3    H241902   6.661   7.493   4.380
13987TIP3   OH241903   1.809   1.438   4.749
13987TIP3    H141904   1.810   1.519   4.801
13987TIP3    H241905   1.827   1.466   4.660
13988TIP3   OH241906   4.098   1.511   4.409
13988TIP3    H141907   4.063   1.423   4.425
13988TIP3    H241908   4.145   1.533   4.489
13989TIP3   OH241909   7.037   7.650   1.232
13989TIP3    H141910   7.046   7.667   1.138
13989TIP3    H241911   6.978   7.719   1.263
13990TIP3   OH241912   7.036   7.005   6.238
13990TIP3    H141913   7.044   7.095   6.207
13990TIP3    H241914   7.025   6.953   6.158
13991TIP3   OH241915   4.714   1.840   6.651
13991TIP3    H141916   4.653   1.768   6.666
13991TIP3    H241917   4.773   1.838   6.726
13992TIP3   OH241918   6.903   0.844   6.495
13992TIP3    H141919   6.813   0.816   6.479
13992TIP3    H241920   6.954   0.802   6.425
13993TIP3   OH241921   6.396   7.037   0.432
13993TIP3    H141922   6.364   6.990   0.356
13993TIP3    H241923   6.477   7.080   0.402
13994TIP3   OH241924   3.562   0.490   2.589
13994TIP3    H141925   3.647   0.519   2.558
13994TIP3    H241926   3.577   0.467   2.681
13995TIP3   OH241927   1.635   7.095   5.818
13995TIP3    H141928   1.725   7.112   5.845
13995TIP3    H241929   1.642   7.031   5.748
13996TIP3   OH241930   8.155   6.714   0.633
13996TIP3    H141931   8.151   6.809   0.642
13996TIP3    H241932   8.064   6.686   0.635
13997TIP3   OH241933   1.222   2.653   6.237
13997TIP3    H141934   1.134   2.621   6.258
13997TIP3    H241935   1.252   2.596   6.167
13998TIP3   OH241936   7.898   2.188   3.044
13998TIP3    H141937   7.888   2.133   3.122
13998TIP3    H241938   7.957   2.258   3.071
13999TIP3   OH241939   7.445   2.271   4.913
13999TIP3    H141940   7.505   2.232   4.977
13999TIP3    H241941   7.363   2.283   4.961
14000TIP3   OH241942   3.019   5.164   5.230
14000TIP3    H141943   3.014   5.247   5.183
14000TIP3    H241944   3.069   5.184   5.309
14001TIP3   OH241945   3.914   7.446   2.673
14001TIP3    H141946   3.985   7.383   2.684
14001TIP3    H241947   3.953   7.530   2.696
14002TIP3   OH241948   1.349   6.314   2.780
14002TIP3    H141949   1.277   6.270   2.824
14002TIP3    H241950   1.423   6.304   2.840
14003TIP3   OH241951   6.838   5.215   2.316
14003TIP3    H141952   6.766   5.276   2.332
14003TIP3    H241953   6.912   5.271   2.293
14004TIP3   OH241954   2.134   1.507   4.068
14004TIP3    H141955   2.136   1.472   3.978
14004TIP3    H241956   2.125   1.601   4.056
14005TIP3   OH241957   7.328   5.803   4.276
14005TIP3    H141958   7.358   5.892   4.293
14005TIP3    H241959   7.252   5.814   4.219
14006TIP3   OH241960   8.016   6.993   2.657
14006TIP3    H141961   8.030   7.086   2.642
14006TIP3    H241962   8.010   6.984   2.752
14007TIP3   OH241963   2.771   7.165   0.437
14007TIP3    H141964   2.843   7.218   0.403
14007TIP3    H241965   2.776   7.084   0.386
14008TIP3   OH241966   1.626   7.709   6.221
14008TIP3    H141967   1.626   7.614   6.225
14008TIP3    H241968   1.545   7.731   6.175
14009TIP3   OH241969   5.478   4.138   0.985
14009TIP3    H141970   5.534   4.061   0.998
14009TIP3    H241971   5.402   4.104   0.938
14010TIP3   OH241972   5.174   0.522   4.223
14010TIP3    H141973   5.095   0.538   4.274
14010TIP3    H241974   5.146   0.532   4.131
14011TIP3   OH241975   4.224   1.610   3.620
14011TIP3    H141976   4.314   1.590   3.594
14011TIP3    H241977   4.194   1.530   3.663
14012TIP3   OH241978   3.993   3.269   0.389
14012TIP3    H141979   3.920   3.306   0.339
14012TIP3    H241980   3.951   3.230   0.466
14013TIP3   OH241981   4.207   0.695   1.324
14013TIP3    H141982   4.269   0.631   1.290
14013TIP3    H241983   4.231   0.778   1.282
14014TIP3   OH241984   4.513   6.612   0.033
14014TIP3    H141985   4.533   6.618   0.127
14014TIP3    H241986   4.504   6.518   0.016
14015TIP3   OH241987   3.377   5.181   0.922
14015TIP3    H141988   3.368   5.109   0.984
14015TIP3    H241989   3.327   5.253   0.961
14016TIP3   OH241990   8.092   0.927   3.306
14016TIP3    H141991   8.089   0.846   3.356
14016TIP3    H241992   8.042   0.908   3.226
14017TIP3   OH241993   5.617   6.479   2.108
14017TIP3    H141994   5.661   6.564   2.113
14017TIP3    H241995   5.610   6.451   2.200
14018TIP3   OH241996   5.366   5.733   5.077
14018TIP3    H141997   5.311   5.782   5.016
14018TIP3    H241998   5.415   5.671   5.022
14019TIP3   OH241999   4.213   0.444   0.514
14019TIP3    H142000   4.262   0.368   0.545
14019TIP3    H242001   4.175   0.416   0.431
14020TIP3   OH242002   6.710   1.664   4.972
14020TIP3    H142003   6.643   1.724   4.940
14020TIP3    H242004   6.687   1.649   5.063
14021TIP3   OH242005   6.237   4.609   5.279
14021TIP3    H142006   6.285   4.533   5.245
14021TIP3    H242007   6.304   4.672   5.302
14022TIP3   OH242008   2.479   6.494   4.215
14022TIP3    H142009   2.510   6.471   4.303
14022TIP3    H242010   2.491   6.414   4.164
14023TIP3   OH242011   5.127   1.932   1.378
14023TIP3    H142012   5.180   2.011   1.380
14023TIP3    H242013   5.183   1.867   1.334
14024TIP3   OH242014   4.314   6.925   4.928
14024TIP3    H142015   4.384   6.876   4.885
14024TIP3    H242016   4.234   6.879   4.904
14025TIP3   OH242017   4.095   7.028   0.910
14025TIP3    H142018   4.042   6.948   0.903
14025TIP3    H242019   4.105   7.042   1.004
14026TIP3   OH242020   7.139   3.080   2.857
14026TIP3    H142021   7.207   3.028   2.900
14026TIP3    H242022   7.127   3.039   2.772
14027TIP3   OH242023   0.854   2.203   5.029
14027TIP3    H142024   0.871   2.109   5.031
14027TIP3    H242025   0.767   2.211   4.990
14028TIP3   OH242026   5.987   5.976   2.320
14028TIP3    H142027   5.957   5.898   2.366
14028TIP3    H242028   6.040   6.023   2.384
14029TIP3   OH242029   6.713   0.088   0.769
14029TIP3    H142030   6.794   0.100   0.818
14029TIP3    H242031   6.708  -0.007   0.755
14030TIP3   OH242032   5.590   4.934   4.534
14030TIP3    H142033   5.542   4.954   4.614
14030TIP3    H242034   5.676   4.906   4.564
14031TIP3   OH242035   4.811   6.767   0.725
14031TIP3    H142036   4.813   6.673   0.741
14031TIP3    H242037   4.738   6.799   0.777
14032TIP3   OH242038   6.868   4.754   1.217
14032TIP3    H142039   6.954   4.736   1.181
14032TIP3    H242040   6.851   4.846   1.196
14033TIP3   OH242041   5.218   3.268   4.078
14033TIP3    H142042   5.224   3.281   3.983
14033TIP3    H242043   5.124   3.263   4.096
14034TIP3   OH242044   6.078   6.891   2.279
14034TIP3    H142045   6.110   6.806   2.308
14034TIP3    H242046   6.155   6.934   2.241
14035TIP3   OH242047   2.325   3.776   0.091
14035TIP3    H142048   2.288   3.859   0.122
14035TIP3    H242049   2.348   3.729   0.170
14036TIP3   OH242050   4.358   1.445   5.763
14036TIP3    H142051   4.371   1.451   5.858
14036TIP3    H242052   4.265   1.464   5.751
14037TIP3   OH242053   1.845   1.520   2.468
14037TIP3    H142054   1.791   1.480   2.400
14037TIP3    H242055   1.883   1.597   2.425
14038TIP3   OH242056   4.275   2.363   1.619
14038TIP3    H142057   4.315   2.379   1.534
14038TIP3    H242058   4.317   2.428   1.677
14039TIP3   OH242059   4.329   7.225   1.661
14039TIP3    H142060   4.288   7.158   1.716
14039TIP3    H242061   4.340   7.300   1.719
14040TIP3   OH242062   1.564   1.747   5.189
14040TIP3    H142063   1.620   1.808   5.141
14040TIP3    H242064   1.582   1.766   5.281
14041TIP3   OH242065   0.451   6.405   3.357
14041TIP3    H142066   0.533   6.384   3.401
14041TIP3    H242067   0.411   6.320   3.338
14042TIP3   OH242068   4.257   5.028   1.686
14042TIP3    H142069   4.350   5.020   1.709
14042TIP3    H242070   4.232   5.115   1.718
14043TIP3   OH242071   1.899   4.182   5.228
14043TIP3    H142072   1.978   4.130   5.239
14043TIP3    H242073   1.902   4.213   5.138
14044TIP3   OH242074   3.710   4.542   4.902
14044TIP3    H142075   3.787   4.568   4.953
14044TIP3    H242076   3.636   4.565   4.958
14045TIP3   OH242077   5.012   6.533   0.435
14045TIP3    H142078   5.087   6.555   0.491
14045TIP3    H242079   5.047   6.534   0.346
14046TIP3   OH242080   2.461   2.987   4.721
14046TIP3    H142081   2.375   2.988   4.763
14046TIP3    H242082   2.458   3.061   4.660
14047TIP3   OH242083   1.532   3.410   5.194
14047TIP3    H142084   1.541   3.495   5.150
14047TIP3    H242085   1.608   3.405   5.252
14048TIP3   OH242086   4.673   3.566   6.399
14048TIP3    H142087   4.691   3.575   6.493
14048TIP3    H242088   4.578   3.573   6.392
14049TIP3   OH242089   0.260   3.447   0.443
14049TIP3    H142090   0.279   3.374   0.502
14049TIP3    H242091   0.170   3.472   0.464
14050TIP3   OH242092   0.552   0.155   4.531
14050TIP3    H142093   0.606   0.210   4.474
14050TIP3    H242094   0.614   0.112   4.589
14051TIP3   OH242095   7.068   1.769   2.912
14051TIP3    H142096   7.085   1.779   3.006
14051TIP3    H242097   6.979   1.800   2.901
14052TIP3   OH242098   2.891   0.136   0.178
14052TIP3    H142099   2.812   0.097   0.214
14052TIP3    H242100   2.927   0.187   0.251
14053TIP3   OH242101   4.741   0.473   4.128
14053TIP3    H142102   4.665   0.531   4.118
14053TIP3    H242103   4.806   0.509   4.068
14054TIP3   OH242104   5.748   4.872   5.113
14054TIP3    H142105   5.818   4.918   5.067
14054TIP3    H242106   5.680   4.861   5.046
14055TIP3   OH242107   2.791   5.319   4.424
14055TIP3    H142108   2.771   5.239   4.473
14055TIP3    H242109   2.725   5.322   4.355
14056TIP3   OH242110   1.081   6.122   0.412
14056TIP3    H142111   1.161   6.138   0.362
14056TIP3    H242112   1.102   6.151   0.501
14057TIP3   OH242113   4.408   5.561   6.523
14057TIP3    H142114   4.476   5.507   6.482
14057TIP3    H242115   4.430   5.560   6.616
14058TIP3   OH242116   3.720   6.606   0.064
14058TIP3    H142117   3.805   6.651   0.069
14058TIP3    H242118   3.717   6.572  -0.026
14059TIP3   OH242119   2.281   0.024   2.997
14059TIP3    H142120   2.326   0.080   3.059
14059TIP3    H242121   2.347  -0.039   2.968
14060TIP3   OH242122   6.035   0.117   2.373
14060TIP3    H142123   6.012   0.055   2.442
14060TIP3    H242124   6.003   0.201   2.404
14061TIP3   OH242125   1.610   0.313   2.729
14061TIP3    H142126   1.694   0.332   2.772
14061TIP3    H242127   1.585   0.227   2.763
14062TIP3   OH242128   2.552   0.413   1.118
14062TIP3    H142129   2.531   0.342   1.178
14062TIP3    H242130   2.467   0.448   1.090
14063TIP3   OH242131   0.128   4.309   4.580
14063TIP3    H142132   0.199   4.348   4.631
14063TIP3    H242133   0.053   4.309   4.640
14064TIP3   OH242134   1.415   0.483   6.061
14064TIP3    H142135   1.489   0.479   5.999
14064TIP3    H242136   1.457   0.479   6.147
14065TIP3   OH242137   2.232   2.752   6.253
14065TIP3    H142138   2.306   2.780   6.308
14065TIP3    H242139   2.158   2.802   6.286
14066TIP3   OH242140   6.389   6.946   1.918
14066TIP3    H142141   6.390   6.859   1.958
14066TIP3    H242142   6.333   6.998   1.976
14067TIP3   OH242143   3.462   2.097   5.357
14067TIP3    H142144   3.399   2.138   5.297
14067TIP3    H242145   3.547   2.130   5.329
14068TIP3   OH242146   4.827   7.550   0.179
14068TIP3    H142147   4.813   7.529   0.272
14068TIP3    H242148   4.739   7.560   0.143
14069TIP3   OH242149   3.318   2.120   3.991
14069TIP3    H142150   3.318   2.142   3.898
14069TIP3    H242151   3.236   2.156   4.024
14070TIP3   OH242152   7.977   4.206   4.189
14070TIP3    H142153   8.015   4.141   4.249
14070TIP3    H242154   7.926   4.264   4.245
14071TIP3   OH242155   5.385   4.211   6.407
14071TIP3    H142156   5.411   4.124   6.377
14071TIP3    H242157   5.430   4.222   6.491
14072TIP3   OH242158   1.456   0.307   6.613
14072TIP3    H142159   1.535   0.284   6.661
14072TIP3    H242160   1.468   0.268   6.527
14073TIP3   OH242161   7.569   5.187  -0.010
14073TIP3    H142162   7.627   5.215  -0.081
14073TIP3    H242163   7.594   5.242   0.065
14074TIP3   OH242164   8.082   4.253   1.250
14074TIP3    H142165   7.995   4.285   1.273
14074TIP3    H242166   8.067   4.168   1.210
14075TIP3   OH242167   1.880   7.405   2.586
14075TIP3    H142168   1.805   7.360   2.547
14075TIP3    H242169   1.851   7.495   2.600
14076TIP3   OH242170   6.329   7.049   1.129
14076TIP3    H142171   6.347   7.118   1.066
14076TIP3    H242172   6.267   7.089   1.191
14077TIP3   OH242173   2.158   5.009   6.302
14077TIP3    H142174   2.203   5.073   6.357
14077TIP3    H242175   2.171   4.925   6.347
14078TIP3   OH242176   3.529   1.763   3.287
14078TIP3    H142177   3.472   1.694   3.320
14078TIP3    H242178   3.570   1.725   3.209
14079TIP3   OH242179   6.929   7.014   0.333
14079TIP3    H142180   6.943   7.087   0.393
14079TIP3    H242181   7.006   6.958   0.345
14080TIP3   OH242182   3.315   6.279   3.401
14080TIP3    H142183   3.280   6.258   3.487
14080TIP3    H242184   3.363   6.200   3.375
14081TIP3   OH242185   6.401   7.646   2.614
14081TIP3    H142186   6.356   7.581   2.559
14081TIP3    H242187   6.331   7.704   2.644
14082TIP3   OH242188   1.811   6.801   3.562
14082TIP3    H142189   1.767   6.821   3.644
14082TIP3    H242190   1.800   6.706   3.552
14083TIP3   OH242191   0.081   4.622   3.376
14083TIP3    H142192   0.093   4.715   3.357
14083TIP3    H242193   0.032   4.589   3.300
14084TIP3   OH242194   5.428   5.593   4.817
14084TIP3    H142195   5.363   5.554   4.758
14084TIP3    H242196   5.496   5.627   4.759
14085TIP3   OH242197   3.696   1.327   2.064
14085TIP3    H142198   3.781   1.319   2.022
14085TIP3    H242199   3.707   1.396   2.129
14086TIP3   OH242200   7.544   5.357   2.478
14086TIP3    H142201   7.586   5.441   2.461
14086TIP3    H242202   7.455   5.368   2.444
14087TIP3   OH242203   2.169   6.350   6.634
14087TIP3    H142204   2.159   6.255   6.638
14087TIP3    H242205   2.084   6.384   6.661
14088TIP3   OH242206   7.856   1.872   4.300
14088TIP3    H142207   7.778   1.899   4.348
14088TIP3    H242208   7.929   1.898   4.356
14089TIP3   OH242209   7.826   5.942   1.985
14089TIP3    H142210   7.865   5.964   2.069
14089TIP3    H242211   7.893   5.890   1.941
14090TIP3   OH242212   1.724   3.267   1.208
14090TIP3    H142213   1.637   3.306   1.207
14090TIP3    H242214   1.784   3.341   1.199
14091TIP3   OH242215   5.009   3.018   6.158
14091TIP3    H142216   4.948   3.091   6.166
14091TIP3    H242217   5.006   2.995   6.065
14092TIP3   OH242218   7.404   5.262   0.758
14092TIP3    H142219   7.405   5.166   0.760
14092TIP3    H242220   7.411   5.289   0.850
14093TIP3   OH242221   5.885   4.000   5.871
14093TIP3    H142222   5.926   4.043   5.796
14093TIP3    H242223   5.947   3.932   5.896
14094TIP3   OH242224   4.304   5.724   1.567
14094TIP3    H142225   4.262   5.723   1.653
14094TIP3    H242226   4.380   5.666   1.577
14095TIP3   OH242227   6.512   5.096   4.143
14095TIP3    H142228   6.558   5.157   4.086
14095TIP3    H242229   6.507   5.015   4.093
14096TIP3   OH242230   6.558   1.186   4.726
14096TIP3    H142231   6.629   1.244   4.753
14096TIP3    H242232   6.590   1.098   4.743
14097TIP3   OH242233   0.452   2.123   1.643
14097TIP3    H142234   0.434   2.205   1.688
14097TIP3    H242235   0.544   2.129   1.618
14098TIP3   OH242236   7.237   2.012   2.515
14098TIP3    H142237   7.183   2.018   2.594
14098TIP3    H242238   7.274   2.100   2.504
14099TIP3   OH242239   2.608   2.537   5.765
14099TIP3    H142240   2.608   2.613   5.707
14099TIP3    H242241   2.533   2.551   5.822
14100TIP3   OH242242   2.717   2.641   6.425
14100TIP3    H142243   2.689   2.551   6.413
14100TIP3    H242244   2.670   2.671   6.503
14101TIP3   OH242245   4.920   4.703   0.134
14101TIP3    H142246   4.922   4.792   0.170
14101TIP3    H242247   4.929   4.646   0.210
14102TIP3   OH242248   8.126   2.385   0.374
14102TIP3    H142249   8.111   2.370   0.467
14102TIP3    H242250   8.059   2.333   0.330
14103TIP3   OH242251   6.972   5.942   6.637
14103TIP3    H142252   6.956   5.883   6.563
14103TIP3    H242253   7.063   5.969   6.628
14104TIP3   OH242254   5.288   7.711   5.198
14104TIP3    H142255   5.290   7.666   5.114
14104TIP3    H242256   5.355   7.667   5.250
14105TIP3   OH242257   2.484   7.686   2.013
14105TIP3    H142258   2.463   7.596   2.037
14105TIP3    H242259   2.569   7.703   2.054
14106TIP3   OH242260   3.060   3.760   3.918
14106TIP3    H142261   3.073   3.769   4.012
14106TIP3    H242262   2.987   3.818   3.898
14107TIP3   OH242263   6.335   4.143   4.808
14107TIP3    H142264   6.381   4.079   4.752
14107TIP3    H242265   6.403   4.203   4.837
14108TIP3   OH242266   2.392   4.706   0.247
14108TIP3    H142267   2.356   4.763   0.178
14108TIP3    H242268   2.359   4.744   0.328
14109TIP3   OH242269   2.181   0.666   2.964
14109TIP3    H142270   2.094   0.700   2.946
14109TIP3    H242271   2.167   0.572   2.980
14110TIP3   OH242272   4.236   5.357   0.868
14110TIP3    H142273   4.148   5.374   0.834
14110TIP3    H242274   4.243   5.412   0.946
14111TIP3   OH242275   4.601   1.972   1.599
14111TIP3    H142276   4.635   1.929   1.521
14111TIP3    H242277   4.506   1.962   1.593
14112TIP3   OH242278   3.761   4.383   6.051
14112TIP3    H142279   3.715   4.465   6.032
14112TIP3    H242280   3.854   4.405   6.043
14113TIP3   OH242281   3.769   7.483   0.269
14113TIP3    H142282   3.722   7.547   0.322
14113TIP3    H242283   3.740   7.398   0.302
14114TIP3   OH242284   3.407   0.224   2.553
14114TIP3    H142285   3.366   0.228   2.466
14114TIP3    H242286   3.412   0.315   2.582
14115TIP3   OH242287   0.011   0.350   5.241
14115TIP3    H142288  -0.071   0.367   5.194
14115TIP3    H242289   0.074   0.411   5.202
14116TIP3   OH242290   1.199   6.375   2.501
14116TIP3    H142291   1.255   6.367   2.578
14116TIP3    H242292   1.215   6.296   2.450
14117TIP3   OH242293   7.018   6.690   5.124
14117TIP3    H142294   7.060   6.769   5.089
14117TIP3    H242295   7.039   6.621   5.061
14118TIP3   OH242296   7.911   7.371   0.557
14118TIP3    H142297   7.931   7.383   0.464
14118TIP3    H242298   7.909   7.276   0.570
14119TIP3   OH242299   3.099   7.004   2.312
14119TIP3    H142300   3.155   6.934   2.347
14119TIP3    H242301   3.016   6.994   2.358
14120TIP3   OH242302   0.147   2.378   4.057
14120TIP3    H142303   0.162   2.400   3.965
14120TIP3    H242304   0.145   2.463   4.102
14121TIP3   OH242305   3.804   1.632   6.305
14121TIP3    H142306   3.744   1.558   6.319
14121TIP3    H242307   3.764   1.681   6.233
14122TIP3   OH242308   4.559   2.997   0.281
14122TIP3    H142309   4.584   2.922   0.335
14122TIP3    H242310   4.623   3.065   0.304
14123TIP3   OH242311   7.369   0.273   5.692
14123TIP3    H142312   7.374   0.300   5.600
14123TIP3    H242313   7.373   0.355   5.741
14124TIP3   OH242314   5.514   1.481   5.694
14124TIP3    H142315   5.424   1.470   5.723
14124TIP3    H242316   5.533   1.401   5.645
14125TIP3   OH242317   6.611   5.669   5.876
14125TIP3    H142318   6.581   5.578   5.882
14125TIP3    H242319   6.558   5.707   5.806
14126TIP3   OH242320   4.364   6.301   6.371
14126TIP3    H142321   4.302   6.374   6.377
14126TIP3    H242322   4.439   6.328   6.424
14127TIP3   OH242323   0.186   7.619   5.961
14127TIP3    H142324   0.189   7.706   6.002
14127TIP3    H242325   0.092   7.598   5.959
14128TIP3   OH242326   0.731   6.821   6.359
14128TIP3    H142327   0.780   6.821   6.441
14128TIP3    H242328   0.750   6.906   6.320
14129TIP3   OH242329   4.652   3.883   2.458
14129TIP3    H142330   4.631   3.845   2.373
14129TIP3    H242331   4.724   3.943   2.441
14130TIP3   OH242332   4.933   6.702   4.159
14130TIP3    H142333   4.924   6.664   4.247
14130TIP3    H242334   4.983   6.783   4.173
14131TIP3   OH242335   1.713   3.171   6.353
14131TIP3    H142336   1.744   3.101   6.296
14131TIP3    H242337   1.781   3.239   6.347
14132TIP3   OH242338   4.711   0.512   0.530
14132TIP3    H142339   4.730   0.458   0.453
14132TIP3    H242340   4.615   0.512   0.537
14133TIP3   OH242341   5.706   6.921   5.338
14133TIP3    H142342   5.650   6.998   5.332
14133TIP3    H242343   5.681   6.867   5.264
14134TIP3   OH242344   1.365   6.675   2.464
14134TIP3    H142345   1.315   6.619   2.405
14134TIP3    H242346   1.364   6.630   2.548
14135TIP3   OH242347   5.233   6.012   2.833
14135TIP3    H142348   5.245   5.955   2.756
14135TIP3    H242349   5.319   6.051   2.847
14136TIP3   OH242350   0.485   4.658   6.363
14136TIP3    H142351   0.554   4.724   6.355
14136TIP3    H242352   0.503   4.596   6.293
14137TIP3   OH242353   6.097   1.730   5.005
14137TIP3    H142354   6.065   1.669   4.938
14137TIP3    H242355   6.189   1.707   5.017
14138TIP3   OH242356   8.039   3.537   0.611
14138TIP3    H142357   7.984   3.589   0.552
14138TIP3    H242358   7.987   3.458   0.628
14139TIP3   OH242359   7.038   5.882   5.885
14139TIP3    H142360   6.972   5.931   5.837
14139TIP3    H242361   6.988   5.820   5.938
14140TIP3   OH242362   0.361   0.092   5.885
14140TIP3    H142363   0.424   0.021   5.871
14140TIP3    H242364   0.404   0.151   5.947
14141TIP3   OH242365   7.302   6.483   0.644
14141TIP3    H142366   7.387   6.524   0.627
14141TIP3    H242367   7.287   6.428   0.567
14142TIP3   OH242368   2.731   7.635   1.498
14142TIP3    H142369   2.688   7.703   1.551
14142TIP3    H242370   2.690   7.553   1.527
14143TIP3   OH242371   7.996   6.688   3.044
14143TIP3    H142372   7.905   6.661   3.051
14143TIP3    H242373   7.996   6.755   2.975
14144TIP3   OH242374   6.591   2.951   0.134
14144TIP3    H142375   6.636   2.905   0.205
14144TIP3    H242376   6.637   2.924   0.054
14145TIP3   OH242377   5.662   7.449   4.613
14145TIP3    H142378   5.616   7.532   4.626
14145TIP3    H242379   5.615   7.406   4.542
14146TIP3   OH242380   0.739   7.715   1.067
14146TIP3    H142381   0.834   7.707   1.060
14146TIP3    H242382   0.710   7.733   0.978
14147TIP3   OH242383   7.816   5.486   0.155
14147TIP3    H142384   7.777   5.494   0.242
14147TIP3    H242385   7.894   5.541   0.159
14148TIP3   OH242386   3.881   6.900   4.876
14148TIP3    H142387   3.841   6.818   4.848
14148TIP3    H242388   3.965   6.902   4.831
14149TIP3   OH242389   2.771   2.951   3.707
14149TIP3    H142390   2.803   2.930   3.795
14149TIP3    H242391   2.777   3.046   3.702
14150TIP3   OH242392   6.396   3.827   3.687
14150TIP3    H142393   6.345   3.792   3.613
14150TIP3    H242394   6.455   3.891   3.646
14151TIP3   OH242395   2.567   0.736   5.884
14151TIP3    H142396   2.569   0.820   5.929
14151TIP3    H242397   2.612   0.676   5.944
14152TIP3   OH242398   2.959   4.402   6.327
14152TIP3    H142399   3.041   4.422   6.371
14152TIP3    H242400   2.891   4.420   6.392
14153TIP3   OH242401   6.076   7.253   5.372
14153TIP3    H142402   6.026   7.307   5.434
14153TIP3    H242403   6.008   7.208   5.322
14154TIP3   OH242404   6.423   0.253   5.451
14154TIP3    H142405   6.418   0.249   5.547
14154TIP3    H242406   6.497   0.197   5.428
14155TIP3   OH242407   7.316   3.755   5.123
14155TIP3    H142408   7.316   3.694   5.197
14155TIP3    H242409   7.377   3.824   5.149
14156TIP3   OH242410   2.459   4.354   3.900
14156TIP3    H142411   2.394   4.387   3.961
14156TIP3    H242412   2.452   4.412   3.824
14157TIP3   OH242413   1.041   0.207   2.040
14157TIP3    H142414   1.061   0.247   1.955
14157TIP3    H242415   1.126   0.182   2.076
14158TIP3   OH242416   7.228   7.724   1.798
14158TIP3    H142417   7.182   7.802   1.831
14158TIP3    H242418   7.187   7.651   1.845
14159TIP3   OH242419   5.666   6.321   6.792
14159TIP3    H142420   5.704   6.304   6.705
14159TIP3    H242421   5.647   6.234   6.827
14160TIP3   OH242422   4.103   5.408   3.363
14160TIP3    H142423   4.068   5.324   3.335
14160TIP3    H242424   4.191   5.388   3.395
14161TIP3   OH242425   6.999   0.785   2.062
14161TIP3    H142426   6.941   0.731   2.114
14161TIP3    H242427   6.950   0.867   2.049
14162TIP3   OH242428   7.653   4.078   4.566
14162TIP3    H142429   7.661   4.173   4.575
14162TIP3    H242430   7.559   4.062   4.565
14163TIP3   OH242431   4.838   7.050   4.533
14163TIP3    H142432   4.929   7.022   4.543
14163TIP3    H242433   4.787   6.979   4.571
14164TIP3   OH242434   4.062   3.975   1.479
14164TIP3    H142435   4.026   4.056   1.515
14164TIP3    H242436   4.068   3.916   1.554
14165TIP3   OH242437   0.200   5.553   5.176
14165TIP3    H142438   0.196   5.619   5.107
14165TIP3    H242439   0.112   5.516   5.180
14166TIP3   OH242440   3.065   4.063   4.908
14166TIP3    H142441   3.149   4.044   4.866
14166TIP3    H242442   3.031   4.138   4.858
14167TIP3   OH242443   2.016   5.284   2.041
14167TIP3    H142444   2.085   5.279   2.107
14167TIP3    H242445   1.945   5.232   2.077
14168TIP3   OH242446   2.808   3.358   1.558
14168TIP3    H142447   2.868   3.329   1.626
14168TIP3    H242448   2.844   3.322   1.477
14169TIP3   OH242449   5.034   5.505   1.558
14169TIP3    H142450   5.006   5.436   1.497
14169TIP3    H242451   4.960   5.566   1.560
14170TIP3   OH242452   5.523   2.079   4.440
14170TIP3    H142453   5.449   2.019   4.437
14170TIP3    H242454   5.586   2.043   4.378
14171TIP3   OH242455   2.091   1.828   6.377
14171TIP3    H142456   2.111   1.737   6.400
14171TIP3    H242457   2.141   1.844   6.298
14172TIP3   OH242458   2.458   5.998   6.299
14172TIP3    H142459   2.538   6.034   6.339
14172TIP3    H242460   2.391   6.064   6.316
14173TIP3   OH242461   6.501   2.027   3.356
14173TIP3    H142462   6.498   1.934   3.378
14173TIP3    H242463   6.588   2.039   3.319
14174TIP3   OH242464   1.098   7.608   3.774
14174TIP3    H142465   1.094   7.513   3.767
14174TIP3    H242466   1.108   7.625   3.868
14175TIP3   OH242467   5.325   1.253   4.828
14175TIP3    H142468   5.236   1.261   4.862
14175TIP3    H242469   5.338   1.331   4.774
14176TIP3   OH242470   7.090   6.331   0.213
14176TIP3    H142471   7.020   6.363   0.157
14176TIP3    H242472   7.070   6.366   0.300
14177TIP3   OH242473   7.590   6.426   6.549
14177TIP3    H142474   7.515   6.481   6.570
14177TIP3    H242475   7.627   6.466   6.469
14178TIP3   OH242476   5.823   7.753   6.144
14178TIP3    H142477   5.878   7.679   6.118
14178TIP3    H242478   5.741   7.712   6.174
14179TIP3   OH242479   1.958   2.688   6.497
14179TIP3    H142480   1.944   2.731   6.581
14179TIP3    H242481   1.973   2.759   6.435
14180TIP3   OH242482   5.100   2.514   1.930
14180TIP3    H142483   5.069   2.431   1.966
14180TIP3    H242484   5.045   2.580   1.973
14181TIP3   OH242485   8.081   3.854   2.013
14181TIP3    H142486   8.042   3.769   2.033
14181TIP3    H242487   8.023   3.917   2.055
14182TIP3   OH242488   7.444   4.360   5.869
14182TIP3    H142489   7.512   4.298   5.846
14182TIP3    H242490   7.473   4.399   5.951
14183TIP3   OH242491   6.820   3.860   1.440
14183TIP3    H142492   6.885   3.907   1.388
14183TIP3    H242493   6.757   3.927   1.465
14184TIP3   OH242494   2.146   4.267   6.360
14184TIP3    H142495   2.240   4.268   6.345
14184TIP3    H242496   2.137   4.267   6.455
14185TIP3   OH242497   1.202   0.557   1.277
14185TIP3    H142498   1.131   0.607   1.317
14185TIP3    H242499   1.234   0.500   1.347
14186TIP3   OH242500   0.156   2.238   2.563
14186TIP3    H142501   0.252   2.236   2.561
14186TIP3    H242502   0.130   2.237   2.471
14187TIP3   OH242503   1.964  -0.033   1.837
14187TIP3    H142504   1.871  -0.052   1.825
14187TIP3    H242505   1.967   0.056   1.873
14188TIP3   OH242506   1.320   1.467   6.183
14188TIP3    H142507   1.307   1.398   6.248
14188TIP3    H242508   1.399   1.439   6.135
14189TIP3   OH242509   0.107   6.067   1.595
14189TIP3    H142510   0.065   6.152   1.580
14189TIP3    H242511   0.084   6.015   1.518
14190TIP3   OH242512   3.250   2.783   5.975
14190TIP3    H142513   3.192   2.796   6.050
14190TIP3    H242514   3.211   2.710   5.927
14191TIP3   OH242515   5.764   7.150   1.285
14191TIP3    H142516   5.700   7.158   1.355
14191TIP3    H242517   5.813   7.232   1.288
14192TIP3   OH242518   7.457   7.063   2.862
14192TIP3    H142519   7.456   7.093   2.771
14192TIP3    H242520   7.545   7.084   2.893
14193TIP3   OH242521   5.725   1.119   6.374
14193TIP3    H142522   5.820   1.129   6.365
14193TIP3    H242523   5.705   1.161   6.457
14194TIP3   OH242524   7.941   4.932   6.475
14194TIP3    H142525   7.909   5.022   6.470
14194TIP3    H242526   7.870   4.879   6.438
14195TIP3   OH242527   7.610   3.241   6.263
14195TIP3    H142528   7.690   3.253   6.212
14195TIP3    H242529   7.540   3.256   6.200
14196TIP3   OH242530   6.955   4.498   1.004
14196TIP3    H142531   6.885   4.479   0.942
14196TIP3    H242532   7.015   4.424   0.997
14197TIP3   OH242533   4.648   2.829   6.049
14197TIP3    H142534   4.653   2.867   6.137
14197TIP3    H242535   4.703   2.886   5.995
14198TIP3   OH242536   4.161   0.632   5.918
14198TIP3    H142537   4.208   0.556   5.884
14198TIP3    H242538   4.069   0.614   5.901
14199TIP3   OH242539   2.039   5.916   1.146
14199TIP3    H142540   2.028   5.936   1.053
14199TIP3    H242541   2.105   5.847   1.148
14200TIP3   OH242542   1.829   2.752   2.500
14200TIP3    H142543   1.765   2.808   2.544
14200TIP3    H242544   1.828   2.781   2.409
14201TIP3   OH242545   6.297   7.358   6.368
14201TIP3    H142546   6.342   7.278   6.341
14201TIP3    H242547   6.242   7.332   6.441
14202TIP3   OH242548   4.084   3.360   4.481
14202TIP3    H142549   4.100   3.366   4.575
14202TIP3    H242550   4.110   3.271   4.458
14203TIP3   OH242551   7.521   0.526   4.778
14203TIP3    H142552   7.480   0.549   4.861
14203TIP3    H242553   7.515   0.430   4.773
14204TIP3   OH242554   2.083   4.254   3.378
14204TIP3    H142555   1.996   4.263   3.418
14204TIP3    H242556   2.099   4.160   3.375
14205TIP3   OH242557   1.408   6.592   5.805
14205TIP3    H142558   1.334   6.532   5.812
14205TIP3    H242559   1.466   6.550   5.741
14206TIP3   OH242560   1.695   1.843   4.159
14206TIP3    H142561   1.711   1.924   4.208
14206TIP3    H242562   1.628   1.797   4.211
14207TIP3   OH242563   4.983   5.628   6.586
14207TIP3    H142564   4.985   5.676   6.669
14207TIP3    H242565   4.893   5.598   6.578
14208TIP3   OH242566   3.506   1.656   5.155
14208TIP3    H142567   3.565   1.581   5.144
14208TIP3    H242568   3.546   1.725   5.102
14209TIP3   OH242569   3.127   0.317   6.121
14209TIP3    H142570   3.207   0.364   6.144
14209TIP3    H242571   3.150   0.266   6.044
14210TIP3   OH242572   2.000   6.243   0.829
14210TIP3    H142573   2.051   6.324   0.834
14210TIP3    H242574   1.936   6.260   0.759
14211TIP3   OH242575   8.154   3.606   1.176
14211TIP3    H142576   8.074   3.658   1.182
14211TIP3    H242577   8.223   3.663   1.211
14212TIP3   OH242578   3.572   1.452   0.940
14212TIP3    H142579   3.578   1.545   0.965
14212TIP3    H242580   3.641   1.409   0.990
14213TIP3   OH242581   1.321   6.980   3.339
14213TIP3    H142582   1.327   6.888   3.314
14213TIP3    H242583   1.305   7.027   3.257
14214TIP3   OH242584   5.784   5.091   4.427
14214TIP3    H142585   5.694   5.058   4.423
14214TIP3    H242586   5.835   5.028   4.376
14215TIP3   OH242587   6.491   4.650   2.122
14215TIP3    H142588   6.402   4.615   2.125
14215TIP3    H242589   6.513   4.666   2.214
14216TIP3   OH242590   3.916   4.163   4.201
14216TIP3    H142591   3.952   4.091   4.148
14216TIP3    H242592   3.962   4.156   4.285
14217TIP3   OH242593   3.321   0.699   2.426
14217TIP3    H142594   3.266   0.647   2.485
14217TIP3    H242595   3.366   0.634   2.371
14218TIP3   OH242596   8.256   6.884   0.248
14218TIP3    H142597   8.188   6.848   0.305
14218TIP3    H242598   8.278   6.968   0.287
14219TIP3   OH242599   8.132   6.203   2.898
14219TIP3    H142600   8.143   6.264   2.971
14219TIP3    H242601   8.178   6.244   2.825
14220TIP3   OH242602   3.032   4.664   3.889
14220TIP3    H142603   3.051   4.747   3.846
14220TIP3    H242604   2.986   4.612   3.822
14221TIP3   OH242605   1.687   1.084   0.967
14221TIP3    H142606   1.604   1.056   1.006
14221TIP3    H242607   1.683   1.180   0.968
14222TIP3   OH242608   4.865   3.348   2.746
14222TIP3    H142609   4.901   3.347   2.658
14222TIP3    H242610   4.898   3.267   2.786
14223TIP3   OH242611   1.781   3.941   5.558
14223TIP3    H142612   1.870   3.934   5.525
14223TIP3    H242613   1.732   3.874   5.511
14224TIP3   OH242614   3.273   1.632   2.484
14224TIP3    H142615   3.349   1.582   2.513
14224TIP3    H242616   3.233   1.577   2.416
14225TIP3   OH242617   2.383   2.101   6.100
14225TIP3    H142618   2.360   2.162   6.030
14225TIP3    H242619   2.394   2.156   6.177
14226TIP3   OH242620   1.255   7.848   2.009
14226TIP3    H142621   1.271   7.763   2.050
14226TIP3    H242622   1.181   7.833   1.950
14227TIP3   OH242623   6.112   5.887   0.375
14227TIP3    H142624   6.189   5.885   0.432
14227TIP3    H242625   6.130   5.822   0.308
14228TIP3   OH242626   5.176   5.729   5.983
14228TIP3    H142627   5.249   5.784   6.011
14228TIP3    H242628   5.127   5.710   6.062
14229TIP3   OH242629   7.973   5.459   3.855
14229TIP3    H142630   7.952   5.551   3.839
14229TIP3    H242631   8.052   5.462   3.909
14230TIP3   OH242632   4.923   2.214   0.917
14230TIP3    H142633   4.848   2.253   0.960
14230TIP3    H242634   4.996   2.274   0.936
14231TIP3   OH242635   1.841   4.906   2.245
14231TIP3    H142636   1.780   4.956   2.298
14231TIP3    H242637   1.850   4.822   2.290
14232TIP3   OH242638   2.114   3.061   3.317
14232TIP3    H142639   2.071   3.057   3.231
14232TIP3    H242640   2.128   3.154   3.332
14233TIP3   OH242641   4.073   1.072   5.930
14233TIP3    H142642   4.128   1.002   5.895
14233TIP3    H242643   4.000   1.027   5.973
14234TIP3   OH242644   3.598   0.464   1.260
14234TIP3    H142645   3.586   0.476   1.354
14234TIP3    H242646   3.525   0.511   1.220
14235TIP3   OH242647   4.638   6.314   3.633
14235TIP3    H142648   4.584   6.294   3.711
14235TIP3    H242649   4.725   6.283   3.656
14236TIP3   OH242650   3.352   1.055   4.661
14236TIP3    H142651   3.276   1.056   4.720
14236TIP3    H242652   3.427   1.047   4.720
14237TIP3   OH242653   3.609   5.271   0.321
14237TIP3    H142654   3.677   5.256   0.255
14237TIP3    H242655   3.547   5.199   0.308
14238TIP3   OH242656   6.059   3.357   3.251
14238TIP3    H142657   6.016   3.323   3.173
14238TIP3    H242658   6.127   3.293   3.272
14239TIP3   OH242659   1.447   0.954   0.347
14239TIP3    H142660   1.441   1.044   0.313
14239TIP3    H242661   1.368   0.944   0.401
14240TIP3   OH242662   5.173   7.319   4.690
14240TIP3    H142663   5.119   7.393   4.718
14240TIP3    H242664   5.184   7.266   4.768
14241TIP3   OH242665   1.198   4.557   1.167
14241TIP3    H142666   1.132   4.488   1.170
14241TIP3    H242667   1.152   4.636   1.195
14242TIP3   OH242668   2.718   7.690   3.841
14242TIP3    H142669   2.719   7.617   3.902
14242TIP3    H242670   2.780   7.753   3.879
14243TIP3   OH242671   4.758   4.131   2.366
14243TIP3    H142672   4.777   4.170   2.451
14243TIP3    H242673   4.787   4.195   2.302
14244TIP3   OH242674   3.693   5.153   4.912
14244TIP3    H142675   3.674   5.078   4.855
14244TIP3    H242676   3.636   5.139   4.988
14245TIP3   OH242677   2.673   5.675   1.148
14245TIP3    H142678   2.580   5.681   1.129
14245TIP3    H242679   2.711   5.754   1.107
14246TIP3   OH242680   7.240   6.549   5.924
14246TIP3    H142681   7.233   6.600   6.004
14246TIP3    H242682   7.207   6.462   5.947
14247TIP3   OH242683   1.582   4.710   1.542
14247TIP3    H142684   1.495   4.697   1.580
14247TIP3    H242685   1.631   4.632   1.567
14248TIP3   OH242686   2.124   6.938   1.309
14248TIP3    H142687   2.139   7.026   1.345
14248TIP3    H242688   2.196   6.885   1.343
14249TIP3   OH242689   7.895   6.522   2.000
14249TIP3    H142690   7.919   6.436   1.963
14249TIP3    H242691   7.969   6.578   1.979
14250TIP3   OH242692   3.806   2.068   0.111
14250TIP3    H142693   3.722   2.083   0.067
14250TIP3    H242694   3.807   2.131   0.183
14251TIP3   OH242695   1.481   3.069   2.278
14251TIP3    H142696   1.514   3.085   2.367
14251TIP3    H242697   1.559   3.048   2.227
14252TIP3   OH242698   5.457   7.129   0.636
14252TIP3    H142699   5.370   7.129   0.597
14252TIP3    H242700   5.512   7.084   0.572
14253TIP3   OH242701   5.773   5.560   0.236
14253TIP3    H142702   5.845   5.542   0.297
14253TIP3    H242703   5.800   5.640   0.191
14254TIP3   OH242704   8.042   6.370   1.739
14254TIP3    H142705   8.014   6.460   1.721
14254TIP3    H242706   8.115   6.356   1.678
14255TIP3   OH242707   0.577   3.382   3.752
14255TIP3    H142708   0.556   3.444   3.821
14255TIP3    H242709   0.577   3.297   3.796
14256TIP3   OH242710   7.066   0.409   1.579
14256TIP3    H142711   7.059   0.442   1.490
14256TIP3    H242712   7.075   0.314   1.570
14257TIP3   OH242713   5.786   3.199   0.389
14257TIP3    H142714   5.852   3.222   0.323
14257TIP3    H242715   5.721   3.147   0.342
14258TIP3   OH242716   4.978   3.560   4.388
14258TIP3    H142717   4.947   3.477   4.425
14258TIP3    H242718   4.986   3.542   4.294
14259TIP3   OH242719   4.040   1.868   3.605
14259TIP3    H142720   4.028   1.777   3.631
14259TIP3    H242721   4.038   1.917   3.687
14260TIP3   OH242722   3.051   4.635   5.589
14260TIP3    H142723   3.003   4.629   5.672
14260TIP3    H242724   2.985   4.658   5.524
14261TIP3   OH242725   5.192   3.208   1.840
14261TIP3    H142726   5.113   3.261   1.848
14261TIP3    H242727   5.241   3.225   1.921
14262TIP3   OH242728   3.714   6.204   5.095
14262TIP3    H142729   3.759   6.272   5.145
14262TIP3    H242730   3.748   6.122   5.130
14263TIP3   OH242731   5.533   6.071   6.365
14263TIP3    H142732   5.602   6.112   6.312
14263TIP3    H242733   5.453   6.117   6.339
14264TIP3   OH242734   1.607   0.799   0.550
14264TIP3    H142735   1.561   0.852   0.485
14264TIP3    H242736   1.537   0.763   0.605
14265TIP3   OH242737   1.287   1.929   3.853
14265TIP3    H142738   1.247   1.901   3.771
14265TIP3    H242739   1.371   1.882   3.855
14266TIP3   OH242740   6.521   3.586   6.131
14266TIP3    H142741   6.497   3.515   6.071
14266TIP3    H242742   6.579   3.643   6.080
14267TIP3   OH242743   3.840   7.496   5.003
14267TIP3    H142744   3.921   7.457   5.038
14267TIP3    H242745   3.792   7.422   4.966
14268TIP3   OH242746   3.458   6.641   2.097
14268TIP3    H142747   3.434   6.727   2.132
14268TIP3    H242748   3.388   6.620   2.034
14269TIP3   OH242749   7.184   6.571   1.907
14269TIP3    H142750   7.232   6.534   1.833
14269TIP3    H242751   7.093   6.575   1.877
14270TIP3   OH242752   3.228   4.248   6.194
14270TIP3    H142753   3.141   4.209   6.194
14270TIP3    H242754   3.239   4.285   6.281
14271TIP3   OH242755   6.998   5.273   5.943
14271TIP3    H142756   6.958   5.260   5.858
14271TIP3    H242757   7.086   5.306   5.924
14272TIP3   OH242758   3.812   6.026   4.697
14272TIP3    H142759   3.777   5.944   4.731
14272TIP3    H242760   3.774   6.094   4.752
14273TIP3   OH242761   6.407   2.020   3.612
14273TIP3    H142762   6.431   2.026   3.520
14273TIP3    H242763   6.447   2.097   3.653
14274TIP3   OH242764   4.393   3.544   5.257
14274TIP3    H142765   4.353   3.625   5.290
14274TIP3    H242766   4.477   3.572   5.220
14275TIP3   OH242767   1.803   4.195   1.990
14275TIP3    H142768   1.847   4.261   1.936
14275TIP3    H242769   1.739   4.155   1.930
14276TIP3   OH242770   3.348   4.531   3.927
14276TIP3    H142771   3.264   4.562   3.894
14276TIP3    H242772   3.413   4.593   3.893
14277TIP3   OH242773   4.075   6.109   2.287
14277TIP3    H142774   4.018   6.185   2.298
14277TIP3    H242775   4.031   6.039   2.334
14278TIP3   OH242776   6.962   3.428   3.873
14278TIP3    H142777   7.036   3.462   3.823
14278TIP3    H242778   6.939   3.498   3.934
14279TIP3   OH242779   7.428   4.648   3.190
14279TIP3    H142780   7.334   4.646   3.206
14279TIP3    H242781   7.440   4.597   3.110
14280TIP3   OH242782   1.085   6.842   4.697
14280TIP3    H142783   1.175   6.875   4.698
14280TIP3    H242784   1.068   6.819   4.788
14281TIP3   OH242785   4.860   0.125   0.448
14281TIP3    H142786   4.937   0.093   0.401
14281TIP3    H242787   4.791   0.129   0.381
14282TIP3   OH242788   1.275   2.596   0.478
14282TIP3    H142789   1.270   2.506   0.511
14282TIP3    H242790   1.307   2.647   0.552
14283TIP3   OH242791   1.232   5.802   3.036
14283TIP3    H142792   1.199   5.873   2.980
14283TIP3    H242793   1.259   5.734   2.975
14284TIP3   OH242794   1.345   1.582   3.908
14284TIP3    H142795   1.428   1.544   3.880
14284TIP3    H242796   1.307   1.517   3.967
14285TIP3   OH242797   0.856   3.042   0.620
14285TIP3    H142798   0.836   3.009   0.707
14285TIP3    H242799   0.843   2.967   0.562
14286TIP3   OH242800   2.630   3.829   4.096
14286TIP3    H142801   2.570   3.756   4.109
14286TIP3    H242802   2.717   3.788   4.092
14287TIP3   OH242803   5.939   3.164   5.622
14287TIP3    H142804   5.965   3.254   5.638
14287TIP3    H242805   5.919   3.129   5.708
14288TIP3   OH242806   7.536   6.310   4.024
14288TIP3    H142807   7.591   6.284   3.951
14288TIP3    H242808   7.518   6.403   4.009
14289TIP3   OH242809   2.740   6.337   3.618
14289TIP3    H142810   2.754   6.417   3.668
14289TIP3    H242811   2.674   6.289   3.668
14290TIP3   OH242812   1.536   0.318   1.360
14290TIP3    H142813   1.478   0.392   1.374
14290TIP3    H242814   1.621   0.347   1.393
14291TIP3   OH242815   4.941   3.017   3.524
14291TIP3    H142816   4.884   2.943   3.502
14291TIP3    H242817   4.933   3.077   3.450
14292TIP3   OH242818   6.703   6.015   0.972
14292TIP3    H142819   6.707   6.095   1.025
14292TIP3    H242820   6.610   6.007   0.949
14293TIP3   OH242821   2.355   5.015   4.506
14293TIP3    H142822   2.375   5.060   4.424
14293TIP3    H242823   2.402   5.065   4.573
14294TIP3   OH242824   5.650   0.333   2.893
14294TIP3    H142825   5.682   0.348   2.803
14294TIP3    H242826   5.562   0.297   2.882
14295TIP3   OH242827   7.835   1.576   5.863
14295TIP3    H142828   7.816   1.580   5.769
14295TIP3    H242829   7.923   1.611   5.872
14296TIP3   OH242830   1.175   2.036   3.344
14296TIP3    H142831   1.205   2.012   3.256
14296TIP3    H242832   1.106   1.972   3.363
14297TIP3   OH242833   6.618   1.528   5.938
14297TIP3    H142834   6.620   1.584   5.860
14297TIP3    H242835   6.689   1.466   5.925
14298TIP3   OH242836   4.944   2.828   6.358
14298TIP3    H142837   4.996   2.872   6.290
14298TIP3    H242838   4.885   2.770   6.309
14299TIP3   OH242839   4.275   3.351   4.202
14299TIP3    H142840   4.227   3.273   4.176
14299TIP3    H242841   4.367   3.327   4.192
14300TIP3   OH242842   4.570   0.831   0.503
14300TIP3    H142843   4.528   0.746   0.516
14300TIP3    H242844   4.550   0.880   0.583
14301TIP3   OH242845   1.818   6.936   2.914
14301TIP3    H142846   1.862   7.013   2.877
14301TIP3    H242847   1.774   6.895   2.840
14302TIP3   OH242848   1.775   3.587   0.918
14302TIP3    H142849   1.826   3.624   0.990
14302TIP3    H242850   1.714   3.656   0.893
14303TIP3   OH242851   6.694   5.935   4.240
14303TIP3    H142852   6.709   5.984   4.159
14303TIP3    H242853   6.751   5.859   4.233
14304TIP3   OH242854   6.975   2.408   5.654
14304TIP3    H142855   7.061   2.451   5.649
14304TIP3    H242856   6.995   2.315   5.652
14305TIP3   OH242857   2.124   0.376   2.992
14305TIP3    H142858   2.123   0.361   2.898
14305TIP3    H242859   2.054   0.321   3.026
14306TIP3   OH242860   3.119   2.386   4.751
14306TIP3    H142861   3.087   2.402   4.839
14306TIP3    H242862   3.127   2.291   4.745
14307TIP3   OH242863   5.919   6.791   0.700
14307TIP3    H142864   5.842   6.740   0.676
14307TIP3    H242865   5.893   6.836   0.781
14308TIP3   OH242866   3.171   7.018   0.302
14308TIP3    H142867   3.197   7.099   0.259
14308TIP3    H242868   3.253   6.973   0.320
14309TIP3   OH242869   0.616   3.389   6.453
14309TIP3    H142870   0.573   3.417   6.373
14309TIP3    H242871   0.710   3.401   6.436
14310TIP3   OH242872   0.589   0.945   2.697
14310TIP3    H142873   0.536   0.909   2.625
14310TIP3    H242874   0.533   0.937   2.774
14311TIP3   OH242875   5.043   5.658   2.471
14311TIP3    H142876   5.020   5.637   2.562
14311TIP3    H242877   5.112   5.724   2.479
14312TIP3   OH242878   1.269   6.527   1.686
14312TIP3    H142879   1.210   6.578   1.630
14312TIP3    H242880   1.280   6.444   1.640
14313TIP3   OH242881   1.959   3.535   4.855
14313TIP3    H142882   2.038   3.582   4.880
14313TIP3    H242883   1.926   3.583   4.779
14314TIP3   OH242884   5.962   0.246   3.385
14314TIP3    H142885   5.930   0.292   3.462
14314TIP3    H242886   5.887   0.197   3.352
14315TIP3   OH242887   1.593   5.933   4.825
14315TIP3    H142888   1.587   6.028   4.827
14315TIP3    H242889   1.687   5.915   4.817
14316TIP3   OH242890   6.161   3.669   4.351
14316TIP3    H142891   6.236   3.619   4.318
14316TIP3    H242892   6.199   3.743   4.398
14317TIP3   OH242893   7.708   6.597   0.886
14317TIP3    H142894   7.654   6.632   0.816
14317TIP3    H242895   7.649   6.541   0.937
14318TIP3   OH242896   7.909   1.710   0.923
14318TIP3    H142897   8.000   1.684   0.907
14318TIP3    H242898   7.860   1.670   0.851
14319TIP3   OH242899   1.886   7.209   5.418
14319TIP3    H142900   1.951   7.140   5.431
14319TIP3    H242901   1.836   7.180   5.342
14320TIP3   OH242902   2.220   4.553   3.441
14320TIP3    H142903   2.139   4.503   3.442
14320TIP3    H242904   2.197   4.636   3.399
14321TIP3   OH242905   3.446   4.192   2.188
14321TIP3    H142906   3.502   4.141   2.247
14321TIP3    H242907   3.451   4.146   2.104
14322TIP3   OH242908   2.739   7.638   4.262
14322TIP3    H142909   2.724   7.549   4.293
14322TIP3    H242910   2.696   7.642   4.176
14323TIP3   OH242911   1.963   5.667   2.850
14323TIP3    H142912   1.974   5.611   2.774
14323TIP3    H242913   2.030   5.735   2.840
14324TIP3   OH242914   8.169   5.649   4.113
14324TIP3    H142915   8.244   5.685   4.066
14324TIP3    H242916   8.094   5.698   4.080
14325TIP3   OH242917   3.138   5.538   4.223
14325TIP3    H142918   3.150   5.621   4.175
14325TIP3    H242919   3.115   5.475   4.155
14326TIP3   OH242920   1.521   3.121   6.568
14326TIP3    H142921   1.565   3.170   6.638
14326TIP3    H242922   1.580   3.127   6.493
14327TIP3   OH242923   0.992   4.000   3.355
14327TIP3    H142924   0.944   3.996   3.438
14327TIP3    H242925   0.930   3.969   3.289
14328TIP3   OH242926   7.983   6.200   4.265
14328TIP3    H142927   8.015   6.273   4.213
14328TIP3    H242928   7.904   6.232   4.307
14329TIP3   OH242929   7.032   5.084   0.619
14329TIP3    H142930   7.066   4.995   0.613
14329TIP3    H242931   6.985   5.086   0.702
14330TIP3   OH242932   5.402   2.549   2.622
14330TIP3    H142933   5.464   2.506   2.563
14330TIP3    H242934   5.316   2.519   2.593
14331TIP3   OH242935   5.333   5.807   1.611
14331TIP3    H142936   5.294   5.738   1.664
14331TIP3    H242937   5.334   5.884   1.668
14332TIP3   OH242938   1.787   5.410   4.565
14332TIP3    H142939   1.846   5.405   4.489
14332TIP3    H242940   1.754   5.320   4.575
14333TIP3   OH242941   7.311   3.500   0.303
14333TIP3    H142942   7.394   3.459   0.280
14333TIP3    H242943   7.323   3.593   0.285
14334TIP3   OH242944   4.872   4.727   2.459
14334TIP3    H142945   4.953   4.682   2.480
14334TIP3    H242946   4.808   4.657   2.449
14335TIP3   OH242947   1.715   1.050   2.574
14335TIP3    H142948   1.694   1.142   2.558
14335TIP3    H242949   1.729   1.013   2.487
14336TIP3   OH242950   4.673   1.861   0.819
14336TIP3    H142951   4.683   1.937   0.762
14336TIP3    H242952   4.762   1.827   0.829
14337TIP3   OH242953   3.952   1.267   1.405
14337TIP3    H142954   4.013   1.201   1.439
14337TIP3    H242955   3.966   1.265   1.310
14338TIP3   OH242956   6.303   6.333   0.641
14338TIP3    H142957   6.324   6.240   0.641
14338TIP3    H242958   6.244   6.345   0.567
14339TIP3   OH242959   7.305   2.974   2.054
14339TIP3    H142960   7.352   2.912   2.110
14339TIP3    H242961   7.214   2.966   2.082
14340TIP3   OH242962   4.937   0.598   4.316
14340TIP3    H142963   4.951   0.565   4.405
14340TIP3    H242964   4.847   0.572   4.295
14341TIP3   OH242965   5.355   0.928   4.378
14341TIP3    H142966   5.267   0.937   4.342
14341TIP3    H242967   5.372   1.011   4.422
14342TIP3   OH242968   6.600   5.442   4.241
14342TIP3    H142969   6.506   5.456   4.253
14342TIP3    H242970   6.624   5.380   4.310
14343TIP3   OH242971   5.722   4.331   4.178
14343TIP3    H142972   5.752   4.327   4.269
14343TIP3    H242973   5.731   4.424   4.155
14344TIP3   OH242974   5.933   5.203   6.535
14344TIP3    H142975   5.973   5.289   6.553
14344TIP3    H242976   5.942   5.192   6.441
14345TIP3   OH242977   1.199   5.780   4.800
14345TIP3    H142978   1.132   5.720   4.766
14345TIP3    H242979   1.173   5.794   4.891
14346TIP3   OH242980   5.276   4.918   0.491
14346TIP3    H142981   5.224   4.995   0.468
14346TIP3    H242982   5.218   4.867   0.548
14347TIP3   OH242983   6.821   6.325   2.990
14347TIP3    H142984   6.808   6.389   3.060
14347TIP3    H242985   6.902   6.352   2.947
14348TIP3   OH242986   0.059   1.454   0.722
14348TIP3    H142987   0.033   1.366   0.749
14348TIP3    H242988   0.094   1.494   0.802
14349TIP3   OH242989   6.055   0.401   6.470
14349TIP3    H142990   6.139   0.429   6.507
14349TIP3    H242991   6.079   0.335   6.404
14350TIP3   OH242992   6.834   1.438   2.632
14350TIP3    H142993   6.914   1.489   2.641
14350TIP3    H242994   6.853   1.374   2.564
14351TIP3   OH242995   0.629   7.696   0.794
14351TIP3    H142996   0.695   7.632   0.768
14351TIP3    H242997   0.658   7.778   0.755
14352TIP3   OH242998   4.175   2.809   0.630
14352TIP3    H142999   4.162   2.896   0.592
14352TIP3    H243000   4.102   2.757   0.596
14353TIP3   OH243001   1.155   7.278   0.718
14353TIP3    H143002   1.240   7.247   0.747
14353TIP3    H243003   1.165   7.289   0.623
14354TIP3   OH243004   1.741   1.440   3.258
14354TIP3    H143005   1.690   1.362   3.281
14354TIP3    H243006   1.688   1.483   3.191
14355TIP3   OH243007   3.844   1.764   3.180
14355TIP3    H143008   3.831   1.785   3.087
14355TIP3    H243009   3.841   1.849   3.224
14356TIP3   OH243010   7.632   2.121   1.549
14356TIP3    H143011   7.717   2.164   1.557
14356TIP3    H243012   7.636   2.076   1.465
14357TIP3   OH243013   2.141   7.015   5.208
14357TIP3    H143014   2.229   7.040   5.236
14357TIP3    H243015   2.126   6.930   5.248
14358TIP3   OH243016   8.008   1.898   5.668
14358TIP3    H143017   8.012   1.810   5.705
14358TIP3    H243018   8.098   1.917   5.642
14359TIP3   OH243019   5.200   6.276   4.890
14359TIP3    H143020   5.255   6.324   4.828
14359TIP3    H243021   5.138   6.228   4.835
14360TIP3   OH243022   0.501   5.634   4.824
14360TIP3    H143023   0.498   5.571   4.896
14360TIP3    H243024   0.495   5.719   4.868
14361TIP3   OH243025   1.195   5.779   4.402
14361TIP3    H143026   1.260   5.788   4.471
14361TIP3    H243027   1.205   5.859   4.349
14362TIP3   OH243028   5.372   3.541   1.667
14362TIP3    H143029   5.346   3.458   1.708
14362TIP3    H243030   5.356   3.607   1.735
14363TIP3   OH243031   6.918   0.885   0.226
14363TIP3    H143032   6.870   0.840   0.296
14363TIP3    H243033   6.972   0.817   0.186
14364TIP3   OH243034   2.900   2.699   5.046
14364TIP3    H143035   2.923   2.785   5.080
14364TIP3    H243036   2.822   2.714   4.993
14365TIP3   OH243037   1.666   0.544  -0.017
14365TIP3    H143038   1.720   0.575  -0.089
14365TIP3    H243039   1.724   0.546   0.059
14366TIP3   OH243040   4.300   0.333   3.227
14366TIP3    H143041   4.238   0.261   3.232
14366TIP3    H243042   4.383   0.291   3.204
14367TIP3   OH243043   2.947   7.018   6.209
14367TIP3    H143044   2.923   7.089   6.269
14367TIP3    H243045   3.033   7.043   6.176
14368TIP3   OH243046   6.286   6.892   1.562
14368TIP3    H143047   6.256   6.826   1.624
14368TIP3    H243048   6.372   6.918   1.594
14369TIP3   OH243049   5.755   0.203   1.211
14369TIP3    H143050   5.829   0.164   1.257
14369TIP3    H243051   5.779   0.295   1.200
14370TIP3   OH243052   1.836   2.183   1.246
14370TIP3    H143053   1.886   2.149   1.321
14370TIP3    H243054   1.853   2.277   1.247
14371TIP3   OH243055   2.195   6.791   2.295
14371TIP3    H143056   2.148   6.801   2.378
14371TIP3    H243057   2.166   6.707   2.261
14372TIP3   OH243058   0.757   7.712   5.470
14372TIP3    H143059   0.739   7.774   5.541
14372TIP3    H243060   0.811   7.760   5.408
14373TIP3   OH243061   1.813   0.885   2.339
14373TIP3    H143062   1.858   0.959   2.298
14373TIP3    H243063   1.852   0.808   2.299
14374TIP3   OH243064   3.943   3.087   3.445
14374TIP3    H143065   3.938   3.020   3.513
14374TIP3    H243066   3.943   3.039   3.362
14375TIP3   OH243067   2.603   1.593   2.657
14375TIP3    H143068   2.621   1.556   2.571
14375TIP3    H243069   2.515   1.628   2.650
14376TIP3   OH243070   6.263   0.290   2.572
14376TIP3    H143071   6.219   0.253   2.495
14376TIP3    H243072   6.238   0.232   2.643
14377TIP3   OH243073   6.400   4.759   2.776
14377TIP3    H143074   6.418   4.730   2.865
14377TIP3    H243075   6.379   4.852   2.785
14378TIP3   OH243076   4.141   2.607   3.782
14378TIP3    H143077   4.191   2.560   3.849
14378TIP3    H243078   4.196   2.600   3.703
14379TIP3   OH243079   6.343   1.140   2.478
14379TIP3    H143080   6.334   1.235   2.473
14379TIP3    H243081   6.276   1.113   2.541
14380TIP3   OH243082   7.600   3.042   2.071
14380TIP3    H143083   7.533   2.978   2.095
14380TIP3    H243084   7.634   3.010   1.987
14381TIP3   OH243085   6.096   2.849   4.438
14381TIP3    H143086   6.048   2.813   4.364
14381TIP3    H243087   6.040   2.919   4.472
14382TIP3   OH243088   4.603   1.779   0.231
14382TIP3    H143089   4.620   1.685   0.243
14382TIP3    H243090   4.528   1.782   0.172
14383TIP3   OH243091   0.322   1.853   3.504
14383TIP3    H143092   0.349   1.769   3.540
14383TIP3    H243093   0.381   1.917   3.545
14384TIP3   OH243094   1.443   5.435   0.924
14384TIP3    H143095   1.422   5.354   0.970
14384TIP3    H243096   1.414   5.505   0.982
14385TIP3   OH243097   2.413   5.897   2.454
14385TIP3    H143098   2.374   5.889   2.367
14385TIP3    H243099   2.463   5.979   2.450
14386TIP3   OH243100   7.352   4.310   1.658
14386TIP3    H143101   7.263   4.320   1.690
14386TIP3    H243102   7.363   4.216   1.645
14387TIP3   OH243103   1.720   5.088   1.271
14387TIP3    H143104   1.751   4.998   1.267
14387TIP3    H243105   1.635   5.086   1.227
14388TIP3   OH243106   0.866   0.231   4.560
14388TIP3    H143107   0.933   0.294   4.534
14388TIP3    H243108   0.815   0.216   4.480
14389TIP3   OH243109   7.399   5.721   5.962
14389TIP3    H143110   7.377   5.643   5.910
14389TIP3    H243111   7.318   5.742   6.009
14390TIP3   OH243112   1.032   0.390   2.649
14390TIP3    H143113   1.017   0.314   2.593
14390TIP3    H243114   1.059   0.352   2.733
14391TIP3   OH243115   1.469   7.183   5.588
14391TIP3    H143116   1.512   7.154   5.508
14391TIP3    H243117   1.540   7.196   5.650
14392TIP3   OH243118   6.898   0.233   2.217
14392TIP3    H143119   6.819   0.252   2.269
14392TIP3    H243120   6.955   0.308   2.233
14393TIP3   OH243121   4.048   3.056   1.907
14393TIP3    H143122   4.132   3.013   1.923
14393TIP3    H243123   3.983   2.988   1.920
14394TIP3   OH243124   4.207   0.459   4.520
14394TIP3    H143125   4.195   0.427   4.609
14394TIP3    H243126   4.119   0.487   4.492
14395TIP3   OH243127   2.616   2.357   6.399
14395TIP3    H143128   2.643   2.284   6.454
14395TIP3    H243129   2.521   2.349   6.393
14396TIP3   OH243130   2.632   1.899   4.566
14396TIP3    H143131   2.612   1.836   4.635
14396TIP3    H243132   2.660   1.978   4.612
14397TIP3   OH243133   3.018   4.224   1.794
14397TIP3    H143134   2.963   4.261   1.725
14397TIP3    H243135   3.103   4.209   1.752
14398TIP3   OH243136   1.553   7.478   2.001
14398TIP3    H143137   1.615   7.541   2.038
14398TIP3    H243138   1.532   7.512   1.915
14399TIP3   OH243139   3.408   5.992   1.692
14399TIP3    H143140   3.360   6.015   1.612
14399TIP3    H243141   3.385   5.901   1.709
14400TIP3   OH243142   5.141   3.850   6.479
14400TIP3    H143143   5.237   3.850   6.488
14400TIP3    H243144   5.111   3.911   6.546
14401TIP3   OH243145   5.946   4.558   6.209
14401TIP3    H143146   5.853   4.571   6.192
14401TIP3    H243147   5.965   4.615   6.284
14402TIP3   OH243148   7.907   1.043   4.889
14402TIP3    H143149   7.941   0.998   4.811
14402TIP3    H243150   7.869   1.124   4.856
14403TIP3   OH243151   7.644   5.300   5.239
14403TIP3    H143152   7.584   5.255   5.299
14403TIP3    H243153   7.600   5.295   5.154
14404TIP3   OH243154   3.935   6.894   0.576
14404TIP3    H143155   4.028   6.916   0.575
14404TIP3    H243156   3.922   6.839   0.499
14405TIP3   OH243157   6.764   7.537   0.091
14405TIP3    H143158   6.761   7.442   0.094
14405TIP3    H243159   6.768   7.564   0.183
14406TIP3   OH243160   0.280   1.743   3.082
14406TIP3    H143161   0.320   1.658   3.099
14406TIP3    H243162   0.229   1.731   3.003
14407TIP3   OH243163   5.931   3.075   4.371
14407TIP3    H143164   5.872   3.096   4.299
14407TIP3    H243165   6.019   3.091   4.336
14408TIP3   OH243166   4.778   4.111   0.334
14408TIP3    H143167   4.745   4.102   0.245
14408TIP3    H243168   4.699   4.113   0.389
14409TIP3   OH243169   6.146   5.493   5.702
14409TIP3    H143170   6.099   5.558   5.754
14409TIP3    H243171   6.080   5.456   5.643
14410TIP3   OH243172   7.544   1.701   2.235
14410TIP3    H143173   7.639   1.699   2.243
14410TIP3    H243174   7.513   1.724   2.322
14411TIP3   OH243175   1.229   4.909   4.014
14411TIP3    H143176   1.226   4.846   4.086
14411TIP3    H243177   1.175   4.983   4.045
14412TIP3   OH243178   5.518   2.876   4.360
14412TIP3    H143179   5.455   2.919   4.303
14412TIP3    H243180   5.529   2.789   4.321
14413TIP3   OH243181   2.909   6.415   4.222
14413TIP3    H143182   2.906   6.418   4.318
14413TIP3    H243183   2.942   6.328   4.201
14414TIP3   OH243184   5.145   4.687   6.698
14414TIP3    H143185   5.104   4.601   6.693
14414TIP3    H243186   5.147   4.707   6.792
14415TIP3   OH243187   1.354   1.229   3.675
14415TIP3    H143188   1.416   1.297   3.646
14415TIP3    H243189   1.304   1.208   3.596
14416TIP3   OH243190   2.315   5.654   2.546
14416TIP3    H143191   2.379   5.591   2.512
14416TIP3    H243192   2.346   5.739   2.516
14417TIP3   OH243193   0.131   5.071   6.024
14417TIP3    H143194   0.105   5.157   5.992
14417TIP3    H243195   0.096   5.010   5.958
14418TIP3   OH243196   5.710   6.665   3.969
14418TIP3    H143197   5.624   6.654   3.928
14418TIP3    H243198   5.693   6.719   4.046
14419TIP3   OH243199   1.829   1.670   2.091
14419TIP3    H143200   1.903   1.621   2.129
14419TIP3    H243201   1.755   1.609   2.096
14420TIP3   OH243202   6.515   2.989   2.210
14420TIP3    H143203   6.469   2.962   2.289
14420TIP3    H243204   6.451   3.039   2.160
14421TIP3   OH243205   5.525   1.655   1.156
14421TIP3    H143206   5.443   1.669   1.204
14421TIP3    H243207   5.549   1.565   1.175
14422TIP3   OH243208   4.813   7.805   4.867
14422TIP3    H143209   4.856   7.736   4.919
14422TIP3    H243210   4.874   7.822   4.795
14423TIP3   OH243211   6.498   1.151   0.585
14423TIP3    H143212   6.475   1.121   0.673
14423TIP3    H243213   6.592   1.134   0.578
14424TIP3   OH243214   5.758   0.114   3.024
14424TIP3    H143215   5.704   0.189   3.000
14424TIP3    H243216   5.746   0.105   3.118
14425TIP3   OH243217   2.691   1.971   2.369
14425TIP3    H143218   2.729   1.961   2.282
14425TIP3    H243219   2.719   1.893   2.417
14426TIP3   OH243220   0.805   1.346   6.056
14426TIP3    H143221   0.858   1.374   6.131
14426TIP3    H243222   0.807   1.250   6.060
14427TIP3   OH243223   5.759   0.971   2.601
14427TIP3    H143224   5.743   0.881   2.629
14427TIP3    H243225   5.672   1.008   2.589
14428TIP3   OH243226   6.877   4.797   3.146
14428TIP3    H143227   6.884   4.745   3.227
14428TIP3    H243228   6.917   4.741   3.079
14429TIP3   OH243229   7.170   1.684   1.999
14429TIP3    H143230   7.100   1.664   1.936
14429TIP3    H243231   7.158   1.620   2.069
14430TIP3   OH243232   2.479   7.724   5.121
14430TIP3    H143233   2.506   7.766   5.202
14430TIP3    H243234   2.508   7.633   5.130
14431TIP3   OH243235   2.261   6.010   2.668
14431TIP3    H143236   2.308   5.964   2.599
14431TIP3    H243237   2.241   5.942   2.732
14432TIP3   OH243238   4.063   4.695   0.726
14432TIP3    H143239   4.024   4.714   0.640
14432TIP3    H243240   3.996   4.721   0.789
14433TIP3   OH243241   1.859   0.987   5.063
14433TIP3    H143242   1.834   0.898   5.040
14433TIP3    H243243   1.939   1.003   5.013
14434TIP3   OH243244   3.706   5.830   6.338
14434TIP3    H143245   3.619   5.869   6.339
14434TIP3    H243246   3.711   5.786   6.254
14435TIP3   OH243247   3.782   6.708   4.642
14435TIP3    H143248   3.792   6.658   4.561
14435TIP3    H243249   3.741   6.647   4.704
14436TIP3   OH243250   4.595   2.966   6.282
14436TIP3    H143251   4.573   2.900   6.347
14436TIP3    H243252   4.602   3.048   6.332
14437TIP3   OH243253   6.404   7.292   1.446
14437TIP3    H143254   6.358   7.210   1.427
14437TIP3    H243255   6.350   7.360   1.407
14438TIP3   OH243256   2.841   2.015   4.216
14438TIP3    H143257   2.904   1.944   4.219
14438TIP3    H243258   2.764   1.980   4.261
14439TIP3   OH243259   4.244   6.052   2.627
14439TIP3    H143260   4.176   6.118   2.615
14439TIP3    H243261   4.280   6.038   2.539
14440TIP3   OH243262   5.140   2.625   1.157
14440TIP3    H143263   5.171   2.563   1.223
14440TIP3    H243264   5.186   2.707   1.177
14441TIP3   OH243265   5.831   1.782   3.378
14441TIP3    H143266   5.923   1.756   3.376
14441TIP3    H243267   5.826   1.860   3.323
14442TIP3   OH243268   2.543   0.533   0.649
14442TIP3    H143269   2.583   0.532   0.737
14442TIP3    H243270   2.449   0.528   0.666
14443TIP3   OH243271   3.363   3.899   0.800
14443TIP3    H143272   3.446   3.906   0.754
14443TIP3    H243273   3.383   3.920   0.891
14444TIP3   OH243274   5.146   4.041   3.303
14444TIP3    H143275   5.098   4.117   3.336
14444TIP3    H243276   5.082   3.992   3.252
14445TIP3   OH243277   3.695   0.590   3.608
14445TIP3    H143278   3.634   0.584   3.535
14445TIP3    H243279   3.760   0.521   3.591
14446TIP3   OH243280   2.005   3.061   2.467
14446TIP3    H143281   2.097   3.052   2.443
14446TIP3    H243282   1.983   3.152   2.446
14447TIP3   OH243283   8.021   2.023   0.800
14447TIP3    H143284   7.983   2.109   0.784
14447TIP3    H243285   8.088   2.038   0.866
14448TIP3   OH243286   8.128   5.644   1.619
14448TIP3    H143287   8.061   5.578   1.601
14448TIP3    H243288   8.207   5.593   1.639
14449TIP3   OH243289   4.905   7.473   3.400
14449TIP3    H143290   4.882   7.557   3.439
14449TIP3    H243291   4.820   7.432   3.381
14450TIP3   OH243292   5.492   6.920   1.806
14450TIP3    H143293   5.584   6.908   1.830
14450TIP3    H243294   5.460   6.988   1.867
14451TIP3   OH243295   8.085   2.136   2.824
14451TIP3    H143296   8.047   2.049   2.813
14451TIP3    H243297   8.016   2.188   2.863
14452TIP3   OH243298   0.509   5.885   6.388
14452TIP3    H143299   0.534   5.872   6.479
14452TIP3    H243300   0.592   5.887   6.340
14453TIP3   OH243301   1.067   7.855   5.036
14453TIP3    H143302   1.051   7.782   5.095
14453TIP3    H243303   1.050   7.819   4.949
14454TIP3   OH243304   7.555   4.176   1.300
14454TIP3    H143305   7.581   4.153   1.211
14454TIP3    H243306   7.489   4.244   1.290
14455TIP3   OH243307   0.225   1.174   3.770
14455TIP3    H143308   0.221   1.269   3.762
14455TIP3    H243309   0.163   1.154   3.841
14456TIP3   OH243310   5.717   6.927   4.408
14456TIP3    H143311   5.628   6.928   4.444
14456TIP3    H243312   5.752   7.014   4.427
14457TIP3   OH243313   6.195   2.180   2.287
14457TIP3    H143314   6.226   2.183   2.197
14457TIP3    H243315   6.203   2.088   2.312
14458TIP3   OH243316   5.810   0.440   4.452
14458TIP3    H143317   5.879   0.374   4.444
14458TIP3    H243318   5.731   0.390   4.473
14459TIP3   OH243319   7.039   4.258   3.647
14459TIP3    H143320   7.094   4.306   3.709
14459TIP3    H243321   6.951   4.293   3.662
14460TIP3   OH243322   4.866   4.343   5.674
14460TIP3    H143323   4.836   4.254   5.656
14460TIP3    H243324   4.809   4.373   5.745
14461TIP3   OH243325   6.796   7.465   0.354
14461TIP3    H143326   6.754   7.509   0.428
14461TIP3    H243327   6.850   7.397   0.395
14462TIP3   OH243328   3.344   2.972   5.818
14462TIP3    H143329   3.416   2.926   5.774
14462TIP3    H243330   3.310   2.908   5.880
14463TIP3   OH243331   6.324   5.392   3.496
14463TIP3    H143332   6.236   5.414   3.466
14463TIP3    H243333   6.351   5.320   3.440
14464TIP3   OH243334   0.416   3.529   6.590
14464TIP3    H143335   0.489   3.480   6.553
14464TIP3    H243336   0.434   3.620   6.566
14465TIP3   OH243337   7.684   7.301   3.583
14465TIP3    H143338   7.645   7.292   3.670
14465TIP3    H243339   7.769   7.259   3.591
14466TIP3   OH243340   5.954   5.611   6.011
14466TIP3    H143341   5.976   5.558   6.087
14466TIP3    H243342   5.885   5.561   5.966
14467TIP3   OH243343   1.394   7.734   1.040
14467TIP3    H143344   1.420   7.740   0.948
14467TIP3    H243345   1.352   7.648   1.047
14468TIP3   OH243346   0.141   3.285   0.937
14468TIP3    H143347   0.071   3.349   0.921
14468TIP3    H243348   0.206   3.334   0.988
14469TIP3   OH243349   7.397   6.284   6.253
14469TIP3    H143350   7.356   6.206   6.216
14469TIP3    H243351   7.490   6.260   6.262
14470TIP3   OH243352   4.999   0.334   5.535
14470TIP3    H143353   5.092   0.332   5.511
14470TIP3    H243354   4.979   0.245   5.563
14471TIP3   OH243355   7.298   7.096   3.278
14471TIP3    H143356   7.294   7.010   3.320
14471TIP3    H243357   7.334   7.154   3.346
14472TIP3   OH243358   4.490   2.889   2.427
14472TIP3    H143359   4.581   2.918   2.420
14472TIP3    H243360   4.488   2.804   2.383
14473TIP3   OH243361   0.209   4.791   4.551
14473TIP3    H143362   0.163   4.732   4.491
14473TIP3    H243363   0.274   4.737   4.595
14474TIP3   OH243364   3.392   1.107   3.999
14474TIP3    H143365   3.470   1.149   3.962
14474TIP3    H243366   3.427   1.031   4.046
14475TIP3   OH243367   1.354   0.831   4.911
14475TIP3    H143368   1.439   0.867   4.884
14475TIP3    H243369   1.294   0.858   4.842
14476TIP3   OH243370   4.543   1.023   2.337
14476TIP3    H143371   4.482   1.028   2.263
14476TIP3    H243372   4.605   1.094   2.322
14477TIP3   OH243373   2.369   3.914   5.365
14477TIP3    H143374   2.385   3.851   5.295
14477TIP3    H243375   2.439   3.978   5.356
14478TIP3   OH243376   1.185   7.042   3.754
14478TIP3    H143377   1.255   7.101   3.781
14478TIP3    H243378   1.160   7.073   3.667
14479TIP3   OH243379   1.677   2.773   2.919
14479TIP3    H143380   1.582   2.775   2.907
14479TIP3    H243381   1.706   2.862   2.896
14480TIP3   OH243382   0.404   6.522   2.617
14480TIP3    H143383   0.316   6.560   2.614
14480TIP3    H243384   0.391   6.436   2.659
14481TIP3   OH243385   7.184   2.989   6.298
14481TIP3    H143386   7.107   3.005   6.352
14481TIP3    H243387   7.180   3.057   6.231
14482TIP3   OH243388   6.543   4.265   0.143
14482TIP3    H143389   6.638   4.264   0.138
14482TIP3    H243390   6.518   4.356   0.126
14483TIP3   OH243391   5.325   1.549   5.116
14483TIP3    H143392   5.401   1.526   5.063
14483TIP3    H243393   5.340   1.505   5.199
14484TIP3   OH243394   4.094   7.260   2.230
14484TIP3    H143395   4.080   7.241   2.323
14484TIP3    H243396   4.138   7.345   2.230
14485TIP3   OH243397   4.989   6.839   5.378
14485TIP3    H143398   5.083   6.850   5.360
14485TIP3    H243399   4.952   6.815   5.293
14486TIP3   OH243400   8.183   3.858   1.467
14486TIP3    H143401   8.106   3.913   1.455
14486TIP3    H243402   8.199   3.859   1.561
14487TIP3   OH243403   4.447   1.848   6.282
14487TIP3    H143404   4.428   1.863   6.190
14487TIP3    H243405   4.493   1.765   6.285
14488TIP3   OH243406   8.248   1.824   3.098
14488TIP3    H143407   8.231   1.916   3.075
14488TIP3    H243408   8.308   1.829   3.172
14489TIP3   OH243409   0.275   0.877   5.342
14489TIP3    H143410   0.217   0.950   5.319
14489TIP3    H243411   0.349   0.886   5.283
14490TIP3   OH243412   3.149   1.974   4.317
14490TIP3    H143413   3.075   1.938   4.365
14490TIP3    H243414   3.221   1.912   4.333
14491TIP3   OH243415   2.905   2.802   4.444
14491TIP3    H143416   2.934   2.713   4.465
14491TIP3    H243417   2.987   2.849   4.426
14492TIP3   OH243418   7.402   7.491   4.564
14492TIP3    H143419   7.474   7.549   4.541
14492TIP3    H243420   7.399   7.426   4.493
14493TIP3   OH243421   5.158   4.112   0.336
14493TIP3    H143422   5.144   4.177   0.404
14493TIP3    H243423   5.159   4.163   0.255
14494TIP3   OH243424   3.553   3.002   3.830
14494TIP3    H143425   3.552   2.942   3.755
14494TIP3    H243426   3.594   3.082   3.796
14495TIP3   OH243427   7.239   4.020   0.389
14495TIP3    H143428   7.165   3.959   0.396
14495TIP3    H243429   7.299   3.993   0.458
14496TIP3   OH243430   4.777   5.007   5.313
14496TIP3    H143431   4.773   4.912   5.312
14496TIP3    H243432   4.849   5.029   5.254
14497TIP3   OH243433   7.664   6.582   0.076
14497TIP3    H143434   7.706   6.505   0.114
14497TIP3    H243435   7.661   6.646   0.147
14498TIP3   OH243436   0.483   6.640   4.250
14498TIP3    H143437   0.468   6.623   4.157
14498TIP3    H243438   0.558   6.584   4.272
14499TIP3   OH243439   7.954   6.157   0.127
14499TIP3    H143440   7.991   6.091   0.186
14499TIP3    H243441   8.029   6.192   0.079
14500TIP3   OH243442   8.209   5.719   6.617
14500TIP3    H143443   8.121   5.706   6.581
14500TIP3    H243444   8.262   5.744   6.541
14501TIP3   OH243445   2.800   6.643   4.860
14501TIP3    H143446   2.866   6.602   4.916
14501TIP3    H243447   2.843   6.651   4.775
14502TIP3   OH243448   6.158   7.022   0.046
14502TIP3    H143449   6.164   7.110   0.008
14502TIP3    H243450   6.156   6.964  -0.030
14503TIP3   OH243451   0.653   1.009   3.452
14503TIP3    H143452   0.610   1.088   3.419
14503TIP3    H243453   0.657   1.022   3.547
14504TIP3   OH243454   7.904   1.739   3.058
14504TIP3    H143455   7.881   1.730   3.151
14504TIP3    H243456   7.861   1.666   3.015
14505TIP3   OH243457   7.586   4.668   2.827
14505TIP3    H143458   7.533   4.745   2.804
14505TIP3    H243459   7.529   4.615   2.882
14506TIP3   OH243460   0.483   4.022   4.007
14506TIP3    H143461   0.473   4.008   4.101
14506TIP3    H243462   0.404   3.984   3.968
14507TIP3   OH243463   6.764   0.819   6.764
14507TIP3    H143464   6.689   0.868   6.798
14507TIP3    H243465   6.776   0.852   6.674
14508TIP3   OH243466   1.461   2.864   6.772
14508TIP3    H143467   1.535   2.843   6.828
14508TIP3    H243468   1.498   2.914   6.699
14509TIP3   OH243469   0.977   1.102   3.480
14509TIP3    H143470   0.923   1.120   3.557
14509TIP3    H243471   0.933   1.029   3.437
14510TIP3   OH243472   8.251   4.795   2.776
14510TIP3    H143473   8.328   4.852   2.777
14510TIP3    H243474   8.245   4.761   2.865
14511TIP3   OH243475   2.160   3.724   2.672
14511TIP3    H143476   2.122   3.642   2.705
14511TIP3    H243477   2.164   3.711   2.577
14512TIP3   OH243478   3.187   3.337   1.117
14512TIP3    H143479   3.136   3.409   1.080
14512TIP3    H243480   3.264   3.379   1.156
14513TIP3   OH243481   6.974   2.730   3.656
14513TIP3    H143482   6.986   2.683   3.738
14513TIP3    H243483   6.936   2.814   3.681
14514TIP3   OH243484   1.197   6.277   3.090
14514TIP3    H143485   1.271   6.258   3.147
14514TIP3    H243486   1.194   6.373   3.086
14515TIP3   OH243487   1.171   6.945   1.772
14515TIP3    H143488   1.222   6.947   1.691
14515TIP3    H243489   1.124   7.028   1.773
14516TIP3   OH243490   4.915   3.182   2.275
14516TIP3    H143491   4.955   3.260   2.312
14516TIP3    H243492   4.990   3.128   2.248
14517TIP3   OH243493   5.532   2.428   0.686
14517TIP3    H143494   5.612   2.479   0.673
14517TIP3    H243495   5.520   2.428   0.781
14518TIP3   OH243496   5.316   7.279   2.984
14518TIP3    H143497   5.265   7.263   3.064
14518TIP3    H243498   5.401   7.240   3.001
14519TIP3   OH243499   7.732   4.701   4.944
14519TIP3    H143500   7.818   4.678   4.909
14519TIP3    H243501   7.689   4.748   4.873
14520TIP3   OH243502   6.810   3.955   1.972
14520TIP3    H143503   6.738   3.895   1.993
14520TIP3    H243504   6.858   3.964   2.054
14521TIP3   OH243505   5.096   0.487   2.125
14521TIP3    H143506   5.131   0.575   2.108
14521TIP3    H243507   5.008   0.503   2.159
14522TIP3   OH243508   6.687   5.359   1.269
14522TIP3    H143509   6.620   5.427   1.258
14522TIP3    H243510   6.663   5.316   1.351
14523TIP3   OH243511   3.357   7.513   2.554
14523TIP3    H143512   3.323   7.438   2.602
14523TIP3    H243513   3.366   7.483   2.464
14524TIP3   OH243514   3.911   4.600   2.579
14524TIP3    H143515   4.007   4.603   2.585
14524TIP3    H243516   3.885   4.692   2.580
14525TIP3   OH243517   1.893   6.113   2.899
14525TIP3    H143518   1.906   6.201   2.936
14525TIP3    H243519   1.798   6.104   2.891
14526TIP3   OH243520   6.350   6.839   0.834
14526TIP3    H143521   6.314   6.757   0.867
14526TIP3    H243522   6.288   6.906   0.862
14527TIP3   OH243523   4.527   5.851   4.421
14527TIP3    H143524   4.526   5.930   4.476
14527TIP3    H243525   4.439   5.848   4.382
14528TIP3   OH243526   1.521   4.808   2.189
14528TIP3    H143527   1.508   4.838   2.099
14528TIP3    H243528   1.553   4.886   2.235
14529TIP3   OH243529   6.139   0.899   1.427
14529TIP3    H143530   6.060   0.862   1.387
14529TIP3    H243531   6.171   0.830   1.485
14530TIP3   OH243532   2.989   4.725   6.127
14530TIP3    H143533   3.067   4.698   6.175
14530TIP3    H243534   2.972   4.654   6.066
14531TIP3   OH243535   5.489   4.828   3.909
14531TIP3    H143536   5.572   4.871   3.889
14531TIP3    H243537   5.430   4.900   3.931
14532TIP3   OH243538   7.663   6.261   4.290
14532TIP3    H143539   7.631   6.288   4.204
14532TIP3    H243540   7.584   6.237   4.338
14533TIP3   OH243541   2.607   7.483   3.997
14533TIP3    H143542   2.607   7.391   4.022
14533TIP3    H243543   2.517   7.501   3.969
14534TIP3   OH243544   2.678   4.030   3.379
14534TIP3    H143545   2.624   4.085   3.321
14534TIP3    H243546   2.615   3.977   3.427
14535TIP3   OH243547   8.040   2.215   3.861
14535TIP3    H143548   7.999   2.279   3.803
14535TIP3    H243549   8.080   2.268   3.930
14536TIP3   OH243550   7.253   0.940   5.260
14536TIP3    H143551   7.325   0.940   5.323
14536TIP3    H243552   7.174   0.936   5.315
14537TIP3   OH243553   3.027   0.165   1.841
14537TIP3    H143554   3.021   0.200   1.930
14537TIP3    H243555   2.936   0.166   1.809
14538TIP3   OH243556   6.568   6.388   2.618
14538TIP3    H143557   6.569   6.484   2.619
14538TIP3    H243558   6.597   6.362   2.705
14539TIP3   OH243559   2.112   1.402   2.517
14539TIP3    H143560   2.165   1.373   2.443
14539TIP3    H243561   2.056   1.471   2.481
14540TIP3   OH243562   2.365   4.388   0.977
14540TIP3    H143563   2.281   4.410   0.937
14540TIP3    H243564   2.431   4.419   0.915
14541TIP3   OH243565   2.473   3.267   4.916
14541TIP3    H143566   2.433   3.211   4.850
14541TIP3    H243567   2.410   3.338   4.929
14542TIP3   OH243568   4.742   3.906   3.435
14542TIP3    H143569   4.665   3.906   3.493
14542TIP3    H243570   4.712   3.864   3.355
14543TIP3   OH243571   1.272   5.047   5.538
14543TIP3    H143572   1.303   4.962   5.509
14543TIP3    H243573   1.177   5.044   5.527
14544TIP3   OH243574   0.707   5.212   4.906
14544TIP3    H143575   0.674   5.212   4.996
14544TIP3    H243576   0.637   5.173   4.855
14545TIP3   OH243577   3.148   5.562   0.833
14545TIP3    H143578   3.058   5.540   0.855
14545TIP3    H243579   3.199   5.532   0.909
14546TIP3   OH243580   3.552   1.542   4.618
14546TIP3    H143581   3.611   1.613   4.646
14546TIP3    H243582   3.611   1.472   4.591
14547TIP3   OH243583   0.449   5.587   5.796
14547TIP3    H143584   0.388   5.538   5.852
14547TIP3    H243585   0.458   5.672   5.839
14548TIP3   OH243586   2.604   4.499   4.643
14548TIP3    H143587   2.665   4.447   4.590
14548TIP3    H243588   2.594   4.581   4.594
14549TIP3   OH243589   7.051   3.249   5.259
14549TIP3    H143590   7.022   3.179   5.200
14549TIP3    H243591   7.109   3.303   5.205
14550TIP3   OH243592   2.665   2.109   0.297
14550TIP3    H143593   2.760   2.117   0.288
14550TIP3    H243594   2.630   2.145   0.216
14551TIP3   OH243595   5.192   5.139   4.897
14551TIP3    H143596   5.097   5.136   4.887
14551TIP3    H243597   5.207   5.202   4.967
14552TIP3   OH243598   0.366   4.524   1.586
14552TIP3    H143599   0.459   4.515   1.608
14552TIP3    H243600   0.335   4.435   1.573
14553TIP3   OH243601   6.006   0.607   5.838
14553TIP3    H143602   5.932   0.568   5.793
14553TIP3    H243603   6.008   0.564   5.923
14554TIP3   OH243604   2.007   3.665   1.079
14554TIP3    H143605   2.034   3.756   1.090
14554TIP3    H243606   2.086   3.620   1.050
14555TIP3   OH243607   2.208   6.485   3.692
14555TIP3    H143608   2.286   6.471   3.638
14555TIP3    H243609   2.145   6.527   3.634
14556TIP3   OH243610   5.166   0.994   4.852
14556TIP3    H143611   5.150   0.964   4.763
14556TIP3    H243612   5.079   1.009   4.889
14557TIP3   OH243613   0.234   2.422   2.344
14557TIP3    H143614   0.225   2.487   2.414
14557TIP3    H243615   0.171   2.451   2.277
14558TIP3   OH243616   0.677   6.183   4.068
14558TIP3    H143617   0.657   6.124   4.140
14558TIP3    H243618   0.594   6.223   4.044
14559TIP3   OH243619   4.866   2.942   1.815
14559TIP3    H143620   4.913   3.009   1.765
14559TIP3    H243621   4.932   2.903   1.872
14560TIP3   OH243622   1.653   1.557   1.158
14560TIP3    H143623   1.579   1.503   1.188
14560TIP3    H243624   1.707   1.498   1.106
14561TIP3   OH243625   3.067   5.100   4.512
14561TIP3    H143626   3.093   5.174   4.566
14561TIP3    H243627   3.040   5.139   4.429
14562TIP3   OH243628   0.686   6.150   0.934
14562TIP3    H143629   0.602   6.113   0.909
14562TIP3    H243630   0.748   6.114   0.871
14563TIP3   OH243631   2.437   3.840   2.687
14563TIP3    H143632   2.349   3.807   2.707
14563TIP3    H243633   2.482   3.841   2.771
14564TIP3   OH243634   7.428   6.620   0.339
14564TIP3    H143635   7.456   6.564   0.267
14564TIP3    H243636   7.342   6.652   0.312
14565TIP3   OH243637   7.673   5.562   5.667
14565TIP3    H143638   7.634   5.475   5.679
14565TIP3    H243639   7.757   5.557   5.713
14566TIP3   OH243640   7.819   6.529   2.846
14566TIP3    H143641   7.848   6.492   2.929
14566TIP3    H243642   7.778   6.456   2.800
14567TIP3   OH243643   6.576   2.380   4.895
14567TIP3    H143644   6.593   2.470   4.924
14567TIP3    H243645   6.512   2.389   4.824
14568TIP3   OH243646   4.703   3.024   4.080
14568TIP3    H143647   4.643   2.956   4.051
14568TIP3    H243648   4.787   3.000   4.039
14569TIP3   OH243649   0.361   1.687   6.340
14569TIP3    H143650   0.430   1.732   6.389
14569TIP3    H243651   0.390   1.691   6.249
14570TIP3   OH243652   3.481   4.946   1.896
14570TIP3    H143653   3.537   4.961   1.820
14570TIP3    H243654   3.467   4.852   1.898
14571TIP3   OH243655   1.926   2.370   1.593
14571TIP3    H143656   1.946   2.283   1.557
14571TIP3    H243657   1.855   2.353   1.655
14572TIP3   OH243658   5.558   1.689   6.594
14572TIP3    H143659   5.536   1.783   6.598
14572TIP3    H243660   5.653   1.686   6.604
14573TIP3   OH243661   7.103   6.646   2.540
14573TIP3    H143662   7.195   6.620   2.539
14573TIP3    H243663   7.069   6.612   2.623
14574TIP3   OH243664   8.034   5.387   2.850
14574TIP3    H143665   8.033   5.373   2.755
14574TIP3    H243666   8.090   5.463   2.862
14575TIP3   OH243667   3.022   2.152   0.747
14575TIP3    H143668   3.106   2.113   0.723
14575TIP3    H243669   3.000   2.112   0.831
14576TIP3   OH243670   2.778   0.955   6.646
14576TIP3    H143671   2.712   0.991   6.586
14576TIP3    H243672   2.739   0.963   6.732
14577TIP3   OH243673   2.317   4.341   2.363
14577TIP3    H143674   2.271   4.281   2.304
14577TIP3    H243675   2.306   4.427   2.321
14578TIP3   OH243676   5.466   3.368   0.383
14578TIP3    H143677   5.415   3.320   0.318
14578TIP3    H243678   5.508   3.300   0.436
14579TIP3   OH243679   3.280   5.928   5.858
14579TIP3    H143680   3.333   6.008   5.853
14579TIP3    H243681   3.342   5.858   5.840
14580TIP3   OH243682   6.147   6.200   1.122
14580TIP3    H143683   6.208   6.270   1.141
14580TIP3    H243684   6.063   6.232   1.154
14581TIP3   OH243685   5.493   0.894   2.035
14581TIP3    H143686   5.520   0.818   2.087
14581TIP3    H243687   5.449   0.951   2.097
14582TIP3   OH243688   5.925   7.603   5.577
14582TIP3    H143689   5.937   7.554   5.659
14582TIP3    H243690   6.010   7.602   5.535
14583TIP3   OH243691   4.030   2.266   2.128
14583TIP3    H143692   4.081   2.272   2.209
14583TIP3    H243693   4.039   2.175   2.101
14584TIP3   OH243694   0.126   7.741   4.054
14584TIP3    H143695   0.097   7.654   4.080
14584TIP3    H243696   0.193   7.725   3.987
14585TIP3   OH243697   2.923   2.681   1.620
14585TIP3    H143698   2.965   2.757   1.660
14585TIP3    H243699   2.981   2.608   1.642
14586TIP3   OH243700   2.082   6.851   6.542
14586TIP3    H143701   2.117   6.848   6.631
14586TIP3    H243702   2.053   6.942   6.530
14587TIP3   OH243703   7.537   1.366   5.136
14587TIP3    H143704   7.625   1.365   5.175
14587TIP3    H243705   7.487   1.304   5.190
14588TIP3   OH243706   6.924   7.532   5.307
14588TIP3    H143707   6.996   7.521   5.245
14588TIP3    H243708   6.861   7.464   5.281
14589TIP3   OH243709   1.074   5.119   4.116
14589TIP3    H143710   0.989   5.094   4.153
14589TIP3    H243711   1.082   5.212   4.135
14590TIP3   OH243712   4.993   0.775   1.044
14590TIP3    H143713   4.932   0.848   1.038
14590TIP3    H243714   5.055   0.789   0.972
14591TIP3   OH243715   2.542   4.551   2.635
14591TIP3    H143716   2.634   4.576   2.629
14591TIP3    H243717   2.518   4.570   2.725
14592TIP3   OH243718   3.083   0.766   0.966
14592TIP3    H143719   3.087   0.829   0.894
14592TIP3    H243720   3.061   0.683   0.924
14593TIP3   OH243721   1.631   4.139   0.479
14593TIP3    H143722   1.710   4.155   0.531
14593TIP3    H243723   1.572   4.094   0.539
14594TIP3   OH243724   4.157   4.436   1.603
14594TIP3    H143725   4.083   4.378   1.616
14594TIP3    H243726   4.152   4.499   1.674
14595TIP3   OH243727   3.924   6.146   1.618
14595TIP3    H143728   3.846   6.124   1.671
14595TIP3    H243729   3.944   6.237   1.641
14596TIP3   OH243730   3.323   4.566   0.793
14596TIP3    H143731   3.270   4.552   0.871
14596TIP3    H243732   3.271   4.531   0.721
14597TIP3   OH243733   6.711   1.049   5.405
14597TIP3    H143734   6.790   1.092   5.438
14597TIP3    H243735   6.727   0.956   5.418
14598TIP3   OH243736   0.549   1.464   1.208
14598TIP3    H143737   0.550   1.532   1.276
14598TIP3    H243738   0.516   1.509   1.130
14599TIP3   OH243739   0.019   2.457   5.504
14599TIP3    H143740   0.082   2.514   5.459
14599TIP3    H243741  -0.066   2.498   5.489
14600TIP3   OH243742   6.376   1.394   5.893
14600TIP3    H143743   6.464   1.429   5.908
14600TIP3    H243744   6.327   1.418   5.971
14601TIP3   OH243745   6.384   6.975   4.174
14601TIP3    H143746   6.366   6.992   4.267
14601TIP3    H243747   6.298   6.974   4.133
14602TIP3   OH243748   2.531   6.965   4.609
14602TIP3    H143749   2.568   6.888   4.567
14602TIP3    H243750   2.437   6.945   4.617
14603TIP3   OH243751   7.557   5.777   4.813
14603TIP3    H143752   7.576   5.740   4.899
14603TIP3    H243753   7.522   5.864   4.832
14604TIP3   OH243754   7.976   3.762   4.935
14604TIP3    H143755   8.027   3.683   4.919
14604TIP3    H243756   7.917   3.768   4.860
14605TIP3   OH243757   6.300   4.732   6.482
14605TIP3    H143758   6.293   4.673   6.408
14605TIP3    H243759   6.360   4.801   6.453
14606TIP3   OH243760   2.022   3.736   4.656
14606TIP3    H143761   1.936   3.775   4.672
14606TIP3    H243762   2.051   3.775   4.574
14607TIP3   OH243763   2.083   7.651   4.490
14607TIP3    H143764   2.036   7.733   4.477
14607TIP3    H243765   2.029   7.586   4.446
14608TIP3   OH243766   4.065   3.052   6.634
14608TIP3    H143767   4.096   3.101   6.711
14608TIP3    H243768   4.130   2.983   6.622
14609TIP3   OH243769   5.123   1.657   0.248
14609TIP3    H143770   5.031   1.642   0.269
14609TIP3    H243771   5.129   1.752   0.232
14610TIP3   OH243772   4.097   3.551   0.811
14610TIP3    H143773   4.008   3.540   0.846
14610TIP3    H243774   4.098   3.640   0.778
14611TIP3   OH243775   3.488   6.767   4.880
14611TIP3    H143776   3.422   6.775   4.811
14611TIP3    H243777   3.551   6.703   4.845
14612TIP3   OH243778   6.715   5.286   1.024
14612TIP3    H143779   6.733   5.373   0.987
14612TIP3    H243780   6.723   5.297   1.118
14613TIP3   OH243781   1.794   7.248   3.021
14613TIP3    H143782   1.829   7.271   2.935
14613TIP3    H243783   1.838   7.308   3.081
14614TIP3   OH243784   7.135   4.918   2.240
14614TIP3    H143785   7.170   5.005   2.258
14614TIP3    H243786   7.197   4.880   2.178
14615TIP3   OH243787   2.872   3.715   3.416
14615TIP3    H143788   2.908   3.668   3.491
14615TIP3    H243789   2.937   3.704   3.347
14616TIP3   OH243790   5.546   7.418   0.573
14616TIP3    H143791   5.552   7.384   0.662
14616TIP3    H243792   5.609   7.490   0.571
14617TIP3   OH243793   3.892   7.674   2.111
14617TIP3    H143794   3.873   7.605   2.176
14617TIP3    H243795   3.954   7.633   2.051
14618TIP3   OH243796   2.211   0.990   0.830
14618TIP3    H143797   2.170   1.022   0.749
14618TIP3    H243798   2.225   1.069   0.882
14619TIP3   OH243799   4.335   1.103   1.757
14619TIP3    H143800   4.288   1.092   1.840
14619TIP3    H243801   4.285   1.169   1.710
14620TIP3   OH243802   0.516   1.475   2.254
14620TIP3    H143803   0.431   1.477   2.299
14620TIP3    H243804   0.566   1.408   2.300
14621TIP3   OH243805   1.892   1.249   3.971
14621TIP3    H143806   1.813   1.238   4.024
14621TIP3    H243807   1.859   1.265   3.882
14622TIP3   OH243808   6.828   4.418   3.782
14622TIP3    H143809   6.737   4.412   3.756
14622TIP3    H243810   6.854   4.508   3.763
14623TIP3   OH243811   6.509   3.685   2.620
14623TIP3    H143812   6.552   3.762   2.584
14623TIP3    H243813   6.415   3.706   2.617
14624TIP3   OH243814   1.937   0.675   2.203
14624TIP3    H143815   2.015   0.654   2.152
14624TIP3    H243816   1.953   0.634   2.289
14625TIP3   OH243817   0.806   6.334   2.819
14625TIP3    H143818   0.792   6.429   2.817
14625TIP3    H243819   0.773   6.306   2.904
14626TIP3   OH243820   0.440   1.201   5.033
14626TIP3    H143821   0.419   1.293   5.050
14626TIP3    H243822   0.356   1.156   5.039
14627TIP3   OH243823   6.801   5.044   3.867
14627TIP3    H143824   6.797   5.032   3.772
14627TIP3    H243825   6.757   5.127   3.882
14628TIP3   OH243826   1.802   3.500   2.937
14628TIP3    H143827   1.712   3.483   2.909
14628TIP3    H243828   1.804   3.476   3.029
14629TIP3   OH243829   7.839   1.096   0.131
14629TIP3    H143830   7.791   1.041   0.192
14629TIP3    H243831   7.894   1.036   0.081
14630TIP3   OH243832   6.282   3.707   6.189
14630TIP3    H143833   6.364   3.661   6.172
14630TIP3    H243834   6.303   3.768   6.260
14631TIP3   OH243835   6.398   6.367   1.705
14631TIP3    H143836   6.400   6.310   1.782
14631TIP3    H243837   6.462   6.329   1.646
14632TIP3   OH243838   0.181   1.659   0.516
14632TIP3    H143839   0.260   1.703   0.550
14632TIP3    H243840   0.135   1.630   0.595
14633TIP3   OH243841   5.394   1.863   1.749
14633TIP3    H143842   5.486   1.871   1.772
14633TIP3    H243843   5.354   1.944   1.779
14634TIP3   OH243844   1.052   4.562   2.445
14634TIP3    H143845   0.968   4.594   2.478
14634TIP3    H243846   1.031   4.520   2.361
14635TIP3   OH243847   3.334   3.499   4.727
14635TIP3    H143848   3.310   3.456   4.809
14635TIP3    H243849   3.252   3.503   4.677
14636TIP3   OH243850   6.427   2.946   4.789
14636TIP3    H143851   6.487   2.872   4.783
14636TIP3    H243852   6.479   3.017   4.827
14637TIP3   OH243853   6.679   7.371   4.041
14637TIP3    H143854   6.584   7.385   4.032
14637TIP3    H243855   6.703   7.420   4.119
14638TIP3   OH243856   3.972   5.161   3.206
14638TIP3    H143857   3.926   5.244   3.196
14638TIP3    H243858   3.911   5.106   3.255
14639TIP3   OH243859   7.668   7.025   3.428
14639TIP3    H143860   7.628   7.058   3.508
14639TIP3    H243861   7.683   7.103   3.375
14640TIP3   OH243862   7.467   3.798   4.175
14640TIP3    H143863   7.501   3.710   4.163
14640TIP3    H243864   7.495   3.845   4.095
14641TIP3   OH243865   3.132   0.936   0.749
14641TIP3    H143866   3.080   1.016   0.760
14641TIP3    H243867   3.166   0.941   0.659
14642TIP3   OH243868   3.367   3.901   6.520
14642TIP3    H143869   3.394   3.822   6.568
14642TIP3    H243870   3.448   3.935   6.482
14643TIP3   OH243871   3.500   1.039   1.885
14643TIP3    H143872   3.486   1.058   1.978
14643TIP3    H243873   3.488   0.944   1.879
14644TIP3   OH243874   2.709   1.917   0.716
14644TIP3    H143875   2.649   1.976   0.761
14644TIP3    H243876   2.678   1.829   0.739
14645TIP3   OH243877   4.767   3.450   0.453
14645TIP3    H143878   4.674   3.460   0.474
14645TIP3    H243879   4.811   3.458   0.537
14646TIP3   OH243880   5.926   0.637   3.849
14646TIP3    H143881   6.016   0.626   3.819
14646TIP3    H243882   5.920   0.584   3.929
14647TIP3   OH243883   2.661   0.977   2.395
14647TIP3    H143884   2.591   1.041   2.408
14647TIP3    H243885   2.738   1.018   2.435
14648TIP3   OH243886   5.387   2.741   0.964
14648TIP3    H143887   5.438   2.738   1.045
14648TIP3    H243888   5.329   2.816   0.976
14649TIP3   OH243889   1.725   7.188   1.079
14649TIP3    H143890   1.663   7.233   1.021
14649TIP3    H243891   1.670   7.133   1.135
14650TIP3   OH243892   0.910   0.484   0.900
14650TIP3    H143893   0.892   0.493   0.994
14650TIP3    H243894   0.882   0.396   0.878
14651TIP3   OH243895   7.981   4.946   2.262
14651TIP3    H143896   7.981   4.899   2.178
14651TIP3    H243897   8.069   4.932   2.298
14652TIP3   OH243898   6.050   5.213   2.510
14652TIP3    H143899   6.006   5.266   2.445
14652TIP3    H243900   6.122   5.268   2.542
14653TIP3   OH243901   3.805   6.653   6.159
14653TIP3    H143902   3.817   6.676   6.251
14653TIP3    H243903   3.894   6.633   6.128
14654TIP3   OH243904   6.498   4.426   4.289
14654TIP3    H143905   6.527   4.458   4.204
14654TIP3    H243906   6.406   4.402   4.275
14655TIP3   OH243907   2.649   7.300   2.178
14655TIP3    H143908   2.594   7.356   2.124
14655TIP3    H243909   2.712   7.262   2.117
14656TIP3   OH243910   1.278   7.229   4.240
14656TIP3    H143911   1.359   7.262   4.280
14656TIP3    H243912   1.260   7.290   4.168
14657TIP3   OH243913   8.009   0.418   5.701
14657TIP3    H143914   8.062   0.463   5.636
14657TIP3    H243915   7.966   0.489   5.750
14658TIP3   OH243916   5.495   5.884   5.831
14658TIP3    H143917   5.487   5.789   5.832
14658TIP3    H243918   5.456   5.912   5.749
14659TIP3   OH243919   1.850   4.599   3.393
14659TIP3    H143920   1.862   4.647   3.475
14659TIP3    H243921   1.831   4.667   3.329
14660TIP3   OH243922   5.626   3.030   0.229
14660TIP3    H143923   5.655   2.942   0.205
14660TIP3    H243924   5.535   3.033   0.199
14661TIP3   OH243925   2.660   4.567   1.842
14661TIP3    H143926   2.738   4.555   1.896
14661TIP3    H243927   2.589   4.581   1.905
14662TIP3   OH243928   4.056   2.768   3.448
14662TIP3    H143929   4.092   2.847   3.488
14662TIP3    H243930   3.995   2.799   3.382
14663TIP3   OH243931   4.427   5.257   5.463
14663TIP3    H143932   4.457   5.199   5.393
14663TIP3    H243933   4.337   5.230   5.480
14664TIP3   OH243934   4.131   5.253   4.290
14664TIP3    H143935   4.041   5.223   4.298
14664TIP3    H243936   4.123   5.342   4.256
14665TIP3   OH243937   6.368   6.703   3.415
14665TIP3    H143938   6.381   6.792   3.383
14665TIP3    H243939   6.274   6.688   3.409
14666TIP3   OH243940   1.571   4.916   2.865
14666TIP3    H143941   1.654   4.957   2.838
14666TIP3    H243942   1.596   4.859   2.938
14667TIP3   OH243943   7.035   2.959   5.063
14667TIP3    H143944   7.089   2.881   5.048
14667TIP3    H243945   6.985   2.938   5.142
14668TIP3   OH243946   6.058   4.832   3.700
14668TIP3    H143947   6.111   4.821   3.779
14668TIP3    H243948   6.061   4.747   3.657
14669TIP3   OH243949   1.898   6.608   5.695
14669TIP3    H143950   1.843   6.658   5.635
14669TIP3    H243951   1.843   6.592   5.771
14670TIP3   OH243952   4.491   2.225   2.010
14670TIP3    H143953   4.434   2.177   1.950
14670TIP3    H243954   4.576   2.228   1.965
14671TIP3   OH243955   0.408   1.168   2.369
14671TIP3    H143956   0.480   1.222   2.400
14671TIP3    H243957   0.349   1.162   2.445
14672TIP3   OH243958   7.529   6.366   0.261
14672TIP3    H143959   7.546   6.282   0.218
14672TIP3    H243960   7.614   6.393   0.295
14673TIP3   OH243961   5.993   2.938   0.172
14673TIP3    H143962   5.901   2.911   0.164
14673TIP3    H243963   6.028   2.930   0.084
14674TIP3   OH243964   2.147   4.426   2.569
14674TIP3    H143965   2.061   4.384   2.565
14674TIP3    H243966   2.194   4.392   2.493
14675TIP3   OH243967   5.410   4.308   2.077
14675TIP3    H143968   5.445   4.393   2.103
14675TIP3    H243969   5.457   4.286   1.996
14676TIP3   OH243970   5.434   6.534   3.536
14676TIP3    H143971   5.355   6.533   3.590
14676TIP3    H243972   5.419   6.606   3.474
14677TIP3   OH243973   0.405   6.330   1.840
14677TIP3    H143974   0.469   6.378   1.893
14677TIP3    H243975   0.379   6.256   1.894
14678TIP3   OH243976   3.494   6.605   2.405
14678TIP3    H143977   3.452   6.567   2.482
14678TIP3    H243978   3.544   6.679   2.440
14679TIP3   OH243979   0.294   1.780   5.217
14679TIP3    H143980   0.299   1.754   5.309
14679TIP3    H243981   0.371   1.738   5.177
14680TIP3   OH243982   2.278   6.344   2.393
14680TIP3    H143983   2.220   6.285   2.441
14680TIP3    H243984   2.294   6.299   2.310
14681TIP3   OH243985   0.934   3.818   2.184
14681TIP3    H143986   0.958   3.767   2.262
14681TIP3    H243987   1.014   3.866   2.162
14682TIP3   OH243988   7.876   0.853   6.611
14682TIP3    H143989   7.848   0.878   6.523
14682TIP3    H243990   7.914   0.766   6.601
14683TIP3   OH243991   1.578   2.169   4.900
14683TIP3    H143992   1.506   2.226   4.871
14683TIP3    H243993   1.592   2.194   4.992
14684TIP3   OH243994   5.236   0.290   5.387
14684TIP3    H143995   5.233   0.194   5.392
14684TIP3    H243996   5.281   0.308   5.304
14685TIP3   OH243997   5.434   1.624   1.928
14685TIP3    H143998   5.413   1.558   1.862
14685TIP3    H243999   5.435   1.707   1.880
14686TIP3   OH244000   0.065   4.909   3.373
14686TIP3    H144001   0.013   4.930   3.450
14686TIP3    H244002   0.011   4.940   3.299
14687TIP3   OH244003   1.865   5.737   4.093
14687TIP3    H144004   1.888   5.677   4.022
14687TIP3    H244005   1.845   5.819   4.048
14688TIP3   OH244006   0.865   1.301   2.921
14688TIP3    H144007   0.893   1.228   2.977
14688TIP3    H244008   0.830   1.366   2.982
14689TIP3   OH244009   0.782   0.210   3.884
14689TIP3    H144010   0.852   0.148   3.864
14689TIP3    H244011   0.728   0.211   3.804
14690TIP3   OH244012   1.251   4.202   0.405
14690TIP3    H144013   1.182   4.264   0.382
14690TIP3    H244014   1.327   4.256   0.427
14691TIP3   OH244015   0.769   3.830   6.051
14691TIP3    H144016   0.796   3.919   6.029
14691TIP3    H244017   0.692   3.815   5.996
14692TIP3   OH244018   4.862   6.564   1.013
14692TIP3    H144019   4.911   6.545   0.932
14692TIP3    H244020   4.770   6.554   0.988
14693TIP3   OH244021   4.052   4.672   5.314
14693TIP3    H144022   4.090   4.737   5.255
14693TIP3    H244023   4.122   4.652   5.376
14694TIP3   OH244024   1.181   1.248   2.775
14694TIP3    H144025   1.134   1.171   2.742
14694TIP3    H244026   1.145   1.262   2.863
14695TIP3   OH244027   7.112   4.081   6.165
14695TIP3    H144028   7.168   4.127   6.227
14695TIP3    H244029   7.056   4.025   6.219
14696TIP3   OH244030   2.076   5.770   3.230
14696TIP3    H144031   2.104   5.807   3.314
14696TIP3    H244032   2.137   5.699   3.213
14697TIP3   OH244033   4.569   0.541   4.886
14697TIP3    H144034   4.557   0.457   4.843
14697TIP3    H244035   4.648   0.578   4.848
14698TIP3   OH244036   5.547   5.490   2.713
14698TIP3    H144037   5.492   5.529   2.645
14698TIP3    H244038   5.488   5.472   2.785
14699TIP3   OH244039   1.055   5.350   1.173
14699TIP3    H144040   0.961   5.332   1.169
14699TIP3    H244041   1.088   5.323   1.088
14700TIP3   OH244042   7.778   5.088   2.825
14700TIP3    H144043   7.869   5.088   2.855
14700TIP3    H244044   7.773   5.014   2.764
14701TIP3   OH244045   7.084   4.474   4.110
14701TIP3    H144046   7.160   4.520   4.145
14701TIP3    H244047   7.078   4.395   4.162
14702TIP3   OH244048   8.053   4.667   6.467
14702TIP3    H144049   8.004   4.588   6.491
14702TIP3    H244050   7.986   4.733   6.451
14703TIP3   OH244051   1.064   2.365   4.674
14703TIP3    H144052   1.013   2.283   4.676
14703TIP3    H244053   1.040   2.409   4.756
14704TIP3   OH244054   1.313   2.908   4.166
14704TIP3    H144055   1.262   2.843   4.118
14704TIP3    H244056   1.358   2.858   4.233
14705TIP3   OH244057   5.863   5.848   1.554
14705TIP3    H144058   5.769   5.857   1.573
14705TIP3    H244059   5.888   5.765   1.595
14706TIP3   OH244060   6.412   5.190   5.533
14706TIP3    H144061   6.345   5.187   5.465
14706TIP3    H244062   6.368   5.229   5.608
14707TIP3   OH244063   6.449   4.499   2.691
14707TIP3    H144064   6.538   4.528   2.711
14707TIP3    H244065   6.393   4.566   2.730
14708TIP3   OH244066   1.181   5.506   6.679
14708TIP3    H144067   1.123   5.529   6.606
14708TIP3    H244068   1.156   5.416   6.701
14709TIP3   OH244069   5.387   5.766   1.915
14709TIP3    H144070   5.414   5.845   1.961
14709TIP3    H244071   5.459   5.749   1.854
14710TIP3   OH244072   5.676   6.464   2.395
14710TIP3    H144073   5.737   6.393   2.374
14710TIP3    H244074   5.609   6.422   2.448
14711TIP3   OH244075   5.949   2.641   6.062
14711TIP3    H144076   6.042   2.634   6.041
14711TIP3    H244077   5.921   2.723   6.022
14712TIP3   OH244078   1.232   2.999   1.367
14712TIP3    H144079   1.244   3.053   1.289
14712TIP3    H244080   1.299   2.932   1.361
14713TIP3   OH244081   4.316   0.244   0.665
14713TIP3    H144082   4.274   0.233   0.750
14713TIP3    H244083   4.398   0.196   0.672
14714TIP3   OH244084   5.198   0.712   5.923
14714TIP3    H144085   5.126   0.671   5.875
14714TIP3    H244086   5.166   0.800   5.943
14715TIP3   OH244087   4.332   3.728   2.150
14715TIP3    H144088   4.280   3.808   2.163
14715TIP3    H244089   4.423   3.757   2.157
14716TIP3   OH244090   3.188   7.230   3.628
14716TIP3    H144091   3.111   7.281   3.603
14716TIP3    H244092   3.260   7.294   3.628
14717TIP3   OH244093   2.788   7.432   4.553
14717TIP3    H144094   2.809   7.356   4.606
14717TIP3    H244095   2.869   7.483   4.550
14718TIP3   OH244096   0.624   7.209   0.919
14718TIP3    H144097   0.575   7.169   0.846
14718TIP3    H244098   0.677   7.277   0.878
14719TIP3   OH244099   6.879   2.901   3.936
14719TIP3    H144100   6.920   2.987   3.940
14719TIP3    H244101   6.929   2.848   3.999
14720TIP3   OH244102   7.632   1.028   6.370
14720TIP3    H144103   7.703   0.982   6.327
14720TIP3    H244104   7.672   1.109   6.402
14721TIP3   OH244105   7.220   6.185   1.640
14721TIP3    H144106   7.157   6.119   1.611
14721TIP3    H244107   7.297   6.172   1.585
14722TIP3   OH244108   7.897   2.708   0.738
14722TIP3    H144109   7.818   2.707   0.792
14722TIP3    H244110   7.865   2.706   0.648
14723TIP3   OH244111   5.086   4.188   1.431
14723TIP3    H144112   5.142   4.266   1.437
14723TIP3    H244113   5.145   4.119   1.400
14724TIP3   OH244114   1.361   4.988   3.143
14724TIP3    H144115   1.381   5.075   3.107
14724TIP3    H244116   1.326   4.939   3.068
14725TIP3   OH244117   4.828   4.559   0.371
14725TIP3    H144118   4.822   4.628   0.436
14725TIP3    H244119   4.738   4.527   0.361
14726TIP3   OH244120   5.096   6.111   5.440
14726TIP3    H144121   5.034   6.088   5.510
14726TIP3    H244122   5.049   6.090   5.359
14727TIP3   OH244123   6.493   4.597   5.784
14727TIP3    H144124   6.467   4.586   5.693
14727TIP3    H244125   6.439   4.535   5.832
14728TIP3   OH244126   2.560   1.650   5.591
14728TIP3    H144127   2.594   1.670   5.678
14728TIP3    H244128   2.604   1.711   5.533
14729TIP3   OH244129   2.893   0.536   3.847
14729TIP3    H144130   2.922   0.568   3.761
14729TIP3    H244131   2.886   0.614   3.901
14730TIP3   OH244132   6.737   6.918   6.074
14730TIP3    H144133   6.723   6.993   6.017
14730TIP3    H244134   6.820   6.880   6.045
14731TIP3   OH244135   7.010   3.684   1.898
14731TIP3    H144136   6.946   3.658   1.832
14731TIP3    H244137   7.039   3.771   1.870
14732TIP3   OH244138   8.069   0.506   2.169
14732TIP3    H144139   8.023   0.454   2.235
14732TIP3    H244140   8.000   0.539   2.112
14733TIP3   OH244141   4.684   0.950   0.288
14733TIP3    H144142   4.626   0.893   0.340
14733TIP3    H244143   4.744   0.890   0.245
14734TIP3   OH244144   1.116   4.838   2.437
14734TIP3    H144145   1.095   4.745   2.449
14734TIP3    H244146   1.088   4.879   2.519
14735TIP3   OH244147   6.654   6.119   0.177
14735TIP3    H144148   6.644   6.186   0.244
14735TIP3    H244149   6.600   6.149   0.104
14736TIP3   OH244150   0.935   4.426   4.466
14736TIP3    H144151   0.871   4.434   4.396
14736TIP3    H244152   0.962   4.515   4.485
14737TIP3   OH244153   2.433   1.832   2.908
14737TIP3    H144154   2.416   1.748   2.949
14737TIP3    H244155   2.353   1.852   2.859
14738TIP3   OH244156   7.039   2.983   0.593
14738TIP3    H144157   6.946   2.969   0.613
14738TIP3    H244158   7.073   3.027   0.671
14739TIP3   OH244159   4.263   6.728   5.819
14739TIP3    H144160   4.298   6.639   5.825
14739TIP3    H244161   4.272   6.752   5.727
14740TIP3   OH244162   5.358   2.615   2.913
14740TIP3    H144163   5.313   2.583   2.835
14740TIP3    H244164   5.288   2.637   2.974
14741TIP3   OH244165   2.212   5.635   6.545
14741TIP3    H144166   2.190   5.709   6.601
14741TIP3    H244167   2.184   5.558   6.596
14742TIP3   OH244168   4.550   2.916   0.904
14742TIP3    H144169   4.599   2.989   0.943
14742TIP3    H244170   4.551   2.934   0.810
14743TIP3   OH244171   1.395   3.213   2.004
14743TIP3    H144172   1.470   3.173   2.048
14743TIP3    H244173   1.383   3.297   2.048
14744TIP3   OH244174   6.688   7.168   5.928
14744TIP3    H144175   6.655   7.213   5.850
14744TIP3    H244176   6.772   7.211   5.946
14745TIP3   OH244177   4.536   4.103   6.718
14745TIP3    H144178   4.568   4.026   6.766
14745TIP3    H244179   4.557   4.177   6.775
14746TIP3   OH244180   6.829   3.247   6.443
14746TIP3    H144181   6.919   3.216   6.441
14746TIP3    H244182   6.780   3.183   6.390
14747TIP3   OH244183   4.441   7.402   1.047
14747TIP3    H144184   4.520   7.420   1.099
14747TIP3    H244185   4.436   7.476   0.986
14748TIP3   OH244186   3.218   1.068   3.081
14748TIP3    H144187   3.295   1.040   3.130
14748TIP3    H244188   3.149   1.075   3.147
14749TIP3   OH244189   0.614   1.604   0.507
14749TIP3    H144190   0.606   1.555   0.426
14749TIP3    H244191   0.539   1.664   0.506
14750TIP3   OH244192   1.455   3.327   0.945
14750TIP3    H144193   1.497   3.369   0.870
14750TIP3    H244194   1.445   3.236   0.920
14751TIP3   OH244195   6.306   1.762   0.614
14751TIP3    H144196   6.236   1.809   0.661
14751TIP3    H244197   6.260   1.700   0.558
14752TIP3   OH244198   7.401   5.068   1.704
14752TIP3    H144199   7.434   5.077   1.794
14752TIP3    H244200   7.413   5.155   1.666
14753TIP3   OH244201   7.804   0.293   0.826
14753TIP3    H144202   7.838   0.221   0.878
14753TIP3    H244203   7.804   0.261   0.736
14754TIP3   OH244204   2.807   1.718   2.441
14754TIP3    H144205   2.877   1.673   2.394
14754TIP3    H244206   2.753   1.648   2.477
14755TIP3   OH244207   2.787   4.012   2.771
14755TIP3    H144208   2.825   3.931   2.736
14755TIP3    H244209   2.712   3.983   2.823
14756TIP3   OH244210   5.431   2.567   0.202
14756TIP3    H144211   5.486   2.582   0.125
14756TIP3    H244212   5.457   2.636   0.263
14757TIP3   OH244213   1.190   2.260   0.218
14757TIP3    H144214   1.175   2.239   0.310
14757TIP3    H244215   1.102   2.258   0.179
14758TIP3   OH244216   4.797   5.020   0.485
14758TIP3    H144217   4.707   5.009   0.453
14758TIP3    H244218   4.790   5.021   0.580
14759TIP3   OH244219   7.330   1.628   6.749
14759TIP3    H144220   7.345   1.551   6.695
14759TIP3    H244221   7.239   1.653   6.731
14760TIP3   OH244222   0.136   0.699   1.561
14760TIP3    H144223   0.071   0.673   1.495
14760TIP3    H244224   0.221   0.686   1.519
14761TIP3   OH244225   4.741   1.649   4.621
14761TIP3    H144226   4.680   1.619   4.553
14761TIP3    H244227   4.771   1.569   4.663
14762TIP3   OH244228   1.087   2.151   6.532
14762TIP3    H144229   1.063   2.185   6.446
14762TIP3    H244230   1.013   2.095   6.556
14763TIP3   OH244231   4.972   3.255   5.680
14763TIP3    H144232   4.937   3.185   5.625
14763TIP3    H244233   5.050   3.285   5.634
14764TIP3   OH244234   3.135   2.256   4.370
14764TIP3    H144235   3.112   2.167   4.342
14764TIP3    H244236   3.118   2.310   4.292
14765TIP3   OH244237   3.090   1.457   3.325
14765TIP3    H144238   3.062   1.424   3.410
14765TIP3    H244239   3.021   1.430   3.264
14766TIP3   OH244240   2.588   6.221   1.450
14766TIP3    H144241   2.629   6.264   1.524
14766TIP3    H244242   2.567   6.292   1.389
14767TIP3   OH244243   2.889   4.474   0.227
14767TIP3    H144244   2.950   4.478   0.153
14767TIP3    H244245   2.830   4.402   0.205
14768TIP3   OH244246   8.029   5.145   3.712
14768TIP3    H144247   7.943   5.185   3.720
14768TIP3    H244248   8.087   5.216   3.686
14769TIP3   OH244249   7.659   1.807   5.943
14769TIP3    H144250   7.710   1.740   5.898
14769TIP3    H244251   7.642   1.873   5.875
14770TIP3   OH244252   1.521   6.638   3.052
14770TIP3    H144253   1.561   6.700   3.113
14770TIP3    H244254   1.440   6.680   3.025
14771TIP3   OH244255   4.005   4.974   3.587
14771TIP3    H144256   4.035   4.925   3.510
14771TIP3    H244257   4.085   4.995   3.634
14772TIP3   OH244258   5.904   3.855   4.015
14772TIP3    H144259   5.838   3.904   4.064
14772TIP3    H244260   5.866   3.842   3.928
14773TIP3   OH244261   2.151   6.987   4.911
14773TIP3    H144262   2.114   7.009   4.997
14773TIP3    H244263   2.207   6.911   4.928
14774TIP3   OH244264   6.634   0.852   1.594
14774TIP3    H144265   6.568   0.837   1.527
14774TIP3    H244266   6.586   0.894   1.665
14775TIP3   OH244267   4.865   4.539   2.872
14775TIP3    H144268   4.911   4.521   2.955
14775TIP3    H244269   4.929   4.516   2.805
14776TIP3   OH244270   6.226   5.136   0.498
14776TIP3    H144271   6.136   5.114   0.523
14776TIP3    H244272   6.221   5.225   0.465
14777TIP3   OH244273   5.579   1.269   0.634
14777TIP3    H144274   5.581   1.226   0.549
14777TIP3    H244275   5.660   1.241   0.677
14778TIP3   OH244276   1.305   6.970   6.691
14778TIP3    H144277   1.317   7.061   6.666
14778TIP3    H244278   1.320   6.968   6.785
14779TIP3   OH244279   2.171   5.054   5.758
14779TIP3    H144280   2.177   5.032   5.852
14779TIP3    H244281   2.083   5.088   5.747
14780TIP3   OH244282   6.769   0.576   6.198
14780TIP3    H144283   6.862   0.559   6.209
14780TIP3    H244284   6.763   0.671   6.187
14781TIP3   OH244285   5.511   6.429   6.028
14781TIP3    H144286   5.583   6.490   6.008
14781TIP3    H244287   5.539   6.346   5.991
14782TIP3   OH244288   7.252   5.398   3.049
14782TIP3    H144289   7.281   5.327   2.991
14782TIP3    H244290   7.183   5.358   3.103
14783TIP3   OH244291   5.561   3.570   3.915
14783TIP3    H144292   5.597   3.605   3.833
14783TIP3    H244293   5.638   3.542   3.964
14784TIP3   OH244294   6.730   5.844   6.289
14784TIP3    H144295   6.685   5.864   6.372
14784TIP3    H244296   6.661   5.808   6.233
14785TIP3   OH244297   1.983   3.590   5.505
14785TIP3    H144298   2.000   3.496   5.500
14785TIP3    H244299   2.052   3.624   5.562
14786TIP3   OH244300   2.235   2.193   0.437
14786TIP3    H144301   2.152   2.241   0.429
14786TIP3    H244302   2.218   2.109   0.395
14787TIP3   OH244303   4.309   6.962   3.697
14787TIP3    H144304   4.326   7.034   3.757
14787TIP3    H244305   4.216   6.969   3.676
14788TIP3   OH244306   7.978   6.713   0.968
14788TIP3    H144307   7.906   6.703   1.030
14788TIP3    H244308   7.937   6.705   0.882
14789TIP3   OH244309   4.111   3.818   1.222
14789TIP3    H144310   4.147   3.887   1.166
14789TIP3    H244311   4.101   3.859   1.308
14790TIP3   OH244312   3.222   0.085   5.344
14790TIP3    H144313   3.205   0.131   5.426
14790TIP3    H244314   3.180   0.139   5.277
14791TIP3   OH244315   2.391   0.078   3.901
14791TIP3    H144316   2.366   0.115   3.985
14791TIP3    H244317   2.394   0.153   3.842
14792TIP3   OH244318   4.065   4.155   4.442
14792TIP3    H144319   4.113   4.073   4.457
14792TIP3    H244320   4.132   4.223   4.448
14793TIP3   OH244321   5.291   5.381   2.540
14793TIP3    H144322   5.325   5.461   2.579
14793TIP3    H244323   5.362   5.350   2.483
14794TIP3   OH244324   7.373   2.465   5.611
14794TIP3    H144325   7.455   2.505   5.640
14794TIP3    H244326   7.305   2.512   5.658
14795TIP3   OH244327   0.116   5.954   4.830
14795TIP3    H144328   0.059   5.984   4.900
14795TIP3    H244329   0.100   6.015   4.758
14796TIP3   OH244330   6.302   4.591   0.961
14796TIP3    H144331   6.271   4.616   1.048
14796TIP3    H244332   6.396   4.608   0.963
14797TIP3   OH244333   4.708   5.557   6.559
14797TIP3    H144334   4.716   5.463   6.543
14797TIP3    H244335   4.675   5.594   6.477
14798TIP3   OH244336   4.058   6.925   3.603
14798TIP3    H144337   4.049   6.856   3.537
14798TIP3    H244338   3.975   6.923   3.650
14799TIP3   OH244339   1.987   1.143   1.228
14799TIP3    H144340   1.978   1.055   1.191
14799TIP3    H244341   1.962   1.201   1.156
14800TIP3   OH244342   2.930   6.217   3.459
14800TIP3    H144343   3.012   6.243   3.501
14800TIP3    H244344   2.867   6.283   3.486
14801TIP3   OH244345   7.027   3.095   0.868
14801TIP3    H144346   6.940   3.110   0.831
14801TIP3    H244347   7.063   3.183   0.881
14802TIP3   OH244348   2.000   5.975   0.890
14802TIP3    H144349   2.010   6.062   0.850
14802TIP3    H244350   1.997   5.915   0.816
14803TIP3   OH244351   3.337   2.394   1.564
14803TIP3    H144352   3.267   2.453   1.592
14803TIP3    H244353   3.416   2.430   1.604
14804TIP3   OH244354   2.871   5.761   6.503
14804TIP3    H144355   2.956   5.745   6.461
14804TIP3    H244356   2.883   5.734   6.594
14805TIP3   OH244357   7.457   0.218   0.639
14805TIP3    H144358   7.515   0.172   0.579
14805TIP3    H244359   7.465   0.310   0.615
14806TIP3   OH244360   7.985   4.547   4.460
14806TIP3    H144361   8.014   4.632   4.426
14806TIP3    H244362   8.065   4.495   4.465
14807TIP3   OH244363   1.193   0.129   4.106
14807TIP3    H144364   1.199   0.187   4.030
14807TIP3    H244365   1.142   0.179   4.170
14808TIP3   OH244366   6.490   3.327   0.562
14808TIP3    H144367   6.478   3.275   0.641
14808TIP3    H244368   6.446   3.277   0.493
14809TIP3   OH244369   5.649   6.280   4.282
14809TIP3    H144370   5.688   6.194   4.268
14809TIP3    H244371   5.680   6.333   4.209
14810TIP3   OH244372   2.879   4.133   2.137
14810TIP3    H144373   2.961   4.149   2.184
14810TIP3    H244374   2.825   4.084   2.199
14811TIP3   OH244375   5.697   4.653   2.978
14811TIP3    H144376   5.750   4.673   2.902
14811TIP3    H244377   5.676   4.738   3.016
14812TIP3   OH244378   1.147   3.963   2.118
14812TIP3    H144379   1.223   3.954   2.060
14812TIP3    H244380   1.092   4.029   2.076
14813TIP3   OH244381   6.892   1.754   2.509
14813TIP3    H144382   6.986   1.738   2.499
14813TIP3    H244383   6.855   1.736   2.422
14814TIP3   OH244384   5.499   5.728   4.446
14814TIP3    H144385   5.446   5.783   4.504
14814TIP3    H244386   5.485   5.765   4.359
14815TIP3   OH244387   3.464   0.181   0.057
14815TIP3    H144388   3.554   0.214   0.062
14815TIP3    H244389   3.420   0.241  -0.003
   8.28836   7.81435   6.76742   0.00000   0.00000  -2.76279   0.00000  -2.76279  -3.90717
