Title t= 100.00000 step= 50000
19927
    1ASP      N    1   2.171   0.633   2.661
    1ASP    HT1    2   2.211   0.543   2.628
    1ASP    HT2    3   2.076   0.644   2.620
    1ASP    HT3    4   2.171   0.634   2.765
    1ASP     CA    5   2.244   0.760   2.621
    1ASP     HA    6   2.351   0.743   2.623
    1ASP     CB    7   2.201   0.782   2.473
    1ASP    HB1    8   2.101   0.826   2.452
    1ASP    HB2    9   2.200   0.683   2.422
    1ASP     CG   10   2.303   0.864   2.394
    1ASP    OD1   11   2.399   0.929   2.455
    1ASP    OD2   12   2.292   0.875   2.268
    1ASP      C   13   2.207   0.885   2.704
    1ASP      O   14   2.108   0.881   2.777
    2ALA      N   15   2.276   1.002   2.692
    2ALA     HN   16   2.339   1.017   2.617
    2ALA     CA   17   2.239   1.127   2.770
    2ALA     HA   18   2.253   1.099   2.873
    2ALA     CB   19   2.335   1.239   2.724
    2ALA    HB1   20   2.365   1.218   2.620
    2ALA    HB2   21   2.420   1.217   2.792
    2ALA    HB3   22   2.312   1.348   2.725
    2ALA      C   23   2.094   1.171   2.755
    2ALA      O   24   2.039   1.164   2.646
    3ASP      N   25   2.024   1.214   2.862
    3ASP     HN   26   2.056   1.225   2.956
    3ASP     CA   27   1.884   1.254   2.843
    3ASP     HA   28   1.822   1.170   2.815
    3ASP     CB   29   1.836   1.307   2.983
    3ASP    HB1   30   1.752   1.378   2.966
    3ASP    HB2   31   1.921   1.366   3.022
    3ASP     CG   32   1.806   1.200   3.085
    3ASP    OD1   33   1.808   1.076   3.056
    3ASP    OD2   34   1.774   1.235   3.203
    3ASP      C   35   1.853   1.352   2.734
    3ASP      O   36   1.934   1.441   2.717
    4GLY      N   37   1.741   1.325   2.665
    4GLY     HN   38   1.694   1.237   2.669
    4GLY     CA   39   1.684   1.421   2.568
    4GLY    HA1   40   1.607   1.367   2.514
    4GLY    HA2   41   1.762   1.440   2.496
    4GLY      C   42   1.631   1.547   2.624
    4GLY      O   43   1.649   1.577   2.744
    5PRO      N   44   1.567   1.632   2.546
    5PRO     CD   45   1.535   1.607   2.408
    5PRO    HD1   46   1.466   1.520   2.403
    5PRO    HD2   47   1.627   1.581   2.352
    5PRO     CA   48   1.486   1.744   2.595
    5PRO     HA   49   1.556   1.825   2.610
    5PRO     CB   50   1.393   1.786   2.475
    5PRO    HB1   51   1.377   1.896   2.480
    5PRO    HB2   52   1.295   1.734   2.481
    5PRO     CG   53   1.473   1.733   2.355
    5PRO    HG1   54   1.405   1.723   2.267
    5PRO    HG2   55   1.552   1.806   2.327
    5PRO      C   56   1.416   1.730   2.726
    5PRO      O   57   1.369   1.619   2.748
    6GLY      N   58   1.394   1.844   2.799
    6GLY     HN   59   1.418   1.936   2.768
    6GLY     CA   60   1.301   1.843   2.911
    6GLY    HA1   61   1.309   1.932   2.971
    6GLY    HA2   62   1.335   1.763   2.975
    6GLY      C   63   1.158   1.804   2.881
    6GLY      O   64   1.124   1.784   2.764
    7ASP      N   65   1.071   1.804   2.986
    7ASP     HN   66   1.105   1.831   3.075
    7ASP     CA   67   0.925   1.804   2.986
    7ASP     HA   68   0.905   1.704   2.949
    7ASP     CB   69   0.871   1.818   3.128
    7ASP    HB1   70   0.896   1.921   3.161
    7ASP    HB2   71   0.927   1.746   3.192
    7ASP     CG   72   0.722   1.799   3.127
    7ASP    OD1   73   0.683   1.681   3.104
    7ASP    OD2   74   0.646   1.890   3.169
    7ASP      C   75   0.868   1.902   2.882
    7ASP      O   76   0.902   2.023   2.889
    8PRO      N   77   0.775   1.870   2.796
    8PRO     CD   78   0.763   1.734   2.738
    8PRO    HD1   79   0.713   1.673   2.815
    8PRO    HD2   80   0.867   1.699   2.722
    8PRO     CA   81   0.697   1.969   2.716
    8PRO     HA   82   0.765   2.004   2.639
    8PRO     CB   83   0.600   1.877   2.648
    8PRO    HB1   84   0.557   1.923   2.557
    8PRO    HB2   85   0.516   1.849   2.715
    8PRO     CG   86   0.694   1.758   2.612
    8PRO    HG1   87   0.633   1.671   2.579
    8PRO    HG2   88   0.765   1.791   2.533
    8PRO      C   89   0.624   2.088   2.780
    8PRO      O   90   0.548   2.072   2.873
    9ASP      N   91   0.656   2.210   2.740
    9ASP     HN   92   0.726   2.231   2.673
    9ASP     CA   93   0.596   2.330   2.801
    9ASP     HA   94   0.634   2.338   2.902
    9ASP     CB   95   0.649   2.457   2.725
    9ASP    HB1   96   0.594   2.549   2.755
    9ASP    HB2   97   0.647   2.446   2.614
    9ASP     CG   98   0.793   2.487   2.761
    9ASP    OD1   99   0.845   2.412   2.848
    9ASP    OD2  100   0.846   2.593   2.719
    9ASP      C  101   0.448   2.344   2.801
    9ASP      O  102   0.376   2.295   2.708
   10ALA      N  103   0.389   2.411   2.908
   10ALA     HN  104   0.448   2.447   2.980
   10ALA     CA  105   0.249   2.449   2.917
   10ALA     HA  106   0.196   2.357   2.901
   10ALA     CB  107   0.216   2.499   3.062
   10ALA    HB1  108   0.281   2.588   3.078
   10ALA    HB2  109   0.263   2.427   3.133
   10ALA    HB3  110   0.107   2.510   3.078
   10ALA      C  111   0.192   2.539   2.812
   10ALA      O  112   0.235   2.651   2.803
   11GLY      N  113   0.105   2.488   2.728
   11GLY     HN  114   0.093   2.390   2.720
   11GLY     CA  115   0.044   2.563   2.621
   11GLY    HA1  116   0.065   2.669   2.623
   11GLY    HA2  117  -0.062   2.545   2.635
   11GLY      C  118   0.080   2.507   2.483
   11GLY    OT1  119   0.082   2.591   2.387
   11GLY    OT2  120   0.094   2.386   2.475
   12SOD    SOD  121   5.332   3.006   4.662
   13SOD    SOD  122   2.194   5.263   0.043
   14SOD    SOD  123   0.984   0.130   3.812
   15SOD    SOD  124   6.305   1.264   1.134
   16SOD    SOD  125   1.221   3.257   2.192
   17SOD    SOD  126   2.893   3.115   4.227
   18SOD    SOD  127   1.400   3.295   1.424
   19SOD    SOD  128   4.836   4.760   4.931
   20SOD    SOD  129   0.469   4.992   1.467
   21SOD    SOD  130   4.108   3.482   2.928
   22SOD    SOD  131   0.333   2.049   2.316
   23SOD    SOD  132   2.005   4.268   1.187
   24SOD    SOD  133   2.984   0.846   3.600
   25SOD    SOD  134   0.677   0.397   1.523
   26SOD    SOD  135   0.777   4.000   2.368
   27SOD    SOD  136   5.938   3.975   4.045
   28SOD    SOD  137   5.258   3.025   0.166
   29SOD    SOD  138   6.115   2.339   0.226
   30SOD    SOD  139   1.927   1.629   4.292
   31SOD    SOD  140   3.529   3.140   0.782
   32SOD    SOD  141   4.809   0.628   0.045
   33SOD    SOD  142   5.334   0.649   3.996
   34CLA    CLA  143   1.815   2.971   4.437
   35CLA    CLA  144   0.731   1.443   1.661
   36CLA    CLA  145   6.252   5.814   2.547
   37CLA    CLA  146   3.050   3.680   2.803
   38CLA    CLA  147   4.015   3.253   4.661
   39CLA    CLA  148   2.792   5.649   1.866
   40CLA    CLA  149   3.703   3.410   0.362
   41CLA    CLA  150   2.537   0.416   0.225
   42CLA    CLA  151   0.484   2.924   0.317
   43CLA    CLA  152   5.039   4.549   3.394
   44CLA    CLA  153   0.491   4.527   4.900
   45CLA    CLA  154   6.340   2.248   4.030
   46CLA    CLA  155   3.020   5.466   0.761
   47CLA    CLA  156   5.809   1.497   1.772
   48CLA    CLA  157   4.062   0.943   4.609
   49CLA    CLA  158   6.083   2.681   1.453
   50CLA    CLA  159   5.029   0.976   3.685
   51CLA    CLA  160   5.033   0.184   4.947
   52TIP3   OH2  161   6.353   2.125   1.185
   52TIP3    H1  162   6.347   2.090   1.096
   52TIP3    H2  163   6.263   2.119   1.219
   53TIP3   OH2  164   2.964   5.261   4.732
   53TIP3    H1  165   2.940   5.177   4.771
   53TIP3    H2  166   2.961   5.323   4.805
   54TIP3   OH2  167   5.067   5.294   2.816
   54TIP3    H1  168   5.151   5.285   2.771
   54TIP3    H2  169   5.019   5.358   2.764
   55TIP3   OH2  170   4.158   3.373   1.273
   55TIP3    H1  171   4.131   3.337   1.357
   55TIP3    H2  172   4.135   3.305   1.209
   56TIP3   OH2  173   6.254   5.187   0.106
   56TIP3    H1  174   6.342   5.214   0.082
   56TIP3    H2  175   6.197   5.247   0.059
   57TIP3   OH2  176   1.814   3.174   2.310
   57TIP3    H1  177   1.719   3.185   2.307
   57TIP3    H2  178   1.848   3.257   2.277
   58TIP3   OH2  179   4.626   5.609   2.324
   58TIP3    H1  180   4.616   5.627   2.417
   58TIP3    H2  181   4.597   5.518   2.314
   59TIP3   OH2  182   3.267   3.554   4.340
   59TIP3    H1  183   3.245   3.461   4.336
   59TIP3    H2  184   3.347   3.558   4.394
   60TIP3   OH2  185   4.998   1.455   0.786
   60TIP3    H1  186   4.943   1.507   0.728
   60TIP3    H2  187   4.947   1.446   0.866
   61TIP3   OH2  188   5.456   3.757   4.602
   61TIP3    H1  189   5.444   3.680   4.658
   61TIP3    H2  190   5.490   3.824   4.660
   62TIP3   OH2  191   3.547   0.114   3.931
   62TIP3    H1  192   3.582   0.054   3.865
   62TIP3    H2  193   3.570   0.201   3.899
   63TIP3   OH2  194   2.113   4.279   1.661
   63TIP3    H1  195   2.058   4.351   1.633
   63TIP3    H2  196   2.202   4.304   1.635
   64TIP3   OH2  197   2.363   1.790   0.145
   64TIP3    H1  198   2.366   1.769   0.239
   64TIP3    H2  199   2.271   1.808   0.127
   65TIP3   OH2  200   5.945   3.141   0.772
   65TIP3    H1  201   5.980   3.200   0.839
   65TIP3    H2  202   5.895   3.076   0.821
   66TIP3   OH2  203   1.928   0.945   0.243
   66TIP3    H1  204   1.866   0.873   0.255
   66TIP3    H2  205   1.883   1.021   0.280
   67TIP3   OH2  206   0.543   0.854   1.386
   67TIP3    H1  207   0.631   0.854   1.346
   67TIP3    H2  208   0.507   0.939   1.364
   68TIP3   OH2  209   1.725   3.050   1.303
   68TIP3    H1  210   1.630   3.062   1.314
   68TIP3    H2  211   1.751   3.119   1.242
   69TIP3   OH2  212   0.245   5.063   4.765
   69TIP3    H1  213   0.206   5.055   4.852
   69TIP3    H2  214   0.324   5.009   4.769
   70TIP3   OH2  215   1.578   3.153   1.842
   70TIP3    H1  216   1.587   3.220   1.910
   70TIP3    H2  217   1.597   3.071   1.887
   71TIP3   OH2  218   0.994   5.291   2.315
   71TIP3    H1  219   0.954   5.244   2.241
   71TIP3    H2  220   0.999   5.226   2.384
   72TIP3   OH2  221   1.792   2.002   2.336
   72TIP3    H1  222   1.742   2.035   2.410
   72TIP3    H2  223   1.816   1.913   2.361
   73TIP3   OH2  224   2.884   3.279   2.941
   73TIP3    H1  225   2.877   3.238   3.027
   73TIP3    H2  226   2.977   3.302   2.933
   74TIP3   OH2  227   0.050   0.582   1.914
   74TIP3    H1  228   0.070   0.609   2.003
   74TIP3    H2  229   0.063   0.488   1.914
   75TIP3   OH2  230   0.207   4.073   4.109
   75TIP3    H1  231   0.210   4.062   4.014
   75TIP3    H2  232   0.124   4.032   4.135
   76TIP3   OH2  233   2.391   2.376   3.409
   76TIP3    H1  234   2.352   2.311   3.467
   76TIP3    H2  235   2.344   2.366   3.326
   77TIP3   OH2  236   1.639   4.640   3.032
   77TIP3    H1  237   1.696   4.700   2.985
   77TIP3    H2  238   1.698   4.588   3.087
   78TIP3   OH2  239   3.360   1.336   4.144
   78TIP3    H1  240   3.409   1.257   4.122
   78TIP3    H2  241   3.428   1.403   4.159
   79TIP3   OH2  242   5.903   3.207   4.128
   79TIP3    H1  243   5.914   3.259   4.048
   79TIP3    H2  244   5.872   3.270   4.193
   80TIP3   OH2  245   1.273   0.508   0.714
   80TIP3    H1  246   1.202   0.545   0.661
   80TIP3    H2  247   1.312   0.441   0.657
   81TIP3   OH2  248   3.473   4.484   0.712
   81TIP3    H1  249   3.421   4.564   0.720
   81TIP3    H2  250   3.442   4.428   0.784
   82TIP3   OH2  251   3.973   1.408   2.849
   82TIP3    H1  252   3.985   1.318   2.819
   82TIP3    H2  253   3.899   1.440   2.798
   83TIP3   OH2  254   3.031   4.175   2.561
   83TIP3    H1  255   3.075   4.143   2.482
   83TIP3    H2  256   2.969   4.241   2.529
   84TIP3   OH2  257   2.424   0.324   3.751
   84TIP3    H1  258   2.366   0.274   3.694
   84TIP3    H2  259   2.471   0.384   3.691
   85TIP3   OH2  260   1.904   0.771   1.212
   85TIP3    H1  261   1.862   0.686   1.203
   85TIP3    H2  262   1.842   0.824   1.262
   86TIP3   OH2  263   4.218   1.258   3.642
   86TIP3    H1  264   4.238   1.252   3.735
   86TIP3    H2  265   4.166   1.180   3.624
   87TIP3   OH2  266   4.281   5.303   0.963
   87TIP3    H1  267   4.253   5.390   0.991
   87TIP3    H2  268   4.306   5.313   0.871
   88TIP3   OH2  269   2.293   0.276   2.302
   88TIP3    H1  270   2.246   0.210   2.353
   88TIP3    H2  271   2.261   0.264   2.212
   89TIP3   OH2  272   1.813   4.190   2.778
   89TIP3    H1  273   1.851   4.252   2.715
   89TIP3    H2  274   1.889   4.146   2.816
   90TIP3   OH2  275   0.974   0.267   1.147
   90TIP3    H1  276   0.976   0.172   1.137
   90TIP3    H2  277   1.066   0.293   1.144
   91TIP3   OH2  278   0.976   4.616   2.661
   91TIP3    H1  279   1.002   4.559   2.589
   91TIP3    H2  280   1.020   4.579   2.738
   92TIP3   OH2  281   1.030   0.263   2.935
   92TIP3    H1  282   0.947   0.274   2.982
   92TIP3    H2  283   1.004   0.251   2.844
   93TIP3   OH2  284   1.203   4.852   2.851
   93TIP3    H1  285   1.145   4.872   2.778
   93TIP3    H2  286   1.289   4.838   2.810
   94TIP3   OH2  287   2.221   0.668   0.848
   94TIP3    H1  288   2.201   0.660   0.755
   94TIP3    H2  289   2.137   0.689   0.889
   95TIP3   OH2  290   0.700   1.619   3.990
   95TIP3    H1  291   0.771   1.577   3.941
   95TIP3    H2  292   0.644   1.547   4.017
   96TIP3   OH2  293   0.451   0.198   1.305
   96TIP3    H1  294   0.513   0.147   1.253
   96TIP3    H2  295   0.488   0.286   1.307
   97TIP3   OH2  296   1.610   5.533   4.625
   97TIP3    H1  297   1.558   5.502   4.551
   97TIP3    H2  298   1.698   5.496   4.610
   98TIP3   OH2  299   0.058   4.502   0.181
   98TIP3    H1  300   0.016   4.442   0.119
   98TIP3    H2  301   0.128   4.544   0.131
   99TIP3   OH2  302   4.274   2.331   1.127
   99TIP3    H1  303   4.222   2.275   1.185
   99TIP3    H2  304   4.355   2.347   1.176
  100TIP3   OH2  305   6.364   5.227   1.462
  100TIP3    H1  306   6.349   5.247   1.554
  100TIP3    H2  307   6.279   5.236   1.420
  101TIP3   OH2  308   0.201   5.543   3.063
  101TIP3    H1  309   0.178   5.451   3.048
  101TIP3    H2  310   0.161   5.590   2.990
  102TIP3   OH2  311   6.128   2.333   3.460
  102TIP3    H1  312   6.149   2.252   3.414
  102TIP3    H2  313   6.136   2.401   3.393
  103TIP3   OH2  314   1.528   0.051   2.191
  103TIP3    H1  315   1.598  -0.002   2.226
  103TIP3    H2  316   1.542   0.138   2.228
  104TIP3   OH2  317   1.316   0.934   2.521
  104TIP3    H1  318   1.348   1.018   2.556
  104TIP3    H2  319   1.242   0.958   2.466
  105TIP3   OH2  320   0.775   0.291   3.070
  105TIP3    H1  321   0.690   0.323   3.042
  105TIP3    H2  322   0.799   0.347   3.144
  106TIP3   OH2  323   1.771   3.393   0.363
  106TIP3    H1  324   1.792   3.416   0.454
  106TIP3    H2  325   1.854   3.403   0.316
  107TIP3   OH2  326   3.815   5.821   4.160
  107TIP3    H1  327   3.796   5.855   4.073
  107TIP3    H2  328   3.767   5.738   4.164
  108TIP3   OH2  329   5.287   0.341   3.533
  108TIP3    H1  330   5.370   0.295   3.520
  108TIP3    H2  331   5.229   0.274   3.570
  109TIP3   OH2  332   3.684   1.152   2.764
  109TIP3    H1  333   3.689   1.064   2.800
  109TIP3    H2  334   3.590   1.166   2.748
  110TIP3   OH2  335   0.048   2.568   3.431
  110TIP3    H1  336  -0.030   2.569   3.376
  110TIP3    H2  337   0.089   2.484   3.413
  111TIP3   OH2  338   1.383   3.000   1.667
  111TIP3    H1  339   1.377   3.085   1.622
  111TIP3    H2  340   1.414   3.022   1.755
  112TIP3   OH2  341   3.116   2.217   2.996
  112TIP3    H1  342   3.145   2.145   3.053
  112TIP3    H2  343   3.163   2.202   2.914
  113TIP3   OH2  344   2.106   3.598   2.985
  113TIP3    H1  345   2.060   3.527   3.029
  113TIP3    H2  346   2.145   3.649   3.056
  114TIP3   OH2  347   4.047   4.982   4.227
  114TIP3    H1  348   4.034   4.923   4.152
  114TIP3    H2  349   3.959   5.009   4.251
  115TIP3   OH2  350   5.719   3.808   3.349
  115TIP3    H1  351   5.691   3.731   3.399
  115TIP3    H2  352   5.734   3.776   3.261
  116TIP3   OH2  353   1.485   1.221   3.529
  116TIP3    H1  354   1.577   1.198   3.514
  116TIP3    H2  355   1.476   1.310   3.495
  117TIP3   OH2  356   5.028   1.958   2.018
  117TIP3    H1  357   5.008   1.897   1.947
  117TIP3    H2  358   5.031   1.903   2.096
  118TIP3   OH2  359   5.815   5.663   1.405
  118TIP3    H1  360   5.772   5.704   1.330
  118TIP3    H2  361   5.909   5.670   1.386
  119TIP3   OH2  362   4.845   3.846   4.187
  119TIP3    H1  363   4.780   3.776   4.191
  119TIP3    H2  364   4.887   3.845   4.273
  120TIP3   OH2  365   2.935   1.483   1.978
  120TIP3    H1  366   2.868   1.422   1.948
  120TIP3    H2  367   2.966   1.446   2.061
  121TIP3   OH2  368   1.905   5.999   0.629
  121TIP3    H1  369   1.826   6.049   0.609
  121TIP3    H2  370   1.888   5.912   0.595
  122TIP3   OH2  371   2.094   4.645   0.512
  122TIP3    H1  372   2.184   4.671   0.535
  122TIP3    H2  373   2.091   4.551   0.528
  123TIP3   OH2  374   2.428   1.825   2.215
  123TIP3    H1  375   2.411   1.879   2.292
  123TIP3    H2  376   2.444   1.737   2.250
  124TIP3   OH2  377   5.862   1.438   3.202
  124TIP3    H1  378   5.838   1.521   3.242
  124TIP3    H2  379   5.779   1.395   3.183
  125TIP3   OH2  380   3.556   0.840   1.397
  125TIP3    H1  381   3.610   0.915   1.424
  125TIP3    H2  382   3.612   0.792   1.336
  126TIP3   OH2  383   1.874   1.302   0.200
  126TIP3    H1  384   1.825   1.334   0.123
  126TIP3    H2  385   1.965   1.300   0.171
  127TIP3   OH2  386   3.625   1.744   1.298
  127TIP3    H1  387   3.718   1.728   1.278
  127TIP3    H2  388   3.578   1.681   1.245
  128TIP3   OH2  389   6.069   0.861   3.224
  128TIP3    H1  390   6.157   0.827   3.239
  128TIP3    H2  391   6.022   0.787   3.184
  129TIP3   OH2  392   5.820   3.452   4.258
  129TIP3    H1  393   5.824   3.515   4.187
  129TIP3    H2  394   5.882   3.484   4.323
  130TIP3   OH2  395   2.100   3.521   1.092
  130TIP3    H1  396   2.158   3.466   1.038
  130TIP3    H2  397   2.082   3.467   1.170
  131TIP3   OH2  398   1.089   5.822   2.917
  131TIP3    H1  399   1.029   5.896   2.906
  131TIP3    H2  400   1.157   5.836   2.851
  132TIP3   OH2  401   0.638   4.140   0.566
  132TIP3    H1  402   0.732   4.124   0.557
  132TIP3    H2  403   0.597   4.076   0.507
  133TIP3   OH2  404   1.377   1.754   4.639
  133TIP3    H1  405   1.408   1.844   4.629
  133TIP3    H2  406   1.389   1.735   4.732
  134TIP3   OH2  407   3.263   0.833   4.910
  134TIP3    H1  408   3.237   0.839   4.818
  134TIP3    H2  409   3.275   0.923   4.938
  135TIP3   OH2  410   4.421   5.010   3.909
  135TIP3    H1  411   4.330   4.983   3.894
  135TIP3    H2  412   4.433   4.999   4.004
  136TIP3   OH2  413   0.322   4.820   1.900
  136TIP3    H1  414   0.277   4.904   1.893
  136TIP3    H2  415   0.352   4.817   1.990
  137TIP3   OH2  416   3.868   1.571   0.654
  137TIP3    H1  417   3.812   1.643   0.685
  137TIP3    H2  418   3.954   1.588   0.694
  138TIP3   OH2  419   2.470   3.098   3.465
  138TIP3    H1  420   2.431   3.028   3.517
  138TIP3    H2  421   2.472   3.064   3.376
  139TIP3   OH2  422   3.918   5.179   5.087
  139TIP3    H1  423   3.961   5.150   5.168
  139TIP3    H2  424   3.876   5.262   5.111
  140TIP3   OH2  425   1.423   2.209   3.215
  140TIP3    H1  426   1.365   2.165   3.277
  140TIP3    H2  427   1.493   2.246   3.269
  141TIP3   OH2  428   4.717   2.424   4.054
  141TIP3    H1  429   4.744   2.497   4.111
  141TIP3    H2  430   4.659   2.372   4.109
  142TIP3   OH2  431   2.757   0.682   4.415
  142TIP3    H1  432   2.817   0.740   4.367
  142TIP3    H2  433   2.752   0.719   4.503
  143TIP3   OH2  434   4.651   5.665   4.771
  143TIP3    H1  435   4.646   5.701   4.859
  143TIP3    H2  436   4.730   5.704   4.734
  144TIP3   OH2  437   2.095   5.540   0.632
  144TIP3    H1  438   2.153   5.483   0.683
  144TIP3    H2  439   2.087   5.619   0.685
  145TIP3   OH2  440   3.760   0.472   2.073
  145TIP3    H1  441   3.737   0.444   1.984
  145TIP3    H2  442   3.719   0.558   2.082
  146TIP3   OH2  443   3.020   1.949   4.915
  146TIP3    H1  444   3.029   1.855   4.934
  146TIP3    H2  445   3.055   1.992   4.992
  147TIP3   OH2  446   5.629   2.449   0.683
  147TIP3    H1  447   5.600   2.471   0.771
  147TIP3    H2  448   5.551   2.459   0.629
  148TIP3   OH2  449   1.412   5.704   3.562
  148TIP3    H1  450   1.430   5.610   3.566
  148TIP3    H2  451   1.358   5.714   3.483
  149TIP3   OH2  452   1.358   3.323   3.689
  149TIP3    H1  453   1.322   3.318   3.778
  149TIP3    H2  454   1.343   3.236   3.652
  150TIP3   OH2  455   4.340   2.262   0.267
  150TIP3    H1  456   4.422   2.213   0.265
  150TIP3    H2  457   4.334   2.302   0.181
  151TIP3   OH2  458   4.314   3.328   3.749
  151TIP3    H1  459   4.407   3.312   3.766
  151TIP3    H2  460   4.282   3.373   3.827
  152TIP3   OH2  461   0.940   0.542   4.669
  152TIP3    H1  462   0.953   0.450   4.645
  152TIP3    H2  463   0.982   0.591   4.598
  153TIP3   OH2  464   5.212   4.401   1.301
  153TIP3    H1  465   5.154   4.326   1.297
  153TIP3    H2  466   5.290   4.370   1.347
  154TIP3   OH2  467   6.017   3.956   3.789
  154TIP3    H1  468   5.986   3.932   3.702
  154TIP3    H2  469   5.972   4.038   3.809
  155TIP3   OH2  470   5.071   4.148   0.357
  155TIP3    H1  471   5.120   4.185   0.284
  155TIP3    H2  472   5.122   4.171   0.434
  156TIP3   OH2  473   3.810   5.903   3.331
  156TIP3    H1  474   3.860   5.963   3.386
  156TIP3    H2  475   3.783   5.956   3.256
  157TIP3   OH2  476   2.418   2.643   3.047
  157TIP3    H1  477   2.359   2.628   2.972
  157TIP3    H2  478   2.483   2.574   3.041
  158TIP3   OH2  479   5.826   2.418   4.241
  158TIP3    H1  480   5.795   2.509   4.246
  158TIP3    H2  481   5.921   2.426   4.231
  159TIP3   OH2  482   5.409   0.906   1.403
  159TIP3    H1  483   5.326   0.919   1.449
  159TIP3    H2  484   5.450   0.993   1.403
  160TIP3   OH2  485   0.586   0.844   0.492
  160TIP3    H1  486   0.561   0.859   0.401
  160TIP3    H2  487   0.603   0.750   0.497
  161TIP3   OH2  488   0.860   3.459   2.993
  161TIP3    H1  489   0.856   3.482   3.086
  161TIP3    H2  490   0.824   3.371   2.988
  162TIP3   OH2  491   5.708   5.813   5.067
  162TIP3    H1  492   5.674   5.742   5.122
  162TIP3    H2  493   5.760   5.769   5.000
  163TIP3   OH2  494   3.439   1.172   4.406
  163TIP3    H1  495   3.509   1.120   4.368
  163TIP3    H2  496   3.395   1.213   4.332
  164TIP3   OH2  497   6.193   0.315   3.828
  164TIP3    H1  498   6.218   0.402   3.862
  164TIP3    H2  499   6.168   0.331   3.737
  165TIP3   OH2  500   4.847   4.311   0.281
  165TIP3    H1  501   4.936   4.276   0.272
  165TIP3    H2  502   4.791   4.233   0.286
  166TIP3   OH2  503   4.041   0.434   4.299
  166TIP3    H1  504   4.102   0.483   4.354
  166TIP3    H2  505   4.071   0.343   4.306
  167TIP3   OH2  506   0.268   3.380   2.139
  167TIP3    H1  507   0.206   3.399   2.209
  167TIP3    H2  508   0.239   3.296   2.104
  168TIP3   OH2  509   1.390   2.920   4.116
  168TIP3    H1  510   1.376   2.849   4.053
  168TIP3    H2  511   1.483   2.916   4.136
  169TIP3   OH2  512   3.465   0.065   1.673
  169TIP3    H1  513   3.417   0.001   1.621
  169TIP3    H2  514   3.495   0.130   1.609
  170TIP3   OH2  515   1.775   0.431   4.466
  170TIP3    H1  516   1.750   0.454   4.555
  170TIP3    H2  517   1.776   0.515   4.419
  171TIP3   OH2  518   4.795   0.803   3.618
  171TIP3    H1  519   4.824   0.755   3.540
  171TIP3    H2  520   4.871   0.854   3.645
  172TIP3   OH2  521   6.027   4.215   0.637
  172TIP3    H1  522   6.104   4.270   0.632
  172TIP3    H2  523   5.966   4.263   0.693
  173TIP3   OH2  524   6.003   4.980   4.825
  173TIP3    H1  525   5.949   4.970   4.903
  173TIP3    H2  526   6.076   4.921   4.839
  174TIP3   OH2  527   1.096   3.428   3.901
  174TIP3    H1  528   1.023   3.393   3.851
  174TIP3    H2  529   1.103   3.519   3.873
  175TIP3   OH2  530   1.565   0.191   1.443
  175TIP3    H1  531   1.563   0.096   1.432
  175TIP3    H2  532   1.637   0.219   1.386
  176TIP3   OH2  533   0.749   4.830   1.112
  176TIP3    H1  534   0.781   4.740   1.105
  176TIP3    H2  535   0.716   4.850   1.025
  177TIP3   OH2  536   5.650   5.338   1.717
  177TIP3    H1  537   5.630   5.280   1.644
  177TIP3    H2  538   5.649   5.426   1.679
  178TIP3   OH2  539   2.901   4.928   3.097
  178TIP3    H1  540   2.828   4.882   3.056
  178TIP3    H2  541   2.915   4.882   3.179
  179TIP3   OH2  542   2.845   2.419   1.902
  179TIP3    H1  543   2.860   2.488   1.967
  179TIP3    H2  544   2.924   2.365   1.907
  180TIP3   OH2  545   5.201   4.419   2.339
  180TIP3    H1  546   5.175   4.475   2.412
  180TIP3    H2  547   5.247   4.477   2.279
  181TIP3   OH2  548   6.077   3.846   1.201
  181TIP3    H1  549   6.119   3.833   1.286
  181TIP3    H2  550   6.146   3.831   1.137
  182TIP3   OH2  551   4.604   3.146   1.070
  182TIP3    H1  552   4.630   3.176   0.983
  182TIP3    H2  553   4.580   3.226   1.116
  183TIP3   OH2  554   6.361   1.719   2.973
  183TIP3    H1  555   6.410   1.638   2.961
  183TIP3    H2  556   6.271   1.690   2.987
  184TIP3   OH2  557   5.316   4.556   2.128
  184TIP3    H1  558   5.370   4.498   2.075
  184TIP3    H2  559   5.258   4.599   2.064
  185TIP3   OH2  560   3.594   1.733   2.655
  185TIP3    H1  561   3.682   1.697   2.639
  185TIP3    H2  562   3.603   1.826   2.637
  186TIP3   OH2  563   4.481   3.740   1.852
  186TIP3    H1  564   4.555   3.680   1.849
  186TIP3    H2  565   4.519   3.824   1.876
  187TIP3   OH2  566   2.781   2.320   0.696
  187TIP3    H1  567   2.851   2.337   0.633
  187TIP3    H2  568   2.702   2.314   0.643
  188TIP3   OH2  569   4.325   4.818   3.129
  188TIP3    H1  570   4.351   4.745   3.185
  188TIP3    H2  571   4.405   4.869   3.116
  189TIP3   OH2  572   3.736   0.315   2.683
  189TIP3    H1  573   3.772   0.275   2.604
  189TIP3    H2  574   3.733   0.409   2.663
  190TIP3   OH2  575   0.597   0.886   1.812
  190TIP3    H1  576   0.527   0.950   1.827
  190TIP3    H2  577   0.586   0.821   1.882
  191TIP3   OH2  578   3.277   5.365   4.020
  191TIP3    H1  579   3.343   5.354   3.951
  191TIP3    H2  580   3.200   5.320   3.987
  192TIP3   OH2  581   3.759   2.051   0.506
  192TIP3    H1  582   3.838   2.009   0.472
  192TIP3    H2  583   3.707   1.980   0.543
  193TIP3   OH2  584   4.734   3.635   1.057
  193TIP3    H1  585   4.643   3.610   1.042
  193TIP3    H2  586   4.759   3.683   0.978
  194TIP3   OH2  587   5.680   5.645   2.279
  194TIP3    H1  588   5.731   5.598   2.346
  194TIP3    H2  589   5.701   5.737   2.295
  195TIP3   OH2  590   5.944   0.649   2.691
  195TIP3    H1  591   5.909   0.725   2.739
  195TIP3    H2  592   5.972   0.686   2.607
  196TIP3   OH2  593   2.880   5.871   0.922
  196TIP3    H1  594   2.806   5.836   0.872
  196TIP3    H2  595   2.853   5.960   0.946
  197TIP3   OH2  596   4.318   1.829   2.930
  197TIP3    H1  597   4.310   1.919   2.962
  197TIP3    H2  598   4.382   1.788   2.987
  198TIP3   OH2  599   4.257   1.010   0.326
  198TIP3    H1  600   4.292   1.055   0.248
  198TIP3    H2  601   4.203   1.076   0.369
  199TIP3   OH2  602   1.031   5.223   3.609
  199TIP3    H1  603   1.088   5.280   3.558
  199TIP3    H2  604   0.977   5.178   3.544
  200TIP3   OH2  605   0.870   0.754   1.854
  200TIP3    H1  606   0.903   0.754   1.764
  200TIP3    H2  607   0.799   0.818   1.853
  201TIP3   OH2  608   0.096   3.813   2.263
  201TIP3    H1  609   0.190   3.821   2.249
  201TIP3    H2  610   0.058   3.824   2.175
  202TIP3   OH2  611   4.730   1.847   1.134
  202TIP3    H1  612   4.758   1.916   1.194
  202TIP3    H2  613   4.798   1.780   1.140
  203TIP3   OH2  614   5.944   5.236   1.521
  203TIP3    H1  615   5.993   5.276   1.592
  203TIP3    H2  616   5.901   5.160   1.560
  204TIP3   OH2  617   3.966   3.506   4.152
  204TIP3    H1  618   3.963   3.598   4.176
  204TIP3    H2  619   3.901   3.464   4.209
  205TIP3   OH2  620   4.171   3.514   1.964
  205TIP3    H1  621   4.088   3.468   1.963
  205TIP3    H2  622   4.148   3.607   1.964
  206TIP3   OH2  623   0.361   2.079   0.111
  206TIP3    H1  624   0.294   2.138   0.078
  206TIP3    H2  625   0.336   2.063   0.202
  207TIP3   OH2  626   2.844   1.808   0.119
  207TIP3    H1  627   2.872   1.876   0.057
  207TIP3    H2  628   2.911   1.740   0.111
  208TIP3   OH2  629   5.785   1.762   1.093
  208TIP3    H1  630   5.774   1.667   1.082
  208TIP3    H2  631   5.755   1.799   1.010
  209TIP3   OH2  632   3.463   0.355   4.416
  209TIP3    H1  633   3.501   0.428   4.368
  209TIP3    H2  634   3.460   0.384   4.507
  210TIP3   OH2  635   3.765   4.465   1.451
  210TIP3    H1  636   3.686   4.458   1.397
  210TIP3    H2  637   3.755   4.549   1.497
  211TIP3   OH2  638   0.795   4.457   4.995
  211TIP3    H1  639   0.726   4.488   4.936
  211TIP3    H2  640   0.851   4.402   4.940
  212TIP3   OH2  641   5.484   2.846   4.603
  212TIP3    H1  642   5.553   2.875   4.543
  212TIP3    H2  643   5.471   2.753   4.582
  213TIP3   OH2  644   0.600   3.231   1.337
  213TIP3    H1  645   0.650   3.300   1.380
  213TIP3    H2  646   0.550   3.276   1.269
  214TIP3   OH2  647   1.446   1.625   4.926
  214TIP3    H1  648   1.462   1.706   4.974
  214TIP3    H2  649   1.506   1.561   4.965
  215TIP3   OH2  650   2.184   2.162   1.614
  215TIP3    H1  651   2.269   2.137   1.577
  215TIP3    H2  652   2.155   2.236   1.560
  216TIP3   OH2  653   4.162   0.750   4.832
  216TIP3    H1  654   4.111   0.786   4.759
  216TIP3    H2  655   4.121   0.787   4.910
  217TIP3   OH2  656   2.799   1.329   3.223
  217TIP3    H1  657   2.895   1.336   3.221
  217TIP3    H2  658   2.782   1.235   3.217
  218TIP3   OH2  659   5.280   1.808   2.722
  218TIP3    H1  660   5.186   1.799   2.739
  218TIP3    H2  661   5.299   1.740   2.657
  219TIP3   OH2  662   2.143   5.207   0.290
  219TIP3    H1  663   2.235   5.221   0.314
  219TIP3    H2  664   2.106   5.158   0.363
  220TIP3   OH2  665   2.306   4.496   1.837
  220TIP3    H1  666   2.249   4.511   1.913
  220TIP3    H2  667   2.285   4.567   1.777
  221TIP3   OH2  668   3.142   3.921   0.401
  221TIP3    H1  669   3.077   3.924   0.471
  221TIP3    H2  670   3.224   3.944   0.445
  222TIP3   OH2  671   1.294   5.049   4.672
  222TIP3    H1  672   1.300   5.117   4.606
  222TIP3    H2  673   1.290   5.096   4.755
  223TIP3   OH2  674   2.752   3.056   0.881
  223TIP3    H1  675   2.837   3.023   0.853
  223TIP3    H2  676   2.737   3.134   0.827
  224TIP3   OH2  677   5.720   1.697   2.555
  224TIP3    H1  678   5.695   1.682   2.464
  224TIP3    H2  679   5.655   1.758   2.588
  225TIP3   OH2  680   4.891   4.491   4.219
  225TIP3    H1  681   4.977   4.498   4.261
  225TIP3    H2  682   4.828   4.502   4.291
  226TIP3   OH2  683   5.751   5.260   0.605
  226TIP3    H1  684   5.843   5.238   0.617
  226TIP3    H2  685   5.709   5.178   0.581
  227TIP3   OH2  686   6.203   1.742   2.145
  227TIP3    H1  687   6.127   1.798   2.127
  227TIP3    H2  688   6.277   1.789   2.108
  228TIP3   OH2  689   0.190   5.064   4.345
  228TIP3    H1  690   0.210   5.011   4.268
  228TIP3    H2  691   0.159   5.001   4.410
  229TIP3   OH2  692   5.368   0.868   4.059
  229TIP3    H1  693   5.430   0.891   4.128
  229TIP3    H2  694   5.337   0.953   4.026
  230TIP3   OH2  695   5.750   4.074   3.893
  230TIP3    H1  696   5.660   4.064   3.925
  230TIP3    H2  697   5.742   4.133   3.818
  231TIP3   OH2  698   4.828   0.850   2.528
  231TIP3    H1  699   4.900   0.814   2.477
  231TIP3    H2  700   4.775   0.774   2.552
  232TIP3   OH2  701   2.849   0.306   3.724
  232TIP3    H1  702   2.763   0.300   3.683
  232TIP3    H2  703   2.852   0.230   3.783
  233TIP3   OH2  704   1.638   1.139   0.770
  233TIP3    H1  705   1.730   1.122   0.787
  233TIP3    H2  706   1.599   1.153   0.856
  234TIP3   OH2  707   5.602   3.356   2.268
  234TIP3    H1  708   5.556   3.301   2.332
  234TIP3    H2  709   5.570   3.327   2.183
  235TIP3   OH2  710   0.885   0.011   4.968
  235TIP3    H1  711   0.973  -0.021   4.947
  235TIP3    H2  712   0.899   0.097   5.008
  236TIP3   OH2  713   5.955   4.117   3.517
  236TIP3    H1  714   5.940   4.152   3.429
  236TIP3    H2  715   5.934   4.189   3.576
  237TIP3   OH2  716   3.579   3.073   3.143
  237TIP3    H1  717   3.634   3.099   3.069
  237TIP3    H2  718   3.575   2.977   3.138
  238TIP3   OH2  719   1.512   2.713   4.021
  238TIP3    H1  720   1.590   2.717   4.076
  238TIP3    H2  721   1.490   2.620   4.017
  239TIP3   OH2  722   0.627   1.206   2.933
  239TIP3    H1  723   0.653   1.156   3.010
  239TIP3    H2  724   0.618   1.140   2.864
  240TIP3   OH2  725   2.826   4.652   3.762
  240TIP3    H1  726   2.757   4.641   3.826
  240TIP3    H2  727   2.850   4.563   3.736
  241TIP3   OH2  728   1.011   5.746   1.790
  241TIP3    H1  729   0.961   5.795   1.724
  241TIP3    H2  730   1.074   5.810   1.824
  242TIP3   OH2  731   5.769   5.590   4.712
  242TIP3    H1  732   5.821   5.591   4.793
  242TIP3    H2  733   5.771   5.499   4.683
  243TIP3   OH2  734   5.933   4.720   4.387
  243TIP3    H1  735   5.892   4.764   4.462
  243TIP3    H2  736   6.026   4.739   4.396
  244TIP3   OH2  737   2.533   5.395   4.839
  244TIP3    H1  738   2.453   5.343   4.834
  244TIP3    H2  739   2.574   5.368   4.921
  245TIP3   OH2  740   3.997   0.531   4.047
  245TIP3    H1  741   3.966   0.457   3.995
  245TIP3    H2  742   3.980   0.505   4.138
  246TIP3   OH2  743   1.970   1.965   1.612
  246TIP3    H1  744   2.037   1.897   1.622
  246TIP3    H2  745   2.019   2.044   1.590
  247TIP3   OH2  746   5.891   5.242   2.588
  247TIP3    H1  747   5.976   5.238   2.632
  247TIP3    H2  748   5.827   5.234   2.659
  248TIP3   OH2  749   6.326   0.711   5.157
  248TIP3    H1  750   6.279   0.648   5.103
  248TIP3    H2  751   6.308   0.683   5.247
  249TIP3   OH2  752   1.655   5.003   4.107
  249TIP3    H1  753   1.731   4.958   4.144
  249TIP3    H2  754   1.596   5.015   4.181
  250TIP3   OH2  755   2.446   2.922   1.644
  250TIP3    H1  756   2.491   2.955   1.722
  250TIP3    H2  757   2.452   2.826   1.652
  251TIP3   OH2  758   1.625   4.088   3.338
  251TIP3    H1  759   1.535   4.086   3.307
  251TIP3    H2  760   1.669   4.149   3.279
  252TIP3   OH2  761   3.942   0.388   3.079
  252TIP3    H1  762   3.876   0.350   3.136
  252TIP3    H2  763   3.946   0.329   3.004
  253TIP3   OH2  764   4.429   5.794   3.887
  253TIP3    H1  765   4.417   5.706   3.922
  253TIP3    H2  766   4.344   5.836   3.898
  254TIP3   OH2  767   6.331   2.999   3.364
  254TIP3    H1  768   6.415   3.023   3.325
  254TIP3    H2  769   6.283   2.957   3.293
  255TIP3   OH2  770   0.441   1.955   4.428
  255TIP3    H1  771   0.483   1.996   4.353
  255TIP3    H2  772   0.509   1.902   4.469
  256TIP3   OH2  773   3.614   4.108   4.326
  256TIP3    H1  774   3.567   4.070   4.251
  256TIP3    H2  775   3.680   4.165   4.287
  257TIP3   OH2  776   3.372   1.111   1.208
  257TIP3    H1  777   3.440   1.043   1.208
  257TIP3    H2  778   3.406   1.179   1.150
  258TIP3   OH2  779   4.647   0.731   3.355
  258TIP3    H1  780   4.610   0.670   3.419
  258TIP3    H2  781   4.740   0.711   3.354
  259TIP3   OH2  782   3.817   0.914   0.095
  259TIP3    H1  783   3.886   0.979   0.107
  259TIP3    H2  784   3.752   0.957   0.039
  260TIP3   OH2  785   1.221   4.418   1.992
  260TIP3    H1  786   1.267   4.492   1.952
  260TIP3    H2  787   1.178   4.456   2.069
  261TIP3   OH2  788   2.017   4.683   2.283
  261TIP3    H1  789   1.948   4.707   2.222
  261TIP3    H2  790   2.080   4.755   2.277
  262TIP3   OH2  791   4.450   3.419   2.719
  262TIP3    H1  792   4.533   3.466   2.720
  262TIP3    H2  793   4.412   3.435   2.805
  263TIP3   OH2  794   1.962   5.466   4.649
  263TIP3    H1  795   2.032   5.458   4.714
  263TIP3    H2  796   1.907   5.389   4.663
  264TIP3   OH2  797   3.451   0.772   3.711
  264TIP3    H1  798   3.480   0.850   3.759
  264TIP3    H2  799   3.533   0.730   3.683
  265TIP3   OH2  800   1.404   0.936   3.750
  265TIP3    H1  801   1.461   0.875   3.704
  265TIP3    H2  802   1.458   0.969   3.823
  266TIP3   OH2  803   6.084   4.791   3.381
  266TIP3    H1  804   6.103   4.836   3.463
  266TIP3    H2  805   5.989   4.796   3.373
  267TIP3   OH2  806   0.816   0.051   1.817
  267TIP3    H1  807   0.790   0.100   1.895
  267TIP3    H2  808   0.794  -0.040   1.837
  268TIP3   OH2  809   1.550   5.007   4.721
  268TIP3    H1  810   1.465   4.982   4.684
  268TIP3    H2  811   1.550   5.102   4.718
  269TIP3   OH2  812   2.149   1.800   4.939
  269TIP3    H1  813   2.064   1.833   4.908
  269TIP3    H2  814   2.130   1.764   5.026
  270TIP3   OH2  815   3.571   0.444   1.279
  270TIP3    H1  816   3.577   0.518   1.218
  270TIP3    H2  817   3.492   0.460   1.330
  271TIP3   OH2  818   1.860   5.692   2.362
  271TIP3    H1  819   1.928   5.708   2.297
  271TIP3    H2  820   1.811   5.618   2.328
  272TIP3   OH2  821   1.736   4.097   3.790
  272TIP3    H1  822   1.762   4.012   3.753
  272TIP3    H2  823   1.715   4.077   3.882
  273TIP3   OH2  824   0.545   1.875   3.862
  273TIP3    H1  825   0.620   1.836   3.906
  273TIP3    H2  826   0.579   1.956   3.825
  274TIP3   OH2  827   4.337   1.215   4.542
  274TIP3    H1  828   4.378   1.132   4.566
  274TIP3    H2  829   4.385   1.243   4.464
  275TIP3   OH2  830   2.540   2.578   4.867
  275TIP3    H1  831   2.450   2.596   4.892
  275TIP3    H2  832   2.542   2.484   4.848
  276TIP3   OH2  833   1.914   0.646   2.571
  276TIP3    H1  834   1.857   0.723   2.571
  276TIP3    H2  835   1.890   0.598   2.492
  277TIP3   OH2  836   1.668   2.031   4.906
  277TIP3    H1  837   1.656   2.108   4.851
  277TIP3    H2  838   1.582   2.014   4.944
  278TIP3   OH2  839   6.294   3.345   2.789
  278TIP3    H1  840   6.368   3.326   2.847
  278TIP3    H2  841   6.285   3.266   2.736
  279TIP3   OH2  842   4.345   5.805   0.377
  279TIP3    H1  843   4.353   5.714   0.405
  279TIP3    H2  844   4.278   5.805   0.309
  280TIP3   OH2  845   0.968   2.349   2.525
  280TIP3    H1  846   0.972   2.437   2.564
  280TIP3    H2  847   1.004   2.292   2.593
  281TIP3   OH2  848   0.225   1.933   4.232
  281TIP3    H1  849   0.279   1.881   4.172
  281TIP3    H2  850   0.285   1.961   4.300
  282TIP3   OH2  851   1.519   2.630   4.872
  282TIP3    H1  852   1.475   2.554   4.834
  282TIP3    H2  853   1.536   2.604   4.963
  283TIP3   OH2  854   1.295   0.330   2.896
  283TIP3    H1  855   1.345   0.400   2.937
  283TIP3    H2  856   1.211   0.329   2.942
  284TIP3   OH2  857   0.881   5.392   5.064
  284TIP3    H1  858   0.965   5.357   5.036
  284TIP3    H2  859   0.845   5.434   4.986
  285TIP3   OH2  860   1.892   2.743   0.728
  285TIP3    H1  861   1.853   2.746   0.640
  285TIP3    H2  862   1.972   2.794   0.720
  286TIP3   OH2  863   6.247   3.568   1.539
  286TIP3    H1  864   6.231   3.491   1.594
  286TIP3    H2  865   6.340   3.588   1.552
  287TIP3   OH2  866   0.061   4.800   2.858
  287TIP3    H1  867  -0.034   4.810   2.856
  287TIP3    H2  868   0.076   4.710   2.829
  288TIP3   OH2  869   1.922   5.784   4.899
  288TIP3    H1  870   1.960   5.871   4.882
  288TIP3    H2  871   1.831   5.792   4.871
  289TIP3   OH2  872   5.063   4.949   4.227
  289TIP3    H1  873   5.035   4.864   4.195
  289TIP3    H2  874   5.008   5.012   4.179
  290TIP3   OH2  875   2.808   5.571   2.624
  290TIP3    H1  876   2.736   5.624   2.660
  290TIP3    H2  877   2.851   5.628   2.561
  291TIP3   OH2  878   3.570   0.887   2.580
  291TIP3    H1  879   3.640   0.927   2.528
  291TIP3    H2  880   3.602   0.888   2.670
  292TIP3   OH2  881   5.026   4.226   1.238
  292TIP3    H1  882   4.958   4.294   1.242
  292TIP3    H2  883   4.981   4.146   1.266
  293TIP3   OH2  884   5.311   0.316   2.823
  293TIP3    H1  885   5.228   0.318   2.870
  293TIP3    H2  886   5.338   0.224   2.826
  294TIP3   OH2  887   0.870   3.253   0.495
  294TIP3    H1  888   0.776   3.235   0.493
  294TIP3    H2  889   0.906   3.187   0.555
  295TIP3   OH2  890   2.850   1.702   2.895
  295TIP3    H1  891   2.836   1.738   2.808
  295TIP3    H2  892   2.803   1.619   2.895
  296TIP3   OH2  893   4.320   0.293   1.497
  296TIP3    H1  894   4.352   0.332   1.416
  296TIP3    H2  895   4.322   0.199   1.480
  297TIP3   OH2  896   3.224   4.854  -0.005
  297TIP3    H1  897   3.305   4.900   0.021
  297TIP3    H2  898   3.159   4.882   0.059
  298TIP3   OH2  899   6.315   5.234   4.290
  298TIP3    H1  900   6.256   5.272   4.355
  298TIP3    H2  901   6.382   5.188   4.341
  299TIP3   OH2  902   4.590   1.706   0.634
  299TIP3    H1  903   4.523   1.708   0.703
  299TIP3    H2  904   4.544   1.740   0.556
  300TIP3   OH2  905   0.219   1.934   3.663
  300TIP3    H1  906   0.211   1.967   3.752
  300TIP3    H2  907   0.137   1.888   3.647
  301TIP3   OH2  908   1.571   1.204   1.981
  301TIP3    H1  909   1.499   1.145   1.962
  301TIP3    H2  910   1.608   1.224   1.895
  302TIP3   OH2  911   5.761   3.228   2.894
  302TIP3    H1  912   5.746   3.172   2.970
  302TIP3    H2  913   5.854   3.250   2.899
  303TIP3   OH2  914   4.900   4.234   3.018
  303TIP3    H1  915   4.823   4.289   3.002
  303TIP3    H2  916   4.871   4.145   3.000
  304TIP3   OH2  917   2.196   0.844   4.966
  304TIP3    H1  918   2.153   0.831   5.050
  304TIP3    H2  919   2.156   0.924   4.931
  305TIP3   OH2  920   4.074   5.824   3.088
  305TIP3    H1  921   4.073   5.920   3.078
  305TIP3    H2  922   4.167   5.801   3.083
  306TIP3   OH2  923   2.272   0.698   3.674
  306TIP3    H1  924   2.188   0.721   3.635
  306TIP3    H2  925   2.309   0.781   3.704
  307TIP3   OH2  926   2.685   0.151   1.669
  307TIP3    H1  927   2.676   0.175   1.762
  307TIP3    H2  928   2.779   0.152   1.653
  308TIP3   OH2  929   5.064   0.457   2.199
  308TIP3    H1  930   5.014   0.504   2.266
  308TIP3    H2  931   5.148   0.437   2.242
  309TIP3   OH2  932   5.807   1.659   0.281
  309TIP3    H1  933   5.721   1.659   0.323
  309TIP3    H2  934   5.833   1.751   0.279
  310TIP3   OH2  935   1.215   4.906   2.402
  310TIP3    H1  936   1.264   4.982   2.434
  310TIP3    H2  937   1.269   4.872   2.330
  311TIP3   OH2  938   4.186   5.574   0.960
  311TIP3    H1  939   4.232   5.627   0.894
  311TIP3    H2  940   4.218   5.606   1.044
  312TIP3   OH2  941   6.222   3.980   0.394
  312TIP3    H1  942   6.242   3.997   0.302
  312TIP3    H2  943   6.127   3.987   0.400
  313TIP3   OH2  944   1.071   5.809   0.218
  313TIP3    H1  945   1.154   5.840   0.254
  313TIP3    H2  946   1.059   5.858   0.137
  314TIP3   OH2  947   0.806   3.079   4.275
  314TIP3    H1  948   0.802   3.029   4.194
  314TIP3    H2  949   0.855   3.023   4.335
  315TIP3   OH2  950   0.345   2.080   1.092
  315TIP3    H1  951   0.296   2.007   1.055
  315TIP3    H2  952   0.278   2.138   1.129
  316TIP3   OH2  953   1.911   1.617   3.462
  316TIP3    H1  954   1.894   1.641   3.371
  316TIP3    H2  955   1.878   1.691   3.513
  317TIP3   OH2  956   6.181   3.922   2.342
  317TIP3    H1  957   6.149   3.998   2.390
  317TIP3    H2  958   6.276   3.922   2.358
  318TIP3   OH2  959   2.844   1.778   3.415
  318TIP3    H1  960   2.797   1.847   3.461
  318TIP3    H2  961   2.871   1.717   3.484
  319TIP3   OH2  962   4.891   4.573   0.219
  319TIP3    H1  963   4.983   4.569   0.192
  319TIP3    H2  964   4.870   4.482   0.243
  320TIP3   OH2  965   1.114   2.401   0.991
  320TIP3    H1  966   1.035   2.433   0.947
  320TIP3    H2  967   1.094   2.310   1.012
  321TIP3   OH2  968   1.929   0.541   5.148
  321TIP3    H1  969   1.852   0.558   5.202
  321TIP3    H2  970   1.925   0.447   5.129
  322TIP3   OH2  971   2.016   5.306   3.985
  322TIP3    H1  972   1.948   5.348   3.932
  322TIP3    H2  973   1.989   5.214   3.991
  323TIP3   OH2  974   1.436   3.263   3.193
  323TIP3    H1  975   1.387   3.229   3.268
  323TIP3    H2  976   1.392   3.224   3.117
  324TIP3   OH2  977   1.209   5.157   1.736
  324TIP3    H1  978   1.205   5.133   1.643
  324TIP3    H2  979   1.301   5.178   1.751
  325TIP3   OH2  980   2.165   2.539   2.195
  325TIP3    H1  981   2.090   2.488   2.165
  325TIP3    H2  982   2.138   2.576   2.279
  326TIP3   OH2  983   1.316   2.701   0.136
  326TIP3    H1  984   1.228   2.702   0.173
  326TIP3    H2  985   1.317   2.776   0.076
  327TIP3   OH2  986   5.750   5.869   1.940
  327TIP3    H1  987   5.801   5.788   1.953
  327TIP3    H2  988   5.771   5.922   2.016
  328TIP3   OH2  989   1.784   1.821   2.680
  328TIP3    H1  990   1.833   1.869   2.746
  328TIP3    H2  991   1.720   1.769   2.731
  329TIP3   OH2  992   1.052   1.802   4.363
  329TIP3    H1  993   1.049   1.778   4.455
  329TIP3    H2  994   1.017   1.726   4.317
  330TIP3   OH2  995   5.554   2.504   0.229
  330TIP3    H1  996   5.461   2.505   0.250
  330TIP3    H2  997   5.564   2.436   0.163
  331TIP3   OH2  998   1.730   3.878   1.044
  331TIP3    H1  999   1.802   3.822   1.014
  331TIP3    H2 1000   1.651   3.835   1.013
  332TIP3   OH2 1001   0.841   5.922   2.835
  332TIP3    H1 1002   0.772   5.858   2.849
  332TIP3    H2 1003   0.816   5.998   2.887
  333TIP3   OH2 1004   0.116   4.317   4.218
  333TIP3    H1 1005   0.172   4.395   4.224
  333TIP3    H2 1006   0.178   4.244   4.211
  334TIP3   OH2 1007   4.682   2.746   4.078
  334TIP3    H1 1008   4.604   2.802   4.077
  334TIP3    H2 1009   4.712   2.747   4.169
  335TIP3   OH2 1010   1.558   1.813   1.531
  335TIP3    H1 1011   1.641   1.775   1.561
  335TIP3    H2 1012   1.495   1.792   1.601
  336TIP3   OH2 1013   3.328   5.081   0.951
  336TIP3    H1 1014   3.311   5.123   0.866
  336TIP3    H2 1015   3.325   5.152   1.014
  337TIP3   OH2 1016   1.571   3.904   3.087
  337TIP3    H1 1017   1.545   3.976   3.146
  337TIP3    H2 1018   1.501   3.839   3.096
  338TIP3   OH2 1019   5.951   0.327   5.141
  338TIP3    H1 1020   5.884   0.281   5.191
  338TIP3    H2 1021   5.917   0.416   5.132
  339TIP3   OH2 1022   5.495   3.971   4.800
  339TIP3    H1 1023   5.477   3.902   4.863
  339TIP3    H2 1024   5.581   4.005   4.825
  340TIP3   OH2 1025   5.748   2.243   2.391
  340TIP3    H1 1026   5.823   2.300   2.408
  340TIP3    H2 1027   5.780   2.182   2.324
  341TIP3   OH2 1028   3.798   2.838   0.314
  341TIP3    H1 1029   3.740   2.913   0.327
  341TIP3    H2 1030   3.885   2.871   0.337
  342TIP3   OH2 1031   5.936   1.990   0.855
  342TIP3    H1 1032   5.897   2.075   0.838
  342TIP3    H2 1033   5.861   1.931   0.866
  343TIP3   OH2 1034   2.992   4.950   5.125
  343TIP3    H1 1035   2.922   4.888   5.146
  343TIP3    H2 1036   2.986   5.016   5.194
  344TIP3   OH2 1037   5.853   2.617   0.542
  344TIP3    H1 1038   5.772   2.569   0.562
  344TIP3    H2 1039   5.864   2.678   0.614
  345TIP3   OH2 1040   2.828   4.458   4.770
  345TIP3    H1 1041   2.881   4.457   4.850
  345TIP3    H2 1042   2.876   4.402   4.709
  346TIP3   OH2 1043   5.670   3.172   0.487
  346TIP3    H1 1044   5.749   3.159   0.434
  346TIP3    H2 1045   5.599   3.177   0.423
  347TIP3   OH2 1046   6.264   1.779   0.050
  347TIP3    H1 1047   6.318   1.714   0.095
  347TIP3    H2 1048   6.177   1.739   0.046
  348TIP3   OH2 1049   5.497   4.364   0.124
  348TIP3    H1 1050   5.452   4.427   0.180
  348TIP3    H2 1051   5.535   4.300   0.184
  349TIP3   OH2 1052   0.397   5.285   3.177
  349TIP3    H1 1053   0.390   5.341   3.254
  349TIP3    H2 1054   0.309   5.287   3.138
  350TIP3   OH2 1055   3.667   5.047   3.273
  350TIP3    H1 1056   3.599   5.008   3.218
  350TIP3    H2 1057   3.735   5.074   3.210
  351TIP3   OH2 1058   1.633   3.445   4.266
  351TIP3    H1 1059   1.643   3.421   4.358
  351TIP3    H2 1060   1.677   3.530   4.259
  352TIP3   OH2 1061   3.673   5.059   3.563
  352TIP3    H1 1062   3.758   5.016   3.570
  352TIP3    H2 1063   3.669   5.090   3.473
  353TIP3   OH2 1064   5.343   5.463   3.760
  353TIP3    H1 1065   5.371   5.380   3.799
  353TIP3    H2 1066   5.248   5.464   3.770
  354TIP3   OH2 1067   4.187   3.977   1.728
  354TIP3    H1 1068   4.223   4.050   1.778
  354TIP3    H2 1069   4.216   3.993   1.638
  355TIP3   OH2 1070   4.643   1.394   4.815
  355TIP3    H1 1071   4.735   1.397   4.839
  355TIP3    H2 1072   4.640   1.428   4.726
  356TIP3   OH2 1073   0.913   4.004   4.684
  356TIP3    H1 1074   0.860   3.932   4.651
  356TIP3    H2 1075   0.963   4.035   4.609
  357TIP3   OH2 1076   0.660   3.040   3.238
  357TIP3    H1 1077   0.711   2.959   3.242
  357TIP3    H2 1078   0.626   3.042   3.148
  358TIP3   OH2 1079   2.018   4.780   0.128
  358TIP3    H1 1080   1.934   4.751   0.095
  358TIP3    H2 1081   2.078   4.771   0.054
  359TIP3   OH2 1082   1.412   0.130   1.153
  359TIP3    H1 1083   1.466   0.193   1.105
  359TIP3    H2 1084   1.343   0.183   1.193
  360TIP3   OH2 1085   0.593   4.602   4.108
  360TIP3    H1 1086   0.595   4.671   4.042
  360TIP3    H2 1087   0.682   4.599   4.143
  361TIP3   OH2 1088   4.013   1.347   1.861
  361TIP3    H1 1089   4.085   1.365   1.921
  361TIP3    H2 1090   3.965   1.430   1.855
  362TIP3   OH2 1091   1.995   0.638   2.910
  362TIP3    H1 1092   1.939   0.704   2.868
  362TIP3    H2 1093   1.947   0.611   2.988
  363TIP3   OH2 1094   5.651   2.655   3.578
  363TIP3    H1 1095   5.655   2.566   3.543
  363TIP3    H2 1096   5.562   2.685   3.557
  364TIP3   OH2 1097   4.790   0.433   1.047
  364TIP3    H1 1098   4.833   0.379   1.113
  364TIP3    H2 1099   4.861   0.485   1.009
  365TIP3   OH2 1100   1.957   5.339   0.063
  365TIP3    H1 1101   1.940   5.393   0.140
  365TIP3    H2 1102   1.872   5.330   0.020
  366TIP3   OH2 1103   4.893   5.831   4.168
  366TIP3    H1 1104   4.968   5.846   4.226
  366TIP3    H2 1105   4.820   5.874   4.213
  367TIP3   OH2 1106   5.602   0.555   3.542
  367TIP3    H1 1107   5.597   0.531   3.449
  367TIP3    H2 1108   5.696   0.554   3.562
  368TIP3   OH2 1109   3.959   2.306   2.973
  368TIP3    H1 1110   4.021   2.375   2.996
  368TIP3    H2 1111   3.901   2.300   3.049
  369TIP3   OH2 1112   5.322   3.361   4.212
  369TIP3    H1 1113   5.392   3.396   4.267
  369TIP3    H2 1114   5.337   3.267   4.212
  370TIP3   OH2 1115   3.671   0.721   1.898
  370TIP3    H1 1116   3.630   0.766   1.824
  370TIP3    H2 1117   3.762   0.709   1.871
  371TIP3   OH2 1118   3.481   5.583   2.485
  371TIP3    H1 1119   3.397   5.604   2.446
  371TIP3    H2 1120   3.542   5.645   2.445
  372TIP3   OH2 1121   2.815   0.499   1.422
  372TIP3    H1 1122   2.782   0.412   1.440
  372TIP3    H2 1123   2.796   0.549   1.502
  373TIP3   OH2 1124   3.205   2.938   3.376
  373TIP3    H1 1125   3.206   3.028   3.344
  373TIP3    H2 1126   3.272   2.893   3.324
  374TIP3   OH2 1127   4.151   1.440   0.222
  374TIP3    H1 1128   4.174   1.379   0.291
  374TIP3    H2 1129   4.220   1.506   0.224
  375TIP3   OH2 1130   5.088   3.203   0.983
  375TIP3    H1 1131   5.051   3.272   0.929
  375TIP3    H2 1132   5.067   3.230   1.073
  376TIP3   OH2 1133   0.864   0.501   4.958
  376TIP3    H1 1134   0.903   0.517   4.872
  376TIP3    H2 1135   0.770   0.514   4.944
  377TIP3   OH2 1136   5.902   4.691   5.030
  377TIP3    H1 1137   5.846   4.615   5.044
  377TIP3    H2 1138   5.978   4.658   4.983
  378TIP3   OH2 1139   2.630   1.200   0.753
  378TIP3    H1 1140   2.554   1.144   0.774
  378TIP3    H2 1141   2.637   1.259   0.828
  379TIP3   OH2 1142   6.178   3.485   5.003
  379TIP3    H1 1143   6.154   3.568   4.962
  379TIP3    H2 1144   6.266   3.500   5.038
  380TIP3   OH2 1145   3.018   3.069   4.770
  380TIP3    H1 1146   3.029   2.982   4.732
  380TIP3    H2 1147   3.077   3.125   4.720
  381TIP3   OH2 1148   1.341   4.736   3.728
  381TIP3    H1 1149   1.396   4.792   3.673
  381TIP3    H2 1150   1.253   4.746   3.692
  382TIP3   OH2 1151   1.148   3.474   2.242
  382TIP3    H1 1152   1.194   3.505   2.320
  382TIP3    H2 1153   1.063   3.518   2.245
  383TIP3   OH2 1154   4.325   4.797   1.446
  383TIP3    H1 1155   4.344   4.786   1.352
  383TIP3    H2 1156   4.273   4.720   1.469
  384TIP3   OH2 1157   0.152   3.259   1.760
  384TIP3    H1 1158   0.212   3.278   1.832
  384TIP3    H2 1159   0.069   3.298   1.787
  385TIP3   OH2 1160   6.100   1.382   2.515
  385TIP3    H1 1161   6.040   1.450   2.485
  385TIP3    H2 1162   6.095   1.386   2.611
  386TIP3   OH2 1163   0.067   1.106   1.243
  386TIP3    H1 1164   0.104   1.122   1.330
  386TIP3    H2 1165   0.080   1.012   1.229
  387TIP3   OH2 1166   1.252   2.546   2.561
  387TIP3    H1 1167   1.306   2.619   2.529
  387TIP3    H2 1168   1.188   2.587   2.619
  388TIP3   OH2 1169   1.674   2.757   1.139
  388TIP3    H1 1170   1.650   2.842   1.103
  388TIP3    H2 1171   1.625   2.750   1.221
  389TIP3   OH2 1172   1.730   6.002   4.432
  389TIP3    H1 1173   1.819   5.968   4.439
  389TIP3    H2 1174   1.674   5.932   4.467
  390TIP3   OH2 1175   1.243   4.944   0.275
  390TIP3    H1 1176   1.275   4.856   0.295
  390TIP3    H2 1177   1.153   4.944   0.308
  391TIP3   OH2 1178   4.582   2.115   0.275
  391TIP3    H1 1179   4.640   2.179   0.235
  391TIP3    H2 1180   4.633   2.078   0.347
  392TIP3   OH2 1181   1.745   1.021   5.174
  392TIP3    H1 1182   1.703   1.087   5.118
  392TIP3    H2 1183   1.789   0.962   5.113
  393TIP3   OH2 1184   1.950   2.460   3.577
  393TIP3    H1 1185   2.037   2.473   3.541
  393TIP3    H2 1186   1.892   2.458   3.501
  394TIP3   OH2 1187   0.123   3.735   0.526
  394TIP3    H1 1188   0.091   3.762   0.612
  394TIP3    H2 1189   0.070   3.658   0.504
  395TIP3   OH2 1190   5.717   4.478   3.447
  395TIP3    H1 1191   5.673   4.504   3.366
  395TIP3    H2 1192   5.807   4.509   3.436
  396TIP3   OH2 1193   3.193   2.349   1.645
  396TIP3    H1 1194   3.180   2.270   1.593
  396TIP3    H2 1195   3.132   2.413   1.609
  397TIP3   OH2 1196   4.210   1.917   1.465
  397TIP3    H1 1197   4.272   1.848   1.442
  397TIP3    H2 1198   4.138   1.872   1.509
  398TIP3   OH2 1199   1.673   4.288   4.768
  398TIP3    H1 1200   1.674   4.265   4.861
  398TIP3    H2 1201   1.610   4.228   4.729
  399TIP3   OH2 1202   2.037   5.033   4.054
  399TIP3    H1 1203   2.115   5.086   4.076
  399TIP3    H2 1204   2.072   4.958   4.007
  400TIP3   OH2 1205   4.442   0.789  -0.034
  400TIP3    H1 1206   4.503   0.778   0.039
  400TIP3    H2 1207   4.356   0.795   0.008
  401TIP3   OH2 1208   5.384   4.095   1.746
  401TIP3    H1 1209   5.311   4.141   1.704
  401TIP3    H2 1210   5.344   4.021   1.791
  402TIP3   OH2 1211   5.481   0.515   0.665
  402TIP3    H1 1212   5.557   0.469   0.701
  402TIP3    H2 1213   5.501   0.524   0.572
  403TIP3   OH2 1214   6.071   4.212   2.175
  403TIP3    H1 1215   6.071   4.215   2.271
  403TIP3    H2 1216   5.986   4.249   2.150
  404TIP3   OH2 1217   0.326   2.224   2.461
  404TIP3    H1 1218   0.251   2.284   2.474
  404TIP3    H2 1219   0.385   2.245   2.533
  405TIP3   OH2 1220   4.775   2.754   0.732
  405TIP3    H1 1221   4.802   2.842   0.758
  405TIP3    H2 1222   4.759   2.761   0.638
  406TIP3   OH2 1223   1.675   4.980   2.692
  406TIP3    H1 1224   1.767   4.977   2.666
  406TIP3    H2 1225   1.654   5.073   2.694
  407TIP3   OH2 1226   1.502   2.734   1.825
  407TIP3    H1 1227   1.413   2.753   1.794
  407TIP3    H2 1228   1.558   2.754   1.749
  408TIP3   OH2 1229   0.173   2.673   1.234
  408TIP3    H1 1230   0.102   2.734   1.212
  408TIP3    H2 1231   0.169   2.666   1.330
  409TIP3   OH2 1232   4.304   5.491   4.950
  409TIP3    H1 1233   4.238   5.554   4.983
  409TIP3    H2 1234   4.262   5.406   4.960
  410TIP3   OH2 1235   3.832   1.761   3.315
  410TIP3    H1 1236   3.747   1.718   3.303
  410TIP3    H2 1237   3.841   1.772   3.409
  411TIP3   OH2 1238   1.150   2.744   4.766
  411TIP3    H1 1239   1.165   2.716   4.676
  411TIP3    H2 1240   1.158   2.664   4.818
  412TIP3   OH2 1241   1.892   3.606   1.333
  412TIP3    H1 1242   1.843   3.687   1.350
  412TIP3    H2 1243   1.915   3.611   1.240
  413TIP3   OH2 1244   0.342   0.877   4.761
  413TIP3    H1 1245   0.249   0.890   4.783
  413TIP3    H2 1246   0.340   0.840   4.673
  414TIP3   OH2 1247   0.761   5.347   1.014
  414TIP3    H1 1248   0.777   5.284   0.944
  414TIP3    H2 1249   0.743   5.429   0.968
  415TIP3   OH2 1250   5.158   3.056   2.634
  415TIP3    H1 1251   5.164   2.961   2.644
  415TIP3    H2 1252   5.070   3.071   2.599
  416TIP3   OH2 1253   0.089   4.589   3.158
  416TIP3    H1 1254   0.174   4.549   3.178
  416TIP3    H2 1255   0.069   4.643   3.234
  417TIP3   OH2 1256   3.258   1.376   0.126
  417TIP3    H1 1257   3.260   1.456   0.179
  417TIP3    H2 1258   3.244   1.407   0.037
  418TIP3   OH2 1259   5.335   2.434   3.035
  418TIP3    H1 1260   5.256   2.383   3.053
  418TIP3    H2 1261   5.375   2.448   3.121
  419TIP3   OH2 1262   3.454   4.031   2.389
  419TIP3    H1 1263   3.358   4.035   2.391
  419TIP3    H2 1264   3.473   3.939   2.370
  420TIP3   OH2 1265   1.819   3.299   4.567
  420TIP3    H1 1266   1.808   3.220   4.514
  420TIP3    H2 1267   1.874   3.356   4.514
  421TIP3   OH2 1268   3.079   0.829   2.275
  421TIP3    H1 1269   3.035   0.774   2.339
  421TIP3    H2 1270   3.164   0.850   2.316
  422TIP3   OH2 1271   5.189   1.529   0.408
  422TIP3    H1 1272   5.273   1.497   0.376
  422TIP3    H2 1273   5.148   1.570   0.332
  423TIP3   OH2 1274   1.600   0.630   1.587
  423TIP3    H1 1275   1.692   0.656   1.599
  423TIP3    H2 1276   1.567   0.619   1.676
  424TIP3   OH2 1277   2.172   1.986   2.656
  424TIP3    H1 1278   2.125   2.056   2.611
  424TIP3    H2 1279   2.104   1.921   2.677
  425TIP3   OH2 1280   3.284  -0.009   1.887
  425TIP3    H1 1281   3.348   0.023   1.823
  425TIP3    H2 1282   3.213   0.056   1.884
  426TIP3   OH2 1283   0.970   5.391   0.606
  426TIP3    H1 1284   0.992   5.484   0.602
  426TIP3    H2 1285   1.043   5.346   0.564
  427TIP3   OH2 1286   6.270   3.684   4.086
  427TIP3    H1 1287   6.319   3.623   4.031
  427TIP3    H2 1288   6.308   3.674   4.173
  428TIP3   OH2 1289   3.038   1.607   0.104
  428TIP3    H1 1290   3.050   1.533   0.045
  428TIP3    H2 1291   3.126   1.625   0.138
  429TIP3   OH2 1292   0.329   1.122   4.468
  429TIP3    H1 1293   0.411   1.170   4.474
  429TIP3    H2 1294   0.277   1.156   4.541
  430TIP3   OH2 1295   5.103   0.582   2.603
  430TIP3    H1 1296   5.065   0.643   2.666
  430TIP3    H2 1297   5.089   0.623   2.518
  431TIP3   OH2 1298   1.343   4.211   5.105
  431TIP3    H1 1299   1.363   4.150   5.034
  431TIP3    H2 1300   1.279   4.164   5.159
  432TIP3   OH2 1301   5.002   5.817   1.608
  432TIP3    H1 1302   5.042   5.809   1.695
  432TIP3    H2 1303   4.946   5.894   1.614
  433TIP3   OH2 1304   0.509   1.065   3.845
  433TIP3    H1 1305   0.446   1.121   3.891
  433TIP3    H2 1306   0.564   1.127   3.797
  434TIP3   OH2 1307   4.032   0.751   5.091
  434TIP3    H1 1308   4.110   0.700   5.111
  434TIP3    H2 1309   4.027   0.815   5.161
  435TIP3   OH2 1310   3.643   0.971   4.356
  435TIP3    H1 1311   3.701   0.913   4.306
  435TIP3    H2 1312   3.701   1.018   4.415
  436TIP3   OH2 1313   4.498   3.036   1.728
  436TIP3    H1 1314   4.460   2.976   1.793
  436TIP3    H2 1315   4.444   3.115   1.734
  437TIP3   OH2 1316   0.154   5.271   0.551
  437TIP3    H1 1317   0.206   5.240   0.477
  437TIP3    H2 1318   0.088   5.328   0.512
  438TIP3   OH2 1319   3.223   4.887   4.392
  438TIP3    H1 1320   3.226   4.964   4.336
  438TIP3    H2 1321   3.186   4.919   4.475
  439TIP3   OH2 1322   5.986   3.296   1.018
  439TIP3    H1 1323   6.068   3.304   1.067
  439TIP3    H2 1324   5.925   3.354   1.064
  440TIP3   OH2 1325   3.415   4.935   0.180
  440TIP3    H1 1326   3.434   4.872   0.250
  440TIP3    H2 1327   3.415   5.020   0.225
  441TIP3   OH2 1328   5.038   1.666   2.530
  441TIP3    H1 1329   5.132   1.647   2.539
  441TIP3    H2 1330   5.004   1.663   2.619
  442TIP3   OH2 1331   4.235   4.044   4.988
  442TIP3    H1 1332   4.292   3.979   5.028
  442TIP3    H2 1333   4.170   3.993   4.939
  443TIP3   OH2 1334   1.322   3.400   0.355
  443TIP3    H1 1335   1.413   3.371   0.345
  443TIP3    H2 1336   1.292   3.416   0.265
  444TIP3   OH2 1337   2.937   1.815   3.131
  444TIP3    H1 1338   2.885   1.767   3.066
  444TIP3    H2 1339   2.883   1.815   3.210
  445TIP3   OH2 1340   6.134   1.569   3.052
  445TIP3    H1 1341   6.041   1.581   3.037
  445TIP3    H2 1342   6.148   1.474   3.045
  446TIP3   OH2 1343   3.431   3.681   2.385
  446TIP3    H1 1344   3.496   3.703   2.451
  446TIP3    H2 1345   3.349   3.672   2.435
  447TIP3   OH2 1346   6.298   5.722   3.909
  447TIP3    H1 1347   6.319   5.631   3.889
  447TIP3    H2 1348   6.247   5.751   3.833
  448TIP3   OH2 1349   3.565   3.036   2.227
  448TIP3    H1 1350   3.548   2.949   2.264
  448TIP3    H2 1351   3.479   3.077   2.220
  449TIP3   OH2 1352   3.095   1.678   0.699
  449TIP3    H1 1353   3.077   1.612   0.632
  449TIP3    H2 1354   3.040   1.654   0.773
  450TIP3   OH2 1355   2.722   0.791   1.226
  450TIP3    H1 1356   2.681   0.793   1.312
  450TIP3    H2 1357   2.692   0.871   1.183
  451TIP3   OH2 1358   1.542   3.124   4.329
  451TIP3    H1 1359   1.562   3.199   4.386
  451TIP3    H2 1360   1.604   3.056   4.357
  452TIP3   OH2 1361   2.568   1.555   2.536
  452TIP3    H1 1362   2.614   1.579   2.456
  452TIP3    H2 1363   2.612   1.606   2.605
  453TIP3   OH2 1364   0.296   5.158   0.297
  453TIP3    H1 1365   0.320   5.092   0.231
  453TIP3    H2 1366   0.378   5.179   0.340
  454TIP3   OH2 1367   2.032   3.403   1.693
  454TIP3    H1 1368   2.119   3.429   1.665
  454TIP3    H2 1369   2.033   3.413   1.788
  455TIP3   OH2 1370   4.356   2.695   4.483
  455TIP3    H1 1371   4.345   2.698   4.578
  455TIP3    H2 1372   4.399   2.611   4.466
  456TIP3   OH2 1373   3.676   3.180   5.035
  456TIP3    H1 1374   3.650   3.100   4.990
  456TIP3    H2 1375   3.599   3.207   5.084
  457TIP3   OH2 1376   0.024   0.408   1.623
  457TIP3    H1 1377  -0.062   0.426   1.661
  457TIP3    H2 1378   0.042   0.484   1.567
  458TIP3   OH2 1379   2.671   3.266   0.728
  458TIP3    H1 1380   2.689   3.339   0.669
  458TIP3    H2 1381   2.627   3.305   0.803
  459TIP3   OH2 1382   3.189   5.024   1.336
  459TIP3    H1 1383   3.180   5.092   1.403
  459TIP3    H2 1384   3.110   5.031   1.283
  460TIP3   OH2 1385   6.347   4.830   3.318
  460TIP3    H1 1386   6.252   4.827   3.329
  460TIP3    H2 1387   6.380   4.866   3.400
  461TIP3   OH2 1388   4.183   0.994   3.625
  461TIP3    H1 1389   4.203   0.939   3.549
  461TIP3    H2 1390   4.220   0.947   3.699
  462TIP3   OH2 1391   3.379   3.450   2.238
  462TIP3    H1 1392   3.428   3.525   2.271
  462TIP3    H2 1393   3.302   3.487   2.196
  463TIP3   OH2 1394   2.577   4.509   4.918
  463TIP3    H1 1395   2.667   4.534   4.898
  463TIP3    H2 1396   2.524   4.576   4.875
  464TIP3   OH2 1397   5.834   4.836   3.294
  464TIP3    H1 1398   5.883   4.847   3.213
  464TIP3    H2 1399   5.744   4.860   3.271
  465TIP3   OH2 1400   6.159   3.921   4.079
  465TIP3    H1 1401   6.187   3.832   4.060
  465TIP3    H2 1402   6.209   3.946   4.157
  466TIP3   OH2 1403   4.084   3.292   2.773
  466TIP3    H1 1404   4.118   3.226   2.713
  466TIP3    H2 1405   3.989   3.285   2.764
  467TIP3   OH2 1406   3.926   4.214   4.787
  467TIP3    H1 1407   3.991   4.156   4.750
  467TIP3    H2 1408   3.886   4.164   4.858
  468TIP3   OH2 1409   0.559   4.123   3.243
  468TIP3    H1 1410   0.588   4.127   3.334
  468TIP3    H2 1411   0.583   4.208   3.206
  469TIP3   OH2 1412   3.250   5.720   2.470
  469TIP3    H1 1413   3.236   5.745   2.561
  469TIP3    H2 1414   3.219   5.796   2.420
  470TIP3   OH2 1415   2.607   1.439   0.347
  470TIP3    H1 1416   2.634   1.361   0.395
  470TIP3    H2 1417   2.640   1.512   0.399
  471TIP3   OH2 1418   5.805   0.041   4.962
  471TIP3    H1 1419   5.789   0.093   4.884
  471TIP3    H2 1420   5.786  -0.049   4.935
  472TIP3   OH2 1421   4.346   3.214   5.146
  472TIP3    H1 1422   4.266   3.259   5.119
  472TIP3    H2 1423   4.416   3.274   5.121
  473TIP3   OH2 1424   6.236   0.721   1.124
  473TIP3    H1 1425   6.327   0.718   1.153
  473TIP3    H2 1426   6.207   0.810   1.146
  474TIP3   OH2 1427   6.117   2.116   0.283
  474TIP3    H1 1428   6.126   2.102   0.377
  474TIP3    H2 1429   6.206   2.106   0.249
  475TIP3   OH2 1430   1.655   5.743   3.230
  475TIP3    H1 1431   1.695   5.691   3.160
  475TIP3    H2 1432   1.569   5.769   3.195
  476TIP3   OH2 1433   3.072   2.877   3.832
  476TIP3    H1 1434   3.076   2.888   3.737
  476TIP3    H2 1435   3.046   2.786   3.845
  477TIP3   OH2 1436   2.356   0.447   2.536
  477TIP3    H1 1437   2.335   0.390   2.462
  477TIP3    H2 1438   2.391   0.387   2.602
  478TIP3   OH2 1439   3.248   2.288   0.644
  478TIP3    H1 1440   3.330   2.326   0.675
  478TIP3    H2 1441   3.238   2.207   0.695
  479TIP3   OH2 1442   4.769   3.851   3.687
  479TIP3    H1 1443   4.769   3.937   3.644
  479TIP3    H2 1444   4.802   3.869   3.776
  480TIP3   OH2 1445   5.205   3.443   2.163
  480TIP3    H1 1446   5.189   3.351   2.142
  480TIP3    H2 1447   5.197   3.448   2.258
  481TIP3   OH2 1448   3.289   3.822   1.818
  481TIP3    H1 1449   3.254   3.785   1.899
  481TIP3    H2 1450   3.372   3.777   1.804
  482TIP3   OH2 1451   2.554   0.714   0.380
  482TIP3    H1 1452   2.537   0.621   0.368
  482TIP3    H2 1453   2.477   0.757   0.342
  483TIP3   OH2 1454   4.280   4.167   1.902
  483TIP3    H1 1455   4.328   4.249   1.898
  483TIP3    H2 1456   4.198   4.189   1.945
  484TIP3   OH2 1457   3.910   1.797   1.322
  484TIP3    H1 1458   3.895   1.887   1.292
  484TIP3    H2 1459   3.955   1.807   1.406
  485TIP3   OH2 1460   2.182   1.956   3.522
  485TIP3    H1 1461   2.132   1.912   3.453
  485TIP3    H2 1462   2.135   2.038   3.537
  486TIP3   OH2 1463   1.044   5.043   0.892
  486TIP3    H1 1464   1.005   4.956   0.900
  486TIP3    H2 1465   0.972   5.101   0.870
  487TIP3   OH2 1466   6.303   1.815   3.632
  487TIP3    H1 1467   6.271   1.883   3.691
  487TIP3    H2 1468   6.286   1.733   3.679
  488TIP3   OH2 1469   3.951   3.831   5.093
  488TIP3    H1 1470   4.025   3.801   5.145
  488TIP3    H2 1471   3.875   3.790   5.135
  489TIP3   OH2 1472   1.879   2.496   2.131
  489TIP3    H1 1473   1.809   2.499   2.066
  489TIP3    H2 1474   1.836   2.474   2.213
  490TIP3   OH2 1475   5.095   4.668   1.968
  490TIP3    H1 1476   5.100   4.761   1.990
  490TIP3    H2 1477   5.052   4.665   1.883
  491TIP3   OH2 1478   4.741   2.084   0.506
  491TIP3    H1 1479   4.658   2.061   0.547
  491TIP3    H2 1480   4.800   2.101   0.579
  492TIP3   OH2 1481   3.851   2.077   4.902
  492TIP3    H1 1482   3.761   2.081   4.870
  492TIP3    H2 1483   3.847   2.017   4.976
  493TIP3   OH2 1484   5.025   5.141   3.732
  493TIP3    H1 1485   5.060   5.216   3.780
  493TIP3    H2 1486   4.952   5.177   3.682
  494TIP3   OH2 1487   0.155   2.785   0.523
  494TIP3    H1 1488   0.092   2.717   0.545
  494TIP3    H2 1489   0.231   2.738   0.489
  495TIP3   OH2 1490   2.236   0.533   1.101
  495TIP3    H1 1491   2.226   0.562   1.011
  495TIP3    H2 1492   2.328   0.506   1.107
  496TIP3   OH2 1493   3.214   5.058   4.606
  496TIP3    H1 1494   3.216   5.145   4.566
  496TIP3    H2 1495   3.188   5.075   4.697
  497TIP3   OH2 1496   4.259   4.044   2.149
  497TIP3    H1 1497   4.173   4.072   2.116
  497TIP3    H2 1498   4.282   3.968   2.095
  498TIP3   OH2 1499   0.282   2.979   4.497
  498TIP3    H1 1500   0.232   2.972   4.579
  498TIP3    H2 1501   0.263   3.068   4.466
  499TIP3   OH2 1502   1.833   2.705   1.867
  499TIP3    H1 1503   1.904   2.686   1.928
  499TIP3    H2 1504   1.877   2.718   1.783
  500TIP3   OH2 1505   0.275   5.257   4.519
  500TIP3    H1 1506   0.225   5.214   4.450
  500TIP3    H2 1507   0.300   5.186   4.578
  501TIP3   OH2 1508   1.385   4.857   4.182
  501TIP3    H1 1509   1.471   4.815   4.188
  501TIP3    H2 1510   1.334   4.800   4.124
  502TIP3   OH2 1511   3.492   5.089   4.472
  502TIP3    H1 1512   3.473   5.110   4.380
  502TIP3    H2 1513   3.456   5.001   4.485
  503TIP3   OH2 1514   0.918   5.919   1.594
  503TIP3    H1 1515   0.876   5.999   1.626
  503TIP3    H2 1516   0.948   5.941   1.506
  504TIP3   OH2 1517   5.344   4.607   0.212
  504TIP3    H1 1518   5.347   4.575   0.302
  504TIP3    H2 1519   5.276   4.675   0.213
  505TIP3   OH2 1520   1.222   5.411   3.525
  505TIP3    H1 1521   1.197   5.414   3.617
  505TIP3    H2 1522   1.161   5.471   3.481
  506TIP3   OH2 1523   0.780   3.032   4.987
  506TIP3    H1 1524   0.724   2.957   5.005
  506TIP3    H2 1525   0.775   3.043   4.892
  507TIP3   OH2 1526   3.748   0.852   4.020
  507TIP3    H1 1527   3.808   0.817   4.086
  507TIP3    H2 1528   3.794   0.839   3.937
  508TIP3   OH2 1529   0.162   2.653   4.906
  508TIP3    H1 1530   0.177   2.570   4.860
  508TIP3    H2 1531   0.200   2.719   4.849
  509TIP3   OH2 1532   3.972   4.737   1.561
  509TIP3    H1 1533   3.897   4.692   1.523
  509TIP3    H2 1534   3.936   4.787   1.634
  510TIP3   OH2 1535   3.929   5.829   0.951
  510TIP3    H1 1536   3.878   5.764   0.998
  510TIP3    H2 1537   4.009   5.838   1.002
  511TIP3   OH2 1538   4.496   2.643   1.378
  511TIP3    H1 1539   4.514   2.671   1.468
  511TIP3    H2 1540   4.406   2.673   1.362
  512TIP3   OH2 1541   4.654   2.564   5.115
  512TIP3    H1 1542   4.681   2.579   5.024
  512TIP3    H2 1543   4.566   2.603   5.120
  513TIP3   OH2 1544   0.739   3.265   0.211
  513TIP3    H1 1545   0.682   3.290   0.284
  513TIP3    H2 1546   0.743   3.344   0.157
  514TIP3   OH2 1547   3.412   3.848   4.336
  514TIP3    H1 1548   3.501   3.814   4.326
  514TIP3    H2 1549   3.357   3.770   4.341
  515TIP3   OH2 1550   1.599   3.670   1.322
  515TIP3    H1 1551   1.542   3.724   1.377
  515TIP3    H2 1552   1.665   3.635   1.381
  516TIP3   OH2 1553   0.492   4.614   0.983
  516TIP3    H1 1554   0.587   4.605   0.993
  516TIP3    H2 1555   0.480   4.642   0.892
  517TIP3   OH2 1556   0.888   4.030   4.140
  517TIP3    H1 1557   0.801   3.990   4.138
  517TIP3    H2 1558   0.871   4.122   4.162
  518TIP3   OH2 1559   5.206   3.893   4.601
  518TIP3    H1 1560   5.292   3.854   4.584
  518TIP3    H2 1561   5.192   3.879   4.695
  519TIP3   OH2 1562   1.283   4.544   2.356
  519TIP3    H1 1563   1.212   4.483   2.373
  519TIP3    H2 1564   1.332   4.547   2.438
  520TIP3   OH2 1565   1.292   0.234   4.161
  520TIP3    H1 1566   1.382   0.222   4.191
  520TIP3    H2 1567   1.300   0.286   4.081
  521TIP3   OH2 1568   2.818   5.531   3.325
  521TIP3    H1 1569   2.767   5.499   3.251
  521TIP3    H2 1570   2.825   5.625   3.310
  522TIP3   OH2 1571   1.558   3.619   0.345
  522TIP3    H1 1572   1.627   3.553   0.354
  522TIP3    H2 1573   1.495   3.597   0.414
  523TIP3   OH2 1574   1.470   4.452   5.084
  523TIP3    H1 1575   1.413   4.499   5.023
  523TIP3    H2 1576   1.418   4.377   5.111
  524TIP3   OH2 1577   0.129   3.398   0.200
  524TIP3    H1 1578   0.224   3.392   0.208
  524TIP3    H2 1579   0.097   3.313   0.229
  525TIP3   OH2 1580   5.710   3.764   2.925
  525TIP3    H1 1581   5.726   3.825   2.852
  525TIP3    H2 1582   5.620   3.783   2.952
  526TIP3   OH2 1583   5.265   2.484   0.353
  526TIP3    H1 1584   5.169   2.489   0.353
  526TIP3    H2 1585   5.285   2.392   0.367
  527TIP3   OH2 1586   2.130   0.850   1.624
  527TIP3    H1 1587   2.140   0.901   1.704
  527TIP3    H2 1588   2.216   0.811   1.609
  528TIP3   OH2 1589   0.263   1.720   0.802
  528TIP3    H1 1590   0.315   1.738   0.880
  528TIP3    H2 1591   0.271   1.625   0.789
  529TIP3   OH2 1592   2.725   0.205   0.649
  529TIP3    H1 1593   2.658   0.257   0.605
  529TIP3    H2 1594   2.750   0.138   0.585
  530TIP3   OH2 1595   0.993   0.986   1.310
  530TIP3    H1 1596   0.940   1.003   1.232
  530TIP3    H2 1597   1.004   1.072   1.351
  531TIP3   OH2 1598   4.934   5.166   0.310
  531TIP3    H1 1599   4.905   5.240   0.363
  531TIP3    H2 1600   4.860   5.106   0.310
  532TIP3   OH2 1601   0.523   4.909   0.432
  532TIP3    H1 1602   0.586   4.939   0.367
  532TIP3    H2 1603   0.517   4.815   0.418
  533TIP3   OH2 1604   5.308   1.958   4.394
  533TIP3    H1 1605   5.391   1.948   4.348
  533TIP3    H2 1606   5.243   1.920   4.334
  534TIP3   OH2 1607   5.792   1.611   1.465
  534TIP3    H1 1608   5.809   1.566   1.548
  534TIP3    H2 1609   5.803   1.543   1.398
  535TIP3   OH2 1610   2.621   0.046   0.834
  535TIP3    H1 1611   2.584  -0.029   0.787
  535TIP3    H2 1612   2.675   0.090   0.769
  536TIP3   OH2 1613   2.581   4.426   2.294
  536TIP3    H1 1614   2.547   4.492   2.353
  536TIP3    H2 1615   2.648   4.380   2.344
  537TIP3   OH2 1616   3.497   5.082   1.989
  537TIP3    H1 1617   3.445   5.033   2.053
  537TIP3    H2 1618   3.502   5.171   2.025
  538TIP3   OH2 1619   2.148   1.655   2.437
  538TIP3    H1 1620   2.146   1.559   2.429
  538TIP3    H2 1621   2.217   1.682   2.376
  539TIP3   OH2 1622   5.535   2.096   2.470
  539TIP3    H1 1623   5.616   2.139   2.442
  539TIP3    H2 1624   5.482   2.167   2.506
  540TIP3   OH2 1625   0.294   1.885   2.487
  540TIP3    H1 1626   0.292   1.915   2.578
  540TIP3    H2 1627   0.226   1.818   2.482
  541TIP3   OH2 1628   3.074   3.756   0.699
  541TIP3    H1 1629   3.147   3.720   0.750
  541TIP3    H2 1630   3.046   3.833   0.749
  542TIP3   OH2 1631   4.654   1.204   4.583
  542TIP3    H1 1632   4.610   1.188   4.666
  542TIP3    H2 1633   4.622   1.135   4.525
  543TIP3   OH2 1634   3.996   5.425   0.799
  543TIP3    H1 1635   4.027   5.445   0.888
  543TIP3    H2 1636   3.965   5.509   0.765
  544TIP3   OH2 1637   0.799   3.168   2.051
  544TIP3    H1 1638   0.710   3.181   2.020
  544TIP3    H2 1639   0.794   3.180   2.145
  545TIP3   OH2 1640   4.508   4.245   3.678
  545TIP3    H1 1641   4.526   4.278   3.766
  545TIP3    H2 1642   4.586   4.268   3.627
  546TIP3   OH2 1643   0.824   4.718   3.877
  546TIP3    H1 1644   0.853   4.691   3.964
  546TIP3    H2 1645   0.787   4.639   3.839
  547TIP3   OH2 1646   5.072   1.508   5.063
  547TIP3    H1 1647   5.114   1.506   5.149
  547TIP3    H2 1648   5.114   1.581   5.017
  548TIP3   OH2 1649   4.925   4.293   4.620
  548TIP3    H1 1650   4.908   4.380   4.585
  548TIP3    H2 1651   4.955   4.241   4.545
  549TIP3   OH2 1652   1.652   0.021   1.019
  549TIP3    H1 1653   1.600  -0.026   0.953
  549TIP3    H2 1654   1.599   0.016   1.099
  550TIP3   OH2 1655   5.479   1.127   1.739
  550TIP3    H1 1656   5.550   1.167   1.789
  550TIP3    H2 1657   5.446   1.057   1.795
  551TIP3   OH2 1658   2.983   0.646   4.647
  551TIP3    H1 1659   2.912   0.668   4.708
  551TIP3    H2 1660   3.045   0.718   4.656
  552TIP3   OH2 1661   0.148   0.945   1.754
  552TIP3    H1 1662   0.221   0.984   1.802
  552TIP3    H2 1663   0.070   0.967   1.805
  553TIP3   OH2 1664   3.151   3.652   4.951
  553TIP3    H1 1665   3.088   3.676   5.018
  553TIP3    H2 1666   3.100   3.603   4.887
  554TIP3   OH2 1667   0.199   2.049   3.909
  554TIP3    H1 1668   0.141   2.101   3.965
  554TIP3    H2 1669   0.260   2.113   3.872
  555TIP3   OH2 1670   0.519   3.877   1.617
  555TIP3    H1 1671   0.429   3.854   1.598
  555TIP3    H2 1672   0.521   3.972   1.612
  556TIP3   OH2 1673   3.135   0.511   0.017
  556TIP3    H1 1674   3.113   0.506   0.110
  556TIP3    H2 1675   3.076   0.449  -0.025
  557TIP3   OH2 1676   0.662   4.227   3.516
  557TIP3    H1 1677   0.700   4.170   3.583
  557TIP3    H2 1678   0.570   4.237   3.542
  558TIP3   OH2 1679   1.838   2.942   3.987
  558TIP3    H1 1680   1.840   2.987   3.903
  558TIP3    H2 1681   1.857   3.010   4.052
  559TIP3   OH2 1682   1.377   4.511   3.080
  559TIP3    H1 1683   1.471   4.526   3.082
  559TIP3    H2 1684   1.346   4.537   3.167
  560TIP3   OH2 1685   5.792   2.665   4.469
  560TIP3    H1 1686   5.739   2.641   4.393
  560TIP3    H2 1687   5.763   2.605   4.538
  561TIP3   OH2 1688   3.979   4.602   2.874
  561TIP3    H1 1689   3.908   4.651   2.915
  561TIP3    H2 1690   3.972   4.514   2.910
  562TIP3   OH2 1691   5.029   0.994   1.249
  562TIP3    H1 1692   5.048   1.086   1.267
  562TIP3    H2 1693   5.108   0.961   1.206
  563TIP3   OH2 1694   2.259   3.979   4.290
  563TIP3    H1 1695   2.165   3.978   4.306
  563TIP3    H2 1696   2.295   4.036   4.358
  564TIP3   OH2 1697   3.491   4.696   0.998
  564TIP3    H1 1698   3.535   4.775   1.031
  564TIP3    H2 1699   3.398   4.712   1.013
  565TIP3   OH2 1700   5.101   1.605   2.810
  565TIP3    H1 1701   5.122   1.656   2.888
  565TIP3    H2 1702   5.087   1.516   2.842
  566TIP3   OH2 1703   5.840   2.863   1.389
  566TIP3    H1 1704   5.932   2.843   1.410
  566TIP3    H2 1705   5.827   2.829   1.301
  567TIP3   OH2 1706   1.922   1.118   0.898
  567TIP3    H1 1707   1.895   1.208   0.919
  567TIP3    H2 1708   1.992   1.099   0.961
  568TIP3   OH2 1709   0.552   0.919   2.348
  568TIP3    H1 1710   0.519   0.842   2.302
  568TIP3    H2 1711   0.476   0.977   2.355
  569TIP3   OH2 1712   3.023   0.579   3.689
  569TIP3    H1 1713   2.929   0.565   3.701
  569TIP3    H2 1714   3.057   0.492   3.667
  570TIP3   OH2 1715   5.631   1.529   3.803
  570TIP3    H1 1716   5.668   1.537   3.715
  570TIP3    H2 1717   5.557   1.590   3.804
  571TIP3   OH2 1718   3.239   4.227   4.696
  571TIP3    H1 1719   3.282   4.160   4.643
  571TIP3    H2 1720   3.207   4.180   4.772
  572TIP3   OH2 1721   5.836   3.731   1.183
  572TIP3    H1 1722   5.914   3.771   1.221
  572TIP3    H2 1723   5.849   3.738   1.089
  573TIP3   OH2 1724   3.005   2.927   0.786
  573TIP3    H1 1725   2.994   2.991   0.715
  573TIP3    H2 1726   3.069   2.967   0.845
  574TIP3   OH2 1727   0.645   1.787   4.853
  574TIP3    H1 1728   0.620   1.728   4.782
  574TIP3    H2 1729   0.732   1.818   4.829
  575TIP3   OH2 1730   2.115   0.291   2.607
  575TIP3    H1 1731   2.117   0.310   2.701
  575TIP3    H2 1732   2.163   0.209   2.598
  576TIP3   OH2 1733   0.034   5.167   0.758
  576TIP3    H1 1734   0.096   5.208   0.698
  576TIP3    H2 1735   0.004   5.089   0.712
  577TIP3   OH2 1736   6.271   2.797   1.224
  577TIP3    H1 1737   6.201   2.792   1.159
  577TIP3    H2 1738   6.226   2.786   1.308
  578TIP3   OH2 1739   1.832   4.124   1.691
  578TIP3    H1 1740   1.813   4.111   1.784
  578TIP3    H2 1741   1.905   4.066   1.673
  579TIP3   OH2 1742   3.076   0.941   0.363
  579TIP3    H1 1743   3.110   0.857   0.333
  579TIP3    H2 1744   3.151   1.000   0.357
  580TIP3   OH2 1745   5.474   2.848   2.844
  580TIP3    H1 1746   5.505   2.758   2.853
  580TIP3    H2 1747   5.380   2.838   2.824
  581TIP3   OH2 1748   4.650   2.377   4.727
  581TIP3    H1 1749   4.651   2.444   4.795
  581TIP3    H2 1750   4.649   2.294   4.776
  582TIP3   OH2 1751   2.882   2.102   0.121
  582TIP3    H1 1752   2.915   2.031   0.177
  582TIP3    H2 1753   2.891   2.181   0.175
  583TIP3   OH2 1754   5.033   3.256   4.564
  583TIP3    H1 1755   5.037   3.223   4.474
  583TIP3    H2 1756   4.980   3.335   4.558
  584TIP3   OH2 1757   2.119   1.326   0.411
  584TIP3    H1 1758   2.184   1.369   0.467
  584TIP3    H2 1759   2.119   1.377   0.330
  585TIP3   OH2 1760   6.339   4.520   3.935
  585TIP3    H1 1761   6.312   4.611   3.917
  585TIP3    H2 1762   6.325   4.509   4.029
  586TIP3   OH2 1763   4.244   4.270   3.993
  586TIP3    H1 1764   4.267   4.194   4.047
  586TIP3    H2 1765   4.327   4.298   3.955
  587TIP3   OH2 1766   0.846   0.458   1.711
  587TIP3    H1 1767   0.825   0.406   1.789
  587TIP3    H2 1768   0.924   0.508   1.735
  588TIP3   OH2 1769   5.464   1.266   1.211
  588TIP3    H1 1770   5.444   1.259   1.304
  588TIP3    H2 1771   5.486   1.358   1.197
  589TIP3   OH2 1772   4.773   0.513   1.878
  589TIP3    H1 1773   4.837   0.447   1.901
  589TIP3    H2 1774   4.801   0.546   1.792
  590TIP3   OH2 1775   4.254   4.559   5.057
  590TIP3    H1 1776   4.300   4.621   5.000
  590TIP3    H2 1777   4.286   4.473   5.031
  591TIP3   OH2 1778   2.972   0.412   1.764
  591TIP3    H1 1779   2.884   0.448   1.756
  591TIP3    H2 1780   3.027   0.487   1.784
  592TIP3   OH2 1781   2.674   5.404   4.204
  592TIP3    H1 1782   2.582   5.387   4.223
  592TIP3    H2 1783   2.688   5.495   4.230
  593TIP3   OH2 1784   0.253   5.901   4.681
  593TIP3    H1 1785   0.192   5.839   4.721
  593TIP3    H2 1786   0.303   5.936   4.755
  594TIP3   OH2 1787   4.006   4.487   0.877
  594TIP3    H1 1788   3.922   4.521   0.845
  594TIP3    H2 1789   4.072   4.529   0.823
  595TIP3   OH2 1790   3.841   4.952   4.958
  595TIP3    H1 1791   3.877   5.036   4.986
  595TIP3    H2 1792   3.833   4.901   5.039
  596TIP3   OH2 1793   6.381   2.590   2.013
  596TIP3    H1 1794   6.362   2.625   2.100
  596TIP3    H2 1795   6.300   2.547   1.986
  597TIP3   OH2 1796   2.029   5.019   4.668
  597TIP3    H1 1797   2.120   5.005   4.644
  597TIP3    H2 1798   1.979   4.980   4.596
  598TIP3   OH2 1799   4.057   4.278   3.255
  598TIP3    H1 1800   4.039   4.258   3.347
  598TIP3    H2 1801   4.048   4.373   3.249
  599TIP3   OH2 1802   4.259   1.165   3.044
  599TIP3    H1 1803   4.165   1.171   3.064
  599TIP3    H2 1804   4.271   1.221   2.967
  600TIP3   OH2 1805   5.007   2.791   1.884
  600TIP3    H1 1806   5.092   2.813   1.846
  600TIP3    H2 1807   4.959   2.874   1.884
  601TIP3   OH2 1808   5.850   1.313   3.875
  601TIP3    H1 1809   5.887   1.302   3.787
  601TIP3    H2 1810   5.777   1.374   3.862
  602TIP3   OH2 1811   0.974   0.535   0.896
  602TIP3    H1 1812   0.970   0.598   0.967
  602TIP3    H2 1813   1.066   0.510   0.891
  603TIP3   OH2 1814   2.932   3.356   4.201
  603TIP3    H1 1815   2.892   3.441   4.180
  603TIP3    H2 1816   3.024   3.376   4.216
  604TIP3   OH2 1817   4.764   2.685   3.172
  604TIP3    H1 1818   4.771   2.695   3.077
  604TIP3    H2 1819   4.673   2.707   3.192
  605TIP3   OH2 1820   0.686   2.690   4.688
  605TIP3    H1 1821   0.718   2.774   4.654
  605TIP3    H2 1822   0.633   2.712   4.764
  606TIP3   OH2 1823   1.661   4.420   2.838
  606TIP3    H1 1824   1.723   4.348   2.849
  606TIP3    H2 1825   1.680   4.480   2.910
  607TIP3   OH2 1826   2.443   4.824   5.103
  607TIP3    H1 1827   2.462   4.895   5.164
  607TIP3    H2 1828   2.350   4.832   5.084
  608TIP3   OH2 1829   3.834   3.166   2.651
  608TIP3    H1 1830   3.781   3.183   2.573
  608TIP3    H2 1831   3.847   3.071   2.651
  609TIP3   OH2 1832   3.931   0.227   2.869
  609TIP3    H1 1833   3.891   0.154   2.916
  609TIP3    H2 1834   3.867   0.251   2.802
  610TIP3   OH2 1835   0.938   5.107   2.531
  610TIP3    H1 1836   0.946   5.043   2.602
  610TIP3    H2 1837   0.927   5.055   2.452
  611TIP3   OH2 1838   5.576   0.311   0.303
  611TIP3    H1 1839   5.652   0.294   0.247
  611TIP3    H2 1840   5.586   0.251   0.376
  612TIP3   OH2 1841   4.026   3.003   0.089
  612TIP3    H1 1842   4.003   3.007   0.182
  612TIP3    H2 1843   4.027   3.094   0.061
  613TIP3   OH2 1844   4.820   0.256   1.676
  613TIP3    H1 1845   4.809   0.183   1.738
  613TIP3    H2 1846   4.731   0.285   1.658
  614TIP3   OH2 1847   3.246   4.635   3.496
  614TIP3    H1 1848   3.242   4.610   3.588
  614TIP3    H2 1849   3.331   4.677   3.485
  615TIP3   OH2 1850   2.843   4.339   2.187
  615TIP3    H1 1851   2.827   4.283   2.263
  615TIP3    H2 1852   2.756   4.355   2.150
  616TIP3   OH2 1853   3.820   5.374   1.139
  616TIP3    H1 1854   3.746   5.405   1.192
  616TIP3    H2 1855   3.826   5.280   1.159
  617TIP3   OH2 1856   2.104   2.258   2.784
  617TIP3    H1 1857   2.039   2.323   2.760
  617TIP3    H2 1858   2.175   2.270   2.722
  618TIP3   OH2 1859   0.950   5.052   3.118
  618TIP3    H1 1860   1.032   5.088   3.153
  618TIP3    H2 1861   0.963   4.957   3.122
  619TIP3   OH2 1862   5.664   5.063   4.055
  619TIP3    H1 1863   5.642   4.999   3.988
  619TIP3    H2 1864   5.581   5.084   4.097
  620TIP3   OH2 1865   5.380   0.836   3.564
  620TIP3    H1 1866   5.342   0.753   3.536
  620TIP3    H2 1867   5.386   0.829   3.660
  621TIP3   OH2 1868   0.034   3.264   0.822
  621TIP3    H1 1869   0.014   3.216   0.902
  621TIP3    H2 1870   0.091   3.205   0.773
  622TIP3   OH2 1871   5.625   0.206   0.596
  622TIP3    H1 1872   5.558   0.155   0.642
  622TIP3    H2 1873   5.642   0.280   0.653
  623TIP3   OH2 1874   4.001   2.601   4.309
  623TIP3    H1 1875   4.068   2.669   4.313
  623TIP3    H2 1876   4.044   2.527   4.268
  624TIP3   OH2 1877   3.076   4.748   4.219
  624TIP3    H1 1878   3.137   4.792   4.277
  624TIP3    H2 1879   2.994   4.743   4.269
  625TIP3   OH2 1880   2.593   3.008   1.870
  625TIP3    H1 1881   2.646   3.045   1.940
  625TIP3    H2 1882   2.541   2.940   1.914
  626TIP3   OH2 1883   0.663   2.101   3.772
  626TIP3    H1 1884   0.739   2.135   3.724
  626TIP3    H2 1885   0.624   2.178   3.813
  627TIP3   OH2 1886   3.884   3.016   3.555
  627TIP3    H1 1887   3.881   2.962   3.634
  627TIP3    H2 1888   3.803   2.995   3.508
  628TIP3   OH2 1889   2.302   0.370   0.756
  628TIP3    H1 1890   2.288   0.355   0.662
  628TIP3    H2 1891   2.393   0.400   0.762
  629TIP3   OH2 1892   0.512   4.349   0.401
  629TIP3    H1 1893   0.520   4.442   0.383
  629TIP3    H2 1894   0.579   4.331   0.468
  630TIP3   OH2 1895   5.599   2.329   3.301
  630TIP3    H1 1896   5.592   2.411   3.252
  630TIP3    H2 1897   5.663   2.278   3.252
  631TIP3   OH2 1898   5.923   1.643   3.607
  631TIP3    H1 1899   5.911   1.732   3.576
  631TIP3    H2 1900   6.002   1.612   3.563
  632TIP3   OH2 1901   4.235   5.070   2.757
  632TIP3    H1 1902   4.315   5.019   2.754
  632TIP3    H2 1903   4.180   5.025   2.821
  633TIP3   OH2 1904   5.351   3.217   0.719
  633TIP3    H1 1905   5.441   3.248   0.725
  633TIP3    H2 1906   5.357   3.133   0.674
  634TIP3   OH2 1907   3.852   2.166   0.718
  634TIP3    H1 1908   3.820   2.140   0.632
  634TIP3    H2 1909   3.823   2.257   0.728
  635TIP3   OH2 1910   3.905   3.617   0.499
  635TIP3    H1 1911   3.834   3.557   0.474
  635TIP3    H2 1912   3.869   3.667   0.572
  636TIP3   OH2 1913   3.679   1.762   0.789
  636TIP3    H1 1914   3.727   1.839   0.819
  636TIP3    H2 1915   3.652   1.717   0.869
  637TIP3   OH2 1916   0.700   3.331   5.024
  637TIP3    H1 1917   0.777   3.276   5.011
  637TIP3    H2 1918   0.627   3.279   4.992
  638TIP3   OH2 1919   4.588   3.923   4.748
  638TIP3    H1 1920   4.669   3.892   4.708
  638TIP3    H2 1921   4.536   3.955   4.675
  639TIP3   OH2 1922   2.978   3.280   1.703
  639TIP3    H1 1923   3.064   3.285   1.662
  639TIP3    H2 1924   2.945   3.193   1.683
  640TIP3   OH2 1925   0.720   2.341   0.047
  640TIP3    H1 1926   0.654   2.312  -0.015
  640TIP3    H2 1927   0.772   2.405  -0.001
  641TIP3   OH2 1928   5.563   0.383   4.712
  641TIP3    H1 1929   5.567   0.472   4.747
  641TIP3    H2 1930   5.474   0.354   4.732
  642TIP3   OH2 1931   4.658   1.294   5.075
  642TIP3    H1 1932   4.616   1.334   4.998
  642TIP3    H2 1933   4.703   1.217   5.041
  643TIP3   OH2 1934   6.144   1.161   1.637
  643TIP3    H1 1935   6.134   1.067   1.655
  643TIP3    H2 1936   6.078   1.180   1.570
  644TIP3   OH2 1937   1.306   4.424   0.036
  644TIP3    H1 1938   1.298   4.514   0.005
  644TIP3    H2 1939   1.360   4.430   0.114
  645TIP3   OH2 1940   4.245   2.873   0.822
  645TIP3    H1 1941   4.155   2.862   0.793
  645TIP3    H2 1942   4.265   2.793   0.871
  646TIP3   OH2 1943   5.522   4.522   3.227
  646TIP3    H1 1944   5.488   4.533   3.316
  646TIP3    H2 1945   5.465   4.577   3.173
  647TIP3   OH2 1946   2.928   1.044   4.417
  647TIP3    H1 1947   2.908   0.953   4.394
  647TIP3    H2 1948   2.844   1.088   4.415
  648TIP3   OH2 1949   0.032   4.611   0.653
  648TIP3    H1 1950   0.095   4.557   0.606
  648TIP3    H2 1951  -0.009   4.665   0.585
  649TIP3   OH2 1952   1.332   3.323   1.996
  649TIP3    H1 1953   1.385   3.400   1.979
  649TIP3    H2 1954   1.279   3.312   1.917
  650TIP3   OH2 1955   5.951   1.358   1.518
  650TIP3    H1 1956   5.907   1.391   1.597
  650TIP3    H2 1957   6.031   1.409   1.512
  651TIP3   OH2 1958   5.885   5.628   2.050
  651TIP3    H1 1959   5.833   5.586   2.118
  651TIP3    H2 1960   5.880   5.568   1.975
  652TIP3   OH2 1961   4.436   1.586   3.842
  652TIP3    H1 1962   4.424   1.641   3.765
  652TIP3    H2 1963   4.529   1.565   3.844
  653TIP3   OH2 1964   1.895   2.284   4.208
  653TIP3    H1 1965   1.807   2.319   4.219
  653TIP3    H2 1966   1.950   2.338   4.264
  654TIP3   OH2 1967   2.895   5.834   2.101
  654TIP3    H1 1968   2.841   5.771   2.054
  654TIP3    H2 1969   2.832   5.891   2.146
  655TIP3   OH2 1970   4.734   4.805   2.062
  655TIP3    H1 1971   4.782   4.729   2.096
  655TIP3    H2 1972   4.798   4.876   2.064
  656TIP3   OH2 1973   5.338   5.031   0.312
  656TIP3    H1 1974   5.342   5.006   0.404
  656TIP3    H2 1975   5.430   5.038   0.285
  657TIP3   OH2 1976   4.178   1.722   1.851
  657TIP3    H1 1977   4.230   1.642   1.845
  657TIP3    H2 1978   4.237   1.786   1.890
  658TIP3   OH2 1979   5.105   4.547   0.021
  658TIP3    H1 1980   5.183   4.546  -0.036
  658TIP3    H2 1981   5.076   4.638   0.019
  659TIP3   OH2 1982   5.054   0.991   0.661
  659TIP3    H1 1983   5.011   1.034   0.735
  659TIP3    H2 1984   5.148   0.999   0.679
  660TIP3   OH2 1985   4.777   2.612   1.610
  660TIP3    H1 1986   4.832   2.534   1.607
  660TIP3    H2 1987   4.718   2.602   1.534
  661TIP3   OH2 1988   3.716   5.084   0.887
  661TIP3    H1 1989   3.692   5.177   0.885
  661TIP3    H2 1990   3.801   5.079   0.843
  662TIP3   OH2 1991   5.221   1.353   4.781
  662TIP3    H1 1992   5.191   1.274   4.825
  662TIP3    H2 1993   5.237   1.326   4.690
  663TIP3   OH2 1994   2.936   4.330   1.543
  663TIP3    H1 1995   2.942   4.248   1.495
  663TIP3    H2 1996   2.927   4.397   1.475
  664TIP3   OH2 1997   1.923   1.952   0.898
  664TIP3    H1 1998   1.875   2.011   0.839
  664TIP3    H2 1999   1.898   1.982   0.986
  665TIP3   OH2 2000   5.371   0.912   1.881
  665TIP3    H1 2001   5.368   0.860   1.962
  665TIP3    H2 2002   5.379   0.846   1.811
  666TIP3   OH2 2003   4.063   3.833   3.498
  666TIP3    H1 2004   4.088   3.843   3.406
  666TIP3    H2 2005   3.978   3.876   3.504
  667TIP3   OH2 2006   1.314   0.771   3.355
  667TIP3    H1 2007   1.312   0.772   3.259
  667TIP3    H2 2008   1.307   0.863   3.380
  668TIP3   OH2 2009   0.097   3.469   3.924
  668TIP3    H1 2010   0.094   3.374   3.923
  668TIP3    H2 2011   0.190   3.490   3.923
  669TIP3   OH2 2012   1.771   4.891   4.846
  669TIP3    H1 2013   1.695   4.929   4.803
  669TIP3    H2 2014   1.812   4.837   4.778
  670TIP3   OH2 2015   2.242   4.051   2.422
  670TIP3    H1 2016   2.223   4.067   2.330
  670TIP3    H2 2017   2.158   4.021   2.459
  671TIP3   OH2 2018   2.929   4.033   1.488
  671TIP3    H1 2019   2.870   3.985   1.547
  671TIP3    H2 2020   3.012   3.986   1.493
  672TIP3   OH2 2021   2.377   0.272   4.664
  672TIP3    H1 2022   2.461   0.266   4.710
  672TIP3    H2 2023   2.313   0.236   4.725
  673TIP3   OH2 2024   1.772   2.407   3.049
  673TIP3    H1 2025   1.685   2.414   3.010
  673TIP3    H2 2026   1.805   2.322   3.019
  674TIP3   OH2 2027   3.648   0.260   0.117
  674TIP3    H1 2028   3.698   0.286   0.194
  674TIP3    H2 2029   3.710   0.270   0.044
  675TIP3   OH2 2030   4.780   1.514   0.612
  675TIP3    H1 2031   4.713   1.449   0.632
  675TIP3    H2 2032   4.730   1.590   0.581
  676TIP3   OH2 2033   1.504   0.468   4.217
  676TIP3    H1 2034   1.577   0.491   4.273
  676TIP3    H2 2035   1.531   0.386   4.175
  677TIP3   OH2 2036   0.570   4.590   2.974
  677TIP3    H1 2037   0.510   4.619   2.906
  677TIP3    H2 2038   0.653   4.633   2.953
  678TIP3   OH2 2039   4.436   4.310   2.722
  678TIP3    H1 2040   4.445   4.254   2.799
  678TIP3    H2 2041   4.401   4.392   2.756
  679TIP3   OH2 2042   1.914   4.817   0.377
  679TIP3    H1 2043   1.970   4.760   0.430
  679TIP3    H2 2044   1.943   4.803   0.287
  680TIP3   OH2 2045   6.157   2.569   3.297
  680TIP3    H1 2046   6.194   2.614   3.221
  680TIP3    H2 2047   6.066   2.551   3.272
  681TIP3   OH2 2048   1.265   0.121   2.724
  681TIP3    H1 2049   1.342   0.097   2.672
  681TIP3    H2 2050   1.289   0.204   2.765
  682TIP3   OH2 2051   0.140   0.550   3.673
  682TIP3    H1 2052   0.195   0.489   3.723
  682TIP3    H2 2053   0.110   0.614   3.737
  683TIP3   OH2 2054   2.594   2.430   3.614
  683TIP3    H1 2055   2.544   2.439   3.533
  683TIP3    H2 2056   2.685   2.438   3.588
  684TIP3   OH2 2057   1.282   3.527   2.473
  684TIP3    H1 2058   1.256   3.468   2.544
  684TIP3    H2 2059   1.373   3.504   2.455
  685TIP3   OH2 2060   3.197   5.125   4.219
  685TIP3    H1 2061   3.268   5.158   4.165
  685TIP3    H2 2062   3.145   5.203   4.240
  686TIP3   OH2 2063   4.770   1.862   0.048
  686TIP3    H1 2064   4.796   1.824   0.132
  686TIP3    H2 2065   4.784   1.956   0.059
  687TIP3   OH2 2066   4.710   3.418   2.097
  687TIP3    H1 2067   4.654   3.481   2.140
  687TIP3    H2 2068   4.771   3.389   2.165
  688TIP3   OH2 2069   2.571   4.165   3.039
  688TIP3    H1 2070   2.494   4.136   3.088
  688TIP3    H2 2071   2.542   4.243   2.993
  689TIP3   OH2 2072   1.349   1.374   0.643
  689TIP3    H1 2073   1.366   1.413   0.557
  689TIP3    H2 2074   1.407   1.422   0.703
  690TIP3   OH2 2075   5.678   3.144   0.215
  690TIP3    H1 2076   5.699   3.207   0.147
  690TIP3    H2 2077   5.763   3.114   0.248
  691TIP3   OH2 2078   0.128   4.350   1.565
  691TIP3    H1 2079   0.073   4.426   1.544
  691TIP3    H2 2080   0.170   4.328   1.482
  692TIP3   OH2 2081   0.141   3.786   2.635
  692TIP3    H1 2082   0.086   3.755   2.563
  692TIP3    H2 2083   0.209   3.719   2.644
  693TIP3   OH2 2084   2.956   3.502   1.901
  693TIP3    H1 2085   2.977   3.585   1.857
  693TIP3    H2 2086   2.985   3.435   1.839
  694TIP3   OH2 2087   0.713   1.078   2.521
  694TIP3    H1 2088   0.804   1.049   2.522
  694TIP3    H2 2089   0.665   1.007   2.476
  695TIP3   OH2 2090   2.472   0.673   0.970
  695TIP3    H1 2091   2.524   0.599   0.939
  695TIP3    H2 2092   2.387   0.662   0.927
  696TIP3   OH2 2093   0.253   2.151   3.032
  696TIP3    H1 2094   0.278   2.115   2.947
  696TIP3    H2 2095   0.243   2.074   3.088
  697TIP3   OH2 2096   0.079   2.195   2.662
  697TIP3    H1 2097   0.099   2.256   2.592
  697TIP3    H2 2098   0.149   2.130   2.658
  698TIP3   OH2 2099   6.209   4.048   3.412
  698TIP3    H1 2100   6.272   4.041   3.483
  698TIP3    H2 2101   6.126   4.071   3.454
  699TIP3   OH2 2102   5.968   0.882   0.234
  699TIP3    H1 2103   5.946   0.956   0.290
  699TIP3    H2 2104   5.927   0.806   0.277
  700TIP3   OH2 2105   0.353   2.667   2.472
  700TIP3    H1 2106   0.265   2.630   2.469
  700TIP3    H2 2107   0.343   2.749   2.521
  701TIP3   OH2 2108   2.834   0.561   0.606
  701TIP3    H1 2109   2.837   0.491   0.540
  701TIP3    H2 2110   2.811   0.516   0.687
  702TIP3   OH2 2111   2.687   1.995   3.507
  702TIP3    H1 2112   2.613   1.935   3.508
  702TIP3    H2 2113   2.684   2.040   3.591
  703TIP3   OH2 2114   4.787   4.225   1.459
  703TIP3    H1 2115   4.711   4.228   1.517
  703TIP3    H2 2116   4.826   4.139   1.474
  704TIP3   OH2 2117   5.299   5.610   2.516
  704TIP3    H1 2118   5.286   5.702   2.493
  704TIP3    H2 2119   5.309   5.565   2.431
  705TIP3   OH2 2120   4.562   4.983   3.129
  705TIP3    H1 2121   4.643   4.948   3.166
  705TIP3    H2 2122   4.591   5.037   3.055
  706TIP3   OH2 2123   2.434   5.194   3.014
  706TIP3    H1 2124   2.465   5.147   2.937
  706TIP3    H2 2125   2.501   5.261   3.030
  707TIP3   OH2 2126   3.651   2.755   1.951
  707TIP3    H1 2127   3.697   2.708   2.020
  707TIP3    H2 2128   3.563   2.718   1.950
  708TIP3   OH2 2129   3.369   1.665   1.659
  708TIP3    H1 2130   3.339   1.747   1.620
  708TIP3    H2 2131   3.325   1.661   1.743
  709TIP3   OH2 2132   3.093   1.459   0.540
  709TIP3    H1 2133   3.168   1.404   0.560
  709TIP3    H2 2134   3.057   1.422   0.459
  710TIP3   OH2 2135   1.634   2.972   0.455
  710TIP3    H1 2136   1.588   3.047   0.417
  710TIP3    H2 2137   1.724   2.981   0.423
  711TIP3   OH2 2138   5.973   0.667   2.153
  711TIP3    H1 2139   5.967   0.701   2.242
  711TIP3    H2 2140   6.015   0.737   2.103
  712TIP3   OH2 2141   5.421   5.829   0.646
  712TIP3    H1 2142   5.440   5.913   0.689
  712TIP3    H2 2143   5.499   5.811   0.594
  713TIP3   OH2 2144   3.580   4.204   0.355
  713TIP3    H1 2145   3.487   4.222   0.345
  713TIP3    H2 2146   3.595   4.125   0.303
  714TIP3   OH2 2147   4.229   5.381   4.674
  714TIP3    H1 2148   4.307   5.432   4.695
  714TIP3    H2 2149   4.159   5.423   4.723
  715TIP3   OH2 2150   5.006   3.326   1.635
  715TIP3    H1 2151   5.026   3.245   1.589
  715TIP3    H2 2152   4.923   3.356   1.597
  716TIP3   OH2 2153   0.201   2.698   1.843
  716TIP3    H1 2154   0.134   2.678   1.908
  716TIP3    H2 2155   0.192   2.629   1.777
  717TIP3   OH2 2156   5.755   1.470   1.147
  717TIP3    H1 2157   5.799   1.393   1.182
  717TIP3    H2 2158   5.780   1.473   1.055
  718TIP3   OH2 2159   4.310   4.630   3.581
  718TIP3    H1 2160   4.354   4.705   3.541
  718TIP3    H2 2161   4.316   4.560   3.516
  719TIP3   OH2 2162   2.694   2.918   3.883
  719TIP3    H1 2163   2.614   2.920   3.935
  719TIP3    H2 2164   2.699   3.005   3.843
  720TIP3   OH2 2165  -0.007   1.985   2.874
  720TIP3    H1 2166   0.067   2.001   2.814
  720TIP3    H2 2167  -0.007   1.890   2.887
  721TIP3   OH2 2168   2.174   2.075   0.513
  721TIP3    H1 2169   2.166   1.983   0.536
  721TIP3    H2 2170   2.259   2.101   0.549
  722TIP3   OH2 2171   5.463   2.803   3.175
  722TIP3    H1 2172   5.474   2.894   3.149
  722TIP3    H2 2173   5.380   2.801   3.222
  723TIP3   OH2 2174   0.504   5.735   2.538
  723TIP3    H1 2175   0.542   5.649   2.557
  723TIP3    H2 2176   0.444   5.718   2.465
  724TIP3   OH2 2177   3.804   4.262   4.174
  724TIP3    H1 2178   3.869   4.332   4.171
  724TIP3    H2 2179   3.732   4.294   4.118
  725TIP3   OH2 2180   2.497   2.961   0.437
  725TIP3    H1 2181   2.549   2.931   0.363
  725TIP3    H2 2182   2.415   2.912   0.430
  726TIP3   OH2 2183   1.630   4.126   0.153
  726TIP3    H1 2184   1.706   4.179   0.128
  726TIP3    H2 2185   1.562   4.149   0.090
  727TIP3   OH2 2186   4.279   1.378   1.695
  727TIP3    H1 2187   4.334   1.440   1.741
  727TIP3    H2 2188   4.251   1.424   1.616
  728TIP3   OH2 2189   0.493   0.316   3.551
  728TIP3    H1 2190   0.585   0.292   3.542
  728TIP3    H2 2191   0.484   0.398   3.503
  729TIP3   OH2 2192   3.758   2.622   2.159
  729TIP3    H1 2193   3.839   2.579   2.190
  729TIP3    H2 2194   3.747   2.697   2.217
  730TIP3   OH2 2195   2.797   0.793   5.054
  730TIP3    H1 2196   2.869   0.833   5.004
  730TIP3    H2 2197   2.719   0.839   5.023
  731TIP3   OH2 2198   6.203   1.825   1.712
  731TIP3    H1 2199   6.281   1.770   1.721
  731TIP3    H2 2200   6.233   1.914   1.734
  732TIP3   OH2 2201   3.537   1.187   4.817
  732TIP3    H1 2202   3.592   1.253   4.776
  732TIP3    H2 2203   3.472   1.165   4.749
  733TIP3   OH2 2204   5.681   5.018   0.510
  733TIP3    H1 2205   5.762   4.967   0.500
  733TIP3    H2 2206   5.611   4.953   0.506
  734TIP3   OH2 2207   3.101   2.050   5.144
  734TIP3    H1 2208   3.176   2.083   5.193
  734TIP3    H2 2209   3.025   2.089   5.188
  735TIP3   OH2 2210   1.686   0.381   0.680
  735TIP3    H1 2211   1.727   0.334   0.753
  735TIP3    H2 2212   1.739   0.357   0.604
  736TIP3   OH2 2213   4.823   1.267   3.963
  736TIP3    H1 2214   4.833   1.175   3.990
  736TIP3    H2 2215   4.743   1.267   3.911
  737TIP3   OH2 2216   4.358   5.999   4.242
  737TIP3    H1 2217   4.290   5.982   4.177
  737TIP3    H2 2218   4.318   5.972   4.325
  738TIP3   OH2 2219   1.973   1.497   4.093
  738TIP3    H1 2220   1.915   1.498   4.017
  738TIP3    H2 2221   1.988   1.405   4.111
  739TIP3   OH2 2222   2.219   4.943   4.329
  739TIP3    H1 2223   2.138   4.894   4.324
  739TIP3    H2 2224   2.288   4.879   4.309
  740TIP3   OH2 2225   2.130   4.764   4.773
  740TIP3    H1 2226   2.113   4.735   4.863
  740TIP3    H2 2227   2.044   4.764   4.732
  741TIP3   OH2 2228   2.022   4.004   3.477
  741TIP3    H1 2229   1.988   4.092   3.459
  741TIP3    H2 2230   2.015   3.958   3.394
  742TIP3   OH2 2231   0.319   3.520   0.923
  742TIP3    H1 2232   0.333   3.426   0.933
  742TIP3    H2 2233   0.329   3.535   0.829
  743TIP3   OH2 2234   4.969   0.606   0.933
  743TIP3    H1 2235   4.977   0.700   0.916
  743TIP3    H2 2236   5.018   0.565   0.862
  744TIP3   OH2 2237   2.924   5.603   4.423
  744TIP3    H1 2238   2.870   5.579   4.498
  744TIP3    H2 2239   2.862   5.615   4.351
  745TIP3   OH2 2240   6.184   3.236   1.655
  745TIP3    H1 2241   6.118   3.300   1.681
  745TIP3    H2 2242   6.247   3.236   1.727
  746TIP3   OH2 2243   1.440   1.059   0.276
  746TIP3    H1 2244   1.426   0.973   0.315
  746TIP3    H2 2245   1.475   1.112   0.347
  747TIP3   OH2 2246   3.620   4.916   1.090
  747TIP3    H1 2247   3.585   4.963   1.165
  747TIP3    H2 2248   3.640   4.984   1.026
  748TIP3   OH2 2249   3.062   3.090   1.317
  748TIP3    H1 2250   2.995   3.092   1.249
  748TIP3    H2 2251   3.082   2.997   1.327
  749TIP3   OH2 2252   2.359   1.960   2.439
  749TIP3    H1 2253   2.438   1.998   2.478
  749TIP3    H2 2254   2.303   1.940   2.514
  750TIP3   OH2 2255   3.328   5.283   2.560
  750TIP3    H1 2256   3.251   5.323   2.520
  750TIP3    H2 2257   3.356   5.346   2.627
  751TIP3   OH2 2258   4.023   4.590   3.311
  751TIP3    H1 2259   4.000   4.653   3.243
  751TIP3    H2 2260   3.941   4.574   3.358
  752TIP3   OH2 2261   4.482   3.878   0.136
  752TIP3    H1 2262   4.392   3.907   0.123
  752TIP3    H2 2263   4.478   3.819   0.211
  753TIP3   OH2 2264   4.047   5.545   2.064
  753TIP3    H1 2265   4.092   5.466   2.093
  753TIP3    H2 2266   4.052   5.542   1.968
  754TIP3   OH2 2267   2.501   5.768   4.689
  754TIP3    H1 2268   2.493   5.766   4.784
  754TIP3    H2 2269   2.459   5.687   4.659
  755TIP3   OH2 2270   2.896   5.857   2.911
  755TIP3    H1 2271   2.886   5.901   2.827
  755TIP3    H2 2272   2.948   5.779   2.891
  756TIP3   OH2 2273   1.788   4.836   2.930
  756TIP3    H1 2274   1.743   4.910   2.891
  756TIP3    H2 2275   1.874   4.871   2.956
  757TIP3   OH2 2276   1.380   4.276   1.496
  757TIP3    H1 2277   1.382   4.232   1.581
  757TIP3    H2 2278   1.288   4.294   1.480
  758TIP3   OH2 2279   2.584   5.571   1.640
  758TIP3    H1 2280   2.578   5.476   1.634
  758TIP3    H2 2281   2.642   5.587   1.714
  759TIP3   OH2 2282   2.312   2.502   4.472
  759TIP3    H1 2283   2.376   2.447   4.427
  759TIP3    H2 2284   2.301   2.578   4.414
  760TIP3   OH2 2285   0.682   0.175   1.602
  760TIP3    H1 2286   0.736   0.153   1.678
  760TIP3    H2 2287   0.598   0.133   1.619
  761TIP3   OH2 2288   0.045   4.817   0.108
  761TIP3    H1 2289   0.006   4.755   0.169
  761TIP3    H2 2290  -0.018   4.888   0.101
  762TIP3   OH2 2291   0.139   2.485   0.534
  762TIP3    H1 2292   0.231   2.471   0.510
  762TIP3    H2 2293   0.126   2.429   0.611
  763TIP3   OH2 2294   0.967   2.724   1.056
  763TIP3    H1 2295   0.886   2.773   1.046
  763TIP3    H2 2296   1.033   2.779   1.013
  764TIP3   OH2 2297   0.248   3.633   1.274
  764TIP3    H1 2298   0.243   3.542   1.302
  764TIP3    H2 2299   0.341   3.655   1.279
  765TIP3   OH2 2300   5.599   0.545   3.277
  765TIP3    H1 2301   5.645   0.590   3.206
  765TIP3    H2 2302   5.531   0.494   3.233
  766TIP3   OH2 2303   1.035   1.115   4.589
  766TIP3    H1 2304   1.065   1.032   4.627
  766TIP3    H2 2305   0.980   1.089   4.515
  767TIP3   OH2 2306   3.649   2.262   3.534
  767TIP3    H1 2307   3.584   2.309   3.587
  767TIP3    H2 2308   3.675   2.188   3.589
  768TIP3   OH2 2309   1.055   0.191   3.192
  768TIP3    H1 2310   1.142   0.159   3.214
  768TIP3    H2 2311   1.057   0.200   3.096
  769TIP3   OH2 2312   3.619   5.409   2.185
  769TIP3    H1 2313   3.678   5.343   2.148
  769TIP3    H2 2314   3.672   5.488   2.192
  770TIP3   OH2 2315   0.688   1.308   2.361
  770TIP3    H1 2316   0.761   1.367   2.345
  770TIP3    H2 2317   0.729   1.223   2.376
  771TIP3   OH2 2318   0.580   0.418   1.267
  771TIP3    H1 2319   0.524   0.496   1.270
  771TIP3    H2 2320   0.643   0.437   1.197
  772TIP3   OH2 2321   2.210   3.353   3.173
  772TIP3    H1 2322   2.213   3.257   3.171
  772TIP3    H2 2323   2.135   3.376   3.118
  773TIP3   OH2 2324   6.373   5.955   3.576
  773TIP3    H1 2325   6.383   5.881   3.516
  773TIP3    H2 2326   6.279   5.957   3.595
  774TIP3   OH2 2327   4.903   3.125   2.277
  774TIP3    H1 2328   4.892   3.220   2.277
  774TIP3    H2 2329   4.919   3.102   2.369
  775TIP3   OH2 2330   3.570   4.022   2.732
  775TIP3    H1 2331   3.546   3.975   2.812
  775TIP3    H2 2332   3.568   3.954   2.664
  776TIP3   OH2 2333   1.157   0.460   1.597
  776TIP3    H1 2334   1.102   0.400   1.647
  776TIP3    H2 2335   1.241   0.414   1.590
  777TIP3   OH2 2336   0.451   0.737   1.999
  777TIP3    H1 2337   0.406   0.688   1.931
  777TIP3    H2 2338   0.484   0.671   2.060
  778TIP3   OH2 2339   0.227  -0.009   3.262
  778TIP3    H1 2340   0.303  -0.020   3.205
  778TIP3    H2 2341   0.258   0.050   3.331
  779TIP3   OH2 2342   0.452   3.781   4.706
  779TIP3    H1 2343   0.410   3.817   4.785
  779TIP3    H2 2344   0.542   3.762   4.733
  780TIP3   OH2 2345   5.632   0.772   1.856
  780TIP3    H1 2346   5.722   0.780   1.822
  780TIP3    H2 2347   5.577   0.774   1.778
  781TIP3   OH2 2348   1.147   3.992   2.682
  781TIP3    H1 2349   1.079   4.059   2.690
  781TIP3    H2 2350   1.200   4.002   2.761
  782TIP3   OH2 2351   3.905   1.614   1.871
  782TIP3    H1 2352   3.923   1.691   1.925
  782TIP3    H2 2353   3.830   1.640   1.817
  783TIP3   OH2 2354   3.377   3.383   2.535
  783TIP3    H1 2355   3.301   3.435   2.510
  783TIP3    H2 2356   3.432   3.382   2.456
  784TIP3   OH2 2357   1.848   2.919   2.641
  784TIP3    H1 2358   1.925   2.900   2.587
  784TIP3    H2 2359   1.795   2.840   2.636
  785TIP3   OH2 2360   0.822   0.115   4.724
  785TIP3    H1 2361   0.839   0.076   4.810
  785TIP3    H2 2362   0.746   0.172   4.739
  786TIP3   OH2 2363   1.109   5.845   0.987
  786TIP3    H1 2364   1.017   5.822   0.974
  786TIP3    H2 2365   1.107   5.936   1.016
  787TIP3   OH2 2366   6.317   0.210   0.606
  787TIP3    H1 2367   6.338   0.267   0.679
  787TIP3    H2 2368   6.401   0.194   0.563
  788TIP3   OH2 2369   3.236   4.708   5.164
  788TIP3    H1 2370   3.201   4.791   5.196
  788TIP3    H2 2371   3.247   4.722   5.070
  789TIP3   OH2 2372   4.936   5.013   2.926
  789TIP3    H1 2373   4.927   4.936   2.870
  789TIP3    H2 2374   4.891   5.083   2.880
  790TIP3   OH2 2375   2.661   4.308   2.644
  790TIP3    H1 2376   2.604   4.367   2.693
  790TIP3    H2 2377   2.618   4.222   2.651
  791TIP3   OH2 2378   4.402   1.538   0.363
  791TIP3    H1 2379   4.400   1.443   0.372
  791TIP3    H2 2380   4.490   1.557   0.329
  792TIP3   OH2 2381   6.229   1.800   4.722
  792TIP3    H1 2382   6.312   1.842   4.699
  792TIP3    H2 2383   6.245   1.758   4.806
  793TIP3   OH2 2384   1.271   2.842   0.573
  793TIP3    H1 2385   1.357   2.855   0.612
  793TIP3    H2 2386   1.263   2.911   0.508
  794TIP3   OH2 2387   3.627   4.625   3.178
  794TIP3    H1 2388   3.625   4.683   3.254
  794TIP3    H2 2389   3.654   4.681   3.106
  795TIP3   OH2 2390   2.411   1.686   0.687
  795TIP3    H1 2391   2.468   1.611   0.670
  795TIP3    H2 2392   2.469   1.751   0.728
  796TIP3   OH2 2393   1.400   5.170   3.954
  796TIP3    H1 2394   1.425   5.244   3.899
  796TIP3    H2 2395   1.426   5.093   3.903
  797TIP3   OH2 2396   3.113   5.232   1.529
  797TIP3    H1 2397   3.078   5.159   1.581
  797TIP3    H2 2398   3.035   5.276   1.495
  798TIP3   OH2 2399   1.530   0.732   3.174
  798TIP3    H1 2400   1.617   0.769   3.160
  798TIP3    H2 2401   1.472   0.786   3.120
  799TIP3   OH2 2402   2.885   4.969   1.105
  799TIP3    H1 2403   2.819   4.916   1.060
  799TIP3    H2 2404   2.863   5.059   1.080
  800TIP3   OH2 2405   6.333   4.015   5.041
  800TIP3    H1 2406   6.250   4.058   5.023
  800TIP3    H2 2407   6.322   3.926   5.006
  801TIP3   OH2 2408   2.841   2.404   0.029
  801TIP3    H1 2409   2.879   2.342  -0.033
  801TIP3    H2 2410   2.916   2.449   0.067
  802TIP3   OH2 2411   4.652   2.097   1.558
  802TIP3    H1 2412   4.692   2.129   1.638
  802TIP3    H2 2413   4.585   2.035   1.587
  803TIP3   OH2 2414   3.802   2.712   0.647
  803TIP3    H1 2415   3.849   2.731   0.565
  803TIP3    H2 2416   3.869   2.721   0.715
  804TIP3   OH2 2417   1.551   4.868   1.251
  804TIP3    H1 2418   1.493   4.831   1.317
  804TIP3    H2 2419   1.496   4.881   1.174
  805TIP3   OH2 2420   1.068   4.256   1.059
  805TIP3    H1 2421   1.119   4.222   0.985
  805TIP3    H2 2422   1.129   4.314   1.105
  806TIP3   OH2 2423   5.312   2.248   2.055
  806TIP3    H1 2424   5.300   2.208   2.141
  806TIP3    H2 2425   5.237   2.307   2.045
  807TIP3   OH2 2426   5.237   2.758   0.442
  807TIP3    H1 2427   5.149   2.723   0.429
  807TIP3    H2 2428   5.292   2.680   0.448
  808TIP3   OH2 2429   1.488   2.109   2.724
  808TIP3    H1 2430   1.421   2.176   2.712
  808TIP3    H2 2431   1.513   2.116   2.816
  809TIP3   OH2 2432   5.414   5.933   5.004
  809TIP3    H1 2433   5.461   6.016   5.002
  809TIP3    H2 2434   5.480   5.867   4.982
  810TIP3   OH2 2435   2.782   2.242   3.217
  810TIP3    H1 2436   2.840   2.241   3.140
  810TIP3    H2 2437   2.726   2.165   3.206
  811TIP3   OH2 2438   6.110   2.350   1.230
  811TIP3    H1 2439   6.052   2.302   1.172
  811TIP3    H2 2440   6.123   2.292   1.305
  812TIP3   OH2 2441   3.107   2.946   1.609
  812TIP3    H1 2442   3.147   2.876   1.558
  812TIP3    H2 2443   3.128   2.926   1.700
  813TIP3   OH2 2444   3.979   5.527   2.828
  813TIP3    H1 2445   4.016   5.445   2.795
  813TIP3    H2 2446   4.050   5.590   2.820
  814TIP3   OH2 2447   0.827   2.932   4.003
  814TIP3    H1 2448   0.872   2.857   3.964
  814TIP3    H2 2449   0.855   3.007   3.951
  815TIP3   OH2 2450   0.646   0.337   2.755
  815TIP3    H1 2451   0.658   0.246   2.783
  815TIP3    H2 2452   0.552   0.351   2.757
  816TIP3   OH2 2453   1.682   1.502   5.008
  816TIP3    H1 2454   1.690   1.592   5.039
  816TIP3    H2 2455   1.722   1.449   5.077
  817TIP3   OH2 2456   4.482   5.053   0.585
  817TIP3    H1 2457   4.462   5.147   0.591
  817TIP3    H2 2458   4.570   5.045   0.620
  818TIP3   OH2 2459   6.160   0.248   0.294
  818TIP3    H1 2460   6.142   0.295   0.375
  818TIP3    H2 2461   6.255   0.245   0.288
  819TIP3   OH2 2462   4.682   3.498   3.022
  819TIP3    H1 2463   4.624   3.454   3.085
  819TIP3    H2 2464   4.745   3.545   3.077
  820TIP3   OH2 2465   0.711   4.276   4.158
  820TIP3    H1 2466   0.635   4.229   4.192
  820TIP3    H2 2467   0.743   4.328   4.232
  821TIP3   OH2 2468   6.206   1.173   4.669
  821TIP3    H1 2469   6.155   1.198   4.592
  821TIP3    H2 2470   6.211   1.253   4.721
  822TIP3   OH2 2471   4.473   0.245   3.530
  822TIP3    H1 2472   4.400   0.196   3.492
  822TIP3    H2 2473   4.537   0.178   3.553
  823TIP3   OH2 2474   1.268   5.081   1.056
  823TIP3    H1 2475   1.219   5.084   1.138
  823TIP3    H2 2476   1.209   5.039   0.994
  824TIP3   OH2 2477   5.113   4.462   4.809
  824TIP3    H1 2478   5.092   4.549   4.776
  824TIP3    H2 2479   5.061   4.402   4.755
  825TIP3   OH2 2480   2.127   5.129   0.761
  825TIP3    H1 2481   2.115   5.054   0.704
  825TIP3    H2 2482   2.117   5.094   0.850
  826TIP3   OH2 2483   2.255   3.527   2.755
  826TIP3    H1 2484   2.214   3.558   2.835
  826TIP3    H2 2485   2.187   3.533   2.688
  827TIP3   OH2 2486   3.096   1.836   1.307
  827TIP3    H1 2487   3.144   1.792   1.237
  827TIP3    H2 2488   3.158   1.900   1.343
  828TIP3   OH2 2489   2.760   0.220   2.712
  828TIP3    H1 2490   2.813   0.281   2.661
  828TIP3    H2 2491   2.763   0.138   2.664
  829TIP3   OH2 2492   3.558   4.216   1.152
  829TIP3    H1 2493   3.536   4.289   1.208
  829TIP3    H2 2494   3.652   4.226   1.135
  830TIP3   OH2 2495   0.746   5.064   3.879
  830TIP3    H1 2496   0.713   5.074   3.790
  830TIP3    H2 2497   0.770   5.153   3.905
  831TIP3   OH2 2498   1.759   5.327   1.066
  831TIP3    H1 2499   1.773   5.359   1.155
  831TIP3    H2 2500   1.680   5.274   1.071
  832TIP3   OH2 2501   0.672   2.180   4.523
  832TIP3    H1 2502   0.598   2.220   4.476
  832TIP3    H2 2503   0.702   2.111   4.464
  833TIP3   OH2 2504   2.419   0.434   1.943
  833TIP3    H1 2505   2.434   0.354   1.894
  833TIP3    H2 2506   2.367   0.407   2.019
  834TIP3   OH2 2507   1.768   0.432   1.963
  834TIP3    H1 2508   1.673   0.419   1.953
  834TIP3    H2 2509   1.786   0.408   2.054
  835TIP3   OH2 2510   4.348   1.114   0.080
  835TIP3    H1 2511   4.300   1.078   0.006
  835TIP3    H2 2512   4.440   1.093   0.061
  836TIP3   OH2 2513   4.635   4.538   2.432
  836TIP3    H1 2514   4.630   4.452   2.475
  836TIP3    H2 2515   4.715   4.577   2.465
  837TIP3   OH2 2516   4.163   0.470   0.724
  837TIP3    H1 2517   4.135   0.381   0.747
  837TIP3    H2 2518   4.121   0.488   0.641
  838TIP3   OH2 2519   0.107   5.115   4.041
  838TIP3    H1 2520   0.054   5.139   4.117
  838TIP3    H2 2521   0.130   5.198   4.000
  839TIP3   OH2 2522   4.565   1.525   2.240
  839TIP3    H1 2523   4.600   1.524   2.329
  839TIP3    H2 2524   4.574   1.435   2.210
  840TIP3   OH2 2525   1.932   5.027   0.977
  840TIP3    H1 2526   1.988   5.031   1.054
  840TIP3    H2 2527   1.857   5.082   0.997
  841TIP3   OH2 2528   1.754   4.057   0.755
  841TIP3    H1 2529   1.677   4.010   0.724
  841TIP3    H2 2530   1.723   4.147   0.770
  842TIP3   OH2 2531   3.194   1.662   1.870
  842TIP3    H1 2532   3.111   1.620   1.850
  842TIP3    H2 2533   3.220   1.628   1.955
  843TIP3   OH2 2534   0.067   5.009   0.996
  843TIP3    H1 2535   0.048   4.934   0.940
  843TIP3    H2 2536   0.094   5.078   0.935
  844TIP3   OH2 2537   3.581   1.799   4.269
  844TIP3    H1 2538   3.540   1.879   4.236
  844TIP3    H2 2539   3.568   1.735   4.199
  845TIP3   OH2 2540   6.009   2.377   0.451
  845TIP3    H1 2541   5.961   2.456   0.425
  845TIP3    H2 2542   6.062   2.405   0.526
  846TIP3   OH2 2543   3.674   5.495   1.869
  846TIP3    H1 2544   3.665   5.416   1.922
  846TIP3    H2 2545   3.592   5.542   1.883
  847TIP3   OH2 2546   4.686   2.118   4.844
  847TIP3    H1 2547   4.766   2.102   4.794
  847TIP3    H2 2548   4.622   2.057   4.808
  848TIP3   OH2 2549   1.966   1.604   1.295
  848TIP3    H1 2550   1.883   1.557   1.301
  848TIP3    H2 2551   1.964   1.648   1.210
  849TIP3   OH2 2552   5.834   2.794   0.346
  849TIP3    H1 2553   5.921   2.833   0.351
  849TIP3    H2 2554   5.840   2.713   0.397
  850TIP3   OH2 2555   1.800   4.782   4.149
  850TIP3    H1 2556   1.747   4.759   4.226
  850TIP3    H2 2557   1.812   4.699   4.103
  851TIP3   OH2 2558   0.066   3.257   4.600
  851TIP3    H1 2559  -0.011   3.286   4.649
  851TIP3    H2 2560   0.033   3.240   4.512
  852TIP3   OH2 2561   2.344   5.695   4.298
  852TIP3    H1 2562   2.422   5.750   4.287
  852TIP3    H2 2563   2.271   5.754   4.278
  853TIP3   OH2 2564   2.432   4.747   4.813
  853TIP3    H1 2565   2.337   4.754   4.804
  853TIP3    H2 2566   2.452   4.792   4.895
  854TIP3   OH2 2567   2.275   3.121   2.937
  854TIP3    H1 2568   2.266   3.069   3.017
  854TIP3    H2 2569   2.363   3.159   2.943
  855TIP3   OH2 2570   3.094   4.249   1.053
  855TIP3    H1 2571   3.143   4.177   1.091
  855TIP3    H2 2572   3.143   4.328   1.078
  856TIP3   OH2 2573   5.048   4.727   4.779
  856TIP3    H1 2574   5.031   4.774   4.697
  856TIP3    H2 2575   5.106   4.786   4.828
  857TIP3   OH2 2576   1.920   3.004   3.119
  857TIP3    H1 2577   1.905   3.036   3.030
  857TIP3    H2 2578   1.847   3.039   3.170
  858TIP3   OH2 2579   1.254   0.220   4.943
  858TIP3    H1 2580   1.300   0.253   4.865
  858TIP3    H2 2581   1.234   0.298   4.994
  859TIP3   OH2 2582   3.848   3.893   2.042
  859TIP3    H1 2583   3.802   3.959   1.990
  859TIP3    H2 2584   3.813   3.902   2.130
  860TIP3   OH2 2585   4.075   2.679   0.529
  860TIP3    H1 2586   4.071   2.591   0.568
  860TIP3    H2 2587   4.168   2.699   0.523
  861TIP3   OH2 2588   4.093   2.449   1.345
  861TIP3    H1 2589   4.131   2.536   1.332
  861TIP3    H2 2590   4.168   2.390   1.339
  862TIP3   OH2 2591   1.963   2.448   2.439
  862TIP3    H1 2592   1.948   2.541   2.422
  862TIP3    H2 2593   1.926   2.434   2.527
  863TIP3   OH2 2594   5.791   0.630   0.737
  863TIP3    H1 2595   5.747   0.546   0.752
  863TIP3    H2 2596   5.734   0.694   0.780
  864TIP3   OH2 2597   4.587   5.780   5.042
  864TIP3    H1 2598   4.670   5.817   5.072
  864TIP3    H2 2599   4.577   5.700   5.092
  865TIP3   OH2 2600   3.758   0.423   1.811
  865TIP3    H1 2601   3.794   0.355   1.753
  865TIP3    H2 2602   3.691   0.466   1.758
  866TIP3   OH2 2603   2.711   5.949   4.938
  866TIP3    H1 2604   2.668   5.943   5.023
  866TIP3    H2 2605   2.778   6.016   4.949
  867TIP3   OH2 2606  -0.018   0.783   3.252
  867TIP3    H1 2607   0.013   0.764   3.341
  867TIP3    H2 2608   0.056   0.825   3.209
  868TIP3   OH2 2609   0.962   0.406   0.142
  868TIP3    H1 2610   1.030   0.402   0.074
  868TIP3    H2 2611   0.886   0.365   0.102
  869TIP3   OH2 2612   0.085   5.823   1.752
  869TIP3    H1 2613   0.112   5.836   1.843
  869TIP3    H2 2614   0.159   5.856   1.700
  870TIP3   OH2 2615   4.937   1.663   1.151
  870TIP3    H1 2616   4.990   1.593   1.113
  870TIP3    H2 2617   4.993   1.741   1.145
  871TIP3   OH2 2618   4.891   5.159   4.821
  871TIP3    H1 2619   4.864   5.219   4.752
  871TIP3    H2 2620   4.873   5.072   4.787
  872TIP3   OH2 2621   2.177   2.355   1.414
  872TIP3    H1 2622   2.233   2.411   1.469
  872TIP3    H2 2623   2.187   2.391   1.326
  873TIP3   OH2 2624   0.241   4.987   0.592
  873TIP3    H1 2625   0.313   4.956   0.537
  873TIP3    H2 2626   0.242   4.928   0.667
  874TIP3   OH2 2627   3.125   4.168   0.253
  874TIP3    H1 2628   3.151   4.099   0.313
  874TIP3    H2 2629   3.207   4.212   0.230
  875TIP3   OH2 2630   3.258   5.699   1.435
  875TIP3    H1 2631   3.219   5.629   1.488
  875TIP3    H2 2632   3.295   5.759   1.500
  876TIP3   OH2 2633   5.229   1.398   0.679
  876TIP3    H1 2634   5.150   1.390   0.732
  876TIP3    H2 2635   5.203   1.452   0.604
  877TIP3   OH2 2636   4.180   1.496   3.485
  877TIP3    H1 2637   4.123   1.465   3.414
  877TIP3    H2 2638   4.183   1.423   3.547
  878TIP3   OH2 2639   0.349   1.463   0.839
  878TIP3    H1 2640   0.362   1.458   0.934
  878TIP3    H2 2641   0.424   1.418   0.802
  879TIP3   OH2 2642   3.901   2.699   2.837
  879TIP3    H1 2643   3.974   2.754   2.864
  879TIP3    H2 2644   3.878   2.649   2.915
  880TIP3   OH2 2645   2.822   3.958   3.716
  880TIP3    H1 2646   2.822   3.884   3.656
  880TIP3    H2 2647   2.879   3.932   3.788
  881TIP3   OH2 2648   4.475   4.857   4.570
  881TIP3    H1 2649   4.483   4.902   4.655
  881TIP3    H2 2650   4.440   4.924   4.511
  882TIP3   OH2 2651   0.796   1.866   4.026
  882TIP3    H1 2652   0.763   1.783   3.993
  882TIP3    H2 2653   0.832   1.845   4.112
  883TIP3   OH2 2654   2.588   2.034   0.101
  883TIP3    H1 2655   2.670   2.075   0.127
  883TIP3    H2 2656   2.532   2.039   0.178
  884TIP3   OH2 2657   3.435   5.380   4.590
  884TIP3    H1 2658   3.342   5.400   4.581
  884TIP3    H2 2659   3.443   5.289   4.559
  885TIP3   OH2 2660   1.476   1.937   3.427
  885TIP3    H1 2661   1.498   1.870   3.491
  885TIP3    H2 2662   1.500   1.899   3.342
  886TIP3   OH2 2663   1.803   0.218   1.323
  886TIP3    H1 2664   1.861   0.234   1.249
  886TIP3    H2 2665   1.859   0.232   1.400
  887TIP3   OH2 2666   0.099   3.172   2.477
  887TIP3    H1 2667   0.022   3.148   2.528
  887TIP3    H2 2668   0.093   3.119   2.398
  888TIP3   OH2 2669   2.620   4.148   1.587
  888TIP3    H1 2670   2.565   4.128   1.662
  888TIP3    H2 2671   2.678   4.072   1.579
  889TIP3   OH2 2672   4.713   4.608   4.787
  889TIP3    H1 2673   4.670   4.523   4.785
  889TIP3    H2 2674   4.736   4.626   4.696
  890TIP3   OH2 2675   5.486   0.910   2.300
  890TIP3    H1 2676   5.539   0.895   2.378
  890TIP3    H2 2677   5.548   0.907   2.227
  891TIP3   OH2 2678   4.017   5.217   1.882
  891TIP3    H1 2679   4.097   5.262   1.854
  891TIP3    H2 2680   4.047   5.149   1.941
  892TIP3   OH2 2681   4.901   1.123   4.499
  892TIP3    H1 2682   4.946   1.207   4.492
  892TIP3    H2 2683   4.808   1.145   4.503
  893TIP3   OH2 2684   0.265   0.529   2.391
  893TIP3    H1 2685   0.260   0.448   2.441
  893TIP3    H2 2686   0.249   0.598   2.456
  894TIP3   OH2 2687   3.912   4.055   1.627
  894TIP3    H1 2688   3.917   4.077   1.720
  894TIP3    H2 2689   4.002   4.030   1.603
  895TIP3   OH2 2690   4.995   5.699   0.475
  895TIP3    H1 2691   4.926   5.633   0.468
  895TIP3    H2 2692   5.041   5.694   0.392
  896TIP3   OH2 2693   1.985   3.888   1.646
  896TIP3    H1 2694   2.071   3.861   1.614
  896TIP3    H2 2695   1.931   3.809   1.638
  897TIP3   OH2 2696   2.484   0.585   2.917
  897TIP3    H1 2697   2.563   0.570   2.865
  897TIP3    H2 2698   2.472   0.504   2.967
  898TIP3   OH2 2699   4.743   5.162   3.677
  898TIP3    H1 2700   4.757   5.255   3.695
  898TIP3    H2 2701   4.648   5.152   3.670
  899TIP3   OH2 2702   1.214   3.349   0.119
  899TIP3    H1 2703   1.171   3.350   0.034
  899TIP3    H2 2704   1.176   3.273   0.164
  900TIP3   OH2 2705   0.406   1.238   1.064
  900TIP3    H1 2706   0.492   1.248   1.024
  900TIP3    H2 2707   0.420   1.182   1.139
  901TIP3   OH2 2708   1.965   5.559   0.903
  901TIP3    H1 2709   1.941   5.572   0.811
  901TIP3    H2 2710   1.979   5.465   0.911
  902TIP3   OH2 2711   2.041   1.489   4.993
  902TIP3    H1 2712   2.000   1.437   5.063
  902TIP3    H2 2713   2.066   1.571   5.036
  903TIP3   OH2 2714   0.021   0.497   1.236
  903TIP3    H1 2715  -0.064   0.541   1.239
  903TIP3    H2 2716   0.060   0.527   1.154
  904TIP3   OH2 2717   2.266   4.281   2.707
  904TIP3    H1 2718   2.217   4.199   2.699
  904TIP3    H2 2719   2.295   4.300   2.618
  905TIP3   OH2 2720   1.458   2.493   4.242
  905TIP3    H1 2721   1.382   2.509   4.298
  905TIP3    H2 2722   1.443   2.407   4.204
  906TIP3   OH2 2723   5.019   5.572   3.707
  906TIP3    H1 2724   4.956   5.512   3.667
  906TIP3    H2 2725   5.013   5.652   3.654
  907TIP3   OH2 2726   2.799   3.173   0.060
  907TIP3    H1 2727   2.782   3.085   0.027
  907TIP3    H2 2728   2.846   3.217  -0.010
  908TIP3   OH2 2729   2.189   0.577   1.373
  908TIP3    H1 2730   2.229   0.543   1.293
  908TIP3    H2 2731   2.197   0.672   1.366
  909TIP3   OH2 2732   4.587   2.336   2.826
  909TIP3    H1 2733   4.615   2.384   2.904
  909TIP3    H2 2734   4.658   2.348   2.763
  910TIP3   OH2 2735   5.150   0.726   5.046
  910TIP3    H1 2736   5.190   0.645   5.017
  910TIP3    H2 2737   5.058   0.719   5.019
  911TIP3   OH2 2738   0.319   0.186   4.166
  911TIP3    H1 2739   0.248   0.134   4.204
  911TIP3    H2 2740   0.275   0.255   4.117
  912TIP3   OH2 2741   1.172   0.130   0.754
  912TIP3    H1 2742   1.088   0.158   0.717
  912TIP3    H2 2743   1.232   0.202   0.732
  913TIP3   OH2 2744   0.515   4.154   0.215
  913TIP3    H1 2745   0.426   4.152   0.178
  913TIP3    H2 2746   0.518   4.237   0.264
  914TIP3   OH2 2747   3.760   4.002   2.299
  914TIP3    H1 2748   3.777   4.088   2.337
  914TIP3    H2 2749   3.665   3.993   2.301
  915TIP3   OH2 2750   6.211   3.700   1.917
  915TIP3    H1 2751   6.305   3.699   1.931
  915TIP3    H2 2752   6.173   3.685   2.004
  916TIP3   OH2 2753   5.245   4.883   4.881
  916TIP3    H1 2754   5.258   4.932   4.963
  916TIP3    H2 2755   5.288   4.799   4.896
  917TIP3   OH2 2756   3.935   3.023   1.605
  917TIP3    H1 2757   3.860   3.073   1.572
  917TIP3    H2 2758   3.994   3.090   1.640
  918TIP3   OH2 2759   3.507   3.924   1.271
  918TIP3    H1 2760   3.568   3.991   1.239
  918TIP3    H2 2761   3.507   3.936   1.366
  919TIP3   OH2 2762   4.392   1.299   4.281
  919TIP3    H1 2763   4.357   1.213   4.257
  919TIP3    H2 2764   4.391   1.349   4.200
  920TIP3   OH2 2765   1.925   4.435   1.025
  920TIP3    H1 2766   1.870   4.468   1.096
  920TIP3    H2 2767   1.912   4.499   0.954
  921TIP3   OH2 2768   5.329   2.325   2.492
  921TIP3    H1 2769   5.269   2.283   2.553
  921TIP3    H2 2770   5.311   2.283   2.408
  922TIP3   OH2 2771   0.237   3.535   2.658
  922TIP3    H1 2772   0.206   3.451   2.626
  922TIP3    H2 2773   0.324   3.517   2.694
  923TIP3   OH2 2774   5.306   5.182   4.369
  923TIP3    H1 2775   5.275   5.235   4.295
  923TIP3    H2 2776   5.284   5.235   4.446
  924TIP3   OH2 2777   5.539   4.200   2.784
  924TIP3    H1 2778   5.630   4.169   2.786
  924TIP3    H2 2779   5.487   4.120   2.782
  925TIP3   OH2 2780   1.761   5.711   2.962
  925TIP3    H1 2781   1.849   5.681   2.939
  925TIP3    H2 2782   1.717   5.720   2.878
  926TIP3   OH2 2783   4.268   1.551   5.032
  926TIP3    H1 2784   4.290   1.604   4.955
  926TIP3    H2 2785   4.340   1.567   5.093
  927TIP3   OH2 2786   0.233   0.945   2.059
  927TIP3    H1 2787   0.261   1.027   2.099
  927TIP3    H2 2788   0.315   0.897   2.042
  928TIP3   OH2 2789   6.093   0.242   3.274
  928TIP3    H1 2790   6.008   0.287   3.280
  928TIP3    H2 2791   6.158   0.312   3.279
  929TIP3   OH2 2792   4.223   2.667   1.338
  929TIP3    H1 2793   4.200   2.717   1.417
  929TIP3    H2 2794   4.209   2.728   1.266
  930TIP3   OH2 2795   4.954   2.529   3.563
  930TIP3    H1 2796   4.890   2.484   3.619
  930TIP3    H2 2797   5.029   2.470   3.561
  931TIP3   OH2 2798   0.105   3.023   3.922
  931TIP3    H1 2799   0.111   2.932   3.892
  931TIP3    H2 2800   0.162   3.026   3.999
  932TIP3   OH2 2801   1.787   3.402   1.527
  932TIP3    H1 2802   1.862   3.387   1.585
  932TIP3    H2 2803   1.824   3.454   1.455
  933TIP3   OH2 2804   2.027   5.659   2.812
  933TIP3    H1 2805   2.032   5.573   2.769
  933TIP3    H2 2806   2.009   5.721   2.741
  934TIP3   OH2 2807   5.060   3.333   4.095
  934TIP3    H1 2808   5.101   3.283   4.024
  934TIP3    H2 2809   5.133   3.359   4.152
  935TIP3   OH2 2810   3.239   5.228   0.729
  935TIP3    H1 2811   3.185   5.303   0.753
  935TIP3    H2 2812   3.177   5.156   0.718
  936TIP3   OH2 2813   5.656   2.258   3.692
  936TIP3    H1 2814   5.668   2.163   3.704
  936TIP3    H2 2815   5.681   2.296   3.775
  937TIP3   OH2 2816   5.012   3.125   4.313
  937TIP3    H1 2817   4.920   3.104   4.296
  937TIP3    H2 2818   5.040   3.175   4.237
  938TIP3   OH2 2819   0.133   4.628   5.196
  938TIP3    H1 2820   0.114   4.589   5.110
  938TIP3    H2 2821   0.198   4.569   5.235
  939TIP3   OH2 2822   4.839   3.031   0.734
  939TIP3    H1 2823   4.803   3.099   0.791
  939TIP3    H2 2824   4.810   3.055   0.646
  940TIP3   OH2 2825   5.171   4.699   2.464
  940TIP3    H1 2826   5.191   4.720   2.555
  940TIP3    H2 2827   5.200   4.776   2.415
  941TIP3   OH2 2828   1.509   2.995   2.293
  941TIP3    H1 2829   1.537   3.007   2.384
  941TIP3    H2 2830   1.489   3.084   2.262
  942TIP3   OH2 2831   3.479   5.826   2.894
  942TIP3    H1 2832   3.508   5.739   2.921
  942TIP3    H2 2833   3.557   5.881   2.901
  943TIP3   OH2 2834   5.409   3.178   3.295
  943TIP3    H1 2835   5.345   3.188   3.366
  943TIP3    H2 2836   5.373   3.107   3.241
  944TIP3   OH2 2837   3.539   5.586   4.422
  944TIP3    H1 2838   3.470   5.524   4.397
  944TIP3    H2 2839   3.581   5.547   4.499
  945TIP3   OH2 2840   4.680   4.016   3.937
  945TIP3    H1 2841   4.601   3.976   3.901
  945TIP3    H2 2842   4.658   4.034   4.028
  946TIP3   OH2 2843   0.901   0.248   5.068
  946TIP3    H1 2844   0.898   0.333   5.025
  946TIP3    H2 2845   0.985   0.246   5.113
  947TIP3   OH2 2846   5.244   1.099   2.248
  947TIP3    H1 2847   5.290   1.017   2.264
  947TIP3    H2 2848   5.313   1.164   2.239
  948TIP3   OH2 2849   4.142   0.051   4.821
  948TIP3    H1 2850   4.180   0.124   4.869
  948TIP3    H2 2851   4.083   0.091   4.758
  949TIP3   OH2 2852   1.843   3.193   1.088
  949TIP3    H1 2853   1.829   3.122   1.025
  949TIP3    H2 2854   1.915   3.244   1.051
  950TIP3   OH2 2855   3.368   5.351   1.428
  950TIP3    H1 2856   3.412   5.369   1.511
  950TIP3    H2 2857   3.278   5.329   1.453
  951TIP3   OH2 2858   6.151   4.264   4.689
  951TIP3    H1 2859   6.188   4.351   4.707
  951TIP3    H2 2860   6.185   4.241   4.603
  952TIP3   OH2 2861   3.067   4.955   2.196
  952TIP3    H1 2862   3.137   4.944   2.260
  952TIP3    H2 2863   3.078   4.881   2.136
  953TIP3   OH2 2864   1.647   4.311   2.555
  953TIP3    H1 2865   1.595   4.390   2.541
  953TIP3    H2 2866   1.679   4.320   2.645
  954TIP3   OH2 2867   6.332   1.768   2.398
  954TIP3    H1 2868   6.298   1.757   2.310
  954TIP3    H2 2869   6.273   1.832   2.439
  955TIP3   OH2 2870   1.352   1.696   4.250
  955TIP3    H1 2871   1.332   1.702   4.157
  955TIP3    H2 2872   1.283   1.642   4.287
  956TIP3   OH2 2873   1.517   1.236   1.259
  956TIP3    H1 2874   1.443   1.230   1.197
  956TIP3    H2 2875   1.595   1.227   1.204
  957TIP3   OH2 2876   1.029   0.839   4.750
  957TIP3    H1 2877   1.004   0.807   4.663
  957TIP3    H2 2878   0.956   0.895   4.777
  958TIP3   OH2 2879   6.089   4.135   4.441
  958TIP3    H1 2880   6.169   4.168   4.400
  958TIP3    H2 2881   6.034   4.213   4.450
  959TIP3   OH2 2882   3.820   1.115   4.532
  959TIP3    H1 2883   3.903   1.067   4.537
  959TIP3    H2 2884   3.776   1.096   4.614
  960TIP3   OH2 2885   1.142   1.244   1.872
  960TIP3    H1 2886   1.061   1.193   1.880
  960TIP3    H2 2887   1.116   1.323   1.825
  961TIP3   OH2 2888   4.620   4.674   0.915
  961TIP3    H1 2889   4.678   4.599   0.922
  961TIP3    H2 2890   4.635   4.708   0.827
  962TIP3   OH2 2891   0.448   2.241   0.868
  962TIP3    H1 2892   0.425   2.195   0.949
  962TIP3    H2 2893   0.454   2.333   0.895
  963TIP3   OH2 2894   5.434   2.009   4.023
  963TIP3    H1 2895   5.469   1.968   4.102
  963TIP3    H2 2896   5.383   1.940   3.980
  964TIP3   OH2 2897   2.577   5.519   2.038
  964TIP3    H1 2898   2.639   5.464   2.085
  964TIP3    H2 2899   2.631   5.586   1.996
  965TIP3   OH2 2900   1.575   0.279   3.546
  965TIP3    H1 2901   1.547   0.342   3.613
  965TIP3    H2 2902   1.494   0.246   3.509
  966TIP3   OH2 2903   6.150   5.794   4.639
  966TIP3    H1 2904   6.128   5.865   4.698
  966TIP3    H2 2905   6.139   5.714   4.691
  967TIP3   OH2 2906   4.591   1.632   3.404
  967TIP3    H1 2907   4.620   1.714   3.443
  967TIP3    H2 2908   4.502   1.651   3.372
  968TIP3   OH2 2909   4.862   1.394   1.404
  968TIP3    H1 2910   4.847   1.363   1.494
  968TIP3    H2 2911   4.958   1.396   1.396
  969TIP3   OH2 2912   1.972   1.886   2.869
  969TIP3    H1 2913   2.041   1.932   2.917
  969TIP3    H2 2914   1.998   1.794   2.871
  970TIP3   OH2 2915   5.769   4.287   0.788
  970TIP3    H1 2916   5.721   4.364   0.818
  970TIP3    H2 2917   5.806   4.249   0.868
  971TIP3   OH2 2918   1.701   0.871   4.793
  971TIP3    H1 2919   1.614   0.833   4.791
  971TIP3    H2 2920   1.734   0.860   4.703
  972TIP3   OH2 2921   2.172   4.245   1.024
  972TIP3    H1 2922   2.145   4.289   0.944
  972TIP3    H2 2923   2.253   4.200   1.000
  973TIP3   OH2 2924   6.045   2.730   4.363
  973TIP3    H1 2925   6.010   2.787   4.294
  973TIP3    H2 2926   5.967   2.696   4.407
  974TIP3   OH2 2927   2.829   4.803   2.126
  974TIP3    H1 2928   2.876   4.733   2.170
  974TIP3    H2 2929   2.845   4.881   2.180
  975TIP3   OH2 2930   6.087   5.819   0.578
  975TIP3    H1 2931   6.165   5.865   0.609
  975TIP3    H2 2932   6.049   5.781   0.657
  976TIP3   OH2 2933   5.815   4.843   4.637
  976TIP3    H1 2934   5.887   4.879   4.689
  976TIP3    H2 2935   5.746   4.910   4.643
  977TIP3   OH2 2936   3.650   5.746   2.321
  977TIP3    H1 2937   3.662   5.839   2.301
  977TIP3    H2 2938   3.662   5.702   2.238
  978TIP3   OH2 2939   2.180   0.941   0.080
  978TIP3    H1 2940   2.145   0.853   0.064
  978TIP3    H2 2941   2.115   0.983   0.136
  979TIP3   OH2 2942   4.304   5.499   4.407
  979TIP3    H1 2943   4.385   5.474   4.362
  979TIP3    H2 2944   4.329   5.508   4.499
  980TIP3   OH2 2945   6.268   3.492   3.250
  980TIP3    H1 2946   6.195   3.554   3.249
  980TIP3    H2 2947   6.346   3.547   3.246
  981TIP3   OH2 2948   5.426   2.228   1.089
  981TIP3    H1 2949   5.368   2.154   1.106
  981TIP3    H2 2950   5.513   2.198   1.117
  982TIP3   OH2 2951   4.623   4.361   4.221
  982TIP3    H1 2952   4.572   4.439   4.201
  982TIP3    H2 2953   4.653   4.375   4.311
  983TIP3   OH2 2954   1.853   3.472   4.789
  983TIP3    H1 2955   1.827   3.422   4.865
  983TIP3    H2 2956   1.833   3.416   4.714
  984TIP3   OH2 2957   0.273   4.658   4.700
  984TIP3    H1 2958   0.236   4.583   4.655
  984TIP3    H2 2959   0.345   4.621   4.753
  985TIP3   OH2 2960   5.594   4.472   1.450
  985TIP3    H1 2961   5.559   4.530   1.382
  985TIP3    H2 2962   5.530   4.401   1.456
  986TIP3   OH2 2963   6.134   4.381   3.608
  986TIP3    H1 2964   6.162   4.290   3.622
  986TIP3    H2 2965   6.085   4.403   3.687
  987TIP3   OH2 2966   2.229   0.059   4.474
  987TIP3    H1 2967   2.265   0.003   4.543
  987TIP3    H2 2968   2.186   0.130   4.522
  988TIP3   OH2 2969   2.380   4.434   3.110
  988TIP3    H1 2970   2.449   4.477   3.160
  988TIP3    H2 2971   2.318   4.404   3.176
  989TIP3   OH2 2972   5.249   1.059   3.897
  989TIP3    H1 2973   5.183   1.034   3.833
  989TIP3    H2 2974   5.313   1.109   3.847
  990TIP3   OH2 2975   4.928   1.397   4.868
  990TIP3    H1 2976   4.967   1.439   4.945
  990TIP3    H2 2977   4.984   1.423   4.795
  991TIP3   OH2 2978   3.988   4.451   4.985
  991TIP3    H1 2979   4.078   4.483   4.985
  991TIP3    H2 2980   3.988   4.379   4.923
  992TIP3   OH2 2981   1.726   1.203   3.455
  992TIP3    H1 2982   1.739   1.212   3.360
  992TIP3    H2 2983   1.807   1.234   3.493
  993TIP3   OH2 2984   0.064   0.861   4.103
  993TIP3    H1 2985   0.070   0.844   4.009
  993TIP3    H2 2986   0.050   0.956   4.109
  994TIP3   OH2 2987   3.400   2.308   3.818
  994TIP3    H1 2988   3.465   2.366   3.778
  994TIP3    H2 2989   3.391   2.340   3.908
  995TIP3   OH2 2990   6.098   1.590   4.597
  995TIP3    H1 2991   6.152   1.649   4.649
  995TIP3    H2 2992   6.119   1.612   4.506
  996TIP3   OH2 2993   0.155   0.536   0.542
  996TIP3    H1 2994   0.199   0.451   0.548
  996TIP3    H2 2995   0.164   0.561   0.450
  997TIP3   OH2 2996   4.115   3.100   4.888
  997TIP3    H1 2997   4.096   3.159   4.961
  997TIP3    H2 2998   4.079   3.145   4.811
  998TIP3   OH2 2999   1.844   4.618   1.223
  998TIP3    H1 3000   1.889   4.596   1.305
  998TIP3    H2 3001   1.776   4.680   1.249
  999TIP3   OH2 3002   3.666   3.949   0.894
  999TIP3    H1 3003   3.739   3.963   0.955
  999TIP3    H2 3004   3.654   4.034   0.851
 1000TIP3   OH2 3005   0.391   3.367   4.088
 1000TIP3    H1 3006   0.436   3.352   4.171
 1000TIP3    H2 3007   0.300   3.384   4.112
 1001TIP3   OH2 3008   6.050   0.211   2.456
 1001TIP3    H1 3009   6.054   0.115   2.459
 1001TIP3    H2 3010   6.021   0.231   2.367
 1002TIP3   OH2 3011   2.010   0.342   1.158
 1002TIP3    H1 3012   2.085   0.283   1.171
 1002TIP3    H2 3013   2.048   0.430   1.158
 1003TIP3   OH2 3014   4.244   2.105   1.716
 1003TIP3    H1 3015   4.192   2.185   1.705
 1003TIP3    H2 3016   4.231   2.056   1.635
 1004TIP3   OH2 3017   2.495   1.239   1.306
 1004TIP3    H1 3018   2.501   1.331   1.280
 1004TIP3    H2 3019   2.565   1.195   1.258
 1005TIP3   OH2 3020   0.264   5.506   4.918
 1005TIP3    H1 3021   0.193   5.570   4.908
 1005TIP3    H2 3022   0.226   5.436   4.970
 1006TIP3   OH2 3023   3.397   4.394   4.529
 1006TIP3    H1 3024   3.483   4.366   4.558
 1006TIP3    H2 3025   3.336   4.355   4.591
 1007TIP3   OH2 3026   3.717   1.709   3.963
 1007TIP3    H1 3027   3.790   1.763   3.994
 1007TIP3    H2 3028   3.658   1.771   3.920
 1008TIP3   OH2 3029   5.508   2.483   2.628
 1008TIP3    H1 3030   5.540   2.453   2.713
 1008TIP3    H2 3031   5.476   2.404   2.585
 1009TIP3   OH2 3032   3.664   4.355   3.093
 1009TIP3    H1 3033   3.573   4.327   3.083
 1009TIP3    H2 3034   3.659   4.432   3.150
 1010TIP3   OH2 3035   0.899   3.532   2.731
 1010TIP3    H1 3036   0.914   3.626   2.731
 1010TIP3    H2 3037   0.901   3.506   2.823
 1011TIP3   OH2 3038   4.608   1.902   3.184
 1011TIP3    H1 3039   4.671   1.838   3.218
 1011TIP3    H2 3040   4.604   1.884   3.090
 1012TIP3   OH2 3041   1.274   0.601   4.286
 1012TIP3    H1 3042   1.271   0.645   4.201
 1012TIP3    H2 3043   1.338   0.531   4.274
 1013TIP3   OH2 3044   3.345   3.627   0.994
 1013TIP3    H1 3045   3.416   3.680   1.029
 1013TIP3    H2 3046   3.266   3.666   1.031
 1014TIP3   OH2 3047   0.863   2.530   5.012
 1014TIP3    H1 3048   0.925   2.582   5.064
 1014TIP3    H2 3049   0.849   2.451   5.064
 1015TIP3   OH2 3050   1.785   0.090   3.700
 1015TIP3    H1 3051   1.854   0.123   3.758
 1015TIP3    H2 3052   1.789   0.147   3.624
 1016TIP3   OH2 3053   1.363   5.590   3.011
 1016TIP3    H1 3054   1.401   5.605   2.924
 1016TIP3    H2 3055   1.281   5.543   2.993
 1017TIP3   OH2 3056   1.954   2.623   0.244
 1017TIP3    H1 3057   2.036   2.595   0.205
 1017TIP3    H2 3058   1.923   2.694   0.187
 1018TIP3   OH2 3059   4.313   1.837   0.746
 1018TIP3    H1 3060   4.349   1.857   0.832
 1018TIP3    H2 3061   4.344   1.907   0.689
 1019TIP3   OH2 3062   1.547   5.101   4.361
 1019TIP3    H1 3063   1.608   5.174   4.361
 1019TIP3    H2 3064   1.464   5.138   4.332
 1020TIP3   OH2 3065   0.636   2.680   1.962
 1020TIP3    H1 3066   0.552   2.724   1.977
 1020TIP3    H2 3067   0.694   2.718   2.027
 1021TIP3   OH2 3068   5.443   1.874   0.738
 1021TIP3    H1 3069   5.471   1.953   0.691
 1021TIP3    H2 3070   5.383   1.831   0.678
 1022TIP3   OH2 3071   0.426   1.245   2.504
 1022TIP3    H1 3072   0.518   1.235   2.482
 1022TIP3    H2 3073   0.418   1.338   2.528
 1023TIP3   OH2 3074   1.228   2.671   4.526
 1023TIP3    H1 3075   1.323   2.661   4.538
 1023TIP3    H2 3076   1.219   2.699   4.435
 1024TIP3   OH2 3077   0.071   4.156   1.145
 1024TIP3    H1 3078   0.135   4.122   1.082
 1024TIP3    H2 3079   0.034   4.078   1.186
 1025TIP3   OH2 3080   1.110   1.212   2.560
 1025TIP3    H1 3081   1.106   1.307   2.572
 1025TIP3    H2 3082   1.203   1.193   2.548
 1026TIP3   OH2 3083   3.154   0.531   3.394
 1026TIP3    H1 3084   3.140   0.459   3.454
 1026TIP3    H2 3085   3.242   0.516   3.358
 1027TIP3   OH2 3086   0.718   5.546   0.814
 1027TIP3    H1 3087   0.648   5.533   0.750
 1027TIP3    H2 3088   0.674   5.587   0.889
 1028TIP3   OH2 3089   2.854   5.944   4.218
 1028TIP3    H1 3090   2.767   5.932   4.255
 1028TIP3    H2 3091   2.867   5.866   4.163
 1029TIP3   OH2 3092   5.372   5.221   1.963
 1029TIP3    H1 3093   5.444   5.263   2.010
 1029TIP3    H2 3094   5.354   5.279   1.890
 1030TIP3   OH2 3095   4.380   5.163   4.606
 1030TIP3    H1 3096   4.377   5.159   4.510
 1030TIP3    H2 3097   4.320   5.234   4.629
 1031TIP3   OH2 3098   5.118   1.592   3.682
 1031TIP3    H1 3099   5.085   1.523   3.739
 1031TIP3    H2 3100   5.043   1.650   3.670
 1032TIP3   OH2 3101   4.083   3.818   4.501
 1032TIP3    H1 3102   4.151   3.789   4.440
 1032TIP3    H2 3103   4.065   3.740   4.555
 1033TIP3   OH2 3104   1.464   5.672   4.016
 1033TIP3    H1 3105   1.457   5.577   4.027
 1033TIP3    H2 3106   1.384   5.697   3.971
 1034TIP3   OH2 3107   1.668   5.581   0.994
 1034TIP3    H1 3108   1.749   5.539   1.023
 1034TIP3    H2 3109   1.616   5.591   1.073
 1035TIP3   OH2 3110   2.166   5.898   4.619
 1035TIP3    H1 3111   2.120   5.926   4.698
 1035TIP3    H2 3112   2.215   5.976   4.592
 1036TIP3   OH2 3113   0.524   3.296   3.078
 1036TIP3    H1 3114   0.493   3.300   3.169
 1036TIP3    H2 3115   0.554   3.385   3.059
 1037TIP3   OH2 3116   3.684   3.824   4.363
 1037TIP3    H1 3117   3.671   3.911   4.399
 1037TIP3    H2 3118   3.686   3.766   4.440
 1038TIP3   OH2 3119   5.363   1.038   2.964
 1038TIP3    H1 3120   5.355   1.127   2.928
 1038TIP3    H2 3121   5.337   0.981   2.891
 1039TIP3   OH2 3122   5.984   0.919   3.935
 1039TIP3    H1 3123   6.019   0.987   3.993
 1039TIP3    H2 3124   5.896   0.903   3.968
 1040TIP3   OH2 3125   2.230   3.616   0.222
 1040TIP3    H1 3126   2.216   3.710   0.212
 1040TIP3    H2 3127   2.321   3.608   0.250
 1041TIP3   OH2 3128   4.426   2.580   2.343
 1041TIP3    H1 3129   4.502   2.525   2.360
 1041TIP3    H2 3130   4.412   2.572   2.248
 1042TIP3   OH2 3131   3.511   0.534   4.185
 1042TIP3    H1 3132   3.588   0.557   4.134
 1042TIP3    H2 3133   3.473   0.618   4.212
 1043TIP3   OH2 3134   0.742   5.432   2.256
 1043TIP3    H1 3135   0.835   5.413   2.273
 1043TIP3    H2 3136   0.695   5.360   2.298
 1044TIP3   OH2 3137   2.653   2.289   1.697
 1044TIP3    H1 3138   2.649   2.382   1.675
 1044TIP3    H2 3139   2.726   2.282   1.758
 1045TIP3   OH2 3140   6.255   2.306   0.617
 1045TIP3    H1 3141   6.204   2.228   0.600
 1045TIP3    H2 3142   6.327   2.277   0.673
 1046TIP3   OH2 3143   2.200   5.204   2.534
 1046TIP3    H1 3144   2.226   5.121   2.493
 1046TIP3    H2 3145   2.224   5.271   2.470
 1047TIP3   OH2 3146   2.680   3.520   5.094
 1047TIP3    H1 3147   2.585   3.523   5.103
 1047TIP3    H2 3148   2.704   3.433   5.124
 1048TIP3   OH2 3149   0.835   2.999   0.283
 1048TIP3    H1 3150   0.833   2.941   0.359
 1048TIP3    H2 3151   0.743   3.017   0.264
 1049TIP3   OH2 3152   1.399   4.799   4.472
 1049TIP3    H1 3153   1.490   4.810   4.501
 1049TIP3    H2 3154   1.393   4.853   4.393
 1050TIP3   OH2 3155   2.173   3.058   3.198
 1050TIP3    H1 3156   2.180   3.011   3.281
 1050TIP3    H2 3157   2.082   3.045   3.170
 1051TIP3   OH2 3158   0.240   4.593   0.021
 1051TIP3    H1 3159   0.322   4.545   0.026
 1051TIP3    H2 3160   0.266   4.685   0.015
 1052TIP3   OH2 3161   0.766   5.610   4.366
 1052TIP3    H1 3162   0.821   5.665   4.311
 1052TIP3    H2 3163   0.697   5.670   4.397
 1053TIP3   OH2 3164   1.274   0.719   1.616
 1053TIP3    H1 3165   1.229   0.637   1.596
 1053TIP3    H2 3166   1.360   0.692   1.647
 1054TIP3   OH2 3167   2.676   5.207   5.040
 1054TIP3    H1 3168   2.731   5.154   4.982
 1054TIP3    H2 3169   2.613   5.145   5.077
 1055TIP3   OH2 3170   1.301   3.283   1.216
 1055TIP3    H1 3171   1.310   3.323   1.130
 1055TIP3    H2 3172   1.209   3.254   1.220
 1056TIP3   OH2 3173   3.971   3.644   1.059
 1056TIP3    H1 3174   3.940   3.563   1.020
 1056TIP3    H2 3175   3.891   3.695   1.076
 1057TIP3   OH2 3176   0.748   2.771   2.876
 1057TIP3    H1 3177   0.672   2.815   2.839
 1057TIP3    H2 3178   0.768   2.701   2.814
 1058TIP3   OH2 3179   0.559   2.986   4.502
 1058TIP3    H1 3180   0.575   2.962   4.410
 1058TIP3    H2 3181   0.464   2.983   4.511
 1059TIP3   OH2 3182   5.004   1.380   3.798
 1059TIP3    H1 3183   4.964   1.345   3.877
 1059TIP3    H2 3184   4.990   1.313   3.731
 1060TIP3   OH2 3185   4.752   5.171   2.734
 1060TIP3    H1 3186   4.794   5.241   2.683
 1060TIP3    H2 3187   4.735   5.102   2.670
 1061TIP3   OH2 3188   1.890   1.475   4.748
 1061TIP3    H1 3189   1.975   1.507   4.718
 1061TIP3    H2 3190   1.897   1.473   4.843
 1062TIP3   OH2 3191   1.048   4.775   3.052
 1062TIP3    H1 3192   1.090   4.804   2.971
 1062TIP3    H2 3193   1.116   4.783   3.119
 1063TIP3   OH2 3194   3.611   2.040   2.591
 1063TIP3    H1 3195   3.653   2.066   2.673
 1063TIP3    H2 3196   3.554   2.114   2.569
 1064TIP3   OH2 3197   4.295   2.333   4.634
 1064TIP3    H1 3198   4.307   2.368   4.545
 1064TIP3    H2 3199   4.200   2.318   4.640
 1065TIP3   OH2 3200   6.123   3.789   4.917
 1065TIP3    H1 3201   6.117   3.874   4.874
 1065TIP3    H2 3202   6.035   3.772   4.950
 1066TIP3   OH2 3203   3.700   5.714   1.030
 1066TIP3    H1 3204   3.679   5.774   1.101
 1066TIP3    H2 3205   3.617   5.702   0.983
 1067TIP3   OH2 3206   3.970   5.898   2.795
 1067TIP3    H1 3207   4.045   5.855   2.752
 1067TIP3    H2 3208   4.009   5.946   2.868
 1068TIP3   OH2 3209   5.518   3.682   2.647
 1068TIP3    H1 3210   5.520   3.650   2.557
 1068TIP3    H2 3211   5.425   3.687   2.669
 1069TIP3   OH2 3212   1.299   5.863   1.481
 1069TIP3    H1 3213   1.296   5.845   1.387
 1069TIP3    H2 3214   1.323   5.779   1.520
 1070TIP3   OH2 3215   1.859   5.479   2.055
 1070TIP3    H1 3216   1.854   5.456   1.962
 1070TIP3    H2 3217   1.944   5.520   2.065
 1071TIP3   OH2 3218   3.854   1.060   3.022
 1071TIP3    H1 3219   3.901   1.143   3.031
 1071TIP3    H2 3220   3.919   0.993   3.045
 1072TIP3   OH2 3221   1.942   5.832   4.438
 1072TIP3    H1 3222   2.017   5.891   4.447
 1072TIP3    H2 3223   1.960   5.760   4.499
 1073TIP3   OH2 3224   4.625   4.364   4.685
 1073TIP3    H1 3225   4.549   4.318   4.651
 1073TIP3    H2 3226   4.697   4.334   4.629
 1074TIP3   OH2 3227   0.676   3.346   2.645
 1074TIP3    H1 3228   0.667   3.252   2.658
 1074TIP3    H2 3229   0.763   3.367   2.680
 1075TIP3   OH2 3230   0.120   4.449   2.536
 1075TIP3    H1 3231   0.202   4.412   2.567
 1075TIP3    H2 3232   0.085   4.384   2.474
 1076TIP3   OH2 3233   4.751   4.773   4.514
 1076TIP3    H1 3234   4.662   4.744   4.495
 1076TIP3    H2 3235   4.773   4.833   4.443
 1077TIP3   OH2 3236   3.244   4.653   2.204
 1077TIP3    H1 3237   3.192   4.597   2.147
 1077TIP3    H2 3238   3.236   4.614   2.291
 1078TIP3   OH2 3239   3.356   0.406   1.749
 1078TIP3    H1 3240   3.354   0.334   1.686
 1078TIP3    H2 3241   3.296   0.472   1.714
 1079TIP3   OH2 3242   4.146   5.344   2.705
 1079TIP3    H1 3243   4.174   5.253   2.716
 1079TIP3    H2 3244   4.109   5.348   2.617
 1080TIP3   OH2 3245   4.196   3.832   0.061
 1080TIP3    H1 3246   4.135   3.759   0.051
 1080TIP3    H2 3247   4.140   3.909   0.072
 1081TIP3   OH2 3248   0.810   5.143   4.732
 1081TIP3    H1 3249   0.733   5.102   4.770
 1081TIP3    H2 3250   0.777   5.194   4.658
 1082TIP3   OH2 3251   2.164   0.431   2.884
 1082TIP3    H1 3252   2.214   0.420   2.965
 1082TIP3    H2 3253   2.094   0.492   2.908
 1083TIP3   OH2 3254   5.576   2.742   0.428
 1083TIP3    H1 3255   5.558   2.677   0.361
 1083TIP3    H2 3256   5.665   2.772   0.409
 1084TIP3   OH2 3257   2.930   5.742   2.401
 1084TIP3    H1 3258   2.842   5.730   2.365
 1084TIP3    H2 3259   2.989   5.721   2.329
 1085TIP3   OH2 3260   5.064   3.598   4.769
 1085TIP3    H1 3261   5.124   3.670   4.785
 1085TIP3    H2 3262   5.121   3.522   4.754
 1086TIP3   OH2 3263   0.315   4.459   2.205
 1086TIP3    H1 3264   0.370   4.437   2.281
 1086TIP3    H2 3265   0.342   4.547   2.181
 1087TIP3   OH2 3266   4.454   1.901   3.740
 1087TIP3    H1 3267   4.395   1.844   3.691
 1087TIP3    H2 3268   4.396   1.963   3.785
 1088TIP3   OH2 3269   1.735   3.883   0.099
 1088TIP3    H1 3270   1.702   3.962   0.143
 1088TIP3    H2 3271   1.687   3.881   0.016
 1089TIP3   OH2 3272   3.170  -0.008   3.348
 1089TIP3    H1 3273   3.145   0.076   3.308
 1089TIP3    H2 3274   3.226  -0.050   3.284
 1090TIP3   OH2 3275   5.025   5.927   0.278
 1090TIP3    H1 3276   5.109   5.934   0.233
 1090TIP3    H2 3277   4.969   5.880   0.216
 1091TIP3   OH2 3278   5.505   1.613   3.449
 1091TIP3    H1 3279   5.554   1.594   3.369
 1091TIP3    H2 3280   5.458   1.532   3.469
 1092TIP3   OH2 3281   4.248   5.800   4.828
 1092TIP3    H1 3282   4.155   5.782   4.815
 1092TIP3    H2 3283   4.260   5.796   4.923
 1093TIP3   OH2 3284   0.385   2.503   0.847
 1093TIP3    H1 3285   0.328   2.577   0.829
 1093TIP3    H2 3286   0.473   2.534   0.826
 1094TIP3   OH2 3287   0.724   2.837   0.872
 1094TIP3    H1 3288   0.781   2.783   0.817
 1094TIP3    H2 3289   0.674   2.774   0.924
 1095TIP3   OH2 3290   6.126   0.736   3.785
 1095TIP3    H1 3291   6.074   0.799   3.836
 1095TIP3    H2 3292   6.161   0.676   3.851
 1096TIP3   OH2 3293   0.956   1.960   2.047
 1096TIP3    H1 3294   0.952   2.056   2.054
 1096TIP3    H2 3295   0.865   1.932   2.058
 1097TIP3   OH2 3296   4.067   1.338   4.158
 1097TIP3    H1 3297   4.086   1.278   4.229
 1097TIP3    H2 3298   3.980   1.312   4.127
 1098TIP3   OH2 3299   1.413   4.213   0.698
 1098TIP3    H1 3300   1.493   4.249   0.736
 1098TIP3    H2 3301   1.360   4.188   0.773
 1099TIP3   OH2 3302   1.841   2.788   5.091
 1099TIP3    H1 3303   1.770   2.808   5.152
 1099TIP3    H2 3304   1.797   2.766   5.009
 1100TIP3   OH2 3305   0.290   1.219   2.088
 1100TIP3    H1 3306   0.250   1.286   2.034
 1100TIP3    H2 3307   0.336   1.268   2.157
 1101TIP3   OH2 3308   5.579   4.474   0.883
 1101TIP3    H1 3309   5.524   4.551   0.867
 1101TIP3    H2 3310   5.518   4.408   0.916
 1102TIP3   OH2 3311   3.320   3.099   4.062
 1102TIP3    H1 3312   3.337   3.129   3.973
 1102TIP3    H2 3313   3.406   3.084   4.100
 1103TIP3   OH2 3314   1.622   2.931   5.176
 1103TIP3    H1 3315   1.546   2.977   5.140
 1103TIP3    H2 3316   1.668   2.997   5.228
 1104TIP3   OH2 3317   4.233   5.331   1.743
 1104TIP3    H1 3318   4.193   5.372   1.667
 1104TIP3    H2 3319   4.306   5.281   1.707
 1105TIP3   OH2 3320   1.051   3.189   0.253
 1105TIP3    H1 3321   1.009   3.170   0.169
 1105TIP3    H2 3322   0.981   3.181   0.318
 1106TIP3   OH2 3323   0.763   3.365   4.619
 1106TIP3    H1 3324   0.812   3.363   4.536
 1106TIP3    H2 3325   0.776   3.453   4.653
 1107TIP3   OH2 3326   5.258   5.283   1.245
 1107TIP3    H1 3327   5.333   5.342   1.255
 1107TIP3    H2 3328   5.205   5.323   1.176
 1108TIP3   OH2 3329   0.480   3.613   0.073
 1108TIP3    H1 3330   0.454   3.589  -0.016
 1108TIP3    H2 3331   0.432   3.693   0.092
 1109TIP3   OH2 3332   4.870   0.512   2.889
 1109TIP3    H1 3333   4.925   0.576   2.844
 1109TIP3    H2 3334   4.799   0.494   2.827
 1110TIP3   OH2 3335   4.600   0.710   0.177
 1110TIP3    H1 3336   4.581   0.637   0.236
 1110TIP3    H2 3337   4.635   0.779   0.234
 1111TIP3   OH2 3338   3.565   5.777   0.533
 1111TIP3    H1 3339   3.491   5.743   0.583
 1111TIP3    H2 3340   3.624   5.813   0.599
 1112TIP3   OH2 3341   6.155   4.767   2.097
 1112TIP3    H1 3342   6.175   4.687   2.146
 1112TIP3    H2 3343   6.097   4.738   2.027
 1113TIP3   OH2 3344   2.272   2.681   0.340
 1113TIP3    H1 3345   2.365   2.703   0.340
 1113TIP3    H2 3346   2.261   2.621   0.266
 1114TIP3   OH2 3347   3.900   2.026   4.593
 1114TIP3    H1 3348   3.836   2.090   4.564
 1114TIP3    H2 3349   3.891   2.024   4.688
 1115TIP3   OH2 3350   2.495   5.168   0.662
 1115TIP3    H1 3351   2.422   5.110   0.642
 1115TIP3    H2 3352   2.455   5.248   0.695
 1116TIP3   OH2 3353   0.479   2.490   1.632
 1116TIP3    H1 3354   0.514   2.436   1.702
 1116TIP3    H2 3355   0.384   2.483   1.641
 1117TIP3   OH2 3356   4.913   3.140   2.564
 1117TIP3    H1 3357   4.854   3.070   2.536
 1117TIP3    H2 3358   4.854   3.211   2.592
 1118TIP3   OH2 3359   2.987   3.202   2.049
 1118TIP3    H1 3360   2.917   3.221   1.986
 1118TIP3    H2 3361   3.056   3.161   1.996
 1119TIP3   OH2 3362   0.373   4.922   1.003
 1119TIP3    H1 3363   0.375   4.843   0.949
 1119TIP3    H2 3364   0.369   4.994   0.940
 1120TIP3   OH2 3365   3.256   2.719   2.643
 1120TIP3    H1 3366   3.183   2.721   2.581
 1120TIP3    H2 3367   3.328   2.679   2.594
 1121TIP3   OH2 3368   5.892   0.000   4.377
 1121TIP3    H1 3369   5.918  -0.061   4.309
 1121TIP3    H2 3370   5.859   0.077   4.329
 1122TIP3   OH2 3371   1.006   0.284   2.630
 1122TIP3    H1 3372   1.087   0.237   2.646
 1122TIP3    H2 3373   0.981   0.260   2.541
 1123TIP3   OH2 3374   3.443   2.028   4.186
 1123TIP3    H1 3375   3.516   2.068   4.139
 1123TIP3    H2 3376   3.376   2.096   4.190
 1124TIP3   OH2 3377   6.114   5.968   1.590
 1124TIP3    H1 3378   6.035   5.929   1.552
 1124TIP3    H2 3379   6.083   6.014   1.668
 1125TIP3   OH2 3380   0.183   4.072   2.554
 1125TIP3    H1 3381   0.104   4.125   2.541
 1125TIP3    H2 3382   0.157   4.008   2.621
 1126TIP3   OH2 3383   0.369   0.683   0.702
 1126TIP3    H1 3384   0.312   0.676   0.625
 1126TIP3    H2 3385   0.404   0.772   0.698
 1127TIP3   OH2 3386   3.335   0.472   1.431
 1127TIP3    H1 3387   3.299   0.558   1.453
 1127TIP3    H2 3388   3.267   0.431   1.378
 1128TIP3   OH2 3389   1.672   4.894   3.422
 1128TIP3    H1 3390   1.588   4.887   3.468
 1128TIP3    H2 3391   1.709   4.806   3.428
 1129TIP3   OH2 3392   3.568   4.832   3.846
 1129TIP3    H1 3393   3.663   4.848   3.847
 1129TIP3    H2 3394   3.560   4.737   3.837
 1130TIP3   OH2 3395   1.929   5.111   4.287
 1130TIP3    H1 3396   1.988   5.173   4.330
 1130TIP3    H2 3397   1.977   5.083   4.208
 1131TIP3   OH2 3398   0.528   4.705   3.233
 1131TIP3    H1 3399   0.589   4.656   3.288
 1131TIP3    H2 3400   0.544   4.673   3.144
 1132TIP3   OH2 3401   0.735   2.125   3.112
 1132TIP3    H1 3402   0.749   2.120   3.017
 1132TIP3    H2 3403   0.709   2.037   3.137
 1133TIP3   OH2 3404   5.641   0.306   1.051
 1133TIP3    H1 3405   5.561   0.254   1.054
 1133TIP3    H2 3406   5.705   0.256   1.102
 1134TIP3   OH2 3407   2.896   2.684   0.975
 1134TIP3    H1 3408   2.949   2.728   0.908
 1134TIP3    H2 3409   2.958   2.664   1.045
 1135TIP3   OH2 3410   5.615   2.572   3.198
 1135TIP3    H1 3411   5.703   2.592   3.231
 1135TIP3    H2 3412   5.573   2.658   3.190
 1136TIP3   OH2 3413   3.456   0.804   2.900
 1136TIP3    H1 3414   3.394   0.789   2.828
 1136TIP3    H2 3415   3.401   0.809   2.978
 1137TIP3   OH2 3416   1.566   2.205   0.520
 1137TIP3    H1 3417   1.646   2.233   0.565
 1137TIP3    H2 3418   1.587   2.118   0.487
 1138TIP3   OH2 3419   4.382   5.421   3.590
 1138TIP3    H1 3420   4.435   5.369   3.652
 1138TIP3    H2 3421   4.292   5.397   3.610
 1139TIP3   OH2 3422   4.261   5.376   3.888
 1139TIP3    H1 3423   4.331   5.437   3.909
 1139TIP3    H2 3424   4.181   5.427   3.901
 1140TIP3   OH2 3425   1.839   3.994   3.082
 1140TIP3    H1 3426   1.767   3.966   3.026
 1140TIP3    H2 3427   1.808   4.077   3.119
 1141TIP3   OH2 3428   0.056   5.906   2.153
 1141TIP3    H1 3429   0.076   5.961   2.078
 1141TIP3    H2 3430   0.114   5.938   2.223
 1142TIP3   OH2 3431   3.308   0.824   2.475
 1142TIP3    H1 3432   3.273   0.792   2.558
 1142TIP3    H2 3433   3.402   0.832   2.489
 1143TIP3   OH2 3434   0.465   4.125   4.204
 1143TIP3    H1 3435   0.420   4.190   4.259
 1143TIP3    H2 3436   0.401   4.102   4.137
 1144TIP3   OH2 3437   1.454   4.158   0.437
 1144TIP3    H1 3438   1.548   4.140   0.433
 1144TIP3    H2 3439   1.438   4.182   0.528
 1145TIP3   OH2 3440   1.295   0.839   5.030
 1145TIP3    H1 3441   1.225   0.778   5.009
 1145TIP3    H2 3442   1.372   0.804   4.985
 1146TIP3   OH2 3443   1.389   4.404   0.318
 1146TIP3    H1 3444   1.432   4.448   0.391
 1146TIP3    H2 3445   1.371   4.315   0.350
 1147TIP3   OH2 3446   5.896   4.707   2.318
 1147TIP3    H1 3447   5.901   4.751   2.234
 1147TIP3    H2 3448   5.986   4.680   2.337
 1148TIP3   OH2 3449   0.206   0.067   0.591
 1148TIP3    H1 3450   0.228   0.036   0.503
 1148TIP3    H2 3451   0.260   0.012   0.649
 1149TIP3   OH2 3452   6.000   3.103   2.194
 1149TIP3    H1 3453   5.944   3.100   2.272
 1149TIP3    H2 3454   6.005   3.012   2.164
 1150TIP3   OH2 3455   1.590   4.061   4.571
 1150TIP3    H1 3456   1.684   4.077   4.559
 1150TIP3    H2 3457   1.584   4.017   4.656
 1151TIP3   OH2 3458   5.194   5.855   4.559
 1151TIP3    H1 3459   5.255   5.916   4.602
 1151TIP3    H2 3460   5.163   5.903   4.482
 1152TIP3   OH2 3461   5.130   0.131   1.819
 1152TIP3    H1 3462   5.068   0.060   1.833
 1152TIP3    H2 3463   5.123   0.152   1.727
 1153TIP3   OH2 3464   3.055   0.293   4.185
 1153TIP3    H1 3465   3.139   0.299   4.138
 1153TIP3    H2 3466   3.066   0.348   4.262
 1154TIP3   OH2 3467   4.099   4.884   2.611
 1154TIP3    H1 3468   4.135   4.964   2.651
 1154TIP3    H2 3469   4.033   4.854   2.674
 1155TIP3   OH2 3470   6.312   0.628   2.893
 1155TIP3    H1 3471   6.266   0.711   2.881
 1155TIP3    H2 3472   6.333   0.598   2.805
 1156TIP3   OH2 3473   1.505   1.492   3.588
 1156TIP3    H1 3474   1.579   1.440   3.621
 1156TIP3    H2 3475   1.524   1.582   3.617
 1157TIP3   OH2 3476   4.954   3.580   1.873
 1157TIP3    H1 3477   4.967   3.631   1.953
 1157TIP3    H2 3478   5.013   3.505   1.882
 1158TIP3   OH2 3479   5.904   2.215   2.729
 1158TIP3    H1 3480   5.865   2.186   2.647
 1158TIP3    H2 3481   5.996   2.188   2.722
 1159TIP3   OH2 3482   3.607   2.056   5.118
 1159TIP3    H1 3483   3.618   1.983   5.178
 1159TIP3    H2 3484   3.531   2.033   5.065
 1160TIP3   OH2 3485   5.909   3.554   2.761
 1160TIP3    H1 3486   5.966   3.507   2.823
 1160TIP3    H2 3487   5.843   3.489   2.736
 1161TIP3   OH2 3488   1.331   1.600   3.966
 1161TIP3    H1 3489   1.260   1.544   3.936
 1161TIP3    H2 3490   1.392   1.540   4.009
 1162TIP3   OH2 3491   2.585   4.963   3.304
 1162TIP3    H1 3492   2.673   4.936   3.328
 1162TIP3    H2 3493   2.581   4.951   3.209
 1163TIP3   OH2 3494   0.053   3.697   4.330
 1163TIP3    H1 3495   0.125   3.731   4.383
 1163TIP3    H2 3496  -0.001   3.648   4.392
 1164TIP3   OH2 3497   3.915   0.954   1.545
 1164TIP3    H1 3498   3.827   0.990   1.529
 1164TIP3    H2 3499   3.955   1.014   1.608
 1165TIP3   OH2 3500   5.477   5.596   2.068
 1165TIP3    H1 3501   5.523   5.602   1.984
 1165TIP3    H2 3502   5.546   5.602   2.133
 1166TIP3   OH2 3503   4.967   4.586   4.528
 1166TIP3    H1 3504   5.061   4.579   4.514
 1166TIP3    H2 3505   4.949   4.679   4.523
 1167TIP3   OH2 3506   1.159   4.548   3.560
 1167TIP3    H1 3507   1.114   4.619   3.606
 1167TIP3    H2 3508   1.133   4.468   3.606
 1168TIP3   OH2 3509   0.331   0.190   1.707
 1168TIP3    H1 3510   0.297   0.250   1.774
 1168TIP3    H2 3511   0.333   0.105   1.750
 1169TIP3   OH2 3512   4.801   4.270   2.393
 1169TIP3    H1 3513   4.804   4.270   2.297
 1169TIP3    H2 3514   4.708   4.265   2.414
 1170TIP3   OH2 3515   3.793   4.108   3.832
 1170TIP3    H1 3516   3.803   4.203   3.825
 1170TIP3    H2 3517   3.720   4.096   3.893
 1171TIP3   OH2 3518   3.298   1.053   3.717
 1171TIP3    H1 3519   3.389   1.047   3.746
 1171TIP3    H2 3520   3.250   0.998   3.779
 1172TIP3   OH2 3521   5.777   4.614   1.032
 1172TIP3    H1 3522   5.790   4.546   1.098
 1172TIP3    H2 3523   5.690   4.597   0.996
 1173TIP3   OH2 3524   4.134   4.966   2.329
 1173TIP3    H1 3525   4.208   5.022   2.354
 1173TIP3    H2 3526   4.125   4.905   2.401
 1174TIP3   OH2 3527   0.969   5.854   2.580
 1174TIP3    H1 3528   0.978   5.875   2.673
 1174TIP3    H2 3529   0.934   5.765   2.579
 1175TIP3   OH2 3530   2.549   0.723   1.471
 1175TIP3    H1 3531   2.465   0.710   1.515
 1175TIP3    H2 3532   2.525   0.749   1.382
 1176TIP3   OH2 3533   6.175   3.706   0.978
 1176TIP3    H1 3534   6.081   3.705   0.997
 1176TIP3    H2 3535   6.189   3.630   0.921
 1177TIP3   OH2 3536   0.430   0.216   2.949
 1177TIP3    H1 3537   0.439   0.309   2.927
 1177TIP3    H2 3538   0.444   0.213   3.044
 1178TIP3   OH2 3539   1.839   3.618   2.018
 1178TIP3    H1 3540   1.747   3.629   2.041
 1178TIP3    H2 3541   1.873   3.707   2.013
 1179TIP3   OH2 3542   2.469   0.613   4.900
 1179TIP3    H1 3543   2.562   0.603   4.878
 1179TIP3    H2 3544   2.468   0.683   4.965
 1180TIP3   OH2 3545   0.972   5.126   5.195
 1180TIP3    H1 3546   0.929   5.201   5.154
 1180TIP3    H2 3547   1.002   5.072   5.122
 1181TIP3   OH2 3548   4.589   4.281   2.077
 1181TIP3    H1 3549   4.558   4.349   2.138
 1181TIP3    H2 3550   4.647   4.226   2.130
 1182TIP3   OH2 3551   3.663   3.099   0.286
 1182TIP3    H1 3552   3.657   3.082   0.192
 1182TIP3    H2 3553   3.661   3.194   0.294
 1183TIP3   OH2 3554   3.132   0.016   1.259
 1183TIP3    H1 3555   3.127   0.111   1.265
 1183TIP3    H2 3556   3.226  -0.003   1.250
 1184TIP3   OH2 3557   2.561   2.556   1.365
 1184TIP3    H1 3558   2.603   2.588   1.285
 1184TIP3    H2 3559   2.575   2.462   1.363
 1185TIP3   OH2 3560   0.768   4.137   3.766
 1185TIP3    H1 3561   0.689   4.168   3.811
 1185TIP3    H2 3562   0.838   4.194   3.799
 1186TIP3   OH2 3563   3.264   1.788   4.118
 1186TIP3    H1 3564   3.308   1.873   4.105
 1186TIP3    H2 3565   3.264   1.748   4.031
 1187TIP3   OH2 3566   5.487   0.057   0.751
 1187TIP3    H1 3567   5.404   0.024   0.716
 1187TIP3    H2 3568   5.506   0.001   0.826
 1188TIP3   OH2 3569   0.060   4.171   4.487
 1188TIP3    H1 3570   0.125   4.210   4.428
 1188TIP3    H2 3571   0.075   4.214   4.571
 1189TIP3   OH2 3572   3.910   4.590   2.393
 1189TIP3    H1 3573   3.841   4.555   2.338
 1189TIP3    H2 3574   3.865   4.625   2.470
 1190TIP3   OH2 3575   0.101   3.217   2.974
 1190TIP3    H1 3576   0.084   3.224   3.068
 1190TIP3    H2 3577   0.181   3.167   2.967
 1191TIP3   OH2 3578   3.007   2.758   4.477
 1191TIP3    H1 3579   3.027   2.664   4.476
 1191TIP3    H2 3580   3.093   2.801   4.473
 1192TIP3   OH2 3581   3.756   1.992   0.902
 1192TIP3    H1 3582   3.665   2.015   0.917
 1192TIP3    H2 3583   3.786   2.054   0.836
 1193TIP3   OH2 3584   3.431   5.138   3.671
 1193TIP3    H1 3585   3.511   5.092   3.647
 1193TIP3    H2 3586   3.380   5.075   3.722
 1194TIP3   OH2 3587   1.450   1.582  -0.006
 1194TIP3    H1 3588   1.404   1.582   0.078
 1194TIP3    H2 3589   1.405   1.515  -0.058
 1195TIP3   OH2 3590   5.813   5.956   0.747
 1195TIP3    H1 3591   5.773   6.042   0.760
 1195TIP3    H2 3592   5.782   5.928   0.661
 1196TIP3   OH2 3593   3.000   1.614   1.429
 1196TIP3    H1 3594   3.035   1.687   1.378
 1196TIP3    H2 3595   2.953   1.654   1.501
 1197TIP3   OH2 3596   4.100   2.392   4.176
 1197TIP3    H1 3597   4.149   2.376   4.095
 1197TIP3    H2 3598   4.081   2.305   4.211
 1198TIP3   OH2 3599   3.731   5.678   2.767
 1198TIP3    H1 3600   3.816   5.664   2.808
 1198TIP3    H2 3601   3.744   5.655   2.675
 1199TIP3   OH2 3602   5.746   1.158   4.061
 1199TIP3    H1 3603   5.718   1.081   4.012
 1199TIP3    H2 3604   5.815   1.197   4.008
 1200TIP3   OH2 3605   1.789   1.228   4.159
 1200TIP3    H1 3606   1.720   1.195   4.102
 1200TIP3    H2 3607   1.752   1.223   4.247
 1201TIP3   OH2 3608   3.367   2.175   1.889
 1201TIP3    H1 3609   3.449   2.210   1.855
 1201TIP3    H2 3610   3.304   2.245   1.877
 1202TIP3   OH2 3611   1.577   4.676   0.170
 1202TIP3    H1 3612   1.580   4.675   0.266
 1202TIP3    H2 3613   1.651   4.621   0.143
 1203TIP3   OH2 3614   2.998   2.274   0.303
 1203TIP3    H1 3615   3.044   2.200   0.342
 1203TIP3    H2 3616   2.984   2.335   0.376
 1204TIP3   OH2 3617   4.159   5.227   4.140
 1204TIP3    H1 3618   4.089   5.163   4.126
 1204TIP3    H2 3619   4.187   5.252   4.052
 1205TIP3   OH2 3620   5.906   1.590   0.911
 1205TIP3    H1 3621   5.977   1.653   0.921
 1205TIP3    H2 3622   5.868   1.609   0.826
 1206TIP3   OH2 3623   0.933   4.715   4.647
 1206TIP3    H1 3624   0.963   4.793   4.600
 1206TIP3    H2 3625   0.864   4.748   4.705
 1207TIP3   OH2 3626   1.734   5.954   1.990
 1207TIP3    H1 3627   1.681   5.990   1.919
 1207TIP3    H2 3628   1.697   5.866   2.004
 1208TIP3   OH2 3629   3.037   2.818   3.552
 1208TIP3    H1 3630   3.028   2.729   3.518
 1208TIP3    H2 3631   3.091   2.863   3.488
 1209TIP3   OH2 3632   2.282   4.397   4.015
 1209TIP3    H1 3633   2.297   4.434   3.928
 1209TIP3    H2 3634   2.274   4.473   4.072
 1210TIP3   OH2 3635   1.397   3.113   5.036
 1210TIP3    H1 3636   1.337   3.178   5.074
 1210TIP3    H2 3637   1.402   3.137   4.943
 1211TIP3   OH2 3638   0.654   2.669   0.169
 1211TIP3    H1 3639   0.640   2.740   0.232
 1211TIP3    H2 3640   0.570   2.660   0.125
 1212TIP3   OH2 3641   0.268   0.429   0.205
 1212TIP3    H1 3642   0.348   0.418   0.153
 1212TIP3    H2 3643   0.262   0.523   0.220
 1213TIP3   OH2 3644   4.622   3.675   2.777
 1213TIP3    H1 3645   4.641   3.654   2.868
 1213TIP3    H2 3646   4.575   3.758   2.781
 1214TIP3   OH2 3647   2.798   4.006   2.613
 1214TIP3    H1 3648   2.741   4.013   2.690
 1214TIP3    H2 3649   2.855   4.083   2.618
 1215TIP3   OH2 3650   2.222   2.543   3.786
 1215TIP3    H1 3651   2.146   2.601   3.788
 1215TIP3    H2 3652   2.268   2.562   3.867
 1216TIP3   OH2 3653   1.937   3.913   4.662
 1216TIP3    H1 3654   2.023   3.876   4.679
 1216TIP3    H2 3655   1.881   3.878   4.731
 1217TIP3   OH2 3656   4.098   0.522   1.312
 1217TIP3    H1 3657   4.172   0.574   1.340
 1217TIP3    H2 3658   4.032   0.535   1.380
 1218TIP3   OH2 3659   2.838   1.760   1.576
 1218TIP3    H1 3660   2.756   1.711   1.569
 1218TIP3    H2 3661   2.839   1.793   1.666
 1219TIP3   OH2 3662   6.074   5.576   1.009
 1219TIP3    H1 3663   6.085   5.638   1.082
 1219TIP3    H2 3664   6.055   5.632   0.934
 1220TIP3   OH2 3665   1.934   2.026   4.112
 1220TIP3    H1 3666   1.945   2.101   4.170
 1220TIP3    H2 3667   1.992   1.959   4.148
 1221TIP3   OH2 3668   0.147   0.670   2.172
 1221TIP3    H1 3669   0.192   0.633   2.249
 1221TIP3    H2 3670   0.139   0.763   2.191
 1222TIP3   OH2 3671   5.309   5.428   0.421
 1222TIP3    H1 3672   5.286   5.376   0.344
 1222TIP3    H2 3673   5.405   5.436   0.417
 1223TIP3   OH2 3674   0.097   1.606   0.130
 1223TIP3    H1 3675   0.184   1.576   0.102
 1223TIP3    H2 3676   0.048   1.526   0.145
 1224TIP3   OH2 3677   3.746   4.177   3.489
 1224TIP3    H1 3678   3.838   4.179   3.513
 1224TIP3    H2 3679   3.746   4.177   3.393
 1225TIP3   OH2 3680   5.552   1.876   2.655
 1225TIP3    H1 3681   5.529   1.948   2.596
 1225TIP3    H2 3682   5.468   1.835   2.677
 1226TIP3   OH2 3683   6.267   0.653   2.383
 1226TIP3    H1 3684   6.317   0.734   2.377
 1226TIP3    H2 3685   6.176   0.682   2.387
 1227TIP3   OH2 3686   3.877   2.030   1.167
 1227TIP3    H1 3687   3.963   2.044   1.128
 1227TIP3    H2 3688   3.819   2.012   1.093
 1228TIP3   OH2 3689   0.479   2.795   2.838
 1228TIP3    H1 3690   0.396   2.777   2.794
 1228TIP3    H2 3691   0.457   2.793   2.932
 1229TIP3   OH2 3692   6.022   0.841   2.380
 1229TIP3    H1 3693   6.013   0.936   2.388
 1229TIP3    H2 3694   5.934   0.807   2.399
 1230TIP3   OH2 3695   4.885   4.298   3.336
 1230TIP3    H1 3696   4.922   4.384   3.357
 1230TIP3    H2 3697   4.879   4.297   3.240
 1231TIP3   OH2 3698   2.232   0.482   3.863
 1231TIP3    H1 3699   2.209   0.520   3.778
 1231TIP3    H2 3700   2.298   0.416   3.842
 1232TIP3   OH2 3701   1.731   0.777   2.149
 1232TIP3    H1 3702   1.771   0.861   2.172
 1232TIP3    H2 3703   1.671   0.797   2.078
 1233TIP3   OH2 3704   4.410   5.424   2.812
 1233TIP3    H1 3705   4.381   5.365   2.881
 1233TIP3    H2 3706   4.331   5.443   2.761
 1234TIP3   OH2 3707   3.399   2.912   3.730
 1234TIP3    H1 3708   3.369   2.839   3.676
 1234TIP3    H2 3709   3.420   2.872   3.815
 1235TIP3   OH2 3710   6.063   1.333   4.519
 1235TIP3    H1 3711   5.985   1.325   4.464
 1235TIP3    H2 3712   6.069   1.427   4.538
 1236TIP3   OH2 3713   0.427   1.843   1.331
 1236TIP3    H1 3714   0.492   1.901   1.371
 1236TIP3    H2 3715   0.344   1.890   1.340
 1237TIP3   OH2 3716   5.613   3.158   1.164
 1237TIP3    H1 3717   5.641   3.147   1.073
 1237TIP3    H2 3718   5.691   3.138   1.216
 1238TIP3   OH2 3719   4.646   1.653   1.409
 1238TIP3    H1 3720   4.714   1.597   1.447
 1238TIP3    H2 3721   4.572   1.594   1.393
 1239TIP3   OH2 3722   2.402   1.534   3.109
 1239TIP3    H1 3723   2.486   1.578   3.123
 1239TIP3    H2 3724   2.340   1.606   3.098
 1240TIP3   OH2 3725   3.105   5.652   2.189
 1240TIP3    H1 3726   3.195   5.629   2.211
 1240TIP3    H2 3727   3.105   5.748   2.187
 1241TIP3   OH2 3728   5.136   3.156   2.131
 1241TIP3    H1 3729   5.139   3.158   2.035
 1241TIP3    H2 3730   5.043   3.157   2.152
 1242TIP3   OH2 3731   2.170   5.900   2.501
 1242TIP3    H1 3732   2.084   5.863   2.481
 1242TIP3    H2 3733   2.173   5.982   2.451
 1243TIP3   OH2 3734   4.728   3.081   4.207
 1243TIP3    H1 3735   4.656   3.019   4.195
 1243TIP3    H2 3736   4.690   3.150   4.263
 1244TIP3   OH2 3737   0.607   3.268   0.928
 1244TIP3    H1 3738   0.560   3.212   0.990
 1244TIP3    H2 3739   0.546   3.281   0.856
 1245TIP3   OH2 3740   5.658   5.335   4.442
 1245TIP3    H1 3741   5.586   5.281   4.411
 1245TIP3    H2 3742   5.736   5.281   4.430
 1246TIP3   OH2 3743   0.331   3.875   0.094
 1246TIP3    H1 3744   0.258   3.827   0.131
 1246TIP3    H2 3745   0.311   3.967   0.111
 1247TIP3   OH2 3746   0.310   2.223   5.220
 1247TIP3    H1 3747   0.351   2.307   5.201
 1247TIP3    H2 3748   0.323   2.171   5.141
 1248TIP3   OH2 3749   4.989   5.824   0.881
 1248TIP3    H1 3750   5.064   5.765   0.873
 1248TIP3    H2 3751   5.026   5.912   0.869
 1249TIP3   OH2 3752   0.583   4.388   1.307
 1249TIP3    H1 3753   0.503   4.359   1.262
 1249TIP3    H2 3754   0.654   4.350   1.255
 1250TIP3   OH2 3755   4.882   4.946   5.064
 1250TIP3    H1 3756   4.814   4.956   5.131
 1250TIP3    H2 3757   4.880   5.028   5.014
 1251TIP3   OH2 3758   3.366   5.393   4.294
 1251TIP3    H1 3759   3.322   5.400   4.209
 1251TIP3    H2 3760   3.451   5.354   4.273
 1252TIP3   OH2 3761   2.486   1.357   2.074
 1252TIP3    H1 3762   2.427   1.326   2.005
 1252TIP3    H2 3763   2.528   1.278   2.107
 1253TIP3   OH2 3764   2.702   1.498   0.074
 1253TIP3    H1 3765   2.632   1.445   0.037
 1253TIP3    H2 3766   2.671   1.523   0.161
 1254TIP3   OH2 3767   4.274   0.288   4.008
 1254TIP3    H1 3768   4.293   0.382   4.007
 1254TIP3    H2 3769   4.360   0.246   4.017
 1255TIP3   OH2 3770   1.486   0.641   1.816
 1255TIP3    H1 3771   1.520   0.707   1.875
 1255TIP3    H2 3772   1.393   0.633   1.840
 1256TIP3   OH2 3773   1.710   0.169   3.126
 1256TIP3    H1 3774   1.775   0.235   3.101
 1256TIP3    H2 3775   1.634   0.219   3.154
 1257TIP3   OH2 3776   2.740   2.298   1.182
 1257TIP3    H1 3777   2.649   2.283   1.209
 1257TIP3    H2 3778   2.733   2.342   1.097
 1258TIP3   OH2 3779   0.518   5.430   3.724
 1258TIP3    H1 3780   0.546   5.346   3.686
 1258TIP3    H2 3781   0.596   5.485   3.721
 1259TIP3   OH2 3782   0.704   0.772   2.991
 1259TIP3    H1 3783   0.747   0.829   2.928
 1259TIP3    H2 3784   0.677   0.830   3.062
 1260TIP3   OH2 3785   1.210   2.511   4.928
 1260TIP3    H1 3786   1.157   2.440   4.964
 1260TIP3    H2 3787   1.271   2.534   4.998
 1261TIP3   OH2 3788   2.875   3.945   3.331
 1261TIP3    H1 3789   2.792   3.928   3.287
 1261TIP3    H2 3790   2.897   3.862   3.374
 1262TIP3   OH2 3791   5.874   1.140   2.113
 1262TIP3    H1 3792   5.887   1.234   2.129
 1262TIP3    H2 3793   5.943   1.097   2.163
 1263TIP3   OH2 3794   4.091   2.229   2.431
 1263TIP3    H1 3795   4.043   2.206   2.351
 1263TIP3    H2 3796   4.176   2.187   2.422
 1264TIP3   OH2 3797   0.213   5.274   1.155
 1264TIP3    H1 3798   0.118   5.275   1.164
 1264TIP3    H2 3799   0.235   5.183   1.135
 1265TIP3   OH2 3800   0.724   4.525   3.292
 1265TIP3    H1 3801   0.727   4.495   3.383
 1265TIP3    H2 3802   0.814   4.553   3.273
 1266TIP3   OH2 3803   3.446   5.889   3.180
 1266TIP3    H1 3804   3.484   5.824   3.121
 1266TIP3    H2 3805   3.416   5.839   3.256
 1267TIP3   OH2 3806   0.917   4.074   0.583
 1267TIP3    H1 3807   0.980   4.102   0.516
 1267TIP3    H2 3808   0.916   3.979   0.577
 1268TIP3   OH2 3809   2.080   1.868   3.814
 1268TIP3    H1 3810   2.158   1.922   3.827
 1268TIP3    H2 3811   2.023   1.922   3.759
 1269TIP3   OH2 3812   0.592   4.122   1.101
 1269TIP3    H1 3813   0.576   4.134   1.008
 1269TIP3    H2 3814   0.509   4.089   1.136
 1270TIP3   OH2 3815   6.310   4.995   2.035
 1270TIP3    H1 3816   6.295   4.985   1.941
 1270TIP3    H2 3817   6.294   4.907   2.071
 1271TIP3   OH2 3818   1.640   1.907   3.846
 1271TIP3    H1 3819   1.697   1.979   3.872
 1271TIP3    H2 3820   1.583   1.893   3.922
 1272TIP3   OH2 3821   4.029   0.515   0.486
 1272TIP3    H1 3822   4.016   0.587   0.424
 1272TIP3    H2 3823   3.941   0.497   0.519
 1273TIP3   OH2 3824   3.271   5.791   2.735
 1273TIP3    H1 3825   3.212   5.737   2.789
 1273TIP3    H2 3826   3.357   5.781   2.777
 1274TIP3   OH2 3827   4.510   5.806   1.349
 1274TIP3    H1 3828   4.490   5.896   1.374
 1274TIP3    H2 3829   4.604   5.807   1.330
 1275TIP3   OH2 3830   6.171   5.404   4.469
 1275TIP3    H1 3831   6.101   5.415   4.405
 1275TIP3    H2 3832   6.218   5.487   4.468
 1276TIP3   OH2 3833   4.042   1.420   3.840
 1276TIP3    H1 3834   4.127   1.380   3.861
 1276TIP3    H2 3835   3.979   1.350   3.855
 1277TIP3   OH2 3836   1.360   2.386   4.702
 1277TIP3    H1 3837   1.297   2.419   4.766
 1277TIP3    H2 3838   1.313   2.319   4.653
 1278TIP3   OH2 3839   4.183   2.609   3.813
 1278TIP3    H1 3840   4.205   2.591   3.904
 1278TIP3    H2 3841   4.121   2.540   3.790
 1279TIP3   OH2 3842   2.019   2.482   4.351
 1279TIP3    H1 3843   2.032   2.536   4.429
 1279TIP3    H2 3844   2.073   2.523   4.283
 1280TIP3   OH2 3845   3.021   4.197   0.736
 1280TIP3    H1 3846   3.015   4.269   0.674
 1280TIP3    H2 3847   3.026   4.239   0.822
 1281TIP3   OH2 3848   4.610   0.760   2.727
 1281TIP3    H1 3849   4.627   0.852   2.706
 1281TIP3    H2 3850   4.548   0.763   2.800
 1282TIP3   OH2 3851   2.244   2.910   2.143
 1282TIP3    H1 3852   2.339   2.909   2.148
 1282TIP3    H2 3853   2.223   2.990   2.096
 1283TIP3   OH2 3854   1.180   3.766   0.194
 1283TIP3    H1 3855   1.113   3.799   0.135
 1283TIP3    H2 3856   1.221   3.845   0.230
 1284TIP3   OH2 3857   4.124   0.011   1.580
 1284TIP3    H1 3858   4.138   0.086   1.637
 1284TIP3    H2 3859   4.143   0.044   1.492
 1285TIP3   OH2 3860   2.219   2.712   4.255
 1285TIP3    H1 3861   2.276   2.789   4.264
 1285TIP3    H2 3862   2.179   2.722   4.169
 1286TIP3   OH2 3863   1.119   1.840   0.842
 1286TIP3    H1 3864   1.164   1.756   0.852
 1286TIP3    H2 3865   1.074   1.834   0.758
 1287TIP3   OH2 3866   3.872   0.777   2.424
 1287TIP3    H1 3867   3.934   0.704   2.430
 1287TIP3    H2 3868   3.851   0.782   2.330
 1288TIP3   OH2 3869   1.098   0.841   2.671
 1288TIP3    H1 3870   1.176   0.896   2.678
 1288TIP3    H2 3871   1.103   0.782   2.746
 1289TIP3   OH2 3872   2.740   5.213   3.213
 1289TIP3    H1 3873   2.811   5.163   3.254
 1289TIP3    H2 3874   2.661   5.183   3.258
 1290TIP3   OH2 3875   6.180   5.224   2.721
 1290TIP3    H1 3876   6.186   5.164   2.647
 1290TIP3    H2 3877   6.211   5.308   2.687
 1291TIP3   OH2 3878   1.533   4.134   3.595
 1291TIP3    H1 3879   1.608   4.118   3.653
 1291TIP3    H2 3880   1.573   4.148   3.509
 1292TIP3   OH2 3881   2.467   0.809   2.098
 1292TIP3    H1 3882   2.427   0.881   2.049
 1292TIP3    H2 3883   2.407   0.794   2.171
 1293TIP3   OH2 3884   5.665   3.469   0.872
 1293TIP3    H1 3885   5.611   3.545   0.851
 1293TIP3    H2 3886   5.673   3.470   0.967
 1294TIP3   OH2 3887   3.725   3.453   4.301
 1294TIP3    H1 3888   3.690   3.383   4.247
 1294TIP3    H2 3889   3.698   3.431   4.390
 1295TIP3   OH2 3890   1.615   2.499   1.957
 1295TIP3    H1 3891   1.581   2.581   1.922
 1295TIP3    H2 3892   1.543   2.464   2.010
 1296TIP3   OH2 3893   0.153   2.979   1.691
 1296TIP3    H1 3894   0.138   3.071   1.712
 1296TIP3    H2 3895   0.065   2.940   1.690
 1297TIP3   OH2 3896   5.662   0.950   2.093
 1297TIP3    H1 3897   5.647   0.917   2.004
 1297TIP3    H2 3898   5.739   1.006   2.085
 1298TIP3   OH2 3899   5.827   3.060   1.721
 1298TIP3    H1 3900   5.759   3.052   1.788
 1298TIP3    H2 3901   5.873   3.141   1.743
 1299TIP3   OH2 3902   5.742   3.979   1.835
 1299TIP3    H1 3903   5.809   3.911   1.840
 1299TIP3    H2 3904   5.670   3.946   1.889
 1300TIP3   OH2 3905   3.998   4.507   1.262
 1300TIP3    H1 3906   3.947   4.537   1.336
 1300TIP3    H2 3907   3.934   4.470   1.201
 1301TIP3   OH2 3908   1.955   3.446   4.086
 1301TIP3    H1 3909   1.941   3.385   4.014
 1301TIP3    H2 3910   1.936   3.532   4.048
 1302TIP3   OH2 3911   5.963   2.040   4.519
 1302TIP3    H1 3912   5.950   2.135   4.514
 1302TIP3    H2 3913   5.890   2.003   4.470
 1303TIP3   OH2 3914   1.510   1.903   4.373
 1303TIP3    H1 3915   1.460   1.826   4.346
 1303TIP3    H2 3916   1.562   1.872   4.448
 1304TIP3   OH2 3917   4.694   4.111   4.493
 1304TIP3    H1 3918   4.651   4.034   4.457
 1304TIP3    H2 3919   4.771   4.124   4.439
 1305TIP3   OH2 3920   0.358   4.664   3.707
 1305TIP3    H1 3921   0.301   4.593   3.734
 1305TIP3    H2 3922   0.308   4.744   3.724
 1306TIP3   OH2 3923   2.620   4.690   2.710
 1306TIP3    H1 3924   2.548   4.716   2.768
 1306TIP3    H2 3925   2.657   4.773   2.680
 1307TIP3   OH2 3926   5.676   1.263   3.151
 1307TIP3    H1 3927   5.677   1.167   3.147
 1307TIP3    H2 3928   5.589   1.285   3.183
 1308TIP3   OH2 3929   2.041   4.036   1.299
 1308TIP3    H1 3930   1.980   3.970   1.332
 1308TIP3    H2 3931   2.078   3.997   1.220
 1309TIP3   OH2 3932   4.087   2.539   2.036
 1309TIP3    H1 3933   4.091   2.448   2.007
 1309TIP3    H2 3934   4.061   2.534   2.128
 1310TIP3   OH2 3935   5.413   4.892   4.638
 1310TIP3    H1 3936   5.492   4.942   4.657
 1310TIP3    H2 3937   5.348   4.925   4.700
 1311TIP3   OH2 3938   3.850   4.773   1.030
 1311TIP3    H1 3939   3.775   4.832   1.040
 1311TIP3    H2 3940   3.922   4.830   1.002
 1312TIP3   OH2 3941   0.522   4.929   1.243
 1312TIP3    H1 3942   0.596   4.873   1.220
 1312TIP3    H2 3943   0.488   4.960   1.159
 1313TIP3   OH2 3944   4.457   3.868   3.852
 1313TIP3    H1 3945   4.375   3.883   3.804
 1313TIP3    H2 3946   4.448   3.780   3.888
 1314TIP3   OH2 3947   1.195   1.299   3.886
 1314TIP3    H1 3948   1.166   1.248   3.962
 1314TIP3    H2 3949   1.287   1.275   3.874
 1315TIP3   OH2 3950   3.186   2.638   2.279
 1315TIP3    H1 3951   3.143   2.651   2.363
 1315TIP3    H2 3952   3.179   2.723   2.235
 1316TIP3   OH2 3953   4.255   4.032   2.485
 1316TIP3    H1 3954   4.300   4.082   2.417
 1316TIP3    H2 3955   4.236   4.096   2.554
 1317TIP3   OH2 3956   0.649   0.535   3.760
 1317TIP3    H1 3957   0.660   0.552   3.854
 1317TIP3    H2 3958   0.556   0.518   3.750
 1318TIP3   OH2 3959   3.819   3.907   3.613
 1318TIP3    H1 3960   3.786   3.982   3.662
 1318TIP3    H2 3961   3.871   3.858   3.677
 1319TIP3   OH2 3962   5.504   1.701   4.771
 1319TIP3    H1 3963   5.597   1.694   4.749
 1319TIP3    H2 3964   5.467   1.616   4.748
 1320TIP3   OH2 3965   0.768   5.743   3.983
 1320TIP3    H1 3966   0.817   5.740   3.901
 1320TIP3    H2 3967   0.756   5.836   4.001
 1321TIP3   OH2 3968   3.156   5.409   4.593
 1321TIP3    H1 3969   3.166   5.504   4.585
 1321TIP3    H2 3970   3.105   5.397   4.673
 1322TIP3   OH2 3971   5.846   1.219   1.315
 1322TIP3    H1 3972   5.817   1.134   1.348
 1322TIP3    H2 3973   5.859   1.272   1.394
 1323TIP3   OH2 3974   1.606   5.268   4.831
 1323TIP3    H1 3975   1.586   5.349   4.784
 1323TIP3    H2 3976   1.693   5.244   4.800
 1324TIP3   OH2 3977   5.602   0.455   2.930
 1324TIP3    H1 3978   5.647   0.380   2.891
 1324TIP3    H2 3979   5.510   0.432   2.927
 1325TIP3   OH2 3980   3.275   4.378   0.487
 1325TIP3    H1 3981   3.337   4.443   0.519
 1325TIP3    H2 3982   3.192   4.402   0.527
 1326TIP3   OH2 3983   2.939   3.048   4.010
 1326TIP3    H1 3984   2.990   2.988   3.956
 1326TIP3    H2 3985   2.869   3.078   3.952
 1327TIP3   OH2 3986   5.723   0.571   2.038
 1327TIP3    H1 3987   5.654   0.601   1.978
 1327TIP3    H2 3988   5.791   0.638   2.032
 1328TIP3   OH2 3989   5.536   0.250   3.516
 1328TIP3    H1 3990   5.617   0.297   3.537
 1328TIP3    H2 3991   5.526   0.186   3.586
 1329TIP3   OH2 3992   2.168   1.175   1.729
 1329TIP3    H1 3993   2.161   1.233   1.653
 1329TIP3    H2 3994   2.087   1.188   1.777
 1330TIP3   OH2 3995   4.637   0.170   2.170
 1330TIP3    H1 3996   4.709   0.117   2.204
 1330TIP3    H2 3997   4.649   0.169   2.075
 1331TIP3   OH2 3998   4.425   3.607   1.357
 1331TIP3    H1 3999   4.497   3.545   1.345
 1331TIP3    H2 4000   4.363   3.561   1.412
 1332TIP3   OH2 4001   3.960   3.722   0.237
 1332TIP3    H1 4002   3.886   3.743   0.181
 1332TIP3    H2 4003   3.921   3.686   0.317
 1333TIP3   OH2 4004   5.154   0.291   1.362
 1333TIP3    H1 4005   5.102   0.223   1.407
 1333TIP3    H2 4006   5.245   0.265   1.376
 1334TIP3   OH2 4007   1.066   0.007   1.077
 1334TIP3    H1 4008   1.149  -0.013   1.035
 1334TIP3    H2 4009   1.002   0.010   1.005
 1335TIP3   OH2 4010   6.287   1.276   1.985
 1335TIP3    H1 4011   6.273   1.332   2.061
 1335TIP3    H2 4012   6.202   1.276   1.939
 1336TIP3   OH2 4013   4.754   5.535   1.011
 1336TIP3    H1 4014   4.680   5.475   1.019
 1336TIP3    H2 4015   4.800   5.528   1.094
 1337TIP3   OH2 4016   2.547   1.935   5.087
 1337TIP3    H1 4017   2.478   1.990   5.125
 1337TIP3    H2 4018   2.582   1.885   5.161
 1338TIP3   OH2 4019   4.400   4.974   4.173
 1338TIP3    H1 4020   4.426   5.040   4.237
 1338TIP3    H2 4021   4.325   4.930   4.214
 1339TIP3   OH2 4022   2.841   1.241   1.664
 1339TIP3    H1 4023   2.811   1.166   1.612
 1339TIP3    H2 4024   2.797   1.231   1.748
 1340TIP3   OH2 4025   3.218   5.554   3.473
 1340TIP3    H1 4026   3.206   5.512   3.559
 1340TIP3    H2 4027   3.161   5.504   3.415
 1341TIP3   OH2 4028   5.788   2.185   3.176
 1341TIP3    H1 4029   5.852   2.122   3.208
 1341TIP3    H2 4030   5.765   2.154   3.089
 1342TIP3   OH2 4031   5.371   2.034   2.960
 1342TIP3    H1 4032   5.366   1.946   2.923
 1342TIP3    H2 4033   5.306   2.035   3.030
 1343TIP3   OH2 4034   1.978   3.205   5.017
 1343TIP3    H1 4035   2.049   3.163   5.066
 1343TIP3    H2 4036   2.022   3.247   4.943
 1344TIP3   OH2 4037   5.959   5.980   4.153
 1344TIP3    H1 4038   5.995   5.933   4.078
 1344TIP3    H2 4039   5.948   5.913   4.221
 1345TIP3   OH2 4040   2.067   1.543   3.098
 1345TIP3    H1 4041   1.986   1.593   3.102
 1345TIP3    H2 4042   2.085   1.534   3.004
 1346TIP3   OH2 4043   5.801   2.876   3.628
 1346TIP3    H1 4044   5.779   2.786   3.650
 1346TIP3    H2 4045   5.740   2.900   3.558
 1347TIP3   OH2 4046   2.336   5.203   4.775
 1347TIP3    H1 4047   2.402   5.187   4.707
 1347TIP3    H2 4048   2.252   5.186   4.731
 1348TIP3   OH2 4049   6.256   5.242   0.390
 1348TIP3    H1 4050   6.248   5.206   0.302
 1348TIP3    H2 4051   6.230   5.334   0.381
 1349TIP3   OH2 4052   3.215   3.228   3.228
 1349TIP3    H1 4053   3.269   3.273   3.162
 1349TIP3    H2 4054   3.169   3.299   3.272
 1350TIP3   OH2 4055   1.390   2.073   4.756
 1350TIP3    H1 4056   1.303   2.064   4.718
 1350TIP3    H2 4057   1.378   2.136   4.827
 1351TIP3   OH2 4058   1.072   2.431   4.522
 1351TIP3    H1 4059   1.010   2.436   4.595
 1351TIP3    H2 4060   1.122   2.513   4.528
 1352TIP3   OH2 4061   3.783   5.375   1.560
 1352TIP3    H1 4062   3.846   5.429   1.608
 1352TIP3    H2 4063   3.699   5.397   1.600
 1353TIP3   OH2 4064   3.196   4.028   2.351
 1353TIP3    H1 4065   3.144   3.948   2.344
 1353TIP3    H2 4066   3.185   4.071   2.266
 1354TIP3   OH2 4067   2.262   3.454   2.195
 1354TIP3    H1 4068   2.354   3.450   2.222
 1354TIP3    H2 4069   2.265   3.441   2.100
 1355TIP3   OH2 4070   1.618   5.403   0.741
 1355TIP3    H1 4071   1.567   5.411   0.821
 1355TIP3    H2 4072   1.705   5.375   0.770
 1356TIP3   OH2 4073   1.866   4.407   2.069
 1356TIP3    H1 4074   1.815   4.327   2.052
 1356TIP3    H2 4075   1.905   4.393   2.155
 1357TIP3   OH2 4076   4.432   2.426   3.247
 1357TIP3    H1 4077   4.369   2.353   3.252
 1357TIP3    H2 4078   4.491   2.403   3.176
 1358TIP3   OH2 4079   4.220   1.616   2.765
 1358TIP3    H1 4080   4.125   1.627   2.756
 1358TIP3    H2 4081   4.244   1.675   2.837
 1359TIP3   OH2 4082   2.618   1.589   1.641
 1359TIP3    H1 4083   2.592   1.500   1.619
 1359TIP3    H2 4084   2.558   1.644   1.590
 1360TIP3   OH2 4085   0.346   2.257   1.845
 1360TIP3    H1 4086   0.423   2.298   1.883
 1360TIP3    H2 4087   0.380   2.200   1.776
 1361TIP3   OH2 4088   2.767   5.690   0.345
 1361TIP3    H1 4089   2.700   5.755   0.366
 1361TIP3    H2 4090   2.803   5.665   0.430
 1362TIP3   OH2 4091   1.193   4.933   2.007
 1362TIP3    H1 4092   1.217   4.907   1.918
 1362TIP3    H2 4093   1.145   5.015   1.996
 1363TIP3   OH2 4094   1.468   0.216   0.816
 1363TIP3    H1 4095   1.490   0.278   0.747
 1363TIP3    H2 4096   1.516   0.247   0.892
 1364TIP3   OH2 4097   4.136   5.410   1.487
 1364TIP3    H1 4098   4.159   5.326   1.448
 1364TIP3    H2 4099   4.100   5.462   1.415
 1365TIP3   OH2 4100   3.411   3.894   3.862
 1365TIP3    H1 4101   3.464   3.818   3.887
 1365TIP3    H2 4102   3.460   3.935   3.791
 1366TIP3   OH2 4103   4.493   2.020   4.084
 1366TIP3    H1 4104   4.562   2.075   4.048
 1366TIP3    H2 4105   4.520   2.003   4.174
 1367TIP3   OH2 4106   1.346   3.528   4.347
 1367TIP3    H1 4107   1.287   3.476   4.292
 1367TIP3    H2 4108   1.400   3.464   4.393
 1368TIP3   OH2 4109   6.066   5.072   4.558
 1368TIP3    H1 4110   6.089   5.163   4.544
 1368TIP3    H2 4111   6.041   5.068   4.651
 1369TIP3   OH2 4112   1.862   4.140   1.049
 1369TIP3    H1 4113   1.816   4.056   1.048
 1369TIP3    H2 4114   1.795   4.205   1.029
 1370TIP3   OH2 4115   2.085   2.887   5.005
 1370TIP3    H1 4116   2.053   2.933   4.927
 1370TIP3    H2 4117   2.006   2.848   5.043
 1371TIP3   OH2 4118   4.742   3.961   5.006
 1371TIP3    H1 4119   4.724   3.878   5.049
 1371TIP3    H2 4120   4.705   3.951   4.918
 1372TIP3   OH2 4121   2.510   3.951   1.210
 1372TIP3    H1 4122   2.597   3.987   1.222
 1372TIP3    H2 4123   2.502   3.884   1.278
 1373TIP3   OH2 4124   3.158   0.641   1.760
 1373TIP3    H1 4125   3.144   0.705   1.690
 1373TIP3    H2 4126   3.182   0.694   1.836
 1374TIP3   OH2 4127   2.086   4.998   2.240
 1374TIP3    H1 4128   2.067   5.090   2.222
 1374TIP3    H2 4129   2.104   4.959   2.154
 1375TIP3   OH2 4130   3.035   3.297   4.930
 1375TIP3    H1 4131   2.999   3.227   4.876
 1375TIP3    H2 4132   2.999   3.377   4.891
 1376TIP3   OH2 4133   3.903   0.232   1.658
 1376TIP3    H1 4134   3.991   0.256   1.686
 1376TIP3    H2 4135   3.917   0.179   1.579
 1377TIP3   OH2 4136   2.128   3.328   1.290
 1377TIP3    H1 4137   2.199   3.277   1.252
 1377TIP3    H2 4138   2.082   3.267   1.347
 1378TIP3   OH2 4139   2.110   5.878   3.348
 1378TIP3    H1 4140   2.031   5.827   3.367
 1378TIP3    H2 4141   2.080   5.949   3.290
 1379TIP3   OH2 4142   1.104   5.812   4.005
 1379TIP3    H1 4143   1.147   5.757   3.940
 1379TIP3    H2 4144   1.129   5.901   3.982
 1380TIP3   OH2 4145   5.347   3.168   3.759
 1380TIP3    H1 4146   5.350   3.255   3.797
 1380TIP3    H2 4147   5.429   3.161   3.708
 1381TIP3   OH2 4148   5.018   2.657   5.017
 1381TIP3    H1 4149   5.055   2.570   5.025
 1381TIP3    H2 4150   5.020   2.675   4.923
 1382TIP3   OH2 4151   0.131   0.045   0.988
 1382TIP3    H1 4152   0.053   0.083   0.948
 1382TIP3    H2 4153   0.128   0.074   1.079
 1383TIP3   OH2 4154   6.240   0.410   5.135
 1383TIP3    H1 4155   6.237   0.423   5.230
 1383TIP3    H2 4156   6.158   0.446   5.103
 1384TIP3   OH2 4157   4.821   3.010   3.961
 1384TIP3    H1 4158   4.833   3.082   3.899
 1384TIP3    H2 4159   4.787   3.051   4.040
 1385TIP3   OH2 4160   1.532   1.749   3.659
 1385TIP3    H1 4161   1.595   1.805   3.705
 1385TIP3    H2 4162   1.448   1.771   3.698
 1386TIP3   OH2 4163   2.217   3.777   3.164
 1386TIP3    H1 4164   2.249   3.830   3.237
 1386TIP3    H2 4165   2.289   3.774   3.102
 1387TIP3   OH2 4166   4.018   1.204   5.043
 1387TIP3    H1 4167   4.053   1.175   4.958
 1387TIP3    H2 4168   4.048   1.294   5.052
 1388TIP3   OH2 4169   2.733   0.112   1.933
 1388TIP3    H1 4170   2.756   0.110   2.026
 1388TIP3    H2 4171   2.671   0.040   1.922
 1389TIP3   OH2 4172   5.014   2.178   5.079
 1389TIP3    H1 4173   5.005   2.101   5.023
 1389TIP3    H2 4174   5.108   2.184   5.097
 1390TIP3   OH2 4175   5.794   1.905   4.933
 1390TIP3    H1 4176   5.796   1.932   5.025
 1390TIP3    H2 4177   5.883   1.920   4.902
 1391TIP3   OH2 4178   4.403   2.116   3.215
 1391TIP3    H1 4179   4.332   2.056   3.238
 1391TIP3    H2 4180   4.482   2.062   3.216
 1392TIP3   OH2 4181   0.119   1.254   3.792
 1392TIP3    H1 4182   0.047   1.193   3.804
 1392TIP3    H2 4183   0.080   1.341   3.807
 1393TIP3   OH2 4184   6.195   1.567   0.382
 1393TIP3    H1 4185   6.247   1.588   0.460
 1393TIP3    H2 4186   6.258   1.524   0.323
 1394TIP3   OH2 4187   0.426   0.110   0.863
 1394TIP3    H1 4188   0.404   0.031   0.813
 1394TIP3    H2 4189   0.467   0.077   0.943
 1395TIP3   OH2 4190   4.066   3.159   2.461
 1395TIP3    H1 4191   4.082   3.205   2.378
 1395TIP3    H2 4192   3.974   3.179   2.482
 1396TIP3   OH2 4193   3.978   3.303   0.269
 1396TIP3    H1 4194   3.965   3.312   0.175
 1396TIP3    H2 4195   3.893   3.322   0.308
 1397TIP3   OH2 4196   3.153   3.292   0.160
 1397TIP3    H1 4197   3.173   3.378   0.123
 1397TIP3    H2 4198   3.087   3.309   0.226
 1398TIP3   OH2 4199   2.437   1.902   4.784
 1398TIP3    H1 4200   2.471   1.817   4.757
 1398TIP3    H2 4201   2.465   1.912   4.875
 1399TIP3   OH2 4202   6.275   5.342   3.167
 1399TIP3    H1 4203   6.213   5.409   3.196
 1399TIP3    H2 4204   6.226   5.260   3.169
 1400TIP3   OH2 4205   0.054   3.224   0.392
 1400TIP3    H1 4206   0.106   3.148   0.365
 1400TIP3    H2 4207  -0.002   3.191   0.462
 1401TIP3   OH2 4208   0.079   1.728   0.514
 1401TIP3    H1 4209   0.115   1.793   0.453
 1401TIP3    H2 4210   0.137   1.733   0.591
 1402TIP3   OH2 4211   5.453   5.486   1.274
 1402TIP3    H1 4212   5.446   5.502   1.368
 1402TIP3    H2 4213   5.379   5.533   1.235
 1403TIP3   OH2 4214   3.733   5.034   1.413
 1403TIP3    H1 4215   3.645   5.056   1.381
 1403TIP3    H2 4216   3.733   5.065   1.504
 1404TIP3   OH2 4217   1.255   5.224   4.473
 1404TIP3    H1 4218   1.249   5.187   4.385
 1404TIP3    H2 4219   1.182   5.287   4.477
 1405TIP3   OH2 4220   2.664   4.099   1.904
 1405TIP3    H1 4221   2.579   4.140   1.887
 1405TIP3    H2 4222   2.649   4.044   1.981
 1406TIP3   OH2 4223   5.970   1.779   2.608
 1406TIP3    H1 4224   5.954   1.798   2.701
 1406TIP3    H2 4225   5.883   1.758   2.573
 1407TIP3   OH2 4226   2.611   3.476   3.398
 1407TIP3    H1 4227   2.691   3.440   3.360
 1407TIP3    H2 4228   2.542   3.452   3.336
 1408TIP3   OH2 4229   2.053   5.176   1.167
 1408TIP3    H1 4230   2.071   5.167   1.260
 1408TIP3    H2 4231   1.991   5.249   1.161
 1409TIP3   OH2 4232   1.701   5.988   2.950
 1409TIP3    H1 4233   1.743   5.905   2.974
 1409TIP3    H2 4234   1.649   5.967   2.873
 1410TIP3   OH2 4235   2.594   4.056   2.769
 1410TIP3    H1 4236   2.502   4.029   2.775
 1410TIP3    H2 4237   2.619   4.075   2.859
 1411TIP3   OH2 4238   1.649   1.708   0.407
 1411TIP3    H1 4239   1.739   1.739   0.417
 1411TIP3    H2 4240   1.659   1.617   0.379
 1412TIP3   OH2 4241   3.019   5.275   0.496
 1412TIP3    H1 4242   2.944   5.248   0.550
 1412TIP3    H2 4243   3.069   5.334   0.553
 1413TIP3   OH2 4244   5.580   0.047   3.876
 1413TIP3    H1 4245   5.510   0.113   3.872
 1413TIP3    H2 4246   5.616   0.045   3.788
 1414TIP3   OH2 4247   0.420   0.407   5.029
 1414TIP3    H1 4248   0.336   0.369   5.005
 1414TIP3    H2 4249   0.401   0.500   5.045
 1415TIP3   OH2 4250   5.867   4.194   3.243
 1415TIP3    H1 4251   5.858   4.105   3.207
 1415TIP3    H2 4252   5.821   4.250   3.180
 1416TIP3   OH2 4253   1.548   2.099   2.980
 1416TIP3    H1 4254   1.536   2.025   3.040
 1416TIP3    H2 4255   1.499   2.171   3.020
 1417TIP3   OH2 4256   5.213   3.780   0.172
 1417TIP3    H1 4257   5.133   3.833   0.170
 1417TIP3    H2 4258   5.184   3.692   0.148
 1418TIP3   OH2 4259   0.066   5.682   4.856
 1418TIP3    H1 4260   0.000   5.693   4.925
 1418TIP3    H2 4261   0.018   5.643   4.783
 1419TIP3   OH2 4262   5.028   4.657   1.698
 1419TIP3    H1 4263   4.977   4.578   1.679
 1419TIP3    H2 4264   5.114   4.640   1.660
 1420TIP3   OH2 4265   4.103   0.658   3.824
 1420TIP3    H1 4266   4.136   0.576   3.788
 1420TIP3    H2 4267   4.050   0.632   3.899
 1421TIP3   OH2 4268   4.667   0.669   1.399
 1421TIP3    H1 4269   4.584   0.674   1.447
 1421TIP3    H2 4270   4.734   0.666   1.468
 1422TIP3   OH2 4271   0.357   5.036   2.819
 1422TIP3    H1 4272   0.265   5.034   2.843
 1422TIP3    H2 4273   0.359   5.012   2.727
 1423TIP3   OH2 4274   4.101   4.179   2.700
 1423TIP3    H1 4275   4.120   4.198   2.792
 1423TIP3    H2 4276   4.008   4.157   2.699
 1424TIP3   OH2 4277   2.009   0.192   3.853
 1424TIP3    H1 4278   1.978   0.250   3.922
 1424TIP3    H2 4279   2.084   0.146   3.891
 1425TIP3   OH2 4280   6.188   2.090   1.919
 1425TIP3    H1 4281   6.278   2.093   1.952
 1425TIP3    H2 4282   6.190   2.139   1.837
 1426TIP3   OH2 4283   1.371   1.468   2.978
 1426TIP3    H1 4284   1.385   1.511   2.894
 1426TIP3    H2 4285   1.276   1.464   2.987
 1427TIP3   OH2 4286   5.036   2.224   2.007
 1427TIP3    H1 4287   5.039   2.133   2.034
 1427TIP3    H2 4288   4.960   2.229   1.948
 1428TIP3   OH2 4289   5.231   4.914   1.827
 1428TIP3    H1 4290   5.191   4.995   1.796
 1428TIP3    H2 4291   5.246   4.863   1.747
 1429TIP3   OH2 4292   1.462   3.569   3.645
 1429TIP3    H1 4293   1.476   3.556   3.551
 1429TIP3    H2 4294   1.428   3.485   3.676
 1430TIP3   OH2 4295   3.493   3.622   1.897
 1430TIP3    H1 4296   3.567   3.583   1.945
 1430TIP3    H2 4297   3.462   3.552   1.839
 1431TIP3   OH2 4298   5.511   5.846   4.069
 1431TIP3    H1 4299   5.532   5.925   4.019
 1431TIP3    H2 4300   5.592   5.826   4.117
 1432TIP3   OH2 4301   0.254   2.373   3.989
 1432TIP3    H1 4302   0.253   2.415   4.076
 1432TIP3    H2 4303   0.169   2.330   3.983
 1433TIP3   OH2 4304   0.375   4.361   2.676
 1433TIP3    H1 4305   0.330   4.331   2.756
 1433TIP3    H2 4306   0.459   4.315   2.678
 1434TIP3   OH2 4307   4.055   5.782   3.913
 1434TIP3    H1 4308   4.109   5.844   3.963
 1434TIP3    H2 4309   4.018   5.835   3.842
 1435TIP3   OH2 4310   0.825   5.184   0.770
 1435TIP3    H1 4311   0.741   5.176   0.726
 1435TIP3    H2 4312   0.873   5.250   0.720
 1436TIP3   OH2 4313   0.085   2.093   2.274
 1436TIP3    H1 4314   0.039   2.059   2.198
 1436TIP3    H2 4315   0.077   2.188   2.267
 1437TIP3   OH2 4316   4.521   4.871   0.213
 1437TIP3    H1 4317   4.457   4.911   0.154
 1437TIP3    H2 4318   4.491   4.781   0.223
 1438TIP3   OH2 4319   5.345   4.348   1.548
 1438TIP3    H1 4320   5.292   4.278   1.586
 1438TIP3    H2 4321   5.322   4.426   1.599
 1439TIP3   OH2 4322   3.641   0.682   3.094
 1439TIP3    H1 4323   3.573   0.731   3.047
 1439TIP3    H2 4324   3.651   0.729   3.177
 1440TIP3   OH2 4325   1.992   2.169   1.099
 1440TIP3    H1 4326   2.019   2.194   1.011
 1440TIP3    H2 4327   1.948   2.247   1.133
 1441TIP3   OH2 4328   2.622   4.712   1.499
 1441TIP3    H1 4329   2.646   4.619   1.499
 1441TIP3    H2 4330   2.609   4.733   1.591
 1442TIP3   OH2 4331   4.984   3.941   1.210
 1442TIP3    H1 4332   4.933   3.863   1.191
 1442TIP3    H2 4333   5.072   3.908   1.228
 1443TIP3   OH2 4334   3.383   4.552   1.849
 1443TIP3    H1 4335   3.309   4.575   1.906
 1443TIP3    H2 4336   3.426   4.480   1.895
 1444TIP3   OH2 4337   1.683   5.110   0.874
 1444TIP3    H1 4338   1.726   5.195   0.867
 1444TIP3    H2 4339   1.678   5.078   0.783
 1445TIP3   OH2 4340   4.026   5.930   1.994
 1445TIP3    H1 4341   3.951   5.892   2.041
 1445TIP3    H2 4342   4.033   5.878   1.914
 1446TIP3   OH2 4343   2.581   2.088   1.543
 1446TIP3    H1 4344   2.527   2.033   1.599
 1446TIP3    H2 4345   2.603   2.164   1.598
 1447TIP3   OH2 4346   0.847   5.102   4.364
 1447TIP3    H1 4347   0.806   5.188   4.375
 1447TIP3    H2 4348   0.846   5.087   4.269
 1448TIP3   OH2 4349   1.073   5.210   1.978
 1448TIP3    H1 4350   1.121   5.283   2.017
 1448TIP3    H2 4351   1.115   5.195   1.894
 1449TIP3   OH2 4352   4.551   1.462   4.484
 1449TIP3    H1 4353   4.460   1.449   4.460
 1449TIP3    H2 4354   4.585   1.374   4.500
 1450TIP3   OH2 4355   1.476   1.940   1.952
 1450TIP3    H1 4356   1.397   1.976   1.913
 1450TIP3    H2 4357   1.524   2.016   1.985
 1451TIP3   OH2 4358   5.078   1.909   1.188
 1451TIP3    H1 4359   5.170   1.890   1.205
 1451TIP3    H2 4360   5.061   1.990   1.237
 1452TIP3   OH2 4361   0.521   5.883   2.170
 1452TIP3    H1 4362   0.480   5.812   2.220
 1452TIP3    H2 4363   0.485   5.874   2.082
 1453TIP3   OH2 4364   5.192   1.719   4.948
 1453TIP3    H1 4365   5.281   1.747   4.966
 1453TIP3    H2 4366   5.194   1.689   4.857
 1454TIP3   OH2 4367   2.609   5.815   0.063
 1454TIP3    H1 4368   2.540   5.775   0.116
 1454TIP3    H2 4369   2.612   5.906   0.090
 1455TIP3   OH2 4370   1.200   5.204   4.862
 1455TIP3    H1 4371   1.216   5.247   4.946
 1455TIP3    H2 4372   1.146   5.266   4.813
 1456TIP3   OH2 4373   4.993   0.953   0.158
 1456TIP3    H1 4374   5.068   0.998   0.119
 1456TIP3    H2 4375   4.953   1.019   0.215
 1457TIP3   OH2 4376   0.791   4.438   0.759
 1457TIP3    H1 4377   0.883   4.450   0.783
 1457TIP3    H2 4378   0.793   4.431   0.663
 1458TIP3   OH2 4379   5.182   3.265   2.830
 1458TIP3    H1 4380   5.161   3.193   2.770
 1458TIP3    H2 4381   5.126   3.337   2.802
 1459TIP3   OH2 4382   3.766   4.823   4.508
 1459TIP3    H1 4383   3.696   4.854   4.565
 1459TIP3    H2 4384   3.846   4.847   4.553
 1460TIP3   OH2 4385   1.250   0.149   0.385
 1460TIP3    H1 4386   1.170   0.196   0.409
 1460TIP3    H2 4387   1.269   0.178   0.296
 1461TIP3   OH2 4388   5.035   0.708   0.551
 1461TIP3    H1 4389   5.077   0.708   0.465
 1461TIP3    H2 4390   5.014   0.800   0.567
 1462TIP3   OH2 4391   0.299   3.256   4.763
 1462TIP3    H1 4392   0.350   3.282   4.686
 1462TIP3    H2 4393   0.221   3.216   4.727
 1463TIP3   OH2 4394   2.851   2.312   4.858
 1463TIP3    H1 4395   2.826   2.222   4.881
 1463TIP3    H2 4396   2.815   2.366   4.928
 1464TIP3   OH2 4397   3.303   0.800   3.152
 1464TIP3    H1 4398   3.214   0.833   3.142
 1464TIP3    H2 4399   3.357   0.878   3.159
 1465TIP3   OH2 4400   4.749   3.359   0.132
 1465TIP3    H1 4401   4.804   3.437   0.126
 1465TIP3    H2 4402   4.659   3.394   0.134
 1466TIP3   OH2 4403   4.926   2.817   2.194
 1466TIP3    H1 4404   4.930   2.895   2.249
 1466TIP3    H2 4405   5.011   2.814   2.149
 1467TIP3   OH2 4406   1.952   1.725   2.099
 1467TIP3    H1 4407   2.030   1.746   2.048
 1467TIP3    H2 4408   1.959   1.781   2.176
 1468TIP3   OH2 4409   0.738   2.979   1.526
 1468TIP3    H1 4410   0.753   2.987   1.432
 1468TIP3    H2 4411   0.710   2.888   1.538
 1469TIP3   OH2 4412   3.462   2.294   2.988
 1469TIP3    H1 4413   3.482   2.305   2.895
 1469TIP3    H2 4414   3.490   2.376   3.028
 1470TIP3   OH2 4415   3.424   4.791   1.739
 1470TIP3    H1 4416   3.420   4.700   1.769
 1470TIP3    H2 4417   3.347   4.801   1.683
 1471TIP3   OH2 4418   4.434   4.640   4.126
 1471TIP3    H1 4419   4.384   4.701   4.072
 1471TIP3    H2 4420   4.391   4.643   4.212
 1472TIP3   OH2 4421   5.468   4.709   2.289
 1472TIP3    H1 4422   5.421   4.654   2.226
 1472TIP3    H2 4423   5.441   4.799   2.267
 1473TIP3   OH2 4424   4.174   3.288   3.523
 1473TIP3    H1 4425   4.215   3.332   3.597
 1473TIP3    H2 4426   4.149   3.202   3.556
 1474TIP3   OH2 4427   6.189   5.643   2.046
 1474TIP3    H1 4428   6.095   5.659   2.034
 1474TIP3    H2 4429   6.196   5.609   2.135
 1475TIP3   OH2 4430   2.134   2.834   4.019
 1475TIP3    H1 4431   2.058   2.887   3.993
 1475TIP3    H2 4432   2.209   2.884   3.986
 1476TIP3   OH2 4433   3.841   1.339   2.343
 1476TIP3    H1 4434   3.778   1.379   2.404
 1476TIP3    H2 4435   3.926   1.373   2.372
 1477TIP3   OH2 4436   0.627   2.317   1.768
 1477TIP3    H1 4437   0.718   2.320   1.740
 1477TIP3    H2 4438   0.628   2.267   1.850
 1478TIP3   OH2 4439   1.989   3.496   2.273
 1478TIP3    H1 4440   2.076   3.467   2.246
 1478TIP3    H2 4441   1.966   3.564   2.210
 1479TIP3   OH2 4442   1.767   5.358   2.867
 1479TIP3    H1 4443   1.820   5.421   2.818
 1479TIP3    H2 4444   1.714   5.315   2.801
 1480TIP3   OH2 4445   4.538   2.377   1.669
 1480TIP3    H1 4446   4.557   2.289   1.700
 1480TIP3    H2 4447   4.522   2.366   1.575
 1481TIP3   OH2 4448   4.476   2.385   1.309
 1481TIP3    H1 4449   4.457   2.470   1.349
 1481TIP3    H2 4450   4.568   2.390   1.283
 1482TIP3   OH2 4451   1.189   2.075   1.694
 1482TIP3    H1 4452   1.258   2.140   1.704
 1482TIP3    H2 4453   1.180   2.036   1.781
 1483TIP3   OH2 4454   3.068   1.041   2.912
 1483TIP3    H1 4455   3.023   1.113   2.955
 1483TIP3    H2 4456   3.038   0.962   2.958
 1484TIP3   OH2 4457   4.311   0.752   1.346
 1484TIP3    H1 4458   4.356   0.824   1.302
 1484TIP3    H2 4459   4.238   0.794   1.392
 1485TIP3   OH2 4460   1.179   3.357   2.658
 1485TIP3    H1 4461   1.091   3.393   2.667
 1485TIP3    H2 4462   1.207   3.342   2.748
 1486TIP3   OH2 4463   3.842   4.576   0.216
 1486TIP3    H1 4464   3.758   4.596   0.175
 1486TIP3    H2 4465   3.819   4.539   0.301
 1487TIP3   OH2 4466   1.653   2.341   4.824
 1487TIP3    H1 4467   1.562   2.337   4.796
 1487TIP3    H2 4468   1.701   2.365   4.744
 1488TIP3   OH2 4469   0.413   4.297   4.409
 1488TIP3    H1 4470   0.442   4.384   4.437
 1488TIP3    H2 4471   0.473   4.236   4.453
 1489TIP3   OH2 4472   2.673   0.986   0.197
 1489TIP3    H1 4473   2.599   1.037   0.230
 1489TIP3    H2 4474   2.701   0.933   0.271
 1490TIP3   OH2 4475   4.680   1.769   4.004
 1490TIP3    H1 4476   4.638   1.730   4.081
 1490TIP3    H2 4477   4.661   1.708   3.933
 1491TIP3   OH2 4478   2.175   4.383   0.678
 1491TIP3    H1 4479   2.203   4.297   0.647
 1491TIP3    H2 4480   2.085   4.371   0.706
 1492TIP3   OH2 4481   2.201   4.667   3.069
 1492TIP3    H1 4482   2.173   4.580   3.042
 1492TIP3    H2 4483   2.245   4.654   3.153
 1493TIP3   OH2 4484   3.388   5.352   1.896
 1493TIP3    H1 4485   3.352   5.288   1.957
 1493TIP3    H2 4486   3.321   5.419   1.888
 1494TIP3   OH2 4487   0.782   3.620   4.391
 1494TIP3    H1 4488   0.822   3.706   4.407
 1494TIP3    H2 4489   0.847   3.573   4.339
 1495TIP3   OH2 4490   6.229   4.842   2.448
 1495TIP3    H1 4491   6.227   4.772   2.383
 1495TIP3    H2 4492   6.142   4.841   2.488
 1496TIP3   OH2 4493   3.937   1.820   3.070
 1496TIP3    H1 4494   3.905   1.847   3.156
 1496TIP3    H2 4495   3.909   1.729   3.061
 1497TIP3   OH2 4496   0.663   0.247   2.012
 1497TIP3    H1 4497   0.588   0.296   1.979
 1497TIP3    H2 4498   0.642   0.230   2.104
 1498TIP3   OH2 4499   0.257   5.061   3.764
 1498TIP3    H1 4500   0.330   5.059   3.826
 1498TIP3    H2 4501   0.227   5.151   3.765
 1499TIP3   OH2 4502   0.567   4.101   5.037
 1499TIP3    H1 4503   0.491   4.079   5.090
 1499TIP3    H2 4504   0.531   4.135   4.956
 1500TIP3   OH2 4505   2.405   3.683   4.519
 1500TIP3    H1 4506   2.479   3.622   4.516
 1500TIP3    H2 4507   2.442   3.767   4.493
 1501TIP3   OH2 4508   3.215   2.087   0.854
 1501TIP3    H1 4509   3.151   2.043   0.798
 1501TIP3    H2 4510   3.162   2.136   0.917
 1502TIP3   OH2 4511   6.185   4.351   3.289
 1502TIP3    H1 4512   6.134   4.420   3.332
 1502TIP3    H2 4513   6.120   4.284   3.266
 1503TIP3   OH2 4514   2.284   4.978   2.419
 1503TIP3    H1 4515   2.206   4.995   2.367
 1503TIP3    H2 4516   2.337   4.919   2.365
 1504TIP3   OH2 4517   5.825   5.185   4.247
 1504TIP3    H1 4518   5.914   5.156   4.229
 1504TIP3    H2 4519   5.772   5.143   4.180
 1505TIP3   OH2 4520   4.190   2.525   0.958
 1505TIP3    H1 4521   4.245   2.586   1.008
 1505TIP3    H2 4522   4.176   2.451   1.016
 1506TIP3   OH2 4523   2.266   5.169   3.216
 1506TIP3    H1 4524   2.325   5.177   3.142
 1506TIP3    H2 4525   2.182   5.201   3.183
 1507TIP3   OH2 4526   3.821   2.577   0.257
 1507TIP3    H1 4527   3.826   2.527   0.339
 1507TIP3    H2 4528   3.801   2.667   0.285
 1508TIP3   OH2 4529   5.565   3.210   4.051
 1508TIP3    H1 4530   5.489   3.160   4.082
 1508TIP3    H2 4531   5.615   3.147   3.999
 1509TIP3   OH2 4532   4.656   2.347   0.171
 1509TIP3    H1 4533   4.633   2.381   0.257
 1509TIP3    H2 4534   4.722   2.409   0.138
 1510TIP3   OH2 4535   4.958   2.594   4.253
 1510TIP3    H1 4536   4.900   2.658   4.295
 1510TIP3    H2 4537   4.914   2.510   4.265
 1511TIP3   OH2 4538   3.594   0.578   0.332
 1511TIP3    H1 4539   3.631   0.663   0.310
 1511TIP3    H2 4540   3.556   0.590   0.419
 1512TIP3   OH2 4541   4.088   3.856   3.225
 1512TIP3    H1 4542   4.025   3.843   3.154
 1512TIP3    H2 4543   4.147   3.924   3.192
 1513TIP3   OH2 4544   3.510   0.807   1.665
 1513TIP3    H1 4545   3.540   0.820   1.575
 1513TIP3    H2 4546   3.495   0.895   1.699
 1514TIP3   OH2 4547   3.341   1.494   1.438
 1514TIP3    H1 4548   3.249   1.512   1.424
 1514TIP3    H2 4549   3.363   1.538   1.520
 1515TIP3   OH2 4550   4.305   2.220   0.839
 1515TIP3    H1 4551   4.218   2.185   0.816
 1515TIP3    H2 4552   4.297   2.241   0.932
 1516TIP3   OH2 4553   4.255   2.052   1.986
 1516TIP3    H1 4554   4.262   2.056   1.890
 1516TIP3    H2 4555   4.337   2.011   2.014
 1517TIP3   OH2 4556   2.778   5.234   1.077
 1517TIP3    H1 4557   2.815   5.309   1.124
 1517TIP3    H2 4558   2.772   5.264   0.986
 1518TIP3   OH2 4559   6.234   5.180   2.213
 1518TIP3    H1 4560   6.298   5.248   2.193
 1518TIP3    H2 4561   6.256   5.108   2.154
 1519TIP3   OH2 4562   5.079   2.456   2.119
 1519TIP3    H1 4563   5.060   2.364   2.099
 1519TIP3    H2 4564   5.016   2.480   2.187
 1520TIP3   OH2 4565   3.192   3.893   3.699
 1520TIP3    H1 4566   3.276   3.920   3.738
 1520TIP3    H2 4567   3.203   3.799   3.682
 1521TIP3   OH2 4568   5.846   1.572   2.083
 1521TIP3    H1 4569   5.908   1.507   2.115
 1521TIP3    H2 4570   5.844   1.559   1.988
 1522TIP3   OH2 4571   0.662   3.525   2.395
 1522TIP3    H1 4572   0.663   3.454   2.460
 1522TIP3    H2 4573   0.648   3.480   2.312
 1523TIP3   OH2 4574   5.050   2.127   2.436
 1523TIP3    H1 4575   4.971   2.117   2.488
 1523TIP3    H2 4576   5.121   2.122   2.499
 1524TIP3   OH2 4577   0.189   3.004   0.345
 1524TIP3    H1 4578   0.274   2.961   0.332
 1524TIP3    H2 4579   0.139   2.943   0.397
 1525TIP3   OH2 4580   1.642   3.581   3.870
 1525TIP3    H1 4581   1.589   3.588   3.791
 1525TIP3    H2 4582   1.582   3.549   3.937
 1526TIP3   OH2 4583   3.192   0.027   0.047
 1526TIP3    H1 4584   3.281   0.022   0.082
 1526TIP3    H2 4585   3.165   0.117   0.062
 1527TIP3   OH2 4586   2.945   1.252   1.090
 1527TIP3    H1 4587   2.967   1.160   1.104
 1527TIP3    H2 4588   2.895   1.277   1.168
 1528TIP3   OH2 4589   2.090   2.904   2.401
 1528TIP3    H1 4590   2.146   2.867   2.469
 1528TIP3    H2 4591   2.148   2.916   2.326
 1529TIP3   OH2 4592   2.373   2.880   1.118
 1529TIP3    H1 4593   2.371   2.812   1.185
 1529TIP3    H2 4594   2.353   2.961   1.164
 1530TIP3   OH2 4595   1.763   2.481   0.393
 1530TIP3    H1 4596   1.828   2.521   0.335
 1530TIP3    H2 4597   1.679   2.512   0.360
 1531TIP3   OH2 4598   3.779   0.278   3.263
 1531TIP3    H1 4599   3.809   0.190   3.285
 1531TIP3    H2 4600   3.771   0.323   3.347
 1532TIP3   OH2 4601   2.951   5.934   3.551
 1532TIP3    H1 4602   2.923   5.883   3.475
 1532TIP3    H2 4603   2.887   5.913   3.619
 1533TIP3   OH2 4604   4.223   3.675   2.820
 1533TIP3    H1 4605   4.186   3.764   2.821
 1533TIP3    H2 4606   4.219   3.649   2.728
 1534TIP3   OH2 4607   4.547   5.417   4.372
 1534TIP3    H1 4608   4.608   5.345   4.358
 1534TIP3    H2 4609   4.602   5.489   4.402
 1535TIP3   OH2 4610   2.736   0.780   0.735
 1535TIP3    H1 4611   2.643   0.779   0.716
 1535TIP3    H2 4612   2.773   0.711   0.680
 1536TIP3   OH2 4613   5.886   0.345   1.462
 1536TIP3    H1 4614   5.977   0.345   1.433
 1536TIP3    H2 4615   5.837   0.303   1.392
 1537TIP3   OH2 4616   6.272   1.519   3.771
 1537TIP3    H1 4617   6.362   1.552   3.770
 1537TIP3    H2 4618   6.245   1.522   3.863
 1538TIP3   OH2 4619   0.671   1.484   1.164
 1538TIP3    H1 4620   0.649   1.435   1.244
 1538TIP3    H2 4621   0.692   1.572   1.195
 1539TIP3   OH2 4622   0.028   2.285   3.202
 1539TIP3    H1 4623   0.106   2.277   3.146
 1539TIP3    H2 4624  -0.044   2.298   3.141
 1540TIP3   OH2 4625   4.143   2.391   3.245
 1540TIP3    H1 4626   4.172   2.418   3.158
 1540TIP3    H2 4627   4.072   2.451   3.267
 1541TIP3   OH2 4628   0.211   4.952   2.150
 1541TIP3    H1 4629   0.124   4.965   2.112
 1541TIP3    H2 4630   0.243   5.041   2.165
 1542TIP3   OH2 4631   3.577   4.276   4.889
 1542TIP3    H1 4632   3.514   4.208   4.913
 1542TIP3    H2 4633   3.616   4.303   4.972
 1543TIP3   OH2 4634   6.013   2.242   0.992
 1543TIP3    H1 4635   5.923   2.220   0.968
 1543TIP3    H2 4636   6.055   2.157   1.006
 1544TIP3   OH2 4637   1.550   3.959   2.110
 1544TIP3    H1 4638   1.625   3.909   2.142
 1544TIP3    H2 4639   1.474   3.906   2.134
 1545TIP3   OH2 4640   1.262   2.828   5.018
 1545TIP3    H1 4641   1.255   2.811   4.924
 1545TIP3    H2 4642   1.306   2.913   5.024
 1546TIP3   OH2 4643   2.711   4.922   0.397
 1546TIP3    H1 4644   2.640   4.970   0.353
 1546TIP3    H2 4645   2.691   4.830   0.380
 1547TIP3   OH2 4646   5.408   0.237   1.413
 1547TIP3    H1 4647   5.420   0.304   1.346
 1547TIP3    H2 4648   5.452   0.273   1.491
 1548TIP3   OH2 4649   5.798   4.244   1.491
 1548TIP3    H1 4650   5.788   4.331   1.452
 1548TIP3    H2 4651   5.729   4.240   1.558
 1549TIP3   OH2 4652   3.779   3.214   1.443
 1549TIP3    H1 4653   3.726   3.216   1.523
 1549TIP3    H2 4654   3.817   3.301   1.437
 1550TIP3   OH2 4655   5.489   4.363   4.038
 1550TIP3    H1 4656   5.414   4.371   4.098
 1550TIP3    H2 4657   5.493   4.269   4.018
 1551TIP3   OH2 4658   4.713   4.932   2.588
 1551TIP3    H1 4659   4.782   4.927   2.522
 1551TIP3    H2 4660   4.645   4.873   2.557
 1552TIP3   OH2 4661   4.176   3.892   1.002
 1552TIP3    H1 4662   4.106   3.936   1.051
 1552TIP3    H2 4663   4.252   3.895   1.060
 1553TIP3   OH2 4664   4.872   3.804   0.865
 1553TIP3    H1 4665   4.943   3.827   0.926
 1553TIP3    H2 4666   4.806   3.872   0.878
 1554TIP3   OH2 4667   1.220   5.412   5.032
 1554TIP3    H1 4668   1.302   5.407   5.082
 1554TIP3    H2 4669   1.220   5.500   4.995
 1555TIP3   OH2 4670   4.112   4.724   1.127
 1555TIP3    H1 4671   4.081   4.792   1.188
 1555TIP3    H2 4672   4.059   4.647   1.148
 1556TIP3   OH2 4673   5.519   5.587   4.428
 1556TIP3    H1 4674   5.582   5.659   4.423
 1556TIP3    H2 4675   5.573   5.508   4.427
 1557TIP3   OH2 4676   0.249   1.215   3.560
 1557TIP3    H1 4677   0.202   1.224   3.643
 1557TIP3    H2 4678   0.314   1.147   3.576
 1558TIP3   OH2 4679   2.809   5.740   4.794
 1558TIP3    H1 4680   2.872   5.698   4.852
 1558TIP3    H2 4681   2.768   5.807   4.848
 1559TIP3   OH2 4682   1.848   4.876   0.769
 1559TIP3    H1 4683   1.872   4.902   0.858
 1559TIP3    H2 4684   1.835   4.959   0.723
 1560TIP3   OH2 4685   4.823   2.862   4.386
 1560TIP3    H1 4686   4.806   2.937   4.328
 1560TIP3    H2 4687   4.794   2.892   4.472
 1561TIP3   OH2 4688   4.763   0.719   4.697
 1561TIP3    H1 4689   4.816   0.705   4.618
 1561TIP3    H2 4690   4.676   0.740   4.664
 1562TIP3   OH2 4691   5.198   4.655   1.444
 1562TIP3    H1 4692   5.169   4.580   1.392
 1562TIP3    H2 4693   5.146   4.728   1.412
 1563TIP3   OH2 4694   0.542   5.638   1.001
 1563TIP3    H1 4695   0.520   5.572   1.067
 1563TIP3    H2 4696   0.529   5.722   1.047
 1564TIP3   OH2 4697   5.001   5.716   2.752
 1564TIP3    H1 4698   5.044   5.801   2.759
 1564TIP3    H2 4699   4.966   5.715   2.662
 1565TIP3   OH2 4700   0.327   3.267   2.574
 1565TIP3    H1 4701   0.392   3.221   2.521
 1565TIP3    H2 4702   0.243   3.247   2.534
 1566TIP3   OH2 4703   4.571   0.571   0.425
 1566TIP3    H1 4704   4.569   0.479   0.452
 1566TIP3    H2 4705   4.654   0.605   0.460
 1567TIP3   OH2 4706   2.814   1.988   1.436
 1567TIP3    H1 4707   2.850   1.901   1.455
 1567TIP3    H2 4708   2.738   1.995   1.493
 1568TIP3   OH2 4709   4.356   3.141   2.422
 1568TIP3    H1 4710   4.261   3.133   2.425
 1568TIP3    H2 4711   4.380   3.105   2.336
 1569TIP3   OH2 4712   2.885   4.408   3.655
 1569TIP3    H1 4713   2.937   4.424   3.576
 1569TIP3    H2 4714   2.909   4.320   3.681
 1570TIP3   OH2 4715   0.510   3.824   3.260
 1570TIP3    H1 4716   0.470   3.739   3.275
 1570TIP3    H2 4717   0.452   3.869   3.199
 1571TIP3   OH2 4718   1.997   0.230   1.890
 1571TIP3    H1 4719   2.015   0.285   1.813
 1571TIP3    H2 4720   1.936   0.282   1.943
 1572TIP3   OH2 4721   6.173   5.834   1.839
 1572TIP3    H1 4722   6.255   5.853   1.794
 1572TIP3    H2 4723   6.197   5.776   1.911
 1573TIP3   OH2 4724   0.744   0.613   1.463
 1573TIP3    H1 4725   0.749   0.664   1.382
 1573TIP3    H2 4726   0.775   0.672   1.531
 1574TIP3   OH2 4727   4.986   3.760   1.665
 1574TIP3    H1 4728   5.033   3.729   1.588
 1574TIP3    H2 4729   4.986   3.686   1.725
 1575TIP3   OH2 4730   3.265   0.573   3.815
 1575TIP3    H1 4731   3.180   0.567   3.773
 1575TIP3    H2 4732   3.302   0.655   3.783
 1576TIP3   OH2 4733   5.280   5.014   5.112
 1576TIP3    H1 4734   5.332   5.095   5.108
 1576TIP3    H2 4735   5.278   4.991   5.205
 1577TIP3   OH2 4736   3.554   1.534   2.263
 1577TIP3    H1 4737   3.645   1.558   2.250
 1577TIP3    H2 4738   3.531   1.486   2.184
 1578TIP3   OH2 4739   2.320   3.540   1.903
 1578TIP3    H1 4740   2.306   3.635   1.905
 1578TIP3    H2 4741   2.234   3.503   1.921
 1579TIP3   OH2 4742   4.341   3.828   1.207
 1579TIP3    H1 4743   4.326   3.757   1.270
 1579TIP3    H2 4744   4.406   3.884   1.250
 1580TIP3   OH2 4745   5.077   1.284   0.091
 1580TIP3    H1 4746   5.049   1.241   0.171
 1580TIP3    H2 4747   5.171   1.299   0.103
 1581TIP3   OH2 4748   1.338   5.299   3.100
 1581TIP3    H1 4749   1.381   5.234   3.045
 1581TIP3    H2 4750   1.256   5.318   3.054
 1582TIP3   OH2 4751   5.022   5.792   1.166
 1582TIP3    H1 4752   4.977   5.813   1.084
 1582TIP3    H2 4753   5.098   5.741   1.140
 1583TIP3   OH2 4754   1.890   4.680   3.799
 1583TIP3    H1 4755   1.900   4.618   3.871
 1583TIP3    H2 4756   1.818   4.737   3.825
 1584TIP3   OH2 4757   1.706   3.375   3.472
 1584TIP3    H1 4758   1.716   3.386   3.567
 1584TIP3    H2 4759   1.615   3.397   3.454
 1585TIP3   OH2 4760   4.672   1.370   3.540
 1585TIP3    H1 4761   4.654   1.461   3.514
 1585TIP3    H2 4762   4.588   1.326   3.532
 1586TIP3   OH2 4763   3.003   1.912   2.484
 1586TIP3    H1 4764   3.023   1.827   2.444
 1586TIP3    H2 4765   3.084   1.962   2.477
 1587TIP3   OH2 4766   5.647   1.589   2.894
 1587TIP3    H1 4767   5.582   1.621   2.956
 1587TIP3    H2 4768   5.606   1.601   2.808
 1588TIP3   OH2 4769   3.798   4.052   4.572
 1588TIP3    H1 4770   3.881   4.080   4.532
 1588TIP3    H2 4771   3.818   3.966   4.609
 1589TIP3   OH2 4772   3.025   2.578   3.793
 1589TIP3    H1 4773   3.107   2.606   3.752
 1589TIP3    H2 4774   2.974   2.541   3.721
 1590TIP3   OH2 4775   5.242   0.999   0.999
 1590TIP3    H1 4776   5.255   1.078   0.947
 1590TIP3    H2 4777   5.329   0.959   1.003
 1591TIP3   OH2 4778   3.032   5.159   3.602
 1591TIP3    H1 4779   2.959   5.220   3.608
 1591TIP3    H2 4780   3.014   5.094   3.669
 1592TIP3   OH2 4781   1.268   3.131   4.473
 1592TIP3    H1 4782   1.276   3.104   4.564
 1592TIP3    H2 4783   1.347   3.098   4.430
 1593TIP3   OH2 4784   2.076   0.664   3.282
 1593TIP3    H1 4785   2.010   0.596   3.267
 1593TIP3    H2 4786   2.151   0.637   3.228
 1594TIP3   OH2 4787   1.599   4.484   1.089
 1594TIP3    H1 4788   1.596   4.389   1.088
 1594TIP3    H2 4789   1.579   4.508   1.179
 1595TIP3   OH2 4790   5.274   2.568   4.800
 1595TIP3    H1 4791   5.191   2.608   4.773
 1595TIP3    H2 4792   5.253   2.524   4.882
 1596TIP3   OH2 4793   3.243   3.736   3.194
 1596TIP3    H1 4794   3.217   3.828   3.196
 1596TIP3    H2 4795   3.338   3.738   3.182
 1597TIP3   OH2 4796   1.824   3.429   0.619
 1597TIP3    H1 4797   1.871   3.401   0.698
 1597TIP3    H2 4798   1.775   3.507   0.648
 1598TIP3   OH2 4799   3.852   5.587   3.751
 1598TIP3    H1 4800   3.803   5.558   3.829
 1598TIP3    H2 4801   3.928   5.530   3.748
 1599TIP3   OH2 4802   4.617   4.765   3.765
 1599TIP3    H1 4803   4.567   4.775   3.683
 1599TIP3    H2 4804   4.574   4.693   3.810
 1600TIP3   OH2 4805   0.730   3.988   1.329
 1600TIP3    H1 4806   0.657   3.927   1.336
 1600TIP3    H2 4807   0.715   4.035   1.247
 1601TIP3   OH2 4808   0.203   3.816   3.687
 1601TIP3    H1 4809   0.211   3.722   3.674
 1601TIP3    H2 4810   0.110   3.831   3.700
 1602TIP3   OH2 4811   2.047   3.819   2.079
 1602TIP3    H1 4812   2.121   3.860   2.033
 1602TIP3    H2 4813   2.085   3.788   2.161
 1603TIP3   OH2 4814   0.965   5.049   4.943
 1603TIP3    H1 4815   0.904   5.088   4.880
 1603TIP3    H2 4816   1.051   5.061   4.901
 1604TIP3   OH2 4817   4.792   1.350   0.226
 1604TIP3    H1 4818   4.817   1.394   0.145
 1604TIP3    H2 4819   4.861   1.372   0.289
 1605TIP3   OH2 4820   4.548   4.290   0.312
 1605TIP3    H1 4821   4.583   4.363   0.362
 1605TIP3    H2 4822   4.487   4.246   0.371
 1606TIP3   OH2 4823   0.407   5.971   0.193
 1606TIP3    H1 4824   0.373   5.970   0.282
 1606TIP3    H2 4825   0.346   5.916   0.143
 1607TIP3   OH2 4826   0.289   4.145   3.060
 1607TIP3    H1 4827   0.363   4.180   3.110
 1607TIP3    H2 4828   0.280   4.055   3.090
 1608TIP3   OH2 4829   2.756   0.876   3.567
 1608TIP3    H1 4830   2.735   0.935   3.494
 1608TIP3    H2 4831   2.712   0.915   3.642
 1609TIP3   OH2 4832   2.129   2.931   0.666
 1609TIP3    H1 4833   2.071   3.003   0.688
 1609TIP3    H2 4834   2.186   2.922   0.743
 1610TIP3   OH2 4835   2.671   0.312   3.538
 1610TIP3    H1 4836   2.610   0.246   3.504
 1610TIP3    H2 4837   2.627   0.396   3.523
 1611TIP3   OH2 4838   0.744   1.021   2.193
 1611TIP3    H1 4839   0.771   0.930   2.202
 1611TIP3    H2 4840   0.659   1.025   2.236
 1612TIP3   OH2 4841   6.224   0.153   0.892
 1612TIP3    H1 4842   6.235   0.244   0.866
 1612TIP3    H2 4843   6.139   0.128   0.857
 1613TIP3   OH2 4844   3.139   0.145   0.965
 1613TIP3    H1 4845   3.106   0.137   0.876
 1613TIP3    H2 4846   3.068   0.186   1.014
 1614TIP3   OH2 4847   3.506   2.120   1.555
 1614TIP3    H1 4848   3.540   2.121   1.466
 1614TIP3    H2 4849   3.526   2.207   1.590
 1615TIP3   OH2 4850   3.618   5.493   3.503
 1615TIP3    H1 4851   3.705   5.483   3.463
 1615TIP3    H2 4852   3.597   5.585   3.491
 1616TIP3   OH2 4853   2.925   5.865   1.232
 1616TIP3    H1 4854   2.931   5.837   1.141
 1616TIP3    H2 4855   2.869   5.943   1.229
 1617TIP3   OH2 4856   2.316   2.025   1.384
 1617TIP3    H1 4857   2.249   2.083   1.348
 1617TIP3    H2 4858   2.274   1.940   1.392
 1618TIP3   OH2 4859   3.456   1.221   1.444
 1618TIP3    H1 4860   3.407   1.302   1.429
 1618TIP3    H2 4861   3.433   1.165   1.370
 1619TIP3   OH2 4862   5.323   5.518   0.086
 1619TIP3    H1 4863   5.379   5.465   0.029
 1619TIP3    H2 4864   5.244   5.535   0.034
 1620TIP3   OH2 4865   5.737   0.177   4.157
 1620TIP3    H1 4866   5.651   0.218   4.145
 1620TIP3    H2 4867   5.746   0.119   4.082
 1621TIP3   OH2 4868   0.609   1.438   3.185
 1621TIP3    H1 4869   0.637   1.525   3.157
 1621TIP3    H2 4870   0.552   1.455   3.260
 1622TIP3   OH2 4871   4.653   4.624   1.569
 1622TIP3    H1 4872   4.652   4.704   1.623
 1622TIP3    H2 4873   4.690   4.557   1.626
 1623TIP3   OH2 4874   5.626   2.012   3.817
 1623TIP3    H1 4875   5.696   2.016   3.882
 1623TIP3    H2 4876   5.546   2.027   3.867
 1624TIP3   OH2 4877   6.348   5.612   4.509
 1624TIP3    H1 4878   6.387   5.606   4.422
 1624TIP3    H2 4879   6.284   5.683   4.501
 1625TIP3   OH2 4880   1.981   5.065   0.494
 1625TIP3    H1 4881   1.965   4.979   0.457
 1625TIP3    H2 4882   1.910   5.119   0.460
 1626TIP3   OH2 4883   2.351   3.779   1.720
 1626TIP3    H1 4884   2.393   3.860   1.689
 1626TIP3    H2 4885   2.275   3.768   1.664
 1627TIP3   OH2 4886   1.840   0.160   4.465
 1627TIP3    H1 4887   1.813   0.247   4.435
 1627TIP3    H2 4888   1.840   0.106   4.386
 1628TIP3   OH2 4889   0.821   4.329   2.104
 1628TIP3    H1 4890   0.845   4.397   2.041
 1628TIP3    H2 4891   0.796   4.378   2.183
 1629TIP3   OH2 4892   2.237   0.362   1.528
 1629TIP3    H1 4893   2.158   0.307   1.526
 1629TIP3    H2 4894   2.212   0.441   1.479
 1630TIP3   OH2 4895   5.338   0.834   3.163
 1630TIP3    H1 4896   5.316   0.769   3.096
 1630TIP3    H2 4897   5.346   0.916   3.115
 1631TIP3   OH2 4898   1.556   5.179   1.172
 1631TIP3    H1 4899   1.527   5.094   1.138
 1631TIP3    H2 4900   1.519   5.242   1.111
 1632TIP3   OH2 4901   2.483   4.703   3.888
 1632TIP3    H1 4902   2.408   4.762   3.880
 1632TIP3    H2 4903   2.466   4.633   3.824
 1633TIP3   OH2 4904   5.698   0.651   0.119
 1633TIP3    H1 4905   5.659   0.644   0.032
 1633TIP3    H2 4906   5.768   0.586   0.119
 1634TIP3   OH2 4907   0.071   3.477   1.121
 1634TIP3    H1 4908   0.147   3.525   1.153
 1634TIP3    H2 4909   0.082   3.473   1.026
 1635TIP3   OH2 4910   0.966   4.080   3.087
 1635TIP3    H1 4911   0.961   4.122   3.173
 1635TIP3    H2 4912   1.016   4.000   3.103
 1636TIP3   OH2 4913   1.175   4.098   3.448
 1636TIP3    H1 4914   1.081   4.082   3.441
 1636TIP3    H2 4915   1.190   4.174   3.391
 1637TIP3   OH2 4916   4.796   2.932   3.667
 1637TIP3    H1 4917   4.849   2.895   3.596
 1637TIP3    H2 4918   4.811   2.872   3.741
 1638TIP3   OH2 4919   0.481   4.560   4.488
 1638TIP3    H1 4920   0.497   4.587   4.579
 1638TIP3    H2 4921   0.563   4.580   4.443
 1639TIP3   OH2 4922   4.418   1.198   1.444
 1639TIP3    H1 4923   4.462   1.118   1.417
 1639TIP3    H2 4924   4.325   1.177   1.441
 1640TIP3   OH2 4925   2.531   2.006   4.086
 1640TIP3    H1 4926   2.606   1.968   4.041
 1640TIP3    H2 4927   2.461   2.005   4.021
 1641TIP3   OH2 4928   2.569   2.345   0.537
 1641TIP3    H1 4929   2.518   2.264   0.539
 1641TIP3    H2 4930   2.591   2.357   0.445
 1642TIP3   OH2 4931   6.195   2.305   3.005
 1642TIP3    H1 4932   6.189   2.393   2.966
 1642TIP3    H2 4933   6.145   2.249   2.945
 1643TIP3   OH2 4934   4.364   5.074   2.389
 1643TIP3    H1 4935   4.422   5.085   2.464
 1643TIP3    H2 4936   4.423   5.063   2.314
 1644TIP3   OH2 4937   1.883   3.947   0.502
 1644TIP3    H1 4938   1.838   4.001   0.568
 1644TIP3    H2 4939   1.812   3.914   0.446
 1645TIP3   OH2 4940   1.217   4.161   2.128
 1645TIP3    H1 4941   1.175   4.222   2.067
 1645TIP3    H2 4942   1.295   4.208   2.159
 1646TIP3   OH2 4943   3.878   3.947   1.081
 1646TIP3    H1 4944   3.816   3.925   1.150
 1646TIP3    H2 4945   3.947   3.997   1.125
 1647TIP3   OH2 4946   0.509   2.581   4.490
 1647TIP3    H1 4947   0.504   2.488   4.471
 1647TIP3    H2 4948   0.568   2.588   4.565
 1648TIP3   OH2 4949   1.548   1.208   0.490
 1648TIP3    H1 4950   1.581   1.230   0.577
 1648TIP3    H2 4951   1.533   1.293   0.448
 1649TIP3   OH2 4952   3.755   3.446   1.064
 1649TIP3    H1 4953   3.681   3.422   1.120
 1649TIP3    H2 4954   3.780   3.364   1.021
 1650TIP3   OH2 4955   0.535   0.568   0.412
 1650TIP3    H1 4956   0.587   0.535   0.338
 1650TIP3    H2 4957   0.450   0.589   0.374
 1651TIP3   OH2 4958   2.986   1.723   3.956
 1651TIP3    H1 4959   3.027   1.639   3.937
 1651TIP3    H2 4960   3.023   1.749   4.040
 1652TIP3   OH2 4961   1.170   3.981   0.761
 1652TIP3    H1 4962   1.221   3.908   0.795
 1652TIP3    H2 4963   1.102   3.939   0.707
 1653TIP3   OH2 4964   3.475   2.406   2.742
 1653TIP3    H1 4965   3.425   2.478   2.780
 1653TIP3    H2 4966   3.558   2.445   2.715
 1654TIP3   OH2 4967   1.310   1.581   1.426
 1654TIP3    H1 4968   1.305   1.667   1.467
 1654TIP3    H2 4969   1.231   1.575   1.372
 1655TIP3   OH2 4970   4.591   1.953   4.331
 1655TIP3    H1 4971   4.568   1.901   4.407
 1655TIP3    H2 4972   4.682   1.979   4.346
 1656TIP3   OH2 4973   5.283   4.174   4.589
 1656TIP3    H1 4974   5.293   4.182   4.684
 1656TIP3    H2 4975   5.223   4.100   4.578
 1657TIP3   OH2 4976   0.491   1.983   0.772
 1657TIP3    H1 4977   0.551   1.937   0.832
 1657TIP3    H2 4978   0.494   2.074   0.801
 1658TIP3   OH2 4979   3.855   2.864   2.642
 1658TIP3    H1 4980   3.882   2.802   2.710
 1658TIP3    H2 4981   3.876   2.819   2.560
 1659TIP3   OH2 4982   5.953   0.572   1.635
 1659TIP3    H1 4983   6.042   0.572   1.671
 1659TIP3    H2 4984   5.957   0.510   1.562
 1660TIP3   OH2 4985   5.347   5.226   3.992
 1660TIP3    H1 4986   5.282   5.288   4.027
 1660TIP3    H2 4987   5.343   5.152   4.052
 1661TIP3   OH2 4988   0.481   4.863   4.292
 1661TIP3    H1 4989   0.439   4.902   4.216
 1661TIP3    H2 4990   0.532   4.789   4.257
 1662TIP3   OH2 4991   0.011   2.148   1.635
 1662TIP3    H1 4992  -0.032   2.227   1.668
 1662TIP3    H2 4993   0.065   2.178   1.562
 1663TIP3   OH2 4994   3.723   3.349   3.268
 1663TIP3    H1 4995   3.732   3.360   3.174
 1663TIP3    H2 4996   3.633   3.319   3.281
 1664TIP3   OH2 4997   1.074   4.054   3.849
 1664TIP3    H1 4998   1.065   3.999   3.927
 1664TIP3    H2 4999   1.169   4.056   3.831
 1665TIP3   OH2 5000   3.308   2.448   0.094
 1665TIP3    H1 5001   3.351   2.448   0.179
 1665TIP3    H2 5002   3.216   2.468   0.112
 1666TIP3   OH2 5003   0.534   3.477   1.839
 1666TIP3    H1 5004   0.474   3.537   1.884
 1666TIP3    H2 5005   0.514   3.487   1.746
 1667TIP3   OH2 5006   6.213   4.089   1.982
 1667TIP3    H1 5007   6.170   4.120   2.062
 1667TIP3    H2 5008   6.157   4.120   1.911
 1668TIP3   OH2 5009   2.687   2.689   3.388
 1668TIP3    H1 5010   2.592   2.689   3.373
 1668TIP3    H2 5011   2.699   2.741   3.467
 1669TIP3   OH2 5012   4.403   1.808   4.490
 1669TIP3    H1 5013   4.317   1.851   4.490
 1669TIP3    H2 5014   4.395   1.740   4.423
 1670TIP3   OH2 5015   4.633   1.129   0.853
 1670TIP3    H1 5016   4.573   1.077   0.905
 1670TIP3    H2 5017   4.601   1.218   0.861
 1671TIP3   OH2 5018   1.053   0.700   1.148
 1671TIP3    H1 5019   1.051   0.638   1.222
 1671TIP3    H2 5020   1.057   0.786   1.189
 1672TIP3   OH2 5021   4.178   3.038   3.610
 1672TIP3    H1 5022   4.130   2.960   3.638
 1672TIP3    H2 5023   4.259   3.036   3.661
 1673TIP3   OH2 5024   2.733   2.404   0.943
 1673TIP3    H1 5025   2.744   2.342   0.871
 1673TIP3    H2 5026   2.799   2.472   0.926
 1674TIP3   OH2 5027   5.398   4.632   4.893
 1674TIP3    H1 5028   5.365   4.588   4.815
 1674TIP3    H2 5029   5.491   4.608   4.897
 1675TIP3   OH2 5030   1.269   0.533   0.308
 1675TIP3    H1 5031   1.322   0.487   0.373
 1675TIP3    H2 5032   1.182   0.495   0.316
 1676TIP3   OH2 5033   2.427   0.250   4.239
 1676TIP3    H1 5034   2.486   0.323   4.222
 1676TIP3    H2 5035   2.365   0.285   4.303
 1677TIP3   OH2 5036   3.775   0.745   1.279
 1677TIP3    H1 5037   3.782   0.688   1.202
 1677TIP3    H2 5038   3.822   0.697   1.348
 1678TIP3   OH2 5039   5.978   5.878   3.088
 1678TIP3    H1 5040   5.954   5.971   3.082
 1678TIP3    H2 5041   6.067   5.874   3.053
 1679TIP3   OH2 5042   3.033   4.975   0.422
 1679TIP3    H1 5043   3.081   5.056   0.435
 1679TIP3    H2 5044   3.015   4.971   0.328
 1680TIP3   OH2 5045   4.777   4.702   3.546
 1680TIP3    H1 5046   4.736   4.699   3.633
 1680TIP3    H2 5047   4.850   4.640   3.551
 1681TIP3   OH2 5048   5.212   2.077   3.180
 1681TIP3    H1 5049   5.156   2.138   3.226
 1681TIP3    H2 5050   5.283   2.057   3.242
 1682TIP3   OH2 5051   1.723   2.775   3.048
 1682TIP3    H1 5052   1.760   2.854   3.087
 1682TIP3    H2 5053   1.642   2.760   3.097
 1683TIP3   OH2 5054   0.156   0.584   1.029
 1683TIP3    H1 5055   0.215   0.528   0.978
 1683TIP3    H2 5056   0.178   0.673   1.002
 1684TIP3   OH2 5057   6.239   3.556   4.479
 1684TIP3    H1 5058   6.236   3.577   4.572
 1684TIP3    H2 5059   6.193   3.472   4.472
 1685TIP3   OH2 5060   3.255   0.547   0.567
 1685TIP3    H1 5061   3.319   0.476   0.559
 1685TIP3    H2 5062   3.175   0.503   0.597
 1686TIP3   OH2 5063   4.453   4.277   0.797
 1686TIP3    H1 5064   4.365   4.241   0.792
 1686TIP3    H2 5065   4.473   4.277   0.891
 1687TIP3   OH2 5066   3.897   2.494   1.585
 1687TIP3    H1 5067   3.984   2.516   1.550
 1687TIP3    H2 5068   3.914   2.423   1.648
 1688TIP3   OH2 5069   0.680   0.436   2.403
 1688TIP3    H1 5070   0.638   0.459   2.486
 1688TIP3    H2 5071   0.757   0.494   2.399
 1689TIP3   OH2 5072   1.828   5.137   1.575
 1689TIP3    H1 5073   1.749   5.124   1.522
 1689TIP3    H2 5074   1.888   5.069   1.544
 1690TIP3   OH2 5075   1.458   5.406   4.441
 1690TIP3    H1 5076   1.395   5.340   4.469
 1690TIP3    H2 5077   1.422   5.438   4.357
 1691TIP3   OH2 5078   5.245   5.616   1.122
 1691TIP3    H1 5079   5.325   5.657   1.089
 1691TIP3    H2 5080   5.227   5.545   1.059
 1692TIP3   OH2 5081   1.903   3.148   4.188
 1692TIP3    H1 5082   1.867   3.102   4.263
 1692TIP3    H2 5083   1.966   3.210   4.226
 1693TIP3   OH2 5084   4.328   4.303   2.278
 1693TIP3    H1 5085   4.325   4.223   2.225
 1693TIP3    H2 5086   4.244   4.346   2.261
 1694TIP3   OH2 5087   1.553   0.550   2.329
 1694TIP3    H1 5088   1.520   0.596   2.406
 1694TIP3    H2 5089   1.633   0.599   2.305
 1695TIP3   OH2 5090   4.591   5.936   1.933
 1695TIP3    H1 5091   4.569   5.855   1.887
 1695TIP3    H2 5092   4.616   5.908   2.021
 1696TIP3   OH2 5093   3.604   2.153   4.011
 1696TIP3    H1 5094   3.606   2.148   3.915
 1696TIP3    H2 5095   3.684   2.200   4.034
 1697TIP3   OH2 5096   1.099   5.457   3.799
 1697TIP3    H1 5097   1.044   5.381   3.817
 1697TIP3    H2 5098   1.141   5.476   3.883
 1698TIP3   OH2 5099   1.113   3.320   1.794
 1698TIP3    H1 5100   1.055   3.379   1.746
 1698TIP3    H2 5101   1.134   3.250   1.732
 1699TIP3   OH2 5102   6.229   1.829   1.436
 1699TIP3    H1 5103   6.154   1.887   1.424
 1699TIP3    H2 5104   6.230   1.809   1.529
 1700TIP3   OH2 5105   4.365   4.183   0.530
 1700TIP3    H1 5106   4.421   4.147   0.599
 1700TIP3    H2 5107   4.278   4.146   0.547
 1701TIP3   OH2 5108   0.881   1.205   4.039
 1701TIP3    H1 5109   0.859   1.227   3.948
 1701TIP3    H2 5110   0.808   1.239   4.090
 1702TIP3   OH2 5111   1.520   0.961   2.264
 1702TIP3    H1 5112   1.432   0.986   2.292
 1702TIP3    H2 5113   1.572   1.041   2.277
 1703TIP3   OH2 5114   3.435   0.345   0.593
 1703TIP3    H1 5115   3.453   0.340   0.687
 1703TIP3    H2 5116   3.404   0.258   0.570
 1704TIP3   OH2 5117   2.322   3.855   0.379
 1704TIP3    H1 5118   2.239   3.866   0.426
 1704TIP3    H2 5119   2.389   3.867   0.446
 1705TIP3   OH2 5120   4.005   0.660   3.529
 1705TIP3    H1 5121   4.089   0.706   3.527
 1705TIP3    H2 5122   4.026   0.573   3.563
 1706TIP3   OH2 5123   5.676   1.060   2.878
 1706TIP3    H1 5124   5.618   1.134   2.859
 1706TIP3    H2 5125   5.698   1.070   2.970
 1707TIP3   OH2 5126   2.731   0.513   1.103
 1707TIP3    H1 5127   2.744   0.606   1.120
 1707TIP3    H2 5128   2.754   0.470   1.185
 1708TIP3   OH2 5129   2.632   1.953   2.842
 1708TIP3    H1 5130   2.678   1.939   2.925
 1708TIP3    H2 5131   2.659   1.881   2.786
 1709TIP3   OH2 5132   4.864   5.611   5.047
 1709TIP3    H1 5133   4.926   5.554   5.002
 1709TIP3    H2 5134   4.864   5.579   5.138
 1710TIP3   OH2 5135   1.367   2.223   4.978
 1710TIP3    H1 5136   1.277   2.249   4.995
 1710TIP3    H2 5137   1.401   2.194   5.062
 1711TIP3   OH2 5138   2.288   0.547   4.160
 1711TIP3    H1 5139   2.284   0.512   4.071
 1711TIP3    H2 5140   2.206   0.519   4.201
 1712TIP3   OH2 5141   0.726   0.098   2.870
 1712TIP3    H1 5142   0.763   0.158   2.934
 1712TIP3    H2 5143   0.674   0.036   2.922
 1713TIP3   OH2 5144   1.026   0.168   3.570
 1713TIP3    H1 5145   1.056   0.249   3.531
 1713TIP3    H2 5146   1.004   0.112   3.496
 1714TIP3   OH2 5147   5.149   2.416   4.989
 1714TIP3    H1 5148   5.135   2.371   5.073
 1714TIP3    H2 5149   5.169   2.346   4.927
 1715TIP3   OH2 5150   1.542   3.913   0.657
 1715TIP3    H1 5151   1.523   3.899   0.564
 1715TIP3    H2 5152   1.466   3.877   0.702
 1716TIP3   OH2 5153   1.875   5.757   4.189
 1716TIP3    H1 5154   1.934   5.689   4.159
 1716TIP3    H2 5155   1.911   5.785   4.274
 1717TIP3   OH2 5156   6.296   1.185   4.365
 1717TIP3    H1 5157   6.325   1.171   4.275
 1717TIP3    H2 5158   6.236   1.111   4.382
 1718TIP3   OH2 5159   4.829   4.941   3.178
 1718TIP3    H1 5160   4.835   4.971   3.268
 1718TIP3    H2 5161   4.858   5.015   3.125
 1719TIP3   OH2 5162   4.761   3.067   4.568
 1719TIP3    H1 5163   4.708   3.104   4.498
 1719TIP3    H2 5164   4.825   3.135   4.589
 1720TIP3   OH2 5165   4.680   3.085   0.137
 1720TIP3    H1 5166   4.706   3.176   0.131
 1720TIP3    H2 5167   4.584   3.087   0.140
 1721TIP3   OH2 5168   0.938   0.763   3.497
 1721TIP3    H1 5169   0.992   0.790   3.572
 1721TIP3    H2 5170   0.948   0.834   3.433
 1722TIP3   OH2 5171   4.790   0.303   0.422
 1722TIP3    H1 5172   4.837   0.221   0.439
 1722TIP3    H2 5173   4.699   0.283   0.443
 1723TIP3   OH2 5174   2.460   1.919   1.739
 1723TIP3    H1 5175   2.486   1.838   1.781
 1723TIP3    H2 5176   2.370   1.903   1.709
 1724TIP3   OH2 5177   0.779   2.039   5.114
 1724TIP3    H1 5178   0.689   2.017   5.093
 1724TIP3    H2 5179   0.816   1.959   5.151
 1725TIP3   OH2 5180   6.186   2.040   0.546
 1725TIP3    H1 5181   6.131   1.962   0.535
 1725TIP3    H2 5182   6.268   2.006   0.581
 1726TIP3   OH2 5183   3.445   4.841   3.586
 1726TIP3    H1 5184   3.484   4.843   3.673
 1726TIP3    H2 5185   3.364   4.891   3.594
 1727TIP3   OH2 5186   4.796   5.904   2.568
 1727TIP3    H1 5187   4.877   5.949   2.543
 1727TIP3    H2 5188   4.766   5.950   2.647
 1728TIP3   OH2 5189   4.630   3.786   2.491
 1728TIP3    H1 5190   4.542   3.808   2.461
 1728TIP3    H2 5191   4.638   3.828   2.576
 1729TIP3   OH2 5192   3.719   2.831   2.348
 1729TIP3    H1 5193   3.796   2.882   2.324
 1729TIP3    H2 5194   3.709   2.845   2.442
 1730TIP3   OH2 5195   5.901   0.276   4.611
 1730TIP3    H1 5196   5.936   0.206   4.556
 1730TIP3    H2 5197   5.836   0.233   4.666
 1731TIP3   OH2 5198   3.713   4.365   2.618
 1731TIP3    H1 5199   3.729   4.460   2.614
 1731TIP3    H2 5200   3.754   4.331   2.539
 1732TIP3   OH2 5201   6.302   1.091   0.954
 1732TIP3    H1 5202   6.396   1.105   0.961
 1732TIP3    H2 5203   6.274   1.147   0.881
 1733TIP3   OH2 5204   6.195   4.341   1.270
 1733TIP3    H1 5205   6.241   4.293   1.201
 1733TIP3    H2 5206   6.169   4.273   1.333
 1734TIP3   OH2 5207   0.281   1.244   5.185
 1734TIP3    H1 5208   0.263   1.188   5.260
 1734TIP3    H2 5209   0.266   1.187   5.109
 1735TIP3   OH2 5210   4.261   4.133   3.593
 1735TIP3    H1 5211   4.265   4.045   3.630
 1735TIP3    H2 5212   4.337   4.178   3.631
 1736TIP3   OH2 5213   3.318   1.040   0.882
 1736TIP3    H1 5214   3.256   1.033   0.810
 1736TIP3    H2 5215   3.266   1.071   0.956
 1737TIP3   OH2 5216   4.331   5.685   0.720
 1737TIP3    H1 5217   4.277   5.764   0.719
 1737TIP3    H2 5218   4.416   5.714   0.752
 1738TIP3   OH2 5219   3.057   0.161   1.860
 1738TIP3    H1 5220   2.998   0.131   1.930
 1738TIP3    H2 5221   3.018   0.244   1.831
 1739TIP3   OH2 5222   2.876   2.850   4.694
 1739TIP3    H1 5223   2.926   2.814   4.768
 1739TIP3    H2 5224   2.919   2.814   4.616
 1740TIP3   OH2 5225   6.316   4.688   4.314
 1740TIP3    H1 5226   6.290   4.760   4.371
 1740TIP3    H2 5227   6.412   4.684   4.322
 1741TIP3   OH2 5228   3.206   3.094   3.728
 1741TIP3    H1 5229   3.283   3.041   3.707
 1741TIP3    H2 5230   3.161   3.044   3.797
 1742TIP3   OH2 5231   0.477   3.851   2.835
 1742TIP3    H1 5232   0.528   3.770   2.840
 1742TIP3    H2 5233   0.538   3.919   2.866
 1743TIP3   OH2 5234   4.064   5.737   4.485
 1743TIP3    H1 5235   4.108   5.652   4.490
 1743TIP3    H2 5236   3.977   5.716   4.451
 1744TIP3   OH2 5237   4.220   5.869   1.476
 1744TIP3    H1 5238   4.221   5.780   1.511
 1744TIP3    H2 5239   4.311   5.888   1.454
 1745TIP3   OH2 5240   2.352   4.475   3.729
 1745TIP3    H1 5241   2.275   4.504   3.682
 1745TIP3    H2 5242   2.377   4.393   3.686
 1746TIP3   OH2 5243   4.740   2.219   5.108
 1746TIP3    H1 5244   4.831   2.228   5.138
 1746TIP3    H2 5245   4.748   2.191   5.017
 1747TIP3   OH2 5246   1.031   1.488   1.738
 1747TIP3    H1 5247   0.939   1.459   1.741
 1747TIP3    H2 5248   1.035   1.546   1.662
 1748TIP3   OH2 5249   1.750   3.731   2.354
 1748TIP3    H1 5250   1.775   3.813   2.312
 1748TIP3    H2 5251   1.773   3.744   2.446
 1749TIP3   OH2 5252   5.284   4.569   1.779
 1749TIP3    H1 5253   5.227   4.606   1.846
 1749TIP3    H2 5254   5.318   4.488   1.818
 1750TIP3   OH2 5255   4.855   4.659   2.559
 1750TIP3    H1 5256   4.868   4.713   2.637
 1750TIP3    H2 5257   4.921   4.690   2.497
 1751TIP3   OH2 5258   0.777   0.475   1.089
 1751TIP3    H1 5259   0.865   0.447   1.116
 1751TIP3    H2 5260   0.759   0.422   1.011
 1752TIP3   OH2 5261   0.953   3.805   2.768
 1752TIP3    H1 5262   0.889   3.815   2.697
 1752TIP3    H2 5263   1.018   3.873   2.751
 1753TIP3   OH2 5264   0.846   1.564   3.676
 1753TIP3    H1 5265   0.764   1.612   3.687
 1753TIP3    H2 5266   0.832   1.511   3.597
 1754TIP3   OH2 5267   1.020   1.396   3.167
 1754TIP3    H1 5268   1.018   1.303   3.145
 1754TIP3    H2 5269   1.009   1.440   3.083
 1755TIP3   OH2 5270   1.622   4.650   2.002
 1755TIP3    H1 5271   1.582   4.691   2.078
 1755TIP3    H2 5272   1.714   4.678   2.005
 1756TIP3   OH2 5273   6.217   4.431   4.347
 1756TIP3    H1 5274   6.273   4.380   4.289
 1756TIP3    H2 5275   6.246   4.521   4.335
 1757TIP3   OH2 5276   0.059   2.257   1.945
 1757TIP3    H1 5277   0.043   2.290   2.034
 1757TIP3    H2 5278   0.148   2.283   1.925
 1758TIP3   OH2 5279   4.110   3.783   4.869
 1758TIP3    H1 5280   4.144   3.693   4.869
 1758TIP3    H2 5281   4.040   3.782   4.934
 1759TIP3   OH2 5282   2.853   5.821   3.309
 1759TIP3    H1 5283   2.761   5.833   3.287
 1759TIP3    H2 5284   2.897   5.899   3.273
 1760TIP3   OH2 5285   5.016   1.376   4.510
 1760TIP3    H1 5286   4.938   1.413   4.553
 1760TIP3    H2 5287   5.021   1.422   4.427
 1761TIP3   OH2 5288   0.799   3.385   1.824
 1761TIP3    H1 5289   0.724   3.433   1.858
 1761TIP3    H2 5290   0.760   3.317   1.768
 1762TIP3   OH2 5291   4.615   0.623   0.817
 1762TIP3    H1 5292   4.657   0.575   0.889
 1762TIP3    H2 5293   4.684   0.679   0.782
 1763TIP3   OH2 5294   5.172   3.863   3.434
 1763TIP3    H1 5295   5.123   3.938   3.399
 1763TIP3    H2 5296   5.262   3.877   3.406
 1764TIP3   OH2 5297   6.196   3.889   1.489
 1764TIP3    H1 5298   6.126   3.824   1.483
 1764TIP3    H2 5299   6.150   3.972   1.501
 1765TIP3   OH2 5300   5.363   1.085   0.055
 1765TIP3    H1 5301   5.381   1.051   0.143
 1765TIP3    H2 5302   5.321   1.012   0.010
 1766TIP3   OH2 5303   4.866   4.607   2.182
 1766TIP3    H1 5304   4.952   4.588   2.145
 1766TIP3    H2 5305   4.833   4.522   2.212
 1767TIP3   OH2 5306   3.633   3.226   1.686
 1767TIP3    H1 5307   3.556   3.170   1.694
 1767TIP3    H2 5308   3.683   3.209   1.766
 1768TIP3   OH2 5309   3.724   4.096   0.651
 1768TIP3    H1 5310   3.659   4.139   0.594
 1768TIP3    H2 5311   3.707   4.002   0.639
 1769TIP3   OH2 5312   4.329   4.562   4.767
 1769TIP3    H1 5313   4.286   4.628   4.714
 1769TIP3    H2 5314   4.284   4.480   4.744
 1770TIP3   OH2 5315   4.792   5.824   1.316
 1770TIP3    H1 5316   4.869   5.774   1.289
 1770TIP3    H2 5317   4.825   5.913   1.329
 1771TIP3   OH2 5318   4.417   3.167   3.454
 1771TIP3    H1 5319   4.405   3.261   3.462
 1771TIP3    H2 5320   4.359   3.130   3.521
 1772TIP3   OH2 5321   0.556   5.033   4.752
 1772TIP3    H1 5322   0.530   5.125   4.747
 1772TIP3    H2 5323   0.570   5.007   4.661
 1773TIP3   OH2 5324   5.481   0.265  -0.001
 1773TIP3    H1 5325   5.424   0.336   0.030
 1773TIP3    H2 5326   5.480   0.201   0.070
 1774TIP3   OH2 5327  -0.003   0.438   3.244
 1774TIP3    H1 5328  -0.055   0.457   3.167
 1774TIP3    H2 5329   0.080   0.482   3.229
 1775TIP3   OH2 5330   2.050   3.458   1.968
 1775TIP3    H1 5331   2.030   3.367   1.990
 1775TIP3    H2 5332   1.967   3.505   1.981
 1776TIP3   OH2 5333   0.091   2.329   4.996
 1776TIP3    H1 5334   0.118   2.386   4.924
 1776TIP3    H2 5335   0.072   2.245   4.954
 1777TIP3   OH2 5336   0.692   2.458   0.669
 1777TIP3    H1 5337   0.631   2.527   0.694
 1777TIP3    H2 5338   0.734   2.491   0.590
 1778TIP3   OH2 5339   5.631   1.690   5.158
 1778TIP3    H1 5340   5.694   1.683   5.230
 1778TIP3    H2 5341   5.677   1.741   5.092
 1779TIP3   OH2 5342   2.077   1.629   2.811
 1779TIP3    H1 5343   2.158   1.637   2.761
 1779TIP3    H2 5344   2.023   1.569   2.759
 1780TIP3   OH2 5345   6.114   0.119   1.161
 1780TIP3    H1 5346   6.152   0.133   1.074
 1780TIP3    H2 5347   6.129   0.027   1.179
 1781TIP3   OH2 5348   4.695   5.744   3.729
 1781TIP3    H1 5349   4.632   5.813   3.750
 1781TIP3    H2 5350   4.751   5.737   3.806
 1782TIP3   OH2 5351   0.854   0.074   0.899
 1782TIP3    H1 5352   0.789   0.131   0.942
 1782TIP3    H2 5353   0.875   0.119   0.818
 1783TIP3   OH2 5354   2.592   3.959   4.997
 1783TIP3    H1 5355   2.634   4.045   5.009
 1783TIP3    H2 5356   2.656   3.908   4.948
 1784TIP3   OH2 5357   1.252   0.081   0.044
 1784TIP3    H1 5358   1.287   0.170   0.037
 1784TIP3    H2 5359   1.182   0.077  -0.021
 1785TIP3   OH2 5360   0.960   3.194   4.803
 1785TIP3    H1 5361   0.879   3.231   4.767
 1785TIP3    H2 5362   0.969   3.235   4.889
 1786TIP3   OH2 5363   0.771   5.523   3.741
 1786TIP3    H1 5364   0.803   5.453   3.797
 1786TIP3    H2 5365   0.850   5.561   3.702
 1787TIP3   OH2 5366   0.202   0.262   1.172
 1787TIP3    H1 5367   0.283   0.240   1.219
 1787TIP3    H2 5368   0.163   0.332   1.224
 1788TIP3   OH2 5369   5.787   1.934   3.598
 1788TIP3    H1 5370   5.726   1.959   3.667
 1788TIP3    H2 5371   5.822   2.017   3.566
 1789TIP3   OH2 5372   4.203   3.907   3.749
 1789TIP3    H1 5373   4.147   3.943   3.817
 1789TIP3    H2 5374   4.143   3.883   3.678
 1790TIP3   OH2 5375   4.388   5.154   1.623
 1790TIP3    H1 5376   4.329   5.112   1.561
 1790TIP3    H2 5377   4.425   5.083   1.674
 1791TIP3   OH2 5378   5.523   2.712   4.887
 1791TIP3    H1 5379   5.586   2.640   4.888
 1791TIP3    H2 5380   5.442   2.673   4.854
 1792TIP3   OH2 5381   4.299   5.878   2.600
 1792TIP3    H1 5382   4.253   5.898   2.518
 1792TIP3    H2 5383   4.392   5.890   2.579
 1793TIP3   OH2 5384   5.125   0.115   0.374
 1793TIP3    H1 5385   5.207   0.065   0.376
 1793TIP3    H2 5386   5.142   0.190   0.432
 1794TIP3   OH2 5387   1.916   1.390   1.016
 1794TIP3    H1 5388   2.003   1.420   1.041
 1794TIP3    H2 5389   1.891   1.448   0.944
 1795TIP3   OH2 5390   2.839   4.586   1.740
 1795TIP3    H1 5391   2.915   4.528   1.739
 1795TIP3    H2 5392   2.766   4.532   1.710
 1796TIP3   OH2 5393   6.052   2.788   2.729
 1796TIP3    H1 5394   6.133   2.832   2.756
 1796TIP3    H2 5395   5.985   2.822   2.789
 1797TIP3   OH2 5396   0.513   5.856   5.114
 1797TIP3    H1 5397   0.422   5.881   5.094
 1797TIP3    H2 5398   0.556   5.938   5.139
 1798TIP3   OH2 5399   3.344   0.460   0.867
 1798TIP3    H1 5400   3.366   0.500   0.950
 1798TIP3    H2 5401   3.320   0.533   0.810
 1799TIP3   OH2 5402   3.794   3.483   0.073
 1799TIP3    H1 5403   3.716   3.450   0.028
 1799TIP3    H2 5404   3.780   3.459   0.164
 1800TIP3   OH2 5405   2.705   0.581   2.135
 1800TIP3    H1 5406   2.640   0.512   2.118
 1800TIP3    H2 5407   2.660   0.643   2.193
 1801TIP3   OH2 5408   5.568   0.152   4.423
 1801TIP3    H1 5409   5.621   0.079   4.456
 1801TIP3    H2 5410   5.569   0.139   4.328
 1802TIP3   OH2 5411   3.560   0.186   1.420
 1802TIP3    H1 5412   3.524   0.137   1.346
 1802TIP3    H2 5413   3.572   0.275   1.385
 1803TIP3   OH2 5414   3.209   3.194   4.619
 1803TIP3    H1 5415   3.281   3.248   4.652
 1803TIP3    H2 5416   3.229   3.184   4.526
 1804TIP3   OH2 5417   3.097   1.995   4.481
 1804TIP3    H1 5418   3.014   1.986   4.434
 1804TIP3    H2 5419   3.079   2.058   4.551
 1805TIP3   OH2 5420   4.749   5.235   4.229
 1805TIP3    H1 5421   4.798   5.175   4.173
 1805TIP3    H2 5422   4.704   5.293   4.168
 1806TIP3   OH2 5423   6.239   2.720   3.083
 1806TIP3    H1 5424   6.333   2.737   3.084
 1806TIP3    H2 5425   6.198   2.806   3.092
 1807TIP3   OH2 5426   0.467   2.173   1.578
 1807TIP3    H1 5427   0.549   2.205   1.617
 1807TIP3    H2 5428   0.446   2.239   1.511
 1808TIP3   OH2 5429   0.706   1.676   1.943
 1808TIP3    H1 5430   0.746   1.679   1.856
 1808TIP3    H2 5431   0.740   1.596   1.982
 1809TIP3   OH2 5432   2.486   5.058   2.787
 1809TIP3    H1 5433   2.453   5.140   2.751
 1809TIP3    H2 5434   2.571   5.045   2.745
 1810TIP3   OH2 5435   4.083   3.582   4.633
 1810TIP3    H1 5436   4.016   3.612   4.695
 1810TIP3    H2 5437   4.054   3.495   4.607
 1811TIP3   OH2 5438   3.431   5.298   3.373
 1811TIP3    H1 5439   3.388   5.307   3.458
 1811TIP3    H2 5440   3.507   5.355   3.378
 1812TIP3   OH2 5441   3.701   4.039   3.070
 1812TIP3    H1 5442   3.681   4.132   3.086
 1812TIP3    H2 5443   3.615   3.998   3.058
 1813TIP3   OH2 5444   1.797   0.759   4.565
 1813TIP3    H1 5445   1.769   0.744   4.475
 1813TIP3    H2 5446   1.890   0.780   4.557
 1814TIP3   OH2 5447   1.548   3.623   4.678
 1814TIP3    H1 5448   1.500   3.575   4.746
 1814TIP3    H2 5449   1.587   3.697   4.724
 1815TIP3   OH2 5450   1.124   5.577   1.611
 1815TIP3    H1 5451   1.059   5.507   1.603
 1815TIP3    H2 5452   1.081   5.644   1.664
 1816TIP3   OH2 5453   1.641   1.104   4.939
 1816TIP3    H1 5454   1.659   1.155   4.859
 1816TIP3    H2 5455   1.642   1.013   4.910
 1817TIP3   OH2 5456   2.872   3.753   4.391
 1817TIP3    H1 5457   2.831   3.803   4.462
 1817TIP3    H2 5458   2.798   3.720   4.340
 1818TIP3   OH2 5459   1.985   3.822   0.235
 1818TIP3    H1 5460   1.891   3.810   0.221
 1818TIP3    H2 5461   2.007   3.763   0.307
 1819TIP3   OH2 5462   2.882   0.100   5.043
 1819TIP3    H1 5463   2.912   0.106   4.953
 1819TIP3    H2 5464   2.807   0.160   5.047
 1820TIP3   OH2 5465   6.205   5.347   1.120
 1820TIP3    H1 5466   6.183   5.440   1.125
 1820TIP3    H2 5467   6.184   5.312   1.207
 1821TIP3   OH2 5468   5.650   2.663   4.245
 1821TIP3    H1 5469   5.673   2.733   4.184
 1821TIP3    H2 5470   5.556   2.651   4.233
 1822TIP3   OH2 5471   5.114   4.703   0.594
 1822TIP3    H1 5472   5.151   4.749   0.670
 1822TIP3    H2 5473   5.119   4.767   0.523
 1823TIP3   OH2 5474   1.901   3.454   3.119
 1823TIP3    H1 5475   1.855   3.371   3.123
 1823TIP3    H2 5476   1.838   3.518   3.152
 1824TIP3   OH2 5477   2.891   3.081   1.521
 1824TIP3    H1 5478   2.951   3.119   1.457
 1824TIP3    H2 5479   2.939   3.007   1.557
 1825TIP3   OH2 5480   0.573   2.022   2.316
 1825TIP3    H1 5481   0.597   1.976   2.236
 1825TIP3    H2 5482   0.642   2.086   2.330
 1826TIP3   OH2 5483   6.062   4.591   2.626
 1826TIP3    H1 5484   6.025   4.504   2.639
 1826TIP3    H2 5485   6.151   4.584   2.662
 1827TIP3   OH2 5486   1.010   2.943   4.397
 1827TIP3    H1 5487   1.041   2.867   4.349
 1827TIP3    H2 5488   1.085   3.002   4.400
 1828TIP3   OH2 5489   1.450   1.980   4.050
 1828TIP3    H1 5490   1.455   1.962   4.143
 1828TIP3    H2 5491   1.477   2.072   4.042
 1829TIP3   OH2 5492   3.243   1.336   2.278
 1829TIP3    H1 5493   3.152   1.318   2.256
 1829TIP3    H2 5494   3.280   1.251   2.302
 1830TIP3   OH2 5495   0.762   5.616   0.098
 1830TIP3    H1 5496   0.778   5.633   0.005
 1830TIP3    H2 5497   0.759   5.704   0.138
 1831TIP3   OH2 5498   5.488   1.508   2.103
 1831TIP3    H1 5499   5.425   1.479   2.038
 1831TIP3    H2 5500   5.569   1.523   2.054
 1832TIP3   OH2 5501   3.139   0.988   0.666
 1832TIP3    H1 5502   3.126   0.989   0.571
 1832TIP3    H2 5503   3.066   1.039   0.701
 1833TIP3   OH2 5504   3.305   1.835   2.439
 1833TIP3    H1 5505   3.264   1.750   2.455
 1833TIP3    H2 5506   3.395   1.814   2.413
 1834TIP3   OH2 5507   3.806   4.962   2.693
 1834TIP3    H1 5508   3.793   5.041   2.746
 1834TIP3    H2 5509   3.762   4.981   2.610
 1835TIP3   OH2 5510   2.617   5.734   2.717
 1835TIP3    H1 5511   2.531   5.739   2.674
 1835TIP3    H2 5512   2.599   5.757   2.808
 1836TIP3   OH2 5513   4.866   0.125   0.942
 1836TIP3    H1 5514   4.917   0.191   0.990
 1836TIP3    H2 5515   4.776   0.156   0.948
 1837TIP3   OH2 5516   5.393   3.743   2.996
 1837TIP3    H1 5517   5.366   3.651   2.988
 1837TIP3    H2 5518   5.415   3.753   3.088
 1838TIP3   OH2 5519   2.617   5.473   3.047
 1838TIP3    H1 5520   2.591   5.565   3.040
 1838TIP3    H2 5521   2.687   5.462   2.983
 1839TIP3   OH2 5522   2.241   2.673   0.970
 1839TIP3    H1 5523   2.296   2.743   1.004
 1839TIP3    H2 5524   2.302   2.604   0.943
 1840TIP3   OH2 5525   2.589   4.998   4.699
 1840TIP3    H1 5526   2.540   5.024   4.621
 1840TIP3    H2 5527   2.549   4.914   4.725
 1841TIP3   OH2 5528   0.909   3.336   4.320
 1841TIP3    H1 5529   0.882   3.246   4.299
 1841TIP3    H2 5530   1.000   3.326   4.350
 1842TIP3   OH2 5531   4.384   1.723   1.564
 1842TIP3    H1 5532   4.431   1.690   1.487
 1842TIP3    H2 5533   4.415   1.668   1.636
 1843TIP3   OH2 5534   6.233   4.603   3.522
 1843TIP3    H1 5535   6.154   4.652   3.498
 1843TIP3    H2 5536   6.207   4.511   3.514
 1844TIP3   OH2 5537   0.342   1.787   1.071
 1844TIP3    H1 5538   0.331   1.692   1.078
 1844TIP3    H2 5539   0.381   1.813   1.154
 1845TIP3   OH2 5540   1.273   4.422   1.138
 1845TIP3    H1 5541   1.362   4.444   1.166
 1845TIP3    H2 5542   1.230   4.506   1.124
 1846TIP3   OH2 5543   3.156   0.285   2.656
 1846TIP3    H1 5544   3.122   0.347   2.720
 1846TIP3    H2 5545   3.160   0.335   2.574
 1847TIP3   OH2 5546   5.270   2.075   2.635
 1847TIP3    H1 5547   5.324   2.119   2.700
 1847TIP3    H2 5548   5.237   1.996   2.679
 1848TIP3   OH2 5549   0.947   2.631   1.315
 1848TIP3    H1 5550   0.960   2.661   1.225
 1848TIP3    H2 5551   0.930   2.537   1.306
 1849TIP3   OH2 5552   0.146   0.565   4.801
 1849TIP3    H1 5553   0.071   0.608   4.842
 1849TIP3    H2 5554   0.108   0.501   4.741
 1850TIP3   OH2 5555   0.398   3.958   1.247
 1850TIP3    H1 5556   0.429   3.870   1.270
 1850TIP3    H2 5557   0.303   3.951   1.245
 1851TIP3   OH2 5558   2.411   3.017   3.965
 1851TIP3    H1 5559   2.389   3.028   4.057
 1851TIP3    H2 5560   2.404   3.105   3.928
 1852TIP3   OH2 5561   4.105   0.533   3.230
 1852TIP3    H1 5562   4.034   0.498   3.177
 1852TIP3    H2 5563   4.063   0.564   3.310
 1853TIP3   OH2 5564   3.428   0.396   2.012
 1853TIP3    H1 5565   3.444   0.490   2.023
 1853TIP3    H2 5566   3.390   0.389   1.924
 1854TIP3   OH2 5567   1.846   4.442   0.538
 1854TIP3    H1 5568   1.900   4.416   0.464
 1854TIP3    H2 5569   1.759   4.453   0.502
 1855TIP3   OH2 5570   2.316   4.924   3.323
 1855TIP3    H1 5571   2.290   5.001   3.273
 1855TIP3    H2 5572   2.410   4.935   3.337
 1856TIP3   OH2 5573   1.793   5.723   0.703
 1856TIP3    H1 5574   1.756   5.689   0.622
 1856TIP3    H2 5575   1.720   5.725   0.764
 1857TIP3   OH2 5576   0.159   4.003   0.391
 1857TIP3    H1 5577   0.106   4.013   0.313
 1857TIP3    H2 5578   0.115   3.935   0.442
 1858TIP3   OH2 5579   1.348   2.348   3.815
 1858TIP3    H1 5580   1.339   2.267   3.765
 1858TIP3    H2 5581   1.432   2.384   3.786
 1859TIP3   OH2 5582   6.072   1.585   4.250
 1859TIP3    H1 5583   5.977   1.578   4.233
 1859TIP3    H2 5584   6.087   1.678   4.263
 1860TIP3   OH2 5585   5.245   2.516   1.848
 1860TIP3    H1 5586   5.169   2.522   1.906
 1860TIP3    H2 5587   5.315   2.561   1.895
 1861TIP3   OH2 5588   0.936   4.829   4.296
 1861TIP3    H1 5589   0.985   4.886   4.357
 1861TIP3    H2 5590   0.886   4.889   4.242
 1862TIP3   OH2 5591   3.680   5.555   0.409
 1862TIP3    H1 5592   3.740   5.601   0.350
 1862TIP3    H2 5593   3.620   5.622   0.440
 1863TIP3   OH2 5594   3.295   1.599   0.261
 1863TIP3    H1 5595   3.295   1.634   0.350
 1863TIP3    H2 5596   3.384   1.611   0.230
 1864TIP3   OH2 5597   2.947   0.102   3.493
 1864TIP3    H1 5598   2.962   0.113   3.399
 1864TIP3    H2 5599   2.924   0.190   3.524
 1865TIP3   OH2 5600   0.568   2.791   1.709
 1865TIP3    H1 5601   0.531   2.722   1.763
 1865TIP3    H2 5602   0.657   2.803   1.743
 1866TIP3   OH2 5603   5.898   2.762   0.764
 1866TIP3    H1 5604   5.869   2.695   0.826
 1866TIP3    H2 5605   5.907   2.842   0.817
 1867TIP3   OH2 5606   1.024   5.358   4.728
 1867TIP3    H1 5607   0.938   5.316   4.726
 1867TIP3    H2 5608   1.008   5.446   4.694
 1868TIP3   OH2 5609   5.285   4.538   0.474
 1868TIP3    H1 5610   5.231   4.599   0.523
 1868TIP3    H2 5611   5.347   4.503   0.538
 1869TIP3   OH2 5612   2.731   4.675   3.501
 1869TIP3    H1 5613   2.765   4.669   3.412
 1869TIP3    H2 5614   2.807   4.655   3.557
 1870TIP3   OH2 5615   4.573  -0.016   1.120
 1870TIP3    H1 5616   4.477  -0.016   1.128
 1870TIP3    H2 5617   4.590   0.045   1.048
 1871TIP3   OH2 5618   2.938   0.973   2.622
 1871TIP3    H1 5619   2.968   1.002   2.708
 1871TIP3    H2 5620   2.928   0.878   2.631
 1872TIP3   OH2 5621   0.876   3.878   0.996
 1872TIP3    H1 5622   0.799   3.825   0.974
 1872TIP3    H2 5623   0.857   3.965   0.961
 1873TIP3   OH2 5624   0.812   4.299   1.144
 1873TIP3    H1 5625   0.753   4.239   1.098
 1873TIP3    H2 5626   0.899   4.275   1.113
 1874TIP3   OH2 5627   5.866   1.192   4.353
 1874TIP3    H1 5628   5.855   1.117   4.412
 1874TIP3    H2 5629   5.792   1.187   4.294
 1875TIP3   OH2 5630   2.743   4.364   0.817
 1875TIP3    H1 5631   2.702   4.450   0.829
 1875TIP3    H2 5632   2.788   4.371   0.733
 1876TIP3   OH2 5633   4.656   1.898   3.493
 1876TIP3    H1 5634   4.722   1.966   3.508
 1876TIP3    H2 5635   4.583   1.922   3.550
 1877TIP3   OH2 5636   3.514   2.439   4.039
 1877TIP3    H1 5637   3.461   2.395   4.106
 1877TIP3    H2 5638   3.604   2.430   4.070
 1878TIP3   OH2 5639   3.468   5.931   4.624
 1878TIP3    H1 5640   3.478   5.906   4.533
 1878TIP3    H2 5641   3.424   5.856   4.665
 1879TIP3   OH2 5642   4.438   5.272   1.381
 1879TIP3    H1 5643   4.416   5.232   1.465
 1879TIP3    H2 5644   4.472   5.200   1.328
 1880TIP3   OH2 5645   0.192   0.497   2.977
 1880TIP3    H1 5646   0.112   0.536   2.940
 1880TIP3    H2 5647   0.212   0.551   3.053
 1881TIP3   OH2 5648   6.339   1.353   0.153
 1881TIP3    H1 5649   6.349   1.293   0.227
 1881TIP3    H2 5650   6.316   1.296   0.079
 1882TIP3   OH2 5651   0.843   3.828   2.074
 1882TIP3    H1 5652   0.838   3.852   1.981
 1882TIP3    H2 5653   0.922   3.871   2.105
 1883TIP3   OH2 5654   5.343   3.415   3.895
 1883TIP3    H1 5655   5.339   3.392   3.987
 1883TIP3    H2 5656   5.411   3.482   3.890
 1884TIP3   OH2 5657   1.304   3.572   5.060
 1884TIP3    H1 5658   1.335   3.522   4.985
 1884TIP3    H2 5659   1.269   3.653   5.021
 1885TIP3   OH2 5660   2.256   0.603   0.562
 1885TIP3    H1 5661   2.257   0.524   0.509
 1885TIP3    H2 5662   2.189   0.658   0.523
 1886TIP3   OH2 5663   3.876   2.715   1.154
 1886TIP3    H1 5664   3.968   2.736   1.135
 1886TIP3    H2 5665   3.869   2.724   1.249
 1887TIP3   OH2 5666   3.476   3.318   4.651
 1887TIP3    H1 5667   3.473   3.336   4.745
 1887TIP3    H2 5668   3.569   3.318   4.630
 1888TIP3   OH2 5669   1.566   0.717   2.865
 1888TIP3    H1 5670   1.655   0.682   2.870
 1888TIP3    H2 5671   1.572   0.804   2.905
 1889TIP3   OH2 5672   0.337   4.797   1.419
 1889TIP3    H1 5673   0.334   4.725   1.356
 1889TIP3    H2 5674   0.254   4.792   1.465
 1890TIP3   OH2 5675   3.278   2.327   4.992
 1890TIP3    H1 5676   3.269   2.269   5.068
 1890TIP3    H2 5677   3.285   2.267   4.917
 1891TIP3   OH2 5678   3.360   4.273   0.143
 1891TIP3    H1 5679   3.395   4.350   0.189
 1891TIP3    H2 5680   3.376   4.292   0.051
 1892TIP3   OH2 5681   3.230   2.090   2.475
 1892TIP3    H1 5682   3.214   2.144   2.398
 1892TIP3    H2 5683   3.272   2.012   2.442
 1893TIP3   OH2 5684   3.250   5.511   1.002
 1893TIP3    H1 5685   3.190   5.550   1.067
 1893TIP3    H2 5686   3.192   5.472   0.937
 1894TIP3   OH2 5687   4.219   4.265   4.318
 1894TIP3    H1 5688   4.179   4.307   4.394
 1894TIP3    H2 5689   4.311   4.251   4.345
 1895TIP3   OH2 5690   5.893   4.236   1.038
 1895TIP3    H1 5691   5.876   4.308   1.099
 1895TIP3    H2 5692   5.914   4.161   1.094
 1896TIP3   OH2 5693   0.435   3.106   1.501
 1896TIP3    H1 5694   0.502   3.150   1.449
 1896TIP3    H2 5695   0.437   3.015   1.469
 1897TIP3   OH2 5696   5.464   3.557   2.040
 1897TIP3    H1 5697   5.400   3.495   2.076
 1897TIP3    H2 5698   5.411   3.623   1.996
 1898TIP3   OH2 5699   3.195   3.729   1.504
 1898TIP3    H1 5700   3.202   3.807   1.449
 1898TIP3    H2 5701   3.281   3.687   1.497
 1899TIP3   OH2 5702   0.660   1.192   3.298
 1899TIP3    H1 5703   0.752   1.198   3.325
 1899TIP3    H2 5704   0.648   1.265   3.238
 1900TIP3   OH2 5705   4.756   5.323   5.027
 1900TIP3    H1 5706   4.829   5.350   5.082
 1900TIP3    H2 5707   4.797   5.296   4.945
 1901TIP3   OH2 5708   6.363   4.123   1.684
 1901TIP3    H1 5709   6.382   4.213   1.658
 1901TIP3    H2 5710   6.275   4.126   1.721
 1902TIP3   OH2 5711   2.633   1.972   2.050
 1902TIP3    H1 5712   2.598   2.060   2.036
 1902TIP3    H2 5713   2.560   1.924   2.090
 1903TIP3   OH2 5714   3.797   2.329   0.145
 1903TIP3    H1 5715   3.870   2.305   0.088
 1903TIP3    H2 5716   3.816   2.419   0.173
 1904TIP3   OH2 5717   4.214   1.908   3.199
 1904TIP3    H1 5718   4.137   1.868   3.160
 1904TIP3    H2 5719   4.256   1.836   3.247
 1905TIP3   OH2 5720   5.167   1.802   4.210
 1905TIP3    H1 5721   5.174   1.733   4.144
 1905TIP3    H2 5722   5.087   1.848   4.187
 1906TIP3   OH2 5723   4.451   0.515   5.051
 1906TIP3    H1 5724   4.463   0.425   5.082
 1906TIP3    H2 5725   4.475   0.511   4.958
 1907TIP3   OH2 5726   1.039   4.983   4.507
 1907TIP3    H1 5727   1.116   5.036   4.530
 1907TIP3    H2 5728   0.974   5.047   4.477
 1908TIP3   OH2 5729   2.439   2.952   5.019
 1908TIP3    H1 5730   2.409   3.042   5.035
 1908TIP3    H2 5731   2.382   2.898   5.075
 1909TIP3   OH2 5732   3.269   0.765   0.737
 1909TIP3    H1 5733   3.291   0.718   0.657
 1909TIP3    H2 5734   3.243   0.852   0.708
 1910TIP3   OH2 5735   4.663   0.048   4.739
 1910TIP3    H1 5736   4.634  -0.042   4.721
 1910TIP3    H2 5737   4.745   0.036   4.788
 1911TIP3   OH2 5738   2.512   5.175   2.477
 1911TIP3    H1 5739   2.452   5.138   2.543
 1911TIP3    H2 5740   2.593   5.126   2.489
 1912TIP3   OH2 5741   1.757   2.274   0.196
 1912TIP3    H1 5742   1.664   2.294   0.185
 1912TIP3    H2 5743   1.775   2.295   0.288
 1913TIP3   OH2 5744   4.495   1.382   0.069
 1913TIP3    H1 5745   4.542   1.385   0.152
 1913TIP3    H2 5746   4.428   1.315   0.081
 1914TIP3   OH2 5747   0.210   4.016   1.830
 1914TIP3    H1 5748   0.130   4.028   1.779
 1914TIP3    H2 5749   0.231   4.103   1.863
 1915TIP3   OH2 5750   2.322   1.310   0.631
 1915TIP3    H1 5751   2.410   1.314   0.595
 1915TIP3    H2 5752   2.318   1.225   0.675
 1916TIP3   OH2 5753   5.488   3.409   3.613
 1916TIP3    H1 5754   5.544   3.458   3.553
 1916TIP3    H2 5755   5.435   3.476   3.657
 1917TIP3   OH2 5756   5.525   2.746   5.176
 1917TIP3    H1 5757   5.596   2.810   5.179
 1917TIP3    H2 5758   5.507   2.734   5.083
 1918TIP3   OH2 5759   0.511   4.352   3.108
 1918TIP3    H1 5760   0.526   4.423   3.045
 1918TIP3    H2 5761   0.447   4.388   3.170
 1919TIP3   OH2 5762   5.221   2.801   2.719
 1919TIP3    H1 5763   5.205   2.710   2.746
 1919TIP3    H2 5764   5.219   2.798   2.623
 1920TIP3   OH2 5765   5.697   3.864   2.524
 1920TIP3    H1 5766   5.630   3.804   2.556
 1920TIP3    H2 5767   5.776   3.839   2.571
 1921TIP3   OH2 5768   4.552   1.278   0.349
 1921TIP3    H1 5769   4.634   1.274   0.299
 1921TIP3    H2 5770   4.579   1.259   0.439
 1922TIP3   OH2 5771   2.270   0.968   1.877
 1922TIP3    H1 5772   2.204   1.015   1.827
 1922TIP3    H2 5773   2.344   0.959   1.817
 1923TIP3   OH2 5774   3.620   0.864   3.306
 1923TIP3    H1 5775   3.605   0.898   3.394
 1923TIP3    H2 5776   3.601   0.938   3.248
 1924TIP3   OH2 5777   0.235   4.278   1.326
 1924TIP3    H1 5778   0.301   4.310   1.265
 1924TIP3    H2 5779   0.164   4.247   1.271
 1925TIP3   OH2 5780   6.048   1.097   4.132
 1925TIP3    H1 5781   6.093   1.182   4.134
 1925TIP3    H2 5782   5.977   1.107   4.196
 1926TIP3   OH2 5783   0.063   5.528   3.338
 1926TIP3    H1 5784   0.074   5.523   3.243
 1926TIP3    H2 5785   0.135   5.476   3.374
 1927TIP3   OH2 5786   0.869   2.516   0.454
 1927TIP3    H1 5787   0.935   2.560   0.507
 1927TIP3    H2 5788   0.871   2.561   0.370
 1928TIP3   OH2 5789   1.245   2.521   1.249
 1928TIP3    H1 5790   1.235   2.447   1.309
 1928TIP3    H2 5791   1.206   2.492   1.167
 1929TIP3   OH2 5792   1.299   4.113   4.848
 1929TIP3    H1 5793   1.237   4.186   4.842
 1929TIP3    H2 5794   1.276   4.057   4.774
 1930TIP3   OH2 5795   1.131   1.235   0.709
 1930TIP3    H1 5796   1.179   1.152   0.712
 1930TIP3    H2 5797   1.199   1.302   0.716
 1931TIP3   OH2 5798   1.744   0.104   0.067
 1931TIP3    H1 5799   1.678   0.114   0.136
 1931TIP3    H2 5800   1.706   0.149  -0.008
 1932TIP3   OH2 5801   4.661   0.760   4.420
 1932TIP3    H1 5802   4.633   0.720   4.338
 1932TIP3    H2 5803   4.756   0.749   4.421
 1933TIP3   OH2 5804   6.097   4.247   1.739
 1933TIP3    H1 5805   6.034   4.211   1.803
 1933TIP3    H2 5806   6.054   4.324   1.704
 1934TIP3   OH2 5807   5.935   0.341   0.834
 1934TIP3    H1 5808   6.002   0.373   0.894
 1934TIP3    H2 5809   5.983   0.322   0.753
 1935TIP3   OH2 5810   4.902   4.374   0.593
 1935TIP3    H1 5811   4.968   4.314   0.629
 1935TIP3    H2 5812   4.879   4.337   0.508
 1936TIP3   OH2 5813   4.724   5.708   3.988
 1936TIP3    H1 5814   4.664   5.685   4.059
 1936TIP3    H2 5815   4.792   5.762   4.030
 1937TIP3   OH2 5816   5.966   3.834   1.868
 1937TIP3    H1 5817   6.060   3.818   1.860
 1937TIP3    H2 5818   5.932   3.758   1.915
 1938TIP3   OH2 5819   5.585   4.166   0.299
 1938TIP3    H1 5820   5.518   4.102   0.321
 1938TIP3    H2 5821   5.628   4.186   0.383
 1939TIP3   OH2 5822   6.369   3.157   4.315
 1939TIP3    H1 5823   6.275   3.169   4.305
 1939TIP3    H2 5824   6.383   3.063   4.305
 1940TIP3   OH2 5825   0.852   2.327   3.740
 1940TIP3    H1 5826   0.853   2.410   3.692
 1940TIP3    H2 5827   0.768   2.328   3.787
 1941TIP3   OH2 5828   6.284   5.574   2.964
 1941TIP3    H1 5829   6.297   5.501   3.025
 1941TIP3    H2 5830   6.234   5.536   2.892
 1942TIP3   OH2 5831   6.070   2.260   2.103
 1942TIP3    H1 5832   5.991   2.213   2.131
 1942TIP3    H2 5833   6.114   2.199   2.044
 1943TIP3   OH2 5834   1.301   2.784   1.304
 1943TIP3    H1 5835   1.300   2.797   1.209
 1943TIP3    H2 5836   1.253   2.703   1.317
 1944TIP3   OH2 5837   0.036   4.460   2.228
 1944TIP3    H1 5838   0.003   4.461   2.139
 1944TIP3    H2 5839   0.131   4.467   2.218
 1945TIP3   OH2 5840   4.881   1.781   3.598
 1945TIP3    H1 5841   4.944   1.854   3.602
 1945TIP3    H2 5842   4.811   1.814   3.541
 1946TIP3   OH2 5843   3.907   0.397   0.197
 1946TIP3    H1 5844   3.857   0.458   0.251
 1946TIP3    H2 5845   3.999   0.414   0.220
 1947TIP3   OH2 5846   6.143   3.100   3.552
 1947TIP3    H1 5847   6.125   3.192   3.532
 1947TIP3    H2 5848   6.192   3.068   3.476
 1948TIP3   OH2 5849   1.789   1.397   0.674
 1948TIP3    H1 5850   1.835   1.328   0.628
 1948TIP3    H2 5851   1.823   1.478   0.636
 1949TIP3   OH2 5852   0.439   3.941   0.698
 1949TIP3    H1 5853   0.462   3.866   0.753
 1949TIP3    H2 5854   0.440   4.015   0.758
 1950TIP3   OH2 5855   6.001   3.314   3.870
 1950TIP3    H1 5856   6.017   3.407   3.883
 1950TIP3    H2 5857   6.087   3.276   3.855
 1951TIP3   OH2 5858   2.297   5.666   2.851
 1951TIP3    H1 5859   2.322   5.642   2.762
 1951TIP3    H2 5860   2.203   5.651   2.854
 1952TIP3   OH2 5861   1.636   3.889   4.016
 1952TIP3    H1 5862   1.549   3.859   3.990
 1952TIP3    H2 5863   1.657   3.838   4.094
 1953TIP3   OH2 5864   5.753   2.811   2.242
 1953TIP3    H1 5865   5.830   2.778   2.195
 1953TIP3    H2 5866   5.773   2.792   2.334
 1954TIP3   OH2 5867   6.226   5.729   4.216
 1954TIP3    H1 5868   6.181   5.741   4.133
 1954TIP3    H2 5869   6.267   5.643   4.208
 1955TIP3   OH2 5870   3.869   1.174   1.268
 1955TIP3    H1 5871   3.819   1.255   1.256
 1955TIP3    H2 5872   3.903   1.154   1.180
 1956TIP3   OH2 5873   4.853   2.358   4.346
 1956TIP3    H1 5874   4.760   2.358   4.369
 1956TIP3    H2 5875   4.863   2.282   4.288
 1957TIP3   OH2 5876   3.686   4.713   1.550
 1957TIP3    H1 5877   3.606   4.735   1.502
 1957TIP3    H2 5878   3.711   4.794   1.593
 1958TIP3   OH2 5879   5.154   3.363   0.614
 1958TIP3    H1 5880   5.231   3.321   0.652
 1958TIP3    H2 5881   5.096   3.290   0.591
 1959TIP3   OH2 5882   3.516   0.735   0.020
 1959TIP3    H1 5883   3.435   0.787   0.014
 1959TIP3    H2 5884   3.544   0.745   0.111
 1960TIP3   OH2 5885   1.726   3.333   3.755
 1960TIP3    H1 5886   1.707   3.393   3.828
 1960TIP3    H2 5887   1.670   3.257   3.771
 1961TIP3   OH2 5888   0.421   2.676  -0.016
 1961TIP3    H1 5889   0.412   2.771  -0.011
 1961TIP3    H2 5890   0.357   2.642   0.046
 1962TIP3   OH2 5891   3.515   5.132   4.206
 1962TIP3    H1 5892   3.473   5.094   4.129
 1962TIP3    H2 5893   3.609   5.118   4.192
 1963TIP3   OH2 5894   1.339   1.063   1.944
 1963TIP3    H1 5895   1.320   1.123   1.872
 1963TIP3    H2 5896   1.253   1.036   1.976
 1964TIP3   OH2 5897   1.147   5.774   2.124
 1964TIP3    H1 5898   1.093   5.853   2.124
 1964TIP3    H2 5899   1.224   5.797   2.071
 1965TIP3   OH2 5900   4.449   5.322   3.114
 1965TIP3    H1 5901   4.419   5.411   3.134
 1965TIP3    H2 5902   4.498   5.296   3.192
 1966TIP3   OH2 5903   2.907   5.575   5.120
 1966TIP3    H1 5904   2.978   5.640   5.123
 1966TIP3    H2 5905   2.841   5.609   5.181
 1967TIP3   OH2 5906   4.367   3.017   3.850
 1967TIP3    H1 5907   4.451   3.047   3.816
 1967TIP3    H2 5908   4.359   2.927   3.820
 1968TIP3   OH2 5909   2.583   1.691   4.707
 1968TIP3    H1 5910   2.586   1.608   4.661
 1968TIP3    H2 5911   2.646   1.682   4.778
 1969TIP3   OH2 5912   4.598   0.840   1.684
 1969TIP3    H1 5913   4.562   0.875   1.765
 1969TIP3    H2 5914   4.652   0.911   1.649
 1970TIP3   OH2 5915   2.165   0.366   0.446
 1970TIP3    H1 5916   2.128   0.433   0.389
 1970TIP3    H2 5917   2.227   0.318   0.391
 1971TIP3   OH2 5918   3.615   4.815   2.354
 1971TIP3    H1 5919   3.631   4.776   2.269
 1971TIP3    H2 5920   3.576   4.745   2.406
 1972TIP3   OH2 5921   0.106   3.080   4.954
 1972TIP3    H1 5922   0.089   3.173   4.971
 1972TIP3    H2 5923   0.194   3.065   4.987
 1973TIP3   OH2 5924   3.058   0.221   3.233
 1973TIP3    H1 5925   3.127   0.266   3.184
 1973TIP3    H2 5926   2.999   0.291   3.261
 1974TIP3   OH2 5927   2.604   3.498   3.660
 1974TIP3    H1 5928   2.608   3.490   3.565
 1974TIP3    H2 5929   2.564   3.417   3.690
 1975TIP3   OH2 5930   3.052   2.528   0.160
 1975TIP3    H1 5931   3.054   2.473   0.238
 1975TIP3    H2 5932   3.051   2.617   0.193
 1976TIP3   OH2 5933   1.992   2.154   2.464
 1976TIP3    H1 5934   1.919   2.122   2.412
 1976TIP3    H2 5935   1.990   2.249   2.452
 1977TIP3   OH2 5936   0.628   5.338   1.658
 1977TIP3    H1 5937   0.620   5.269   1.592
 1977TIP3    H2 5938   0.663   5.293   1.735
 1978TIP3   OH2 5939   0.379   1.466   4.934
 1978TIP3    H1 5940   0.431   1.425   4.865
 1978TIP3    H2 5941   0.320   1.396   4.963
 1979TIP3   OH2 5942   5.290   3.682   0.756
 1979TIP3    H1 5943   5.195   3.683   0.750
 1979TIP3    H2 5944   5.320   3.661   0.668
 1980TIP3   OH2 5945   0.567   4.631   0.723
 1980TIP3    H1 5946   0.626   4.555   0.719
 1980TIP3    H2 5947   0.507   4.618   0.649
 1981TIP3   OH2 5948   5.862   4.378   5.074
 1981TIP3    H1 5949   5.920   4.411   5.006
 1981TIP3    H2 5950   5.905   4.401   5.156
 1982TIP3   OH2 5951   2.198   2.938   0.402
 1982TIP3    H1 5952   2.215   2.846   0.380
 1982TIP3    H2 5953   2.196   2.941   0.497
 1983TIP3   OH2 5954   1.921   5.098   1.986
 1983TIP3    H1 5955   1.931   5.177   2.038
 1983TIP3    H2 5956   1.970   5.115   1.905
 1984TIP3   OH2 5957   1.294   0.767   4.036
 1984TIP3    H1 5958   1.223   0.778   3.972
 1984TIP3    H2 5959   1.355   0.707   3.994
 1985TIP3   OH2 5960   0.379   1.305   1.692
 1985TIP3    H1 5961   0.363   1.375   1.629
 1985TIP3    H2 5962   0.432   1.346   1.760
 1986TIP3   OH2 5963   2.398   1.525   2.320
 1986TIP3    H1 5964   2.441   1.490   2.398
 1986TIP3    H2 5965   2.427   1.468   2.249
 1987TIP3   OH2 5966   1.369   0.300   2.469
 1987TIP3    H1 5967   1.349   0.305   2.375
 1987TIP3    H2 5968   1.400   0.388   2.491
 1988TIP3   OH2 5969   4.948   4.612   5.064
 1988TIP3    H1 5970   4.986   4.526   5.050
 1988TIP3    H2 5971   4.910   4.608   5.152
 1989TIP3   OH2 5972   4.008   4.736   2.175
 1989TIP3    H1 5973   4.099   4.761   2.189
 1989TIP3    H2 5974   3.989   4.674   2.245
 1990TIP3   OH2 5975   0.887   1.468   2.054
 1990TIP3    H1 5976   0.850   1.380   2.046
 1990TIP3    H2 5977   0.981   1.455   2.061
 1991TIP3   OH2 5978   1.586   4.203   1.087
 1991TIP3    H1 5979   1.598   4.174   1.177
 1991TIP3    H2 5980   1.504   4.161   1.060
 1992TIP3   OH2 5981   3.535   1.635   0.119
 1992TIP3    H1 5982   3.573   1.722   0.134
 1992TIP3    H2 5983   3.466   1.650   0.053
 1993TIP3   OH2 5984   3.064   2.223   1.902
 1993TIP3    H1 5985   3.080   2.249   1.811
 1993TIP3    H2 5986   3.072   2.128   1.902
 1994TIP3   OH2 5987   3.942   0.269   1.976
 1994TIP3    H1 5988   3.877   0.340   1.976
 1994TIP3    H2 5989   3.892   0.191   1.953
 1995TIP3   OH2 5990   3.908   5.112   3.164
 1995TIP3    H1 5991   3.929   5.159   3.245
 1995TIP3    H2 5992   3.984   5.126   3.108
 1996TIP3   OH2 5993   2.178   4.417   1.253
 1996TIP3    H1 5994   2.237   4.432   1.327
 1996TIP3    H2 5995   2.174   4.502   1.208
 1997TIP3   OH2 5996   6.377   3.820   0.789
 1997TIP3    H1 5997   6.355   3.912   0.778
 1997TIP3    H2 5998   6.318   3.788   0.857
 1998TIP3   OH2 5999   4.390   4.608   0.197
 1998TIP3    H1 6000   4.334   4.569   0.263
 1998TIP3    H2 6001   4.428   4.533   0.150
 1999TIP3   OH2 6002   3.084   2.880   2.916
 1999TIP3    H1 6003   3.065   2.908   2.827
 1999TIP3    H2 6004   3.063   2.787   2.917
 2000TIP3   OH2 6005   2.268   2.345   3.107
 2000TIP3    H1 6006   2.341   2.350   3.046
 2000TIP3    H2 6007   2.194   2.384   3.059
 2001TIP3   OH2 6008   0.304   1.046   4.214
 2001TIP3    H1 6009   0.347   0.962   4.199
 2001TIP3    H2 6010   0.321   1.065   4.306
 2002TIP3   OH2 6011   5.641   0.383   1.588
 2002TIP3    H1 6012   5.732   0.377   1.559
 2002TIP3    H2 6013   5.615   0.473   1.568
 2003TIP3   OH2 6014   0.123   1.291   0.979
 2003TIP3    H1 6015   0.131   1.322   0.889
 2003TIP3    H2 6016   0.210   1.302   1.017
 2004TIP3   OH2 6017   2.670   5.622   2.353
 2004TIP3    H1 6018   2.619   5.575   2.418
 2004TIP3    H2 6019   2.699   5.554   2.292
 2005TIP3   OH2 6020   0.495   0.077   3.771
 2005TIP3    H1 6021   0.519   0.104   3.860
 2005TIP3    H2 6022   0.578   0.079   3.723
 2006TIP3   OH2 6023   3.448   1.215   2.650
 2006TIP3    H1 6024   3.462   1.148   2.583
 2006TIP3    H2 6025   3.454   1.298   2.602
 2007TIP3   OH2 6026   1.517   1.042   1.468
 2007TIP3    H1 6027   1.425   1.017   1.461
 2007TIP3    H2 6028   1.527   1.113   1.405
 2008TIP3   OH2 6029   3.328   5.735   0.221
 2008TIP3    H1 6030   3.402   5.733   0.160
 2008TIP3    H2 6031   3.315   5.644   0.248
 2009TIP3   OH2 6032   5.931   5.510   2.498
 2009TIP3    H1 6033   5.892   5.551   2.575
 2009TIP3    H2 6034   5.895   5.421   2.496
 2010TIP3   OH2 6035   2.198   5.613   3.267
 2010TIP3    H1 6036   2.247   5.610   3.185
 2010TIP3    H2 6037   2.171   5.704   3.276
 2011TIP3   OH2 6038   3.640   0.023   3.155
 2011TIP3    H1 6039   3.596   0.107   3.163
 2011TIP3    H2 6040   3.689   0.028   3.073
 2012TIP3   OH2 6041   0.512   1.975   5.060
 2012TIP3    H1 6042   0.530   1.910   4.992
 2012TIP3    H2 6043   0.435   2.022   5.027
 2013TIP3   OH2 6044   2.358   5.979   3.288
 2013TIP3    H1 6045   2.287   5.924   3.322
 2013TIP3    H2 6046   2.429   5.971   3.351
 2014TIP3   OH2 6047  -0.023   4.124   2.941
 2014TIP3    H1 6048   0.021   4.046   2.909
 2014TIP3    H2 6049   0.047   4.177   2.979
 2015TIP3   OH2 6050   3.393   5.659   4.683
 2015TIP3    H1 6051   3.416   5.636   4.593
 2015TIP3    H2 6052   3.298   5.661   4.683
 2016TIP3   OH2 6053   2.841   5.677   0.619
 2016TIP3    H1 6054   2.920   5.639   0.659
 2016TIP3    H2 6055   2.796   5.718   0.693
 2017TIP3   OH2 6056   0.543   4.112   4.551
 2017TIP3    H1 6057   0.605   4.179   4.577
 2017TIP3    H2 6058   0.490   4.096   4.629
 2018TIP3   OH2 6059   4.112   1.241   0.477
 2018TIP3    H1 6060   4.033   1.290   0.457
 2018TIP3    H2 6061   4.171   1.304   0.518
 2019TIP3   OH2 6062   2.007   4.393   2.351
 2019TIP3    H1 6063   2.000   4.486   2.330
 2019TIP3    H2 6064   2.100   4.373   2.338
 2020TIP3   OH2 6065   6.253   2.880   1.675
 2020TIP3    H1 6066   6.206   2.812   1.627
 2020TIP3    H2 6067   6.185   2.930   1.719
 2021TIP3   OH2 6068   2.291   5.091   1.874
 2021TIP3    H1 6069   2.378   5.052   1.871
 2021TIP3    H2 6070   2.306   5.181   1.904
 2022TIP3   OH2 6071   5.669   0.924   3.668
 2022TIP3    H1 6072   5.610   0.893   3.600
 2022TIP3    H2 6073   5.677   1.018   3.652
 2023TIP3   OH2 6074   2.420   1.050   0.659
 2023TIP3    H1 6075   2.442   0.958   0.673
 2023TIP3    H2 6076   2.382   1.052   0.571
 2024TIP3   OH2 6077   0.965   0.543   2.424
 2024TIP3    H1 6078   0.966   0.453   2.394
 2024TIP3    H2 6079   1.057   0.570   2.423
 2025TIP3   OH2 6080   3.836   3.370   4.926
 2025TIP3    H1 6081   3.903   3.344   4.863
 2025TIP3    H2 6082   3.787   3.290   4.944
 2026TIP3   OH2 6083   5.756   5.380   1.383
 2026TIP3    H1 6084   5.835   5.330   1.404
 2026TIP3    H2 6085   5.775   5.469   1.414
 2027TIP3   OH2 6086   1.355   2.483   2.123
 2027TIP3    H1 6087   1.368   2.577   2.109
 2027TIP3    H2 6088   1.277   2.478   2.178
 2028TIP3   OH2 6089   0.381   2.405   1.377
 2028TIP3    H1 6090   0.345   2.494   1.379
 2028TIP3    H2 6091   0.304   2.348   1.379
 2029TIP3   OH2 6092   6.206   3.375   2.434
 2029TIP3    H1 6093   6.171   3.320   2.504
 2029TIP3    H2 6094   6.217   3.315   2.360
 2030TIP3   OH2 6095   3.015   0.098   0.479
 2030TIP3    H1 6096   3.070   0.158   0.430
 2030TIP3    H2 6097   2.983   0.036   0.414
 2031TIP3   OH2 6098   1.596   4.018   2.648
 2031TIP3    H1 6099   1.636   4.102   2.668
 2031TIP3    H2 6100   1.518   4.014   2.704
 2032TIP3   OH2 6101   1.197   0.598   3.581
 2032TIP3    H1 6102   1.244   0.646   3.513
 2032TIP3    H2 6103   1.124   0.557   3.536
 2033TIP3   OH2 6104   1.482   5.866   4.485
 2033TIP3    H1 6105   1.390   5.866   4.510
 2033TIP3    H2 6106   1.482   5.838   4.394
 2034TIP3   OH2 6107   2.734   1.070   4.203
 2034TIP3    H1 6108   2.644   1.101   4.196
 2034TIP3    H2 6109   2.787   1.150   4.201
 2035TIP3   OH2 6110   1.506   1.247   3.167
 2035TIP3    H1 6111   1.488   1.335   3.199
 2035TIP3    H2 6112   1.599   1.233   3.186
 2036TIP3   OH2 6113   6.269   2.435   1.729
 2036TIP3    H1 6114   6.337   2.441   1.796
 2036TIP3    H2 6115   6.187   2.449   1.776
 2037TIP3   OH2 6116   3.914   3.771   4.249
 2037TIP3    H1 6117   3.825   3.775   4.285
 2037TIP3    H2 6118   3.957   3.849   4.284
 2038TIP3   OH2 6119   0.488   2.510   3.208
 2038TIP3    H1 6120   0.464   2.529   3.298
 2038TIP3    H2 6121   0.486   2.414   3.203
 2039TIP3   OH2 6122   3.482   3.023   2.853
 2039TIP3    H1 6123   3.412   3.046   2.915
 2039TIP3    H2 6124   3.466   3.080   2.778
 2040TIP3   OH2 6125   5.359   0.547   4.894
 2040TIP3    H1 6126   5.448   0.580   4.901
 2040TIP3    H2 6127   5.342   0.505   4.978
 2041TIP3   OH2 6128   0.036   0.974   3.537
 2041TIP3    H1 6129   0.041   1.028   3.458
 2041TIP3    H2 6130  -0.053   0.938   3.536
 2042TIP3   OH2 6131   1.494   5.670   4.856
 2042TIP3    H1 6132   1.401   5.646   4.856
 2042TIP3    H2 6133   1.532   5.619   4.785
 2043TIP3   OH2 6134   0.566   1.533   3.602
 2043TIP3    H1 6135   0.543   1.472   3.533
 2043TIP3    H2 6136   0.516   1.612   3.583
 2044TIP3   OH2 6137   2.882   0.626   3.019
 2044TIP3    H1 6138   2.838   0.548   2.987
 2044TIP3    H2 6139   2.823   0.662   3.085
 2045TIP3   OH2 6140   4.685   0.344   1.305
 2045TIP3    H1 6141   4.617   0.378   1.246
 2045TIP3    H2 6142   4.684   0.404   1.380
 2046TIP3   OH2 6143   2.512   3.075   3.194
 2046TIP3    H1 6144   2.558   2.992   3.179
 2046TIP3    H2 6145   2.545   3.133   3.125
 2047TIP3   OH2 6146   4.252   3.536   2.571
 2047TIP3    H1 6147   4.304   3.609   2.540
 2047TIP3    H2 6148   4.316   3.470   2.598
 2048TIP3   OH2 6149   5.667   3.792   2.236
 2048TIP3    H1 6150   5.677   3.820   2.327
 2048TIP3    H2 6151   5.730   3.845   2.187
 2049TIP3   OH2 6152   2.519   1.396   4.865
 2049TIP3    H1 6153   2.425   1.407   4.853
 2049TIP3    H2 6154   2.540   1.448   4.943
 2050TIP3   OH2 6155   1.812   2.163   2.792
 2050TIP3    H1 6156   1.889   2.106   2.803
 2050TIP3    H2 6157   1.745   2.123   2.846
 2051TIP3   OH2 6158   2.429   1.688   4.439
 2051TIP3    H1 6159   2.456   1.698   4.530
 2051TIP3    H2 6160   2.505   1.719   4.388
 2052TIP3   OH2 6161   0.307   3.650   4.151
 2052TIP3    H1 6162   0.278   3.718   4.212
 2052TIP3    H2 6163   0.263   3.570   4.181
 2053TIP3   OH2 6164   3.326   4.790   4.874
 2053TIP3    H1 6165   3.409   4.821   4.910
 2053TIP3    H2 6166   3.339   4.789   4.780
 2054TIP3   OH2 6167   0.385   2.642   0.421
 2054TIP3    H1 6168   0.419   2.570   0.368
 2054TIP3    H2 6169   0.402   2.721   0.370
 2055TIP3   OH2 6170   1.898   4.767   4.625
 2055TIP3    H1 6171   1.863   4.828   4.560
 2055TIP3    H2 6172   1.845   4.688   4.614
 2056TIP3   OH2 6173   0.301   1.788   2.928
 2056TIP3    H1 6174   0.224   1.742   2.961
 2056TIP3    H2 6175   0.368   1.720   2.919
 2057TIP3   OH2 6176   2.951   4.906   3.751
 2057TIP3    H1 6177   2.960   4.811   3.759
 2057TIP3    H2 6178   2.879   4.929   3.809
 2058TIP3   OH2 6179   5.731   2.465   2.187
 2058TIP3    H1 6180   5.812   2.484   2.235
 2058TIP3    H2 6181   5.690   2.394   2.237
 2059TIP3   OH2 6182   1.206   3.429   4.142
 2059TIP3    H1 6183   1.227   3.337   4.159
 2059TIP3    H2 6184   1.154   3.426   4.061
 2060TIP3   OH2 6185   2.129   1.664   0.293
 2060TIP3    H1 6186   2.212   1.616   0.289
 2060TIP3    H2 6187   2.120   1.687   0.386
 2061TIP3   OH2 6188   0.943   2.962   2.878
 2061TIP3    H1 6189   0.990   2.954   2.795
 2061TIP3    H2 6190   0.866   2.906   2.866
 2062TIP3   OH2 6191   5.585   1.919   3.113
 2062TIP3    H1 6192   5.588   2.002   3.065
 2062TIP3    H2 6193   5.589   1.944   3.205
 2063TIP3   OH2 6194   0.790   4.779   2.948
 2063TIP3    H1 6195   0.870   4.795   3.000
 2063TIP3    H2 6196   0.756   4.867   2.930
 2064TIP3   OH2 6197   1.797   0.864   3.197
 2064TIP3    H1 6198   1.886   0.830   3.205
 2064TIP3    H2 6199   1.806   0.942   3.141
 2065TIP3   OH2 6200   3.159   4.144   3.962
 2065TIP3    H1 6201   3.133   4.213   4.023
 2065TIP3    H2 6202   3.231   4.098   4.006
 2066TIP3   OH2 6203   6.287   1.656   4.936
 2066TIP3    H1 6204   6.380   1.675   4.951
 2066TIP3    H2 6205   6.284   1.561   4.924
 2067TIP3   OH2 6206   1.210   0.139   3.848
 2067TIP3    H1 6207   1.252   0.225   3.854
 2067TIP3    H2 6208   1.280   0.077   3.866
 2068TIP3   OH2 6209   5.868   3.836   0.080
 2068TIP3    H1 6210   5.818   3.754   0.079
 2068TIP3    H2 6211   5.945   3.819   0.026
 2069TIP3   OH2 6212   2.850   0.113   3.052
 2069TIP3    H1 6213   2.809   0.072   3.128
 2069TIP3    H2 6214   2.935   0.142   3.082
 2070TIP3   OH2 6215   5.466   3.557   0.283
 2070TIP3    H1 6216   5.486   3.614   0.208
 2070TIP3    H2 6217   5.549   3.516   0.305
 2071TIP3   OH2 6218   5.202   2.341   4.289
 2071TIP3    H1 6219   5.190   2.265   4.347
 2071TIP3    H2 6220   5.122   2.393   4.301
 2072TIP3   OH2 6221   5.823   4.881   0.769
 2072TIP3    H1 6222   5.908   4.924   0.772
 2072TIP3    H2 6223   5.790   4.886   0.859
 2073TIP3   OH2 6224   5.225   2.935   1.782
 2073TIP3    H1 6225   5.211   3.026   1.808
 2073TIP3    H2 6226   5.192   2.930   1.692
 2074TIP3   OH2 6227   2.356   2.153   0.851
 2074TIP3    H1 6228   2.387   2.173   0.939
 2074TIP3    H2 6229   2.286   2.215   0.834
 2075TIP3   OH2 6230   2.427   4.527   0.094
 2075TIP3    H1 6231   2.515   4.515   0.132
 2075TIP3    H2 6232   2.419   4.455   0.031
 2076TIP3   OH2 6233   1.421   5.371   1.017
 2076TIP3    H1 6234   1.409   5.465   1.003
 2076TIP3    H2 6235   1.355   5.330   0.962
 2077TIP3   OH2 6236   3.830   4.698   0.560
 2077TIP3    H1 6237   3.776   4.667   0.633
 2077TIP3    H2 6238   3.867   4.780   0.591
 2078TIP3   OH2 6239   4.458   4.995   1.289
 2078TIP3    H1 6240   4.487   4.904   1.275
 2078TIP3    H2 6241   4.382   5.004   1.233
 2079TIP3   OH2 6242   2.944   5.064   1.709
 2079TIP3    H1 6243   2.947   5.000   1.639
 2079TIP3    H2 6244   2.999   5.028   1.778
 2080TIP3   OH2 6245   4.918   2.891   2.815
 2080TIP3    H1 6246   4.881   2.846   2.739
 2080TIP3    H2 6247   5.007   2.856   2.823
 2081TIP3   OH2 6248   6.320   3.622   2.934
 2081TIP3    H1 6249   6.401   3.576   2.955
 2081TIP3    H2 6250   6.265   3.555   2.893
 2082TIP3   OH2 6251   5.885   4.270   4.710
 2082TIP3    H1 6252   5.870   4.285   4.617
 2082TIP3    H2 6253   5.979   4.256   4.718
 2083TIP3   OH2 6254   5.917   3.577   2.001
 2083TIP3    H1 6255   5.837   3.528   2.021
 2083TIP3    H2 6256   5.927   3.638   2.074
 2084TIP3   OH2 6257   6.080   1.413   0.765
 2084TIP3    H1 6258   6.048   1.427   0.676
 2084TIP3    H2 6259   6.028   1.473   0.819
 2085TIP3   OH2 6260   4.936   5.449   2.210
 2085TIP3    H1 6261   4.856   5.399   2.193
 2085TIP3    H2 6262   5.001   5.410   2.151
 2086TIP3   OH2 6263   3.669   2.673   1.655
 2086TIP3    H1 6264   3.693   2.722   1.733
 2086TIP3    H2 6265   3.742   2.612   1.641
 2087TIP3   OH2 6266   2.943   4.038   4.356
 2087TIP3    H1 6267   3.026   4.074   4.326
 2087TIP3    H2 6268   2.944   3.947   4.327
 2088TIP3   OH2 6269   0.653   5.715   1.829
 2088TIP3    H1 6270   0.666   5.640   1.887
 2088TIP3    H2 6271   0.737   5.760   1.828
 2089TIP3   OH2 6272   5.340   2.219   0.819
 2089TIP3    H1 6273   5.370   2.197   0.907
 2089TIP3    H2 6274   5.271   2.284   0.832
 2090TIP3   OH2 6275   1.558   3.825   3.454
 2090TIP3    H1 6276   1.602   3.903   3.420
 2090TIP3    H2 6277   1.593   3.815   3.543
 2091TIP3   OH2 6278   3.485   5.666   1.960
 2091TIP3    H1 6279   3.472   5.742   2.016
 2091TIP3    H2 6280   3.397   5.633   1.943
 2092TIP3   OH2 6281   5.368   4.331   3.621
 2092TIP3    H1 6282   5.319   4.395   3.569
 2092TIP3    H2 6283   5.436   4.299   3.562
 2093TIP3   OH2 6284   4.638   4.769   5.100
 2093TIP3    H1 6285   4.573   4.807   5.041
 2093TIP3    H2 6286   4.598   4.777   5.187
 2094TIP3   OH2 6287   1.869   0.314   2.478
 2094TIP3    H1 6288   1.830   0.237   2.521
 2094TIP3    H2 6289   1.958   0.317   2.513
 2095TIP3   OH2 6290   4.084   4.380   4.538
 2095TIP3    H1 6291   4.083   4.352   4.629
 2095TIP3    H2 6292   4.001   4.426   4.526
 2096TIP3   OH2 6293   6.131   5.412   4.079
 2096TIP3    H1 6294   6.224   5.405   4.059
 2096TIP3    H2 6295   6.087   5.400   3.995
 2097TIP3   OH2 6296   2.341   0.671   1.661
 2097TIP3    H1 6297   2.270   0.620   1.700
 2097TIP3    H2 6298   2.416   0.657   1.719
 2098TIP3   OH2 6299   5.342   1.696   2.484
 2098TIP3    H1 6300   5.341   1.603   2.461
 2098TIP3    H2 6301   5.380   1.738   2.407
 2099TIP3   OH2 6302   1.663   0.521   0.412
 2099TIP3    H1 6303   1.634   0.430   0.398
 2099TIP3    H2 6304   1.740   0.513   0.469
 2100TIP3   OH2 6305   2.026   0.166   4.973
 2100TIP3    H1 6306   2.111   0.134   5.001
 2100TIP3    H2 6307   2.038   0.187   4.880
 2101TIP3   OH2 6308   1.862   1.755   2.434
 2101TIP3    H1 6309   1.811   1.762   2.514
 2101TIP3    H2 6310   1.953   1.745   2.464
 2102TIP3   OH2 6311   0.101   5.999   2.697
 2102TIP3    H1 6312   0.180   5.968   2.653
 2102TIP3    H2 6313   0.032   5.939   2.667
 2103TIP3   OH2 6314   2.834   2.768   4.074
 2103TIP3    H1 6315   2.773   2.695   4.069
 2103TIP3    H2 6316   2.797   2.835   4.017
 2104TIP3   OH2 6317   2.497   4.990   0.252
 2104TIP3    H1 6318   2.420   4.940   0.282
 2104TIP3    H2 6319   2.461   5.058   0.195
 2105TIP3   OH2 6320   3.169   1.943   3.394
 2105TIP3    H1 6321   3.096   2.000   3.418
 2105TIP3    H2 6322   3.170   1.875   3.461
 2106TIP3   OH2 6323   0.703   3.728   4.802
 2106TIP3    H1 6324   0.766   3.685   4.745
 2106TIP3    H2 6325   0.757   3.770   4.869
 2107TIP3   OH2 6326   4.068   2.193   4.756
 2107TIP3    H1 6327   3.997   2.167   4.814
 2107TIP3    H2 6328   4.024   2.231   4.680
 2108TIP3   OH2 6329   0.977   5.775   4.241
 2108TIP3    H1 6330   0.953   5.858   4.282
 2108TIP3    H2 6331   1.014   5.800   4.156
 2109TIP3   OH2 6332   0.452   1.130   1.326
 2109TIP3    H1 6333   0.493   1.209   1.363
 2109TIP3    H2 6334   0.377   1.113   1.383
 2110TIP3   OH2 6335   0.383   3.811   2.224
 2110TIP3    H1 6336   0.452   3.876   2.211
 2110TIP3    H2 6337   0.421   3.748   2.286
 2111TIP3   OH2 6338   0.595   5.012   4.496
 2111TIP3    H1 6339   0.531   4.988   4.430
 2111TIP3    H2 6340   0.676   5.029   4.447
 2112TIP3   OH2 6341   2.207   4.655   4.085
 2112TIP3    H1 6342   2.186   4.694   4.000
 2112TIP3    H2 6343   2.146   4.697   4.146
 2113TIP3   OH2 6344   2.851   2.481   3.996
 2113TIP3    H1 6345   2.774   2.503   3.944
 2113TIP3    H2 6346   2.924   2.523   3.951
 2114TIP3   OH2 6347   1.590   0.797   0.099
 2114TIP3    H1 6348   1.652   0.804   0.172
 2114TIP3    H2 6349   1.504   0.811   0.140
 2115TIP3   OH2 6350   1.322   0.116   3.201
 2115TIP3    H1 6351   1.311   0.077   3.115
 2115TIP3    H2 6352   1.388   0.062   3.244
 2116TIP3   OH2 6353   4.511   0.349   1.922
 2116TIP3    H1 6354   4.504   0.339   1.827
 2116TIP3    H2 6355   4.589   0.402   1.936
 2117TIP3   OH2 6356   5.439   4.662   4.236
 2117TIP3    H1 6357   5.381   4.650   4.160
 2117TIP3    H2 6358   5.390   4.718   4.295
 2118TIP3   OH2 6359   5.065   0.702   1.803
 2118TIP3    H1 6360   5.127   0.724   1.733
 2118TIP3    H2 6361   5.102   0.623   1.843
 2119TIP3   OH2 6362   5.704   5.547   2.679
 2119TIP3    H1 6363   5.645   5.487   2.725
 2119TIP3    H2 6364   5.783   5.548   2.733
 2120TIP3   OH2 6365   5.100   3.317   1.283
 2120TIP3    H1 6366   5.024   3.299   1.339
 2120TIP3    H2 6367   5.169   3.262   1.317
 2121TIP3   OH2 6368   0.847   4.579   1.992
 2121TIP3    H1 6369   0.914   4.638   2.026
 2121TIP3    H2 6370   0.802   4.629   1.924
 2122TIP3   OH2 6371   3.019   5.064   0.751
 2122TIP3    H1 6372   2.943   5.077   0.695
 2122TIP3    H2 6373   3.023   4.969   0.765
 2123TIP3   OH2 6374   3.296   1.105   0.368
 2123TIP3    H1 6375   3.369   1.088   0.428
 2123TIP3    H2 6376   3.299   1.199   0.352
 2124TIP3   OH2 6377   5.660   3.702   4.231
 2124TIP3    H1 6378   5.590   3.755   4.269
 2124TIP3    H2 6379   5.686   3.642   4.301
 2125TIP3   OH2 6380   3.507   3.112   0.544
 2125TIP3    H1 6381   3.591   3.084   0.506
 2125TIP3    H2 6382   3.466   3.164   0.474
 2126TIP3   OH2 6383   3.808   3.645   3.796
 2126TIP3    H1 6384   3.791   3.557   3.830
 2126TIP3    H2 6385   3.903   3.653   3.795
 2127TIP3   OH2 6386   2.600   2.322   2.435
 2127TIP3    H1 6387   2.525   2.323   2.374
 2127TIP3    H2 6388   2.674   2.294   2.381
 2128TIP3   OH2 6389   4.520   1.433   2.801
 2128TIP3    H1 6390   4.436   1.413   2.761
 2128TIP3    H2 6391   4.555   1.348   2.828
 2129TIP3   OH2 6392   0.704   4.846   0.842
 2129TIP3    H1 6393   0.683   4.923   0.789
 2129TIP3    H2 6394   0.647   4.777   0.808
 2130TIP3   OH2 6395   4.663   2.908   2.094
 2130TIP3    H1 6396   4.654   2.993   2.051
 2130TIP3    H2 6397   4.752   2.907   2.129
 2131TIP3   OH2 6398   0.922   4.709   0.151
 2131TIP3    H1 6399   0.962   4.622   0.158
 2131TIP3    H2 6400   0.985   4.759   0.098
 2132TIP3   OH2 6401   4.038   4.395   4.100
 2132TIP3    H1 6402   4.090   4.405   4.180
 2132TIP3    H2 6403   4.094   4.345   4.041
 2133TIP3   OH2 6404   3.631   4.790   3.393
 2133TIP3    H1 6405   3.564   4.791   3.462
 2133TIP3    H2 6406   3.626   4.878   3.354
 2134TIP3   OH2 6407   0.334   4.209   2.373
 2134TIP3    H1 6408   0.278   4.172   2.441
 2134TIP3    H2 6409   0.298   4.175   2.291
 2135TIP3   OH2 6410   3.568   5.943   0.303
 2135TIP3    H1 6411   3.566   5.919   0.395
 2135TIP3    H2 6412   3.572   5.859   0.257
 2136TIP3   OH2 6413   1.556   0.628   1.139
 2136TIP3    H1 6414   1.649   0.610   1.146
 2136TIP3    H2 6415   1.546   0.719   1.169
 2137TIP3   OH2 6416   2.021   4.203   5.124
 2137TIP3    H1 6417   2.040   4.149   5.048
 2137TIP3    H2 6418   1.985   4.143   5.189
 2138TIP3   OH2 6419   0.957   1.047   3.340
 2138TIP3    H1 6420   1.044   1.056   3.378
 2138TIP3    H2 6421   0.965   1.087   3.253
 2139TIP3   OH2 6422   2.670   2.803   3.050
 2139TIP3    H1 6423   2.594   2.753   3.082
 2139TIP3    H2 6424   2.741   2.780   3.111
 2140TIP3   OH2 6425   0.371   2.325   0.526
 2140TIP3    H1 6426   0.430   2.328   0.602
 2140TIP3    H2 6427   0.353   2.231   0.514
 2141TIP3   OH2 6428   0.338   0.832   3.821
 2141TIP3    H1 6429   0.259   0.886   3.811
 2141TIP3    H2 6430   0.410   0.892   3.803
 2142TIP3   OH2 6431   1.545   5.707   1.813
 2142TIP3    H1 6432   1.505   5.651   1.747
 2142TIP3    H2 6433   1.474   5.728   1.873
 2143TIP3   OH2 6434   0.225   0.591   3.241
 2143TIP3    H1 6435   0.207   0.647   3.316
 2143TIP3    H2 6436   0.300   0.538   3.269
 2144TIP3   OH2 6437   2.344   0.049   1.886
 2144TIP3    H1 6438   2.370   0.096   1.807
 2144TIP3    H2 6439   2.420  -0.005   1.908
 2145TIP3   OH2 6440   2.795   4.289   1.081
 2145TIP3    H1 6441   2.769   4.296   0.989
 2145TIP3    H2 6442   2.891   4.285   1.079
 2146TIP3   OH2 6443   5.218   5.022   1.162
 2146TIP3    H1 6444   5.298   5.017   1.109
 2146TIP3    H2 6445   5.228   5.103   1.212
 2147TIP3   OH2 6446   3.927   5.457   1.818
 2147TIP3    H1 6447   3.933   5.363   1.836
 2147TIP3    H2 6448   3.835   5.478   1.831
 2148TIP3   OH2 6449   4.704   1.713   4.797
 2148TIP3    H1 6450   4.650   1.784   4.762
 2148TIP3    H2 6451   4.756   1.754   4.867
 2149TIP3   OH2 6452   6.004   2.391   1.550
 2149TIP3    H1 6453   5.916   2.380   1.513
 2149TIP3    H2 6454   6.030   2.480   1.525
 2150TIP3   OH2 6455   4.028   3.830   1.465
 2150TIP3    H1 6456   4.030   3.750   1.412
 2150TIP3    H2 6457   4.110   3.875   1.445
 2151TIP3   OH2 6458   2.749   0.581   4.885
 2151TIP3    H1 6459   2.820   0.626   4.931
 2151TIP3    H2 6460   2.761   0.489   4.906
 2152TIP3   OH2 6461   3.457   0.653   2.045
 2152TIP3    H1 6462   3.535   0.694   2.008
 2152TIP3    H2 6463   3.475   0.647   2.139
 2153TIP3   OH2 6464   1.547   2.508   0.927
 2153TIP3    H1 6465   1.617   2.494   0.864
 2153TIP3    H2 6466   1.469   2.474   0.883
 2154TIP3   OH2 6467   5.722   3.485   1.149
 2154TIP3    H1 6468   5.756   3.572   1.171
 2154TIP3    H2 6469   5.779   3.424   1.197
 2155TIP3   OH2 6470   1.389   0.347   0.509
 2155TIP3    H1 6471   1.468   0.328   0.458
 2155TIP3    H2 6472   1.332   0.272   0.495
 2156TIP3   OH2 6473   4.804   2.879   1.558
 2156TIP3    H1 6474   4.864   2.888   1.484
 2156TIP3    H2 6475   4.815   2.788   1.588
 2157TIP3   OH2 6476   6.021   2.282   3.908
 2157TIP3    H1 6477   6.096   2.262   3.965
 2157TIP3    H2 6478   6.059   2.331   3.835
 2158TIP3   OH2 6479   2.317   1.657   1.816
 2158TIP3    H1 6480   2.387   1.597   1.841
 2158TIP3    H2 6481   2.246   1.640   1.878
 2159TIP3   OH2 6482   6.246   4.329   4.971
 2159TIP3    H1 6483   6.292   4.262   4.921
 2159TIP3    H2 6484   6.315   4.380   5.013
 2160TIP3   OH2 6485   3.248   1.556   2.519
 2160TIP3    H1 6486   3.160   1.527   2.542
 2160TIP3    H2 6487   3.305   1.489   2.557
 2161TIP3   OH2 6488   4.533   4.909   1.613
 2161TIP3    H1 6489   4.482   4.896   1.533
 2161TIP3    H2 6490   4.470   4.895   1.683
 2162TIP3   OH2 6491   5.966   3.245   1.954
 2162TIP3    H1 6492   6.006   3.221   2.038
 2162TIP3    H2 6493   5.888   3.295   1.978
 2163TIP3   OH2 6494   3.160   1.308   4.517
 2163TIP3    H1 6495   3.256   1.309   4.520
 2163TIP3    H2 6496   3.135   1.229   4.565
 2164TIP3   OH2 6497   6.112   4.342   2.456
 2164TIP3    H1 6498   6.184   4.281   2.473
 2164TIP3    H2 6499   6.058   4.338   2.534
 2165TIP3   OH2 6500   3.029   0.977   3.210
 2165TIP3    H1 6501   3.006   0.912   3.275
 2165TIP3    H2 6502   3.097   1.030   3.251
 2166TIP3   OH2 6503   3.260   0.332   3.084
 2166TIP3    H1 6504   3.353   0.314   3.100
 2166TIP3    H2 6505   3.231   0.261   3.026
 2167TIP3   OH2 6506   2.349   0.096   4.905
 2167TIP3    H1 6507   2.355   0.180   4.952
 2167TIP3    H2 6508   2.361   0.030   4.973
 2168TIP3   OH2 6509   1.239   3.857   2.462
 2168TIP3    H1 6510   1.230   3.905   2.545
 2168TIP3    H2 6511   1.239   3.765   2.488
 2169TIP3   OH2 6512   4.200   3.332   2.284
 2169TIP3    H1 6513   4.269   3.307   2.346
 2169TIP3    H2 6514   4.238   3.403   2.233
 2170TIP3   OH2 6515   5.208   4.991   3.047
 2170TIP3    H1 6516   5.130   5.021   2.999
 2170TIP3    H2 6517   5.172   4.943   3.122
 2171TIP3   OH2 6518   4.354   2.429   4.288
 2171TIP3    H1 6519   4.258   2.429   4.284
 2171TIP3    H2 6520   4.380   2.498   4.226
 2172TIP3   OH2 6521   2.001   3.115   1.418
 2172TIP3    H1 6522   1.942   3.107   1.493
 2172TIP3    H2 6523   1.943   3.119   1.342
 2173TIP3   OH2 6524   1.199   5.796   4.486
 2173TIP3    H1 6525   1.222   5.750   4.405
 2173TIP3    H2 6526   1.165   5.728   4.543
 2174TIP3   OH2 6527   1.966   5.509   4.165
 2174TIP3    H1 6528   1.990   5.454   4.239
 2174TIP3    H2 6529   1.980   5.453   4.088
 2175TIP3   OH2 6530   4.715   2.389   1.174
 2175TIP3    H1 6531   4.717   2.467   1.119
 2175TIP3    H2 6532   4.752   2.320   1.118
 2176TIP3   OH2 6533   1.637   4.658   4.307
 2176TIP3    H1 6534   1.608   4.578   4.263
 2176TIP3    H2 6535   1.644   4.634   4.399
 2177TIP3   OH2 6536   0.350   4.544   0.597
 2177TIP3    H1 6537   0.300   4.480   0.648
 2177TIP3    H2 6538   0.307   4.545   0.511
 2178TIP3   OH2 6539   2.446   2.754   1.939
 2178TIP3    H1 6540   2.439   2.737   2.033
 2178TIP3    H2 6541   2.475   2.670   1.902
 2179TIP3   OH2 6542   5.995   4.876   4.036
 2179TIP3    H1 6543   6.009   4.923   4.118
 2179TIP3    H2 6544   5.941   4.801   4.061
 2180TIP3   OH2 6545   3.493   2.743   4.349
 2180TIP3    H1 6546   3.567   2.721   4.405
 2180TIP3    H2 6547   3.532   2.784   4.272
 2181TIP3   OH2 6548   2.084   5.032   1.732
 2181TIP3    H1 6549   2.169   5.053   1.770
 2181TIP3    H2 6550   2.085   5.072   1.645
 2182TIP3   OH2 6551   1.382   0.369   2.187
 2182TIP3    H1 6552   1.404   0.356   2.095
 2182TIP3    H2 6553   1.450   0.428   2.220
 2183TIP3   OH2 6554   5.595   5.120   4.958
 2183TIP3    H1 6555   5.612   5.084   5.045
 2183TIP3    H2 6556   5.533   5.191   4.973
 2184TIP3   OH2 6557   3.461   2.614   3.451
 2184TIP3    H1 6558   3.528   2.664   3.403
 2184TIP3    H2 6559   3.401   2.583   3.382
 2185TIP3   OH2 6560   4.713   2.395   3.099
 2185TIP3    H1 6561   4.737   2.306   3.124
 2185TIP3    H2 6562   4.760   2.451   3.161
 2186TIP3   OH2 6563   0.445   1.657   4.147
 2186TIP3    H1 6564   0.451   1.569   4.184
 2186TIP3    H2 6565   0.516   1.706   4.189
 2187TIP3   OH2 6566   3.406   4.068   4.523
 2187TIP3    H1 6567   3.477   4.115   4.479
 2187TIP3    H2 6568   3.412   3.978   4.490
 2188TIP3   OH2 6569   5.824   2.653   3.340
 2188TIP3    H1 6570   5.798   2.684   3.426
 2188TIP3    H2 6571   5.882   2.579   3.357
 2189TIP3   OH2 6572   3.551   1.710   4.725
 2189TIP3    H1 6573   3.619   1.662   4.773
 2189TIP3    H2 6574   3.469   1.679   4.762
 2190TIP3   OH2 6575   2.312   2.633   2.450
 2190TIP3    H1 6576   2.349   2.647   2.363
 2190TIP3    H2 6577   2.374   2.576   2.493
 2191TIP3   OH2 6578   0.354   1.864   0.553
 2191TIP3    H1 6579   0.366   1.881   0.646
 2191TIP3    H2 6580   0.407   1.786   0.536
 2192TIP3   OH2 6581   1.731   0.788   0.338
 2192TIP3    H1 6582   1.722   0.855   0.405
 2192TIP3    H2 6583   1.701   0.708   0.379
 2193TIP3   OH2 6584   4.992   0.895   4.680
 2193TIP3    H1 6585   4.902   0.871   4.702
 2193TIP3    H2 6586   4.984   0.949   4.601
 2194TIP3   OH2 6587   3.767   0.529   0.883
 2194TIP3    H1 6588   3.780   0.434   0.892
 2194TIP3    H2 6589   3.830   0.568   0.943
 2195TIP3   OH2 6590   6.296   4.041   0.637
 2195TIP3    H1 6591   6.306   4.134   0.619
 2195TIP3    H2 6592   6.279   4.002   0.551
 2196TIP3   OH2 6593   2.723   2.816   3.626
 2196TIP3    H1 6594   2.816   2.824   3.604
 2196TIP3    H2 6595   2.719   2.832   3.720
 2197TIP3   OH2 6596   1.311   1.863   3.838
 2197TIP3    H1 6597   1.312   1.781   3.887
 2197TIP3    H2 6598   1.341   1.929   3.901
 2198TIP3   OH2 6599   0.803   2.603   3.244
 2198TIP3    H1 6600   0.825   2.539   3.176
 2198TIP3    H2 6601   0.738   2.559   3.299
 2199TIP3   OH2 6602   5.063   4.273   3.593
 2199TIP3    H1 6603   5.018   4.350   3.559
 2199TIP3    H2 6604   5.045   4.273   3.687
 2200TIP3   OH2 6605   3.603   4.607   0.056
 2200TIP3    H1 6606   3.508   4.612   0.073
 2200TIP3    H2 6607   3.625   4.516   0.074
 2201TIP3   OH2 6608   0.564   3.093   4.031
 2201TIP3    H1 6609   0.612   3.170   4.063
 2201TIP3    H2 6610   0.581   3.026   4.098
 2202TIP3   OH2 6611   5.554   1.920   0.024
 2202TIP3    H1 6612   5.493   1.898   0.094
 2202TIP3    H2 6613   5.546   1.848  -0.039
 2203TIP3   OH2 6614   5.648   5.471   0.957
 2203TIP3    H1 6615   5.732   5.429   0.974
 2203TIP3    H2 6616   5.606   5.478   1.043
 2204TIP3   OH2 6617   5.751   4.077   4.866
 2204TIP3    H1 6618   5.804   4.078   4.946
 2204TIP3    H2 6619   5.799   4.132   4.805
 2205TIP3   OH2 6620   0.853   2.466   0.909
 2205TIP3    H1 6621   0.803   2.454   0.829
 2205TIP3    H2 6622   0.811   2.540   0.953
 2206TIP3   OH2 6623   4.092   1.180   4.416
 2206TIP3    H1 6624   4.178   1.215   4.438
 2206TIP3    H2 6625   4.085   1.099   4.467
 2207TIP3   OH2 6626   3.062   1.692   2.328
 2207TIP3    H1 6627   3.062   1.597   2.334
 2207TIP3    H2 6628   3.022   1.711   2.243
 2208TIP3   OH2 6629   2.221   2.353   0.310
 2208TIP3    H1 6630   2.228   2.379   0.402
 2208TIP3    H2 6631   2.293   2.291   0.298
 2209TIP3   OH2 6632   2.344   4.039   4.840
 2209TIP3    H1 6633   2.413   4.083   4.889
 2209TIP3    H2 6634   2.286   4.003   4.907
 2210TIP3   OH2 6635   5.745   4.495   0.210
 2210TIP3    H1 6636   5.822   4.441   0.227
 2210TIP3    H2 6637   5.693   4.444   0.148
 2211TIP3   OH2 6638   1.007   3.756   4.459
 2211TIP3    H1 6639   1.075   3.705   4.503
 2211TIP3    H2 6640   1.032   3.756   4.366
 2212TIP3   OH2 6641   3.006   4.588   2.707
 2212TIP3    H1 6642   2.944   4.567   2.777
 2212TIP3    H2 6643   3.092   4.580   2.747
 2213TIP3   OH2 6644   2.503   5.258   1.144
 2213TIP3    H1 6645   2.589   5.224   1.119
 2213TIP3    H2 6646   2.511   5.278   1.237
 2214TIP3   OH2 6647   6.042   1.106   2.386
 2214TIP3    H1 6648   6.040   1.193   2.347
 2214TIP3    H2 6649   6.079   1.121   2.473
 2215TIP3   OH2 6650   5.904   2.388   0.161
 2215TIP3    H1 6651   5.925   2.451   0.093
 2215TIP3    H2 6652   5.814   2.361   0.143
 2216TIP3   OH2 6653   1.258   0.462   5.047
 2216TIP3    H1 6654   1.299   0.466   5.133
 2216TIP3    H2 6655   1.211   0.545   5.038
 2217TIP3   OH2 6656   0.404   1.067   1.832
 2217TIP3    H1 6657   0.391   1.143   1.776
 2217TIP3    H2 6658   0.426   1.104   1.918
 2218TIP3   OH2 6659   1.179   3.847   1.738
 2218TIP3    H1 6660   1.151   3.887   1.656
 2218TIP3    H2 6661   1.126   3.767   1.745
 2219TIP3   OH2 6662   0.648   1.762   0.200
 2219TIP3    H1 6663   0.666   1.842   0.251
 2219TIP3    H2 6664   0.603   1.794   0.121
 2220TIP3   OH2 6665   0.779   0.295   4.105
 2220TIP3    H1 6666   0.792   0.329   4.194
 2220TIP3    H2 6667   0.865   0.260   4.080
 2221TIP3   OH2 6668   3.753   1.355   0.948
 2221TIP3    H1 6669   3.812   1.294   0.993
 2221TIP3    H2 6670   3.726   1.307   0.869
 2222TIP3   OH2 6671   5.814   2.932   4.726
 2222TIP3    H1 6672   5.793   2.925   4.633
 2222TIP3    H2 6673   5.910   2.937   4.729
 2223TIP3   OH2 6674   3.504   1.859   3.919
 2223TIP3    H1 6675   3.489   1.939   3.867
 2223TIP3    H2 6676   3.425   1.807   3.904
 2224TIP3   OH2 6677   5.284   5.913   0.203
 2224TIP3    H1 6678   5.365   5.962   0.187
 2224TIP3    H2 6679   5.309   5.847   0.268
 2225TIP3   OH2 6680   2.189   3.524   0.791
 2225TIP3    H1 6681   2.181   3.513   0.696
 2225TIP3    H2 6682   2.189   3.618   0.804
 2226TIP3   OH2 6683   1.533   1.561   4.496
 2226TIP3    H1 6684   1.452   1.606   4.519
 2226TIP3    H2 6685   1.587   1.568   4.575
 2227TIP3   OH2 6686   0.662   5.305   2.768
 2227TIP3    H1 6687   0.736   5.284   2.712
 2227TIP3    H2 6688   0.698   5.304   2.857
 2228TIP3   OH2 6689   0.561   5.924   1.153
 2228TIP3    H1 6690   0.581   5.928   1.247
 2228TIP3    H2 6691   0.620   5.989   1.114
 2229TIP3   OH2 6692   4.559   2.253   3.451
 2229TIP3    H1 6693   4.631   2.217   3.502
 2229TIP3    H2 6694   4.596   2.267   3.363
 2230TIP3   OH2 6695   3.862   1.687   3.580
 2230TIP3    H1 6696   3.929   1.692   3.648
 2230TIP3    H2 6697   3.829   1.597   3.585
 2231TIP3   OH2 6698   2.121   3.153   1.002
 2231TIP3    H1 6699   2.206   3.136   1.042
 2231TIP3    H2 6700   2.075   3.069   1.005
 2232TIP3   OH2 6701   4.418   2.720   1.636
 2232TIP3    H1 6702   4.338   2.737   1.685
 2232TIP3    H2 6703   4.484   2.702   1.703
 2233TIP3   OH2 6704   1.216   5.104   3.271
 2233TIP3    H1 6705   1.240   5.118   3.363
 2233TIP3    H2 6706   1.261   5.175   3.224
 2234TIP3   OH2 6707   0.365   4.368   1.061
 2234TIP3    H1 6708   0.280   4.383   1.019
 2234TIP3    H2 6709   0.415   4.447   1.043
 2235TIP3   OH2 6710   1.850  -0.013   4.825
 2235TIP3    H1 6711   1.911   0.006   4.897
 2235TIP3    H2 6712   1.780   0.051   4.835
 2236TIP3   OH2 6713   4.331   0.914   2.640
 2236TIP3    H1 6714   4.245   0.957   2.639
 2236TIP3    H2 6715   4.310   0.821   2.646
 2237TIP3   OH2 6716   3.359   0.151   2.447
 2237TIP3    H1 6717   3.317   0.196   2.521
 2237TIP3    H2 6718   3.448   0.186   2.445
 2238TIP3   OH2 6719   2.830   0.133   0.994
 2238TIP3    H1 6720   2.744   0.114   0.957
 2238TIP3    H2 6721   2.892   0.090   0.935
 2239TIP3   OH2 6722   0.895   2.487   4.731
 2239TIP3    H1 6723   0.892   2.511   4.823
 2239TIP3    H2 6724   0.846   2.556   4.686
 2240TIP3   OH2 6725   0.146   1.774   5.141
 2240TIP3    H1 6726   0.211   1.717   5.181
 2240TIP3    H2 6727   0.185   1.802   5.059
 2241TIP3   OH2 6728   3.714   2.299   4.551
 2241TIP3    H1 6729   3.645   2.362   4.530
 2241TIP3    H2 6730   3.685   2.258   4.633
 2242TIP3   OH2 6731   0.134   2.222   4.542
 2242TIP3    H1 6732   0.165   2.252   4.457
 2242TIP3    H2 6733   0.038   2.229   4.536
 2243TIP3   OH2 6734   5.720   2.456   5.117
 2243TIP3    H1 6735   5.797   2.404   5.137
 2243TIP3    H2 6736   5.741   2.501   5.035
 2244TIP3   OH2 6737   1.936   3.101   0.728
 2244TIP3    H1 6738   1.875   3.096   0.801
 2244TIP3    H2 6739   1.890   3.153   0.662
 2245TIP3   OH2 6740   0.158   0.306   3.885
 2245TIP3    H1 6741   0.066   0.293   3.910
 2245TIP3    H2 6742   0.185   0.223   3.845
 2246TIP3   OH2 6743   4.876   5.853   4.940
 2246TIP3    H1 6744   4.872   5.762   4.969
 2246TIP3    H2 6745   4.963   5.883   4.966
 2247TIP3   OH2 6746   5.547   5.961   3.668
 2247TIP3    H1 6747   5.467   6.006   3.698
 2247TIP3    H2 6748   5.523   5.869   3.669
 2248TIP3   OH2 6749   0.561   4.191   0.804
 2248TIP3    H1 6750   0.577   4.165   0.713
 2248TIP3    H2 6751   0.635   4.249   0.825
 2249TIP3   OH2 6752   4.326   4.061   4.177
 2249TIP3    H1 6753   4.279   3.982   4.151
 2249TIP3    H2 6754   4.266   4.108   4.235
 2250TIP3   OH2 6755   0.961   4.933   1.235
 2250TIP3    H1 6756   0.977   5.019   1.196
 2250TIP3    H2 6757   0.872   4.910   1.208
 2251TIP3   OH2 6758   3.450   3.383   3.930
 2251TIP3    H1 6759   3.522   3.366   3.992
 2251TIP3    H2 6760   3.405   3.459   3.967
 2252TIP3   OH2 6761   2.663   3.739   4.175
 2252TIP3    H1 6762   2.658   3.798   4.101
 2252TIP3    H2 6763   2.576   3.698   4.179
 2253TIP3   OH2 6764   2.128   2.630   0.568
 2253TIP3    H1 6765   2.188   2.634   0.494
 2253TIP3    H2 6766   2.063   2.697   0.550
 2254TIP3   OH2 6767   3.117   4.570   1.985
 2254TIP3    H1 6768   3.055   4.638   1.961
 2254TIP3    H2 6769   3.080   4.490   1.947
 2255TIP3   OH2 6770   1.892   0.350   0.492
 2255TIP3    H1 6771   1.979   0.390   0.491
 2255TIP3    H2 6772   1.907   0.260   0.462
 2256TIP3   OH2 6773   1.511   5.791   0.899
 2256TIP3    H1 6774   1.583   5.738   0.934
 2256TIP3    H2 6775   1.439   5.729   0.889
 2257TIP3   OH2 6776   5.498   1.005   4.711
 2257TIP3    H1 6777   5.476   1.098   4.715
 2257TIP3    H2 6778   5.433   0.962   4.767
 2258TIP3   OH2 6779   5.597   5.501   5.044
 2258TIP3    H1 6780   5.525   5.507   4.982
 2258TIP3    H2 6781   5.555   5.483   5.128
 2259TIP3   OH2 6782   5.768   1.179   0.622
 2259TIP3    H1 6783   5.830   1.127   0.672
 2259TIP3    H2 6784   5.761   1.262   0.670
 2260TIP3   OH2 6785   0.178   2.922   2.855
 2260TIP3    H1 6786   0.172   2.826   2.847
 2260TIP3    H2 6787   0.246   2.946   2.792
 2261TIP3   OH2 6788   1.102   5.541   1.299
 2261TIP3    H1 6789   1.117   5.574   1.388
 2261TIP3    H2 6790   1.033   5.597   1.264
 2262TIP3   OH2 6791   1.784   0.248   0.898
 2262TIP3    H1 6792   1.770   0.168   0.948
 2262TIP3    H2 6793   1.878   0.248   0.879
 2263TIP3   OH2 6794   3.097   2.285   2.262
 2263TIP3    H1 6795   3.117   2.227   2.188
 2263TIP3    H2 6796   3.178   2.333   2.278
 2264TIP3   OH2 6797   4.615   1.802   2.916
 2264TIP3    H1 6798   4.542   1.830   2.861
 2264TIP3    H2 6799   4.673   1.754   2.857
 2265TIP3   OH2 6800   1.580   1.080   2.759
 2265TIP3    H1 6801   1.593   0.992   2.723
 2265TIP3    H2 6802   1.575   1.066   2.853
 2266TIP3   OH2 6803   4.135   4.904   3.402
 2266TIP3    H1 6804   4.188   4.968   3.354
 2266TIP3    H2 6805   4.119   4.834   3.339
 2267TIP3   OH2 6806   4.130   5.898   0.193
 2267TIP3    H1 6807   4.075   5.926   0.266
 2267TIP3    H2 6808   4.071   5.899   0.117
 2268TIP3   OH2 6809   5.401   4.668   0.915
 2268TIP3    H1 6810   5.447   4.740   0.958
 2268TIP3    H2 6811   5.311   4.674   0.947
 2269TIP3   OH2 6812   1.266   1.464   0.376
 2269TIP3    H1 6813   1.190   1.437   0.427
 2269TIP3    H2 6814   1.236   1.539   0.325
 2270TIP3   OH2 6815   2.162   3.258   4.280
 2270TIP3    H1 6816   2.212   3.336   4.304
 2270TIP3    H2 6817   2.160   3.205   4.359
 2271TIP3   OH2 6818   0.400   5.150   0.837
 2271TIP3    H1 6819   0.450   5.164   0.756
 2271TIP3    H2 6820   0.338   5.223   0.839
 2272TIP3   OH2 6821   3.290   2.574   2.870
 2272TIP3    H1 6822   3.244   2.615   2.797
 2272TIP3    H2 6823   3.224   2.566   2.939
 2273TIP3   OH2 6824   0.169   1.482   2.919
 2273TIP3    H1 6825   0.220   1.470   2.999
 2273TIP3    H2 6826   0.155   1.393   2.885
 2274TIP3   OH2 6827   0.659   5.596   0.465
 2274TIP3    H1 6828   0.699   5.658   0.405
 2274TIP3    H2 6829   0.669   5.511   0.422
 2275TIP3   OH2 6830   3.600   5.431   3.971
 2275TIP3    H1 6831   3.543   5.445   3.895
 2275TIP3    H2 6832   3.632   5.341   3.960
 2276TIP3   OH2 6833   5.176   0.803   4.456
 2276TIP3    H1 6834   5.180   0.766   4.544
 2276TIP3    H2 6835   5.265   0.831   4.437
 2277TIP3   OH2 6836   3.780   3.235   2.367
 2277TIP3    H1 6837   3.793   3.323   2.330
 2277TIP3    H2 6838   3.745   3.184   2.294
 2278TIP3   OH2 6839   2.687   2.276   2.708
 2278TIP3    H1 6840   2.697   2.293   2.614
 2278TIP3    H2 6841   2.600   2.310   2.729
 2279TIP3   OH2 6842   2.905   0.492   0.885
 2279TIP3    H1 6843   2.877   0.489   0.976
 2279TIP3    H2 6844   2.979   0.553   0.884
 2280TIP3   OH2 6845   4.033   2.298   3.700
 2280TIP3    H1 6846   4.101   2.277   3.764
 2280TIP3    H2 6847   4.060   2.250   3.621
 2281TIP3   OH2 6848   5.260   1.297   1.031
 2281TIP3    H1 6849   5.339   1.293   1.085
 2281TIP3    H2 6850   5.196   1.245   1.079
 2282TIP3   OH2 6851   3.760   4.770   4.241
 2282TIP3    H1 6852   3.683   4.714   4.248
 2282TIP3    H2 6853   3.777   4.799   4.331
 2283TIP3   OH2 6854   0.411   5.858   3.387
 2283TIP3    H1 6855   0.382   5.816   3.306
 2283TIP3    H2 6856   0.379   5.801   3.457
 2284TIP3   OH2 6857   5.404   3.171   2.445
 2284TIP3    H1 6858   5.389   3.233   2.516
 2284TIP3    H2 6859   5.455   3.100   2.485
 2285TIP3   OH2 6860   2.109   3.581   4.818
 2285TIP3    H1 6861   2.026   3.535   4.816
 2285TIP3    H2 6862   2.126   3.603   4.726
 2286TIP3   OH2 6863   3.912   0.675   4.595
 2286TIP3    H1 6864   3.871   0.661   4.510
 2286TIP3    H2 6865   3.968   0.751   4.584
 2287TIP3   OH2 6866   5.627   1.158   3.547
 2287TIP3    H1 6867   5.574   1.135   3.471
 2287TIP3    H2 6868   5.623   1.253   3.552
 2288TIP3   OH2 6869   4.856   3.475   4.938
 2288TIP3    H1 6870   4.932   3.524   4.906
 2288TIP3    H2 6871   4.884   3.384   4.937
 2289TIP3   OH2 6872   1.529   4.541   0.832
 2289TIP3    H1 6873   1.582   4.541   0.912
 2289TIP3    H2 6874   1.468   4.614   0.844
 2290TIP3   OH2 6875   1.333   5.882   0.302
 2290TIP3    H1 6876   1.392   5.865   0.228
 2290TIP3    H2 6877   1.386   5.862   0.380
 2291TIP3   OH2 6878   2.963   0.962   1.059
 2291TIP3    H1 6879   3.054   0.946   1.082
 2291TIP3    H2 6880   2.939   0.889   1.002
 2292TIP3   OH2 6881   3.160   0.511   1.170
 2292TIP3    H1 6882   3.107   0.591   1.176
 2292TIP3    H2 6883   3.245   0.541   1.139
 2293TIP3   OH2 6884   2.445   4.495   5.164
 2293TIP3    H1 6885   2.496   4.459   5.091
 2293TIP3    H2 6886   2.371   4.539   5.121
 2294TIP3   OH2 6887   0.063   1.056   0.697
 2294TIP3    H1 6888   0.044   1.144   0.664
 2294TIP3    H2 6889   0.019   0.997   0.636
 2295TIP3   OH2 6890   5.770   3.631   3.144
 2295TIP3    H1 6891   5.726   3.673   3.071
 2295TIP3    H2 6892   5.786   3.541   3.115
 2296TIP3   OH2 6893   4.516   4.864   3.533
 2296TIP3    H1 6894   4.546   4.803   3.465
 2296TIP3    H2 6895   4.523   4.951   3.492
 2297TIP3   OH2 6896   5.886   2.649   1.692
 2297TIP3    H1 6897   5.954   2.583   1.692
 2297TIP3    H2 6898   5.907   2.706   1.619
 2298TIP3   OH2 6899   3.982   5.128   1.192
 2298TIP3    H1 6900   4.071   5.152   1.215
 2298TIP3    H2 6901   3.972   5.039   1.225
 2299TIP3   OH2 6902   4.583   3.167   3.100
 2299TIP3    H1 6903   4.669   3.148   3.062
 2299TIP3    H2 6904   4.582   3.118   3.183
 2300TIP3   OH2 6905   4.813   5.490   3.304
 2300TIP3    H1 6906   4.891   5.545   3.310
 2300TIP3    H2 6907   4.820   5.448   3.218
 2301TIP3   OH2 6908   1.817   5.210   4.680
 2301TIP3    H1 6909   1.838   5.117   4.676
 2301TIP3    H2 6910   1.770   5.228   4.599
 2302TIP3   OH2 6911   2.409   1.920   3.327
 2302TIP3    H1 6912   2.345   1.923   3.398
 2302TIP3    H2 6913   2.387   1.996   3.272
 2303TIP3   OH2 6914   0.331   1.880   2.120
 2303TIP3    H1 6915   0.365   1.864   2.032
 2303TIP3    H2 6916   0.374   1.815   2.175
 2304TIP3   OH2 6917   1.543   1.526   1.280
 2304TIP3    H1 6918   1.452   1.528   1.311
 2304TIP3    H2 6919   1.568   1.618   1.275
 2305TIP3   OH2 6920   2.457   0.525   3.550
 2305TIP3    H1 6921   2.468   0.546   3.458
 2305TIP3    H2 6922   2.391   0.587   3.581
 2306TIP3   OH2 6923   5.169   1.598   4.021
 2306TIP3    H1 6924   5.198   1.532   3.958
 2306TIP3    H2 6925   5.077   1.578   4.036
 2307TIP3   OH2 6926   0.228   0.606   3.952
 2307TIP3    H1 6927   0.287   0.675   3.924
 2307TIP3    H2 6928   0.267   0.526   3.918
 2308TIP3   OH2 6929   3.015   5.156   2.767
 2308TIP3    H1 6930   3.064   5.216   2.823
 2308TIP3    H2 6931   3.014   5.198   2.682
 2309TIP3   OH2 6932   0.869   1.172   5.155
 2309TIP3    H1 6933   0.931   1.241   5.131
 2309TIP3    H2 6934   0.902   1.139   5.238
 2310TIP3   OH2 6935   3.203   1.801   2.889
 2310TIP3    H1 6936   3.199   1.892   2.919
 2310TIP3    H2 6937   3.162   1.801   2.803
 2311TIP3   OH2 6938   6.348   3.480   0.484
 2311TIP3    H1 6939   6.377   3.399   0.441
 2311TIP3    H2 6940   6.312   3.451   0.568
 2312TIP3   OH2 6941   3.292   3.046   3.036
 2312TIP3    H1 6942   3.207   3.016   3.003
 2312TIP3    H2 6943   3.271   3.095   3.115
 2313TIP3   OH2 6944   0.552   2.351   3.815
 2313TIP3    H1 6945   0.516   2.312   3.735
 2313TIP3    H2 6946   0.506   2.435   3.824
 2314TIP3   OH2 6947   5.988   1.116   0.423
 2314TIP3    H1 6948   5.901   1.105   0.383
 2314TIP3    H2 6949   5.995   1.209   0.441
 2315TIP3   OH2 6950   1.135   4.714   1.109
 2315TIP3    H1 6951   1.104   4.723   1.200
 2315TIP3    H2 6952   1.070   4.761   1.057
 2316TIP3   OH2 6953   1.423   2.275   4.072
 2316TIP3    H1 6954   1.412   2.314   3.985
 2316TIP3    H2 6955   1.333   2.265   4.105
 2317TIP3   OH2 6956   5.967   5.156   0.251
 2317TIP3    H1 6957   5.916   5.219   0.199
 2317TIP3    H2 6958   5.988   5.086   0.189
 2318TIP3   OH2 6959   4.517   3.411   1.635
 2318TIP3    H1 6960   4.559   3.331   1.602
 2318TIP3    H2 6961   4.574   3.440   1.706
 2319TIP3   OH2 6962   2.794   4.046   4.757
 2319TIP3    H1 6963   2.806   4.013   4.846
 2319TIP3    H2 6964   2.881   4.043   4.718
 2320TIP3   OH2 6965   4.050   4.732   0.224
 2320TIP3    H1 6966   4.102   4.744   0.304
 2320TIP3    H2 6967   3.998   4.653   0.241
 2321TIP3   OH2 6968   6.326   4.554   2.740
 2321TIP3    H1 6969   6.390   4.515   2.680
 2321TIP3    H2 6970   6.327   4.496   2.816
 2322TIP3   OH2 6971   4.272   1.279   5.192
 2322TIP3    H1 6972   4.205   1.211   5.189
 2322TIP3    H2 6973   4.307   1.283   5.103
 2323TIP3   OH2 6974   0.447   0.246   3.230
 2323TIP3    H1 6975   0.522   0.215   3.281
 2323TIP3    H2 6976   0.390   0.287   3.295
 2324TIP3   OH2 6977   5.376   3.080   1.259
 2324TIP3    H1 6978   5.466   3.108   1.243
 2324TIP3    H2 6979   5.339   3.069   1.171
 2325TIP3   OH2 6980   3.990   2.661   0.873
 2325TIP3    H1 6981   3.946   2.704   0.947
 2325TIP3    H2 6982   4.059   2.608   0.914
 2326TIP3   OH2 6983   1.216   3.019   4.751
 2326TIP3    H1 6984   1.134   3.067   4.763
 2326TIP3    H2 6985   1.189   2.928   4.737
 2327TIP3   OH2 6986   3.568   1.362   5.118
 2327TIP3    H1 6987   3.613   1.278   5.121
 2327TIP3    H2 6988   3.487   1.348   5.168
 2328TIP3   OH2 6989   1.558   1.394   4.058
 2328TIP3    H1 6990   1.623   1.397   3.987
 2328TIP3    H2 6991   1.593   1.453   4.125
 2329TIP3   OH2 6992   4.175   5.875   0.575
 2329TIP3    H1 6993   4.252   5.847   0.525
 2329TIP3    H2 6994   4.202   5.955   0.619
 2330TIP3   OH2 6995   2.892   0.379   2.216
 2330TIP3    H1 6996   2.973   0.374   2.165
 2330TIP3    H2 6997   2.849   0.458   2.185
 2331TIP3   OH2 6998   3.421   2.945   0.843
 2331TIP3    H1 6999   3.378   2.895   0.774
 2331TIP3    H2 7000   3.495   2.891   0.870
 2332TIP3   OH2 7001   0.383   0.648   1.234
 2332TIP3    H1 7002   0.383   0.636   1.139
 2332TIP3    H2 7003   0.453   0.710   1.251
 2333TIP3   OH2 7004   1.841   4.186   2.375
 2333TIP3    H1 7005   1.907   4.254   2.360
 2333TIP3    H2 7006   1.784   4.223   2.442
 2334TIP3   OH2 7007   0.891   1.883   4.754
 2334TIP3    H1 7008   0.977   1.841   4.749
 2334TIP3    H2 7009   0.907   1.965   4.801
 2335TIP3   OH2 7010   3.719   1.424   3.609
 2335TIP3    H1 7011   3.715   1.340   3.655
 2335TIP3    H2 7012   3.699   1.403   3.518
 2336TIP3   OH2 7013   6.300   3.424   1.858
 2336TIP3    H1 7014   6.217   3.446   1.900
 2336TIP3    H2 7015   6.352   3.504   1.866
 2337TIP3   OH2 7016   1.240   3.104   3.373
 2337TIP3    H1 7017   1.243   3.100   3.468
 2337TIP3    H2 7018   1.151   3.078   3.350
 2338TIP3   OH2 7019   0.811   2.468   2.027
 2338TIP3    H1 7020   0.788   2.468   2.120
 2338TIP3    H2 7021   0.763   2.542   1.990
 2339TIP3   OH2 7022   5.595   2.245   1.921
 2339TIP3    H1 7023   5.519   2.275   1.972
 2339TIP3    H2 7024   5.588   2.150   1.921
 2340TIP3   OH2 7025   2.080   0.399   4.246
 2340TIP3    H1 7026   2.039   0.318   4.215
 2340TIP3    H2 7027   2.129   0.372   4.324
 2341TIP3   OH2 7028   3.737   5.164   4.547
 2341TIP3    H1 7029   3.654   5.118   4.534
 2341TIP3    H2 7030   3.742   5.179   4.641
 2342TIP3   OH2 7031   1.253   3.647   3.815
 2342TIP3    H1 7032   1.271   3.738   3.837
 2342TIP3    H2 7033   1.330   3.618   3.767
 2343TIP3   OH2 7034   1.988   3.329   3.384
 2343TIP3    H1 7035   2.027   3.412   3.356
 2343TIP3    H2 7036   1.894   3.345   3.382
 2344TIP3   OH2 7037   4.265   1.612   1.264
 2344TIP3    H1 7038   4.262   1.585   1.172
 2344TIP3    H2 7039   4.245   1.705   1.263
 2345TIP3   OH2 7040   6.171   2.135   2.743
 2345TIP3    H1 7041   6.213   2.062   2.787
 2345TIP3    H2 7042   6.243   2.188   2.710
 2346TIP3   OH2 7043   3.255   4.859   2.661
 2346TIP3    H1 7044   3.321   4.927   2.678
 2346TIP3    H2 7045   3.182   4.882   2.718
 2347TIP3   OH2 7046   0.045   3.900   2.011
 2347TIP3    H1 7047   0.101   3.917   1.935
 2347TIP3    H2 7048  -0.038   3.943   1.990
 2348TIP3   OH2 7049   2.469   1.009   1.701
 2348TIP3    H1 7050   2.407   1.009   1.628
 2348TIP3    H2 7051   2.526   1.085   1.685
 2349TIP3   OH2 7052   4.249   0.767   3.465
 2349TIP3    H1 7053   4.258   0.678   3.432
 2349TIP3    H2 7054   4.334   0.787   3.503
 2350TIP3   OH2 7055   6.045   2.054   1.244
 2350TIP3    H1 7056   6.016   1.966   1.270
 2350TIP3    H2 7057   6.034   2.107   1.323
 2351TIP3   OH2 7058   4.726   0.192   2.636
 2351TIP3    H1 7059   4.760   0.206   2.548
 2351TIP3    H2 7060   4.683   0.274   2.658
 2352TIP3   OH2 7061   0.091   3.268   3.551
 2352TIP3    H1 7062   0.152   3.253   3.623
 2352TIP3    H2 7063   0.023   3.202   3.563
 2353TIP3   OH2 7064   4.920   0.436   5.022
 2353TIP3    H1 7065   4.968   0.367   4.976
 2353TIP3    H2 7066   4.930   0.513   4.967
 2354TIP3   OH2 7067   5.957   3.298   5.134
 2354TIP3    H1 7068   5.988   3.310   5.224
 2354TIP3    H2 7069   6.017   3.350   5.081
 2355TIP3   OH2 7070   3.954   0.202   1.366
 2355TIP3    H1 7071   4.018   0.207   1.296
 2355TIP3    H2 7072   3.871   0.228   1.326
 2356TIP3   OH2 7073   3.625   0.097   3.411
 2356TIP3    H1 7074   3.652   0.053   3.491
 2356TIP3    H2 7075   3.634   0.031   3.343
 2357TIP3   OH2 7076   0.344   4.262   1.713
 2357TIP3    H1 7077   0.268   4.303   1.671
 2357TIP3    H2 7078   0.380   4.205   1.646
 2358TIP3   OH2 7079   4.456   0.115   2.371
 2358TIP3    H1 7080   4.519   0.128   2.301
 2358TIP3    H2 7081   4.508   0.082   2.444
 2359TIP3   OH2 7082   5.654   3.071   1.475
 2359TIP3    H1 7083   5.658   3.069   1.571
 2359TIP3    H2 7084   5.705   2.995   1.448
 2360TIP3   OH2 7085   0.211   3.228   3.789
 2360TIP3    H1 7086   0.180   3.147   3.829
 2360TIP3    H2 7087   0.304   3.230   3.810
 2361TIP3   OH2 7088   6.108   0.102   3.961
 2361TIP3    H1 7089   6.136   0.194   3.960
 2361TIP3    H2 7090   6.018   0.104   3.929
 2362TIP3   OH2 7091   3.015   5.594   1.659
 2362TIP3    H1 7092   2.949   5.602   1.728
 2362TIP3    H2 7093   3.006   5.675   1.609
 2363TIP3   OH2 7094   6.075   5.059   4.241
 2363TIP3    H1 7095   6.163   5.098   4.238
 2363TIP3    H2 7096   6.054   5.054   4.334
 2364TIP3   OH2 7097   5.052   3.334   3.117
 2364TIP3    H1 7098   5.083   3.424   3.130
 2364TIP3    H2 7099   5.109   3.299   3.048
 2365TIP3   OH2 7100   2.932   2.874   0.206
 2365TIP3    H1 7101   3.000   2.855   0.141
 2365TIP3    H2 7102   2.980   2.898   0.285
 2366TIP3   OH2 7103   3.567   0.377   2.295
 2366TIP3    H1 7104   3.571   0.407   2.204
 2366TIP3    H2 7105   3.657   0.352   2.316
 2367TIP3   OH2 7106   1.323   4.772   4.741
 2367TIP3    H1 7107   1.287   4.860   4.732
 2367TIP3    H2 7108   1.372   4.758   4.659
 2368TIP3   OH2 7109   0.357   2.541   3.456
 2368TIP3    H1 7110   0.328   2.450   3.452
 2368TIP3    H2 7111   0.287   2.587   3.502
 2369TIP3   OH2 7112   4.645   3.044   2.782
 2369TIP3    H1 7113   4.727   3.045   2.832
 2369TIP3    H2 7114   4.674   3.039   2.690
 2370TIP3   OH2 7115   2.709   5.005   2.634
 2370TIP3    H1 7116   2.784   5.055   2.668
 2370TIP3    H2 7117   2.749   4.928   2.593
 2371TIP3   OH2 7118   5.713   2.217   1.024
 2371TIP3    H1 7119   5.676   2.304   1.006
 2371TIP3    H2 7120   5.703   2.169   0.942
 2372TIP3   OH2 7121   6.246   5.749   5.059
 2372TIP3    H1 7122   6.257   5.771   5.152
 2372TIP3    H2 7123   6.152   5.737   5.049
 2373TIP3   OH2 7124   2.272   2.123   3.240
 2373TIP3    H1 7125   2.247   2.204   3.196
 2373TIP3    H2 7126   2.189   2.084   3.267
 2374TIP3   OH2 7127   4.818   4.788   2.805
 2374TIP3    H1 7128   4.763   4.716   2.833
 2374TIP3    H2 7129   4.757   4.850   2.764
 2375TIP3   OH2 7130   3.335   1.316   3.131
 2375TIP3    H1 7131   3.287   1.379   3.076
 2375TIP3    H2 7132   3.369   1.251   3.069
 2376TIP3   OH2 7133   5.008   1.232   2.485
 2376TIP3    H1 7134   4.942   1.178   2.529
 2376TIP3    H2 7135   5.080   1.171   2.468
 2377TIP3   OH2 7136   1.673   1.101   1.707
 2377TIP3    H1 7137   1.619   1.079   1.630
 2377TIP3    H2 7138   1.753   1.051   1.695
 2378TIP3   OH2 7139   1.953   4.288   3.433
 2378TIP3    H1 7140   1.902   4.300   3.513
 2378TIP3    H2 7141   1.984   4.376   3.410
 2379TIP3   OH2 7142   4.486   4.511   2.186
 2379TIP3    H1 7143   4.420   4.456   2.227
 2379TIP3    H2 7144   4.512   4.573   2.254
 2380TIP3   OH2 7145   3.399   4.977   4.023
 2380TIP3    H1 7146   3.469   4.922   3.988
 2380TIP3    H2 7147   3.318   4.930   4.002
 2381TIP3   OH2 7148   2.885   0.751   2.004
 2381TIP3    H1 7149   2.972   0.711   2.009
 2381TIP3    H2 7150   2.826   0.684   2.037
 2382TIP3   OH2 7151   4.820   3.485   0.556
 2382TIP3    H1 7152   4.811   3.533   0.473
 2382TIP3    H2 7153   4.888   3.532   0.603
 2383TIP3   OH2 7154   3.825   5.895   1.439
 2383TIP3    H1 7155   3.764   5.822   1.427
 2383TIP3    H2 7156   3.770   5.966   1.472
 2384TIP3   OH2 7157   0.644   1.316   4.105
 2384TIP3    H1 7158   0.634   1.364   4.187
 2384TIP3    H2 7159   0.554   1.295   4.079
 2385TIP3   OH2 7160   4.129   3.673   1.678
 2385TIP3    H1 7161   4.148   3.767   1.677
 2385TIP3    H2 7162   4.096   3.656   1.767
 2386TIP3   OH2 7163   2.687   2.806   4.988
 2386TIP3    H1 7164   2.668   2.714   4.975
 2386TIP3    H2 7165   2.601   2.847   5.002
 2387TIP3   OH2 7166   1.901   2.767   0.469
 2387TIP3    H1 7167   1.901   2.710   0.392
 2387TIP3    H2 7168   1.918   2.855   0.434
 2388TIP3   OH2 7169   1.550   5.060   5.063
 2388TIP3    H1 7170   1.548   5.063   4.967
 2388TIP3    H2 7171   1.472   5.010   5.086
 2389TIP3   OH2 7172   0.913   1.608   0.783
 2389TIP3    H1 7173   0.872   1.537   0.833
 2389TIP3    H2 7174   1.001   1.576   0.763
 2390TIP3   OH2 7175   0.854   3.178   3.017
 2390TIP3    H1 7176   0.896   3.108   2.968
 2390TIP3    H2 7177   0.766   3.144   3.036
 2391TIP3   OH2 7178   4.571   1.184   2.503
 2391TIP3    H1 7179   4.573   1.144   2.416
 2391TIP3    H2 7180   4.663   1.200   2.524
 2392TIP3   OH2 7181   4.740   1.614   3.776
 2392TIP3    H1 7182   4.807   1.566   3.824
 2392TIP3    H2 7183   4.789   1.672   3.718
 2393TIP3   OH2 7184   2.566   1.383   3.363
 2393TIP3    H1 7185   2.542   1.474   3.348
 2393TIP3    H2 7186   2.624   1.361   3.290
 2394TIP3   OH2 7187   4.610   3.270   2.519
 2394TIP3    H1 7188   4.530   3.221   2.503
 2394TIP3    H2 7189   4.593   3.317   2.601
 2395TIP3   OH2 7190   1.785   1.635   0.888
 2395TIP3    H1 7191   1.732   1.715   0.895
 2395TIP3    H2 7192   1.862   1.653   0.943
 2396TIP3   OH2 7193   5.609   3.087   5.105
 2396TIP3    H1 7194   5.592   3.173   5.143
 2396TIP3    H2 7195   5.703   3.072   5.122
 2397TIP3   OH2 7196   5.990   3.312   0.542
 2397TIP3    H1 7197   5.939   3.384   0.580
 2397TIP3    H2 7198   5.978   3.240   0.603
 2398TIP3   OH2 7199   4.044   5.348   3.270
 2398TIP3    H1 7200   4.116   5.297   3.233
 2398TIP3    H2 7201   4.027   5.416   3.206
 2399TIP3   OH2 7202   4.735   4.472   4.449
 2399TIP3    H1 7203   4.651   4.502   4.485
 2399TIP3    H2 7204   4.801   4.519   4.499
 2400TIP3   OH2 7205   5.858   1.760   2.876
 2400TIP3    H1 7206   5.793   1.690   2.883
 2400TIP3    H2 7207   5.878   1.783   2.967
 2401TIP3   OH2 7208   4.139   3.750   4.078
 2401TIP3    H1 7209   4.108   3.803   4.005
 2401TIP3    H2 7210   4.071   3.757   4.144
 2402TIP3   OH2 7211   3.503   3.344   0.079
 2402TIP3    H1 7212   3.461   3.258   0.082
 2402TIP3    H2 7213   3.505   3.374   0.170
 2403TIP3   OH2 7214   1.740   3.326   4.997
 2403TIP3    H1 7215   1.821   3.307   5.044
 2403TIP3    H2 7216   1.712   3.241   4.963
 2404TIP3   OH2 7217   0.757   4.935   0.179
 2404TIP3    H1 7218   0.815   4.862   0.158
 2404TIP3    H2 7219   0.760   4.991   0.102
 2405TIP3   OH2 7220   0.430   5.646   1.275
 2405TIP3    H1 7221   0.505   5.630   1.333
 2405TIP3    H2 7222   0.393   5.559   1.259
 2406TIP3   OH2 7223   2.711   3.472   2.060
 2406TIP3    H1 7224   2.659   3.546   2.030
 2406TIP3    H2 7225   2.799   3.488   2.026
 2407TIP3   OH2 7226   5.896   3.079   1.151
 2407TIP3    H1 7227   5.940   3.075   1.236
 2407TIP3    H2 7228   5.939   3.151   1.105
 2408TIP3   OH2 7229   5.719   1.164   0.262
 2408TIP3    H1 7230   5.661   1.096   0.228
 2408TIP3    H2 7231   5.661   1.229   0.299
 2409TIP3   OH2 7232   2.821   5.653   3.630
 2409TIP3    H1 7233   2.873   5.602   3.569
 2409TIP3    H2 7234   2.886   5.698   3.685
 2410TIP3   OH2 7235   5.653   0.969   3.183
 2410TIP3    H1 7236   5.631   0.924   3.265
 2410TIP3    H2 7237   5.665   0.899   3.120
 2411TIP3   OH2 7238   1.528   5.261   2.310
 2411TIP3    H1 7239   1.487   5.232   2.229
 2411TIP3    H2 7240   1.598   5.320   2.281
 2412TIP3   OH2 7241   4.227   3.704   5.160
 2412TIP3    H1 7242   4.284   3.649   5.214
 2412TIP3    H2 7243   4.280   3.725   5.083
 2413TIP3   OH2 7244   6.323   4.102   3.674
 2413TIP3    H1 7245   6.308   4.016   3.713
 2413TIP3    H2 7246   6.354   4.156   3.746
 2414TIP3   OH2 7247   4.979   2.122   0.669
 2414TIP3    H1 7248   4.990   2.081   0.755
 2414TIP3    H2 7249   5.001   2.214   0.683
 2415TIP3   OH2 7250   0.467   5.119   2.348
 2415TIP3    H1 7251   0.401   5.162   2.294
 2415TIP3    H2 7252   0.416   5.072   2.415
 2416TIP3   OH2 7253   2.431   5.551   3.528
 2416TIP3    H1 7254   2.366   5.500   3.479
 2416TIP3    H2 7255   2.443   5.502   3.610
 2417TIP3   OH2 7256   1.472   5.479   3.261
 2417TIP3    H1 7257   1.442   5.567   3.280
 2417TIP3    H2 7258   1.395   5.435   3.224
 2418TIP3   OH2 7259   4.380   0.722   4.252
 2418TIP3    H1 7260   4.471   0.702   4.229
 2418TIP3    H2 7261   4.386   0.765   4.337
 2419TIP3   OH2 7262   3.776   1.152   3.708
 2419TIP3    H1 7263   3.849   1.135   3.648
 2419TIP3    H2 7264   3.809   1.129   3.794
 2420TIP3   OH2 7265   4.035   5.215   2.427
 2420TIP3    H1 7266   4.062   5.125   2.407
 2420TIP3    H2 7267   4.116   5.265   2.426
 2421TIP3   OH2 7268   4.148   4.670   0.720
 2421TIP3    H1 7269   4.171   4.735   0.787
 2421TIP3    H2 7270   4.224   4.613   0.716
 2422TIP3   OH2 7271   4.274   3.544   4.888
 2422TIP3    H1 7272   4.364   3.571   4.868
 2422TIP3    H2 7273   4.258   3.468   4.833
 2423TIP3   OH2 7274   6.034   0.702   0.876
 2423TIP3    H1 7275   6.033   0.658   0.961
 2423TIP3    H2 7276   5.952   0.675   0.835
 2424TIP3   OH2 7277   0.744   4.743   2.282
 2424TIP3    H1 7278   0.836   4.719   2.287
 2424TIP3    H2 7279   0.711   4.728   2.371
 2425TIP3   OH2 7280   5.216   0.589   0.750
 2425TIP3    H1 7281   5.296   0.555   0.709
 2425TIP3    H2 7282   5.178   0.647   0.684
 2426TIP3   OH2 7283   1.551   3.638   2.072
 2426TIP3    H1 7284   1.513   3.612   1.988
 2426TIP3    H2 7285   1.482   3.688   2.115
 2427TIP3   OH2 7286   0.438   4.719   2.596
 2427TIP3    H1 7287   0.398   4.806   2.593
 2427TIP3    H2 7288   0.395   4.675   2.670
 2428TIP3   OH2 7289   1.608   5.899   4.743
 2428TIP3    H1 7290   1.587   5.860   4.657
 2428TIP3    H2 7291   1.562   5.843   4.806
 2429TIP3   OH2 7292   1.879   1.876   4.911
 2429TIP3    H1 7293   1.835   1.812   4.965
 2429TIP3    H2 7294   1.817   1.948   4.902
 2430TIP3   OH2 7295   1.891   3.024   3.731
 2430TIP3    H1 7296   1.920   3.047   3.642
 2430TIP3    H2 7297   1.796   3.040   3.730
 2431TIP3   OH2 7298   1.715   2.607   2.824
 2431TIP3    H1 7299   1.724   2.652   2.908
 2431TIP3    H2 7300   1.625   2.575   2.823
 2432TIP3   OH2 7301   4.425   3.639   0.328
 2432TIP3    H1 7302   4.375   3.558   0.340
 2432TIP3    H2 7303   4.408   3.690   0.408
 2433TIP3   OH2 7304   4.854   4.200   3.832
 2433TIP3    H1 7305   4.850   4.289   3.866
 2433TIP3    H2 7306   4.788   4.152   3.882
 2434TIP3   OH2 7307   1.392   2.696   1.034
 2434TIP3    H1 7308   1.455   2.635   0.995
 2434TIP3    H2 7309   1.445   2.769   1.064
 2435TIP3   OH2 7310   1.041   4.762   3.700
 2435TIP3    H1 7311   0.979   4.718   3.757
 2435TIP3    H2 7312   1.040   4.854   3.729
 2436TIP3   OH2 7313   1.563   4.373   1.920
 2436TIP3    H1 7314   1.552   4.336   2.008
 2436TIP3    H2 7315   1.577   4.466   1.935
 2437TIP3   OH2 7316   2.659   1.580   2.150
 2437TIP3    H1 7317   2.660   1.636   2.072
 2437TIP3    H2 7318   2.599   1.509   2.128
 2438TIP3   OH2 7319   0.119   2.852   3.112
 2438TIP3    H1 7320   0.186   2.868   3.179
 2438TIP3    H2 7321   0.146   2.905   3.038
 2439TIP3   OH2 7322   2.138   0.946   3.059
 2439TIP3    H1 7323   2.230   0.929   3.078
 2439TIP3    H2 7324   2.124   0.906   2.973
 2440TIP3   OH2 7325   1.258   5.107   4.198
 2440TIP3    H1 7326   1.268   5.017   4.228
 2440TIP3    H2 7327   1.305   5.110   4.114
 2441TIP3   OH2 7328   2.986   4.452   0.558
 2441TIP3    H1 7329   2.977   4.548   0.553
 2441TIP3    H2 7330   2.972   4.422   0.468
 2442TIP3   OH2 7331   5.492   1.551   4.511
 2442TIP3    H1 7332   5.545   1.629   4.495
 2442TIP3    H2 7333   5.410   1.567   4.464
 2443TIP3   OH2 7334   6.048   4.007   4.779
 2443TIP3    H1 7335   6.036   4.045   4.866
 2443TIP3    H2 7336   6.079   4.079   4.725
 2444TIP3   OH2 7337   0.024   3.862   4.798
 2444TIP3    H1 7338   0.081   3.803   4.748
 2444TIP3    H2 7339  -0.046   3.806   4.832
 2445TIP3   OH2 7340   4.354   2.052   2.421
 2445TIP3    H1 7341   4.432   1.997   2.431
 2445TIP3    H2 7342   4.351   2.102   2.502
 2446TIP3   OH2 7343   5.894   3.986   3.038
 2446TIP3    H1 7344   5.968   3.942   3.079
 2446TIP3    H2 7345   5.819   3.930   3.056
 2447TIP3   OH2 7346   2.121   5.204   2.875
 2447TIP3    H1 7347   2.133   5.109   2.878
 2447TIP3    H2 7348   2.098   5.228   2.965
 2448TIP3   OH2 7349   5.753   5.399   1.986
 2448TIP3    H1 7350   5.716   5.362   1.905
 2448TIP3    H2 7351   5.830   5.345   2.004
 2449TIP3   OH2 7352   6.306   3.706   1.231
 2449TIP3    H1 7353   6.301   3.655   1.150
 2449TIP3    H2 7354   6.308   3.639   1.300
 2450TIP3   OH2 7355   0.645   2.728   1.328
 2450TIP3    H1 7356   0.696   2.693   1.401
 2450TIP3    H2 7357   0.563   2.757   1.368
 2451TIP3   OH2 7358   5.722   2.869   4.086
 2451TIP3    H1 7359   5.817   2.880   4.089
 2451TIP3    H2 7360   5.694   2.925   4.014
 2452TIP3   OH2 7361   2.036   0.803   0.460
 2452TIP3    H1 7362   1.980   0.822   0.535
 2452TIP3    H2 7363   2.002   0.858   0.390
 2453TIP3   OH2 7364   3.347   2.415   2.274
 2453TIP3    H1 7365   3.420   2.409   2.212
 2453TIP3    H2 7366   3.298   2.492   2.246
 2454TIP3   OH2 7367   5.130   4.317   3.176
 2454TIP3    H1 7368   5.133   4.400   3.222
 2454TIP3    H2 7369   5.106   4.340   3.086
 2455TIP3   OH2 7370   2.256   1.705   1.198
 2455TIP3    H1 7371   2.188   1.768   1.172
 2455TIP3    H2 7372   2.233   1.680   1.287
 2456TIP3   OH2 7373   1.013   4.433   2.445
 2456TIP3    H1 7374   0.922   4.411   2.422
 2456TIP3    H2 7375   1.061   4.352   2.429
 2457TIP3   OH2 7376   3.639   1.601   0.993
 2457TIP3    H1 7377   3.689   1.526   0.963
 2457TIP3    H2 7378   3.584   1.567   1.063
 2458TIP3   OH2 7379   4.292   0.025   1.090
 2458TIP3    H1 7380   4.215  -0.028   1.108
 2458TIP3    H2 7381   4.273   0.111   1.129
 2459TIP3   OH2 7382   3.713   1.445   1.464
 2459TIP3    H1 7383   3.728   1.382   1.534
 2459TIP3    H2 7384   3.708   1.530   1.508
 2460TIP3   OH2 7385   0.034   0.564   0.065
 2460TIP3    H1 7386  -0.031   0.522   0.122
 2460TIP3    H2 7387   0.117   0.522   0.088
 2461TIP3   OH2 7388   3.245   0.804   4.644
 2461TIP3    H1 7389   3.272   0.718   4.612
 2461TIP3    H2 7390   3.305   0.865   4.601
 2462TIP3   OH2 7391   3.982   2.337   4.503
 2462TIP3    H1 7392   3.886   2.330   4.504
 2462TIP3    H2 7393   4.010   2.288   4.426
 2463TIP3   OH2 7394   1.320   5.756   0.633
 2463TIP3    H1 7395   1.404   5.800   0.640
 2463TIP3    H2 7396   1.255   5.826   0.639
 2464TIP3   OH2 7397   4.143   1.245   1.374
 2464TIP3    H1 7398   4.054   1.214   1.356
 2464TIP3    H2 7399   4.130   1.329   1.418
 2465TIP3   OH2 7400   3.843   5.137   1.695
 2465TIP3    H1 7401   3.931   5.161   1.725
 2465TIP3    H2 7402   3.810   5.216   1.652
 2466TIP3   OH2 7403   2.558   4.049   3.582
 2466TIP3    H1 7404   2.535   3.969   3.628
 2466TIP3    H2 7405   2.633   4.084   3.631
 2467TIP3   OH2 7406   0.078   1.503   2.429
 2467TIP3    H1 7407   0.116   1.498   2.517
 2467TIP3    H2 7408   0.060   1.597   2.417
 2468TIP3   OH2 7409   4.907   1.161   0.823
 2468TIP3    H1 7410   4.828   1.181   0.872
 2468TIP3    H2 7411   4.954   1.244   0.818
 2469TIP3   OH2 7412   1.644   0.893   2.547
 2469TIP3    H1 7413   1.739   0.901   2.535
 2469TIP3    H2 7414   1.606   0.937   2.470
 2470TIP3   OH2 7415   3.622   0.959   1.132
 2470TIP3    H1 7416   3.605   0.866   1.117
 2470TIP3    H2 7417   3.717   0.967   1.135
 2471TIP3   OH2 7418   2.767   5.987   0.462
 2471TIP3    H1 7419   2.771   5.923   0.534
 2471TIP3    H2 7420   2.855   5.984   0.423
 2472TIP3   OH2 7421   1.261   1.678   0.203
 2472TIP3    H1 7422   1.231   1.699   0.115
 2472TIP3    H2 7423   1.295   1.761   0.238
 2473TIP3   OH2 7424   5.425   4.741   3.107
 2473TIP3    H1 7425   5.350   4.706   3.059
 2473TIP3    H2 7426   5.471   4.797   3.044
 2474TIP3   OH2 7427   4.247   0.649   2.675
 2474TIP3    H1 7428   4.319   0.590   2.654
 2474TIP3    H2 7429   4.169   0.594   2.675
 2475TIP3   OH2 7430   4.316   2.078   4.790
 2475TIP3    H1 7431   4.339   2.166   4.763
 2475TIP3    H2 7432   4.220   2.079   4.797
 2476TIP3   OH2 7433   2.546   4.153   0.497
 2476TIP3    H1 7434   2.594   4.187   0.422
 2476TIP3    H2 7435   2.614   4.132   0.562
 2477TIP3   OH2 7436   2.052   5.262   2.174
 2477TIP3    H1 7437   2.121   5.315   2.214
 2477TIP3    H2 7438   2.067   5.270   2.080
 2478TIP3   OH2 7439   1.465   3.707   1.093
 2478TIP3    H1 7440   1.523   3.664   1.030
 2478TIP3    H2 7441   1.505   3.689   1.179
 2479TIP3   OH2 7442   2.889   3.900   2.124
 2479TIP3    H1 7443   2.802   3.867   2.100
 2479TIP3    H2 7444   2.898   3.877   2.217
 2480TIP3   OH2 7445   1.511   4.543   2.637
 2480TIP3    H1 7446   1.562   4.508   2.710
 2480TIP3    H2 7447   1.495   4.635   2.661
 2481TIP3   OH2 7448   6.031   5.803   0.860
 2481TIP3    H1 7449   6.107   5.860   0.873
 2481TIP3    H2 7450   5.963   5.862   0.826
 2482TIP3   OH2 7451   2.318   0.077   1.494
 2482TIP3    H1 7452   2.284   0.154   1.539
 2482TIP3    H2 7453   2.249   0.053   1.432
 2483TIP3   OH2 7454   0.158   0.302   5.077
 2483TIP3    H1 7455   0.080   0.357   5.073
 2483TIP3    H2 7456   0.144   0.236   5.009
 2484TIP3   OH2 7457   5.514   3.779   0.136
 2484TIP3    H1 7458   5.424   3.784   0.105
 2484TIP3    H2 7459   5.526   3.859   0.189
 2485TIP3   OH2 7460   2.067   5.440   1.425
 2485TIP3    H1 7461   2.146   5.387   1.442
 2485TIP3    H2 7462   2.101   5.526   1.400
 2486TIP3   OH2 7463   3.328   5.809   3.442
 2486TIP3    H1 7464   3.306   5.717   3.429
 2486TIP3    H2 7465   3.412   5.808   3.488
 2487TIP3   OH2 7466   0.272   4.159   0.087
 2487TIP3    H1 7467   0.185   4.198   0.096
 2487TIP3    H2 7468   0.316   4.214   0.022
 2488TIP3   OH2 7469   5.854   2.570   0.980
 2488TIP3    H1 7470   5.881   2.584   1.071
 2488TIP3    H2 7471   5.925   2.518   0.942
 2489TIP3   OH2 7472   0.495   3.347   4.590
 2489TIP3    H1 7473   0.590   3.342   4.600
 2489TIP3    H2 7474   0.481   3.429   4.541
 2490TIP3   OH2 7475   5.760   0.414   2.281
 2490TIP3    H1 7476   5.737   0.453   2.197
 2490TIP3    H2 7477   5.820   0.343   2.259
 2491TIP3   OH2 7478   2.887   4.251   3.994
 2491TIP3    H1 7479   2.923   4.221   4.077
 2491TIP3    H2 7480   2.947   4.321   3.966
 2492TIP3   OH2 7481   4.185   0.400   0.234
 2492TIP3    H1 7482   4.261   0.367   0.184
 2492TIP3    H2 7483   4.222   0.469   0.289
 2493TIP3   OH2 7484   1.767   1.211   1.138
 2493TIP3    H1 7485   1.815   1.287   1.106
 2493TIP3    H2 7486   1.805   1.191   1.224
 2494TIP3   OH2 7487   3.196   4.682   0.386
 2494TIP3    H1 7488   3.120   4.712   0.436
 2494TIP3    H2 7489   3.261   4.751   0.398
 2495TIP3   OH2 7490   5.988   4.852   2.581
 2495TIP3    H1 7491   5.895   4.874   2.572
 2495TIP3    H2 7492   5.989   4.759   2.602
 2496TIP3   OH2 7493   5.309   1.128   5.035
 2496TIP3    H1 7494   5.320   1.047   4.986
 2496TIP3    H2 7495   5.217   1.152   5.022
 2497TIP3   OH2 7496   4.504   2.670   2.652
 2497TIP3    H1 7497   4.437   2.733   2.677
 2497TIP3    H2 7498   4.469   2.627   2.574
 2498TIP3   OH2 7499   3.701   1.370   4.677
 2498TIP3    H1 7500   3.782   1.360   4.627
 2498TIP3    H2 7501   3.725   1.427   4.750
 2499TIP3   OH2 7502   1.268   1.040   2.244
 2499TIP3    H1 7503   1.325   1.067   2.172
 2499TIP3    H2 7504   1.185   1.017   2.202
 2500TIP3   OH2 7505   2.557   5.056   1.913
 2500TIP3    H1 7506   2.649   5.039   1.890
 2500TIP3    H2 7507   2.562   5.110   1.992
 2501TIP3   OH2 7508   1.888   3.847   4.402
 2501TIP3    H1 7509   1.928   3.911   4.342
 2501TIP3    H2 7510   1.911   3.880   4.489
 2502TIP3   OH2 7511   5.253   2.671   1.349
 2502TIP3    H1 7512   5.244   2.696   1.441
 2502TIP3    H2 7513   5.337   2.709   1.322
 2503TIP3   OH2 7514   3.918   2.027   3.868
 2503TIP3    H1 7515   3.909   1.956   3.931
 2503TIP3    H2 7516   3.891   2.105   3.916
 2504TIP3   OH2 7517   0.334   5.662   3.545
 2504TIP3    H1 7518   0.306   5.709   3.624
 2504TIP3    H2 7519   0.425   5.638   3.563
 2505TIP3   OH2 7520   6.048   3.555   3.971
 2505TIP3    H1 7521   6.113   3.582   4.036
 2505TIP3    H2 7522   5.980   3.622   3.975
 2506TIP3   OH2 7523   6.190   0.972   0.071
 2506TIP3    H1 7524   6.246   0.912   0.121
 2506TIP3    H2 7525   6.106   0.972   0.117
 2507TIP3   OH2 7526   2.642   4.433   1.613
 2507TIP3    H1 7527   2.668   4.341   1.620
 2507TIP3    H2 7528   2.547   4.432   1.625
 2508TIP3   OH2 7529   0.175   0.633   1.424
 2508TIP3    H1 7530   0.121   0.592   1.357
 2508TIP3    H2 7531   0.264   0.626   1.390
 2509TIP3   OH2 7532   2.401   4.748   2.890
 2509TIP3    H1 7533   2.318   4.724   2.932
 2509TIP3    H2 7534   2.380   4.759   2.798
 2510TIP3   OH2 7535   2.353   2.131   0.260
 2510TIP3    H1 7536   2.304   2.130   0.342
 2510TIP3    H2 7537   2.316   2.059   0.209
 2511TIP3   OH2 7538   2.862   2.486   2.612
 2511TIP3    H1 7539   2.904   2.402   2.592
 2511TIP3    H2 7540   2.828   2.476   2.701
 2512TIP3   OH2 7541   3.703   5.039   0.450
 2512TIP3    H1 7542   3.630   5.060   0.508
 2512TIP3    H2 7543   3.754   5.120   0.445
 2513TIP3   OH2 7544   1.686   3.667   3.235
 2513TIP3    H1 7545   1.775   3.681   3.267
 2513TIP3    H2 7546   1.641   3.749   3.254
 2514TIP3   OH2 7547   5.609   0.805   5.055
 2514TIP3    H1 7548   5.575   0.771   4.972
 2514TIP3    H2 7549   5.613   0.728   5.113
 2515TIP3   OH2 7550   4.262   1.791   0.321
 2515TIP3    H1 7551   4.301   1.711   0.355
 2515TIP3    H2 7552   4.328   1.827   0.263
 2516TIP3   OH2 7553   0.842   1.419   0.965
 2516TIP3    H1 7554   0.772   1.444   1.025
 2516TIP3    H2 7555   0.913   1.389   1.022
 2517TIP3   OH2 7556   1.851   1.217   3.767
 2517TIP3    H1 7557   1.782   1.165   3.726
 2517TIP3    H2 7558   1.928   1.204   3.711
 2518TIP3   OH2 7559   2.670   3.175   4.253
 2518TIP3    H1 7560   2.612   3.230   4.306
 2518TIP3    H2 7561   2.627   3.171   4.167
 2519TIP3   OH2 7562   2.863   1.879   0.902
 2519TIP3    H1 7563   2.878   1.917   0.989
 2519TIP3    H2 7564   2.786   1.925   0.869
 2520TIP3   OH2 7565   1.529   0.625   3.962
 2520TIP3    H1 7566   1.611   0.627   3.913
 2520TIP3    H2 7567   1.544   0.562   4.032
 2521TIP3   OH2 7568   1.129   4.557   4.822
 2521TIP3    H1 7569   1.200   4.599   4.774
 2521TIP3    H2 7570   1.053   4.615   4.808
 2522TIP3   OH2 7571   4.643   5.693   4.451
 2522TIP3    H1 7572   4.737   5.692   4.432
 2522TIP3    H2 7573   4.638   5.686   4.547
 2523TIP3   OH2 7574   3.189   1.343   5.089
 2523TIP3    H1 7575   3.254   1.369   5.155
 2523TIP3    H2 7576   3.232   1.362   5.006
 2524TIP3   OH2 7577   5.944   4.318   2.658
 2524TIP3    H1 7578   5.950   4.258   2.733
 2524TIP3    H2 7579   5.852   4.341   2.654
 2525TIP3   OH2 7580   1.417   0.537   2.993
 2525TIP3    H1 7581   1.446   0.600   2.927
 2525TIP3    H2 7582   1.426   0.583   3.076
 2526TIP3   OH2 7583   1.631   5.535   0.215
 2526TIP3    H1 7584   1.684   5.597   0.167
 2526TIP3    H2 7585   1.544   5.541   0.175
 2527TIP3   OH2 7586   2.297   3.339   3.468
 2527TIP3    H1 7587   2.359   3.268   3.446
 2527TIP3    H2 7588   2.243   3.348   3.390
 2528TIP3   OH2 7589   3.488   4.065   3.619
 2528TIP3    H1 7590   3.420   4.094   3.559
 2528TIP3    H2 7591   3.570   4.088   3.575
 2529TIP3   OH2 7592   3.186   3.864   0.117
 2529TIP3    H1 7593   3.272   3.826   0.134
 2529TIP3    H2 7594   3.150   3.881   0.204
 2530TIP3   OH2 7595   1.929   2.998   0.338
 2530TIP3    H1 7596   2.020   3.027   0.344
 2530TIP3    H2 7597   1.894   3.045   0.262
 2531TIP3   OH2 7598   1.778   0.495   2.774
 2531TIP3    H1 7599   1.845   0.515   2.709
 2531TIP3    H2 7600   1.695   0.502   2.725
 2532TIP3   OH2 7601   0.543   1.020   4.884
 2532TIP3    H1 7602   0.549   0.989   4.974
 2532TIP3    H2 7603   0.469   0.971   4.847
 2533TIP3   OH2 7604   0.762   5.461   4.597
 2533TIP3    H1 7605   0.761   5.532   4.532
 2533TIP3    H2 7606   0.676   5.419   4.587
 2534TIP3   OH2 7607   5.285   1.133   0.701
 2534TIP3    H1 7608   5.258   1.217   0.665
 2534TIP3    H2 7609   5.359   1.106   0.647
 2535TIP3   OH2 7610   3.986   2.358   5.135
 2535TIP3    H1 7611   3.921   2.362   5.065
 2535TIP3    H2 7612   3.996   2.449   5.164
 2536TIP3   OH2 7613   2.451   0.451   1.254
 2536TIP3    H1 7614   2.527   0.505   1.231
 2536TIP3    H2 7615   2.450   0.451   1.350
 2537TIP3   OH2 7616   4.716   1.545   1.718
 2537TIP3    H1 7617   4.675   1.499   1.792
 2537TIP3    H2 7618   4.698   1.637   1.734
 2538TIP3   OH2 7619   2.389   4.884   0.840
 2538TIP3    H1 7620   2.365   4.912   0.752
 2538TIP3    H2 7621   2.345   4.947   0.898
 2539TIP3   OH2 7622   5.195   1.159   2.780
 2539TIP3    H1 7623   5.127   1.092   2.772
 2539TIP3    H2 7624   5.257   1.139   2.711
 2540TIP3   OH2 7625   1.701   1.047   4.417
 2540TIP3    H1 7626   1.667   0.993   4.346
 2540TIP3    H2 7627   1.629   1.105   4.440
 2541TIP3   OH2 7628   3.042   0.294   1.322
 2541TIP3    H1 7629   2.948   0.303   1.305
 2541TIP3    H2 7630   3.083   0.361   1.268
 2542TIP3   OH2 7631   1.736   3.720   2.917
 2542TIP3    H1 7632   1.705   3.781   2.983
 2542TIP3    H2 7633   1.695   3.636   2.941
 2543TIP3   OH2 7634   5.163   2.308   3.954
 2543TIP3    H1 7635   5.240   2.313   4.009
 2543TIP3    H2 7636   5.175   2.379   3.890
 2544TIP3   OH2 7637   3.073   4.399   3.455
 2544TIP3    H1 7638   3.108   4.354   3.378
 2544TIP3    H2 7639   3.120   4.483   3.458
 2545TIP3   OH2 7640   0.535   3.636   0.397
 2545TIP3    H1 7641   0.495   3.723   0.389
 2545TIP3    H2 7642   0.462   3.577   0.413
 2546TIP3   OH2 7643   0.801   2.379   3.455
 2546TIP3    H1 7644   0.773   2.468   3.478
 2546TIP3    H2 7645   0.719   2.333   3.436
 2547TIP3   OH2 7646   3.432   3.744   0.102
 2547TIP3    H1 7647   3.426   3.788   0.017
 2547TIP3    H2 7648   3.524   3.723   0.112
 2548TIP3   OH2 7649   6.212   0.619   4.783
 2548TIP3    H1 7650   6.139   0.663   4.739
 2548TIP3    H2 7651   6.239   0.550   4.722
 2549TIP3   OH2 7652   1.608   5.263   0.217
 2549TIP3    H1 7653   1.520   5.240   0.189
 2549TIP3    H2 7654   1.611   5.358   0.212
 2550TIP3   OH2 7655   6.203   5.243   4.815
 2550TIP3    H1 7656   6.190   5.150   4.799
 2550TIP3    H2 7657   6.290   5.262   4.779
 2551TIP3   OH2 7658   4.111   0.191   3.793
 2551TIP3    H1 7659   4.129   0.115   3.738
 2551TIP3    H2 7660   4.184   0.195   3.855
 2552TIP3   OH2 7661   3.406   0.157   0.228
 2552TIP3    H1 7662   3.429   0.072   0.265
 2552TIP3    H2 7663   3.487   0.189   0.189
 2553TIP3   OH2 7664   3.500   5.882   5.128
 2553TIP3    H1 7665   3.431   5.944   5.109
 2553TIP3    H2 7666   3.572   5.907   5.070
 2554TIP3   OH2 7667   0.624   4.829   1.541
 2554TIP3    H1 7668   0.636   4.750   1.488
 2554TIP3    H2 7669   0.619   4.797   1.631
 2555TIP3   OH2 7670   0.659   3.932   0.306
 2555TIP3    H1 7671   0.586   3.879   0.338
 2555TIP3    H2 7672   0.618   4.011   0.270
 2556TIP3   OH2 7673   5.977   5.250   2.056
 2556TIP3    H1 7674   5.965   5.164   2.095
 2556TIP3    H2 7675   6.053   5.286   2.100
 2557TIP3   OH2 7676   1.826   3.944   2.209
 2557TIP3    H1 7677   1.908   3.919   2.167
 2557TIP3    H2 7678   1.851   4.012   2.271
 2558TIP3   OH2 7679   5.187   1.707   1.619
 2558TIP3    H1 7680   5.138   1.752   1.688
 2558TIP3    H2 7681   5.136   1.721   1.540
 2559TIP3   OH2 7682   6.052   0.891   2.029
 2559TIP3    H1 7683   6.128   0.933   2.070
 2559TIP3    H2 7684   6.056   0.920   1.937
 2560TIP3   OH2 7685   0.826   2.979   1.813
 2560TIP3    H1 7686   0.774   3.026   1.748
 2560TIP3    H2 7687   0.842   3.042   1.883
 2561TIP3   OH2 7688   5.545   5.949   0.942
 2561TIP3    H1 7689   5.512   6.017   0.883
 2561TIP3    H2 7690   5.592   5.996   1.010
 2562TIP3   OH2 7691   3.812   2.427   3.365
 2562TIP3    H1 7692   3.825   2.376   3.285
 2562TIP3    H2 7693   3.758   2.371   3.421
 2563TIP3   OH2 7694   4.381   1.396   2.513
 2563TIP3    H1 7695   4.385   1.416   2.420
 2563TIP3    H2 7696   4.423   1.310   2.521
 2564TIP3   OH2 7697   3.783   4.583   3.451
 2564TIP3    H1 7698   3.743   4.669   3.439
 2564TIP3    H2 7699   3.711   4.521   3.438
 2565TIP3   OH2 7700   0.792   2.214   0.604
 2565TIP3    H1 7701   0.766   2.302   0.631
 2565TIP3    H2 7702   0.716   2.179   0.558
 2566TIP3   OH2 7703   3.777   0.501   4.406
 2566TIP3    H1 7704   3.734   0.427   4.449
 2566TIP3    H2 7705   3.851   0.461   4.359
 2567TIP3   OH2 7706   3.729   0.733   3.657
 2567TIP3    H1 7707   3.747   0.665   3.722
 2567TIP3    H2 7708   3.816   0.762   3.629
 2568TIP3   OH2 7709   2.540   2.842   4.404
 2568TIP3    H1 7710   2.553   2.808   4.493
 2568TIP3    H2 7711   2.608   2.909   4.394
 2569TIP3   OH2 7712   5.164   4.349   3.854
 2569TIP3    H1 7713   5.156   4.439   3.823
 2569TIP3    H2 7714   5.251   4.322   3.827
 2570TIP3   OH2 7715   5.986   0.325   4.229
 2570TIP3    H1 7716   6.015   0.272   4.303
 2570TIP3    H2 7717   5.901   0.288   4.205
 2571TIP3   OH2 7718   1.248   4.845   3.212
 2571TIP3    H1 7719   1.217   4.929   3.246
 2571TIP3    H2 7720   1.323   4.868   3.156
 2572TIP3   OH2 7721   0.321   2.880   3.263
 2572TIP3    H1 7722   0.336   2.854   3.354
 2572TIP3    H2 7723   0.388   2.833   3.214
 2573TIP3   OH2 7724   5.416   0.138   1.073
 2573TIP3    H1 7725   5.363   0.198   1.021
 2573TIP3    H2 7726   5.420   0.058   1.020
 2574TIP3   OH2 7727   6.128   5.195   1.328
 2574TIP3    H1 7728   6.051   5.203   1.384
 2574TIP3    H2 7729   6.110   5.118   1.274
 2575TIP3   OH2 7730   0.906   4.710   3.449
 2575TIP3    H1 7731   0.846   4.647   3.489
 2575TIP3    H2 7732   0.953   4.750   3.523
 2576TIP3   OH2 7733   4.462   1.956   1.673
 2576TIP3    H1 7734   4.411   1.893   1.622
 2576TIP3    H2 7735   4.399   2.024   1.697
 2577TIP3   OH2 7736   2.546   1.574   5.159
 2577TIP3    H1 7737   2.550   1.665   5.186
 2577TIP3    H2 7738   2.460   1.544   5.190
 2578TIP3   OH2 7739   3.335   3.088   0.075
 2578TIP3    H1 7740   3.288   3.005   0.066
 2578TIP3    H2 7741   3.266   3.154   0.083
 2579TIP3   OH2 7742   1.092   2.850   0.272
 2579TIP3    H1 7743   1.009   2.884   0.305
 2579TIP3    H2 7744   1.157   2.913   0.302
 2580TIP3   OH2 7745   4.436   2.854   1.925
 2580TIP3    H1 7746   4.396   2.774   1.890
 2580TIP3    H2 7747   4.498   2.824   1.991
 2581TIP3   OH2 7748   4.429   0.917   2.365
 2581TIP3    H1 7749   4.431   0.932   2.459
 2581TIP3    H2 7750   4.519   0.929   2.336
 2582TIP3   OH2 7751   0.033   2.086   4.877
 2582TIP3    H1 7752  -0.048   2.057   4.918
 2582TIP3    H2 7753   0.041   2.032   4.798
 2583TIP3   OH2 7754   4.187   3.576   4.350
 2583TIP3    H1 7755   4.177   3.500   4.408
 2583TIP3    H2 7756   4.130   3.558   4.276
 2584TIP3   OH2 7757   3.243   1.595   2.155
 2584TIP3    H1 7758   3.210   1.656   2.220
 2584TIP3    H2 7759   3.308   1.542   2.202
 2585TIP3   OH2 7760   3.835   4.068   5.003
 2585TIP3    H1 7761   3.754   4.087   5.050
 2585TIP3    H2 7762   3.866   3.985   5.040
 2586TIP3   OH2 7763   4.627   1.366   1.933
 2586TIP3    H1 7764   4.649   1.401   2.020
 2586TIP3    H2 7765   4.644   1.272   1.940
 2587TIP3   OH2 7766   4.382   2.712   1.049
 2587TIP3    H1 7767   4.469   2.687   1.019
 2587TIP3    H2 7768   4.391   2.804   1.076
 2588TIP3   OH2 7769   4.873   0.240   2.417
 2588TIP3    H1 7770   4.959   0.250   2.457
 2588TIP3    H2 7771   4.847   0.330   2.394
 2589TIP3   OH2 7772   2.381   3.786   5.094
 2589TIP3    H1 7773   2.343   3.847   5.158
 2589TIP3    H2 7774   2.442   3.840   5.044
 2590TIP3   OH2 7775   2.181   2.087   4.345
 2590TIP3    H1 7776   2.263   2.106   4.298
 2590TIP3    H2 7777   2.209   2.056   4.431
 2591TIP3   OH2 7778   2.156   1.178   4.669
 2591TIP3    H1 7779   2.126   1.165   4.580
 2591TIP3    H2 7780   2.103   1.118   4.722
 2592TIP3   OH2 7781   1.888   5.284   0.779
 2592TIP3    H1 7782   1.956   5.219   0.798
 2592TIP3    H2 7783   1.893   5.297   0.684
 2593TIP3   OH2 7784   4.957   0.290   3.220
 2593TIP3    H1 7785   4.973   0.199   3.196
 2593TIP3    H2 7786   4.979   0.295   3.313
 2594TIP3   OH2 7787   1.299   4.014   3.670
 2594TIP3    H1 7788   1.392   4.033   3.658
 2594TIP3    H2 7789   1.262   4.021   3.582
 2595TIP3   OH2 7790   3.352   4.434   5.158
 2595TIP3    H1 7791   3.319   4.523   5.154
 2595TIP3    H2 7792   3.275   4.379   5.147
 2596TIP3   OH2 7793   5.138   3.606   3.182
 2596TIP3    H1 7794   5.136   3.697   3.152
 2596TIP3    H2 7795   5.184   3.610   3.266
 2597TIP3   OH2 7796   3.460   2.472   0.328
 2597TIP3    H1 7797   3.528   2.406   0.340
 2597TIP3    H2 7798   3.479   2.539   0.394
 2598TIP3   OH2 7799   6.156   2.856   5.158
 2598TIP3    H1 7800   6.201   2.933   5.194
 2598TIP3    H2 7801   6.227   2.801   5.124
 2599TIP3   OH2 7802   5.666   5.057   4.712
 2599TIP3    H1 7803   5.731   5.127   4.708
 2599TIP3    H2 7804   5.628   5.064   4.799
 2600TIP3   OH2 7805   2.407   5.766   3.724
 2600TIP3    H1 7806   2.482   5.706   3.730
 2600TIP3    H2 7807   2.441   5.841   3.675
 2601TIP3   OH2 7808   2.961   3.177   3.547
 2601TIP3    H1 7809   2.925   3.137   3.468
 2601TIP3    H2 7810   3.045   3.133   3.560
 2602TIP3   OH2 7811   2.373  -0.019   4.241
 2602TIP3    H1 7812   2.406   0.070   4.229
 2602TIP3    H2 7813   2.301  -0.010   4.304
 2603TIP3   OH2 7814   3.783   0.163   2.262
 2603TIP3    H1 7815   3.849   0.225   2.232
 2603TIP3    H2 7816   3.719   0.160   2.192
 2604TIP3   OH2 7817   5.707   2.364   3.994
 2604TIP3    H1 7818   5.737   2.388   4.082
 2604TIP3    H2 7819   5.761   2.416   3.935
 2605TIP3   OH2 7820   3.335   0.250   4.950
 2605TIP3    H1 7821   3.251   0.291   4.933
 2605TIP3    H2 7822   3.397   0.299   4.896
 2606TIP3   OH2 7823   4.360   3.740   3.054
 2606TIP3    H1 7824   4.348   3.707   2.966
 2606TIP3    H2 7825   4.317   3.675   3.110
 2607TIP3   OH2 7826   5.243   1.602   4.395
 2607TIP3    H1 7827   5.238   1.674   4.332
 2607TIP3    H2 7828   5.208   1.527   4.348
 2608TIP3   OH2 7829   2.085   4.459   4.653
 2608TIP3    H1 7830   2.105   4.530   4.714
 2608TIP3    H2 7831   2.082   4.381   4.708
 2609TIP3   OH2 7832   4.012   5.016   0.935
 2609TIP3    H1 7833   4.101   4.981   0.936
 2609TIP3    H2 7834   4.011   5.081   1.005
 2610TIP3   OH2 7835   4.720   3.737   1.622
 2610TIP3    H1 7836   4.815   3.743   1.637
 2610TIP3    H2 7837   4.688   3.683   1.694
 2611TIP3   OH2 7838   1.501   0.735   3.568
 2611TIP3    H1 7839   1.583   0.765   3.528
 2611TIP3    H2 7840   1.439   0.734   3.495
 2612TIP3   OH2 7841   6.348   2.944   1.965
 2612TIP3    H1 7842   6.265   2.928   1.921
 2612TIP3    H2 7843   6.411   2.888   1.920
 2613TIP3   OH2 7844   1.023   0.165   1.640
 2613TIP3    H1 7845   0.980   0.098   1.694
 2613TIP3    H2 7846   1.112   0.132   1.627
 2614TIP3   OH2 7847   5.603   5.428   0.401
 2614TIP3    H1 7848   5.687   5.469   0.382
 2614TIP3    H2 7849   5.624   5.358   0.464
 2615TIP3   OH2 7850   6.157   5.233   0.892
 2615TIP3    H1 7851   6.231   5.236   0.830
 2615TIP3    H2 7852   6.185   5.289   0.964
 2616TIP3   OH2 7853   2.651   3.201   1.625
 2616TIP3    H1 7854   2.718   3.153   1.576
 2616TIP3    H2 7855   2.610   3.135   1.680
 2617TIP3   OH2 7856   1.173   1.567   0.743
 2617TIP3    H1 7857   1.233   1.540   0.813
 2617TIP3    H2 7858   1.209   1.527   0.664
 2618TIP3   OH2 7859   4.936   3.694   3.509
 2618TIP3    H1 7860   4.872   3.729   3.571
 2618TIP3    H2 7861   5.003   3.762   3.503
 2619TIP3   OH2 7862   5.977   5.830   0.324
 2619TIP3    H1 7863   5.995   5.848   0.417
 2619TIP3    H2 7864   6.063   5.810   0.287
 2620TIP3   OH2 7865   5.752   0.965   4.559
 2620TIP3    H1 7866   5.666   0.982   4.599
 2620TIP3    H2 7867   5.815   0.988   4.627
 2621TIP3   OH2 7868   4.966   0.337   1.976
 2621TIP3    H1 7869   5.045   0.354   1.925
 2621TIP3    H2 7870   4.989   0.364   2.065
 2622TIP3   OH2 7871   3.553   1.216   0.374
 2622TIP3    H1 7872   3.627   1.273   0.349
 2622TIP3    H2 7873   3.520   1.183   0.291
 2623TIP3   OH2 7874   1.290   3.114   0.990
 2623TIP3    H1 7875   1.250   3.111   1.077
 2623TIP3    H2 7876   1.274   3.204   0.960
 2624TIP3   OH2 7877   0.087   1.964   4.642
 2624TIP3    H1 7878   0.104   2.041   4.588
 2624TIP3    H2 7879   0.138   1.894   4.601
 2625TIP3   OH2 7880   3.914   0.350   2.482
 2625TIP3    H1 7881   3.951   0.421   2.430
 2625TIP3    H2 7882   3.958   0.271   2.449
 2626TIP3   OH2 7883   2.000   1.129   4.470
 2626TIP3    H1 7884   2.030   1.069   4.402
 2626TIP3    H2 7885   1.918   1.090   4.501
 2627TIP3   OH2 7886   3.087   1.099   4.658
 2627TIP3    H1 7887   3.034   1.088   4.737
 2627TIP3    H2 7888   3.040   1.049   4.591
 2628TIP3   OH2 7889   3.700   2.429   4.246
 2628TIP3    H1 7890   3.712   2.375   4.324
 2628TIP3    H2 7891   3.694   2.518   4.280
 2629TIP3   OH2 7892   1.596   2.790   0.231
 2629TIP3    H1 7893   1.508   2.752   0.222
 2629TIP3    H2 7894   1.592   2.841   0.312
 2630TIP3   OH2 7895   1.836   1.867   3.573
 2630TIP3    H1 7896   1.897   1.941   3.569
 2630TIP3    H2 7897   1.750   1.907   3.577
 2631TIP3   OH2 7898   4.171   3.591   3.504
 2631TIP3    H1 7899   4.133   3.678   3.496
 2631TIP3    H2 7900   4.120   3.537   3.443
 2632TIP3   OH2 7901   5.866   3.766   5.048
 2632TIP3    H1 7902   5.793   3.706   5.066
 2632TIP3    H2 7903   5.911   3.775   5.132
 2633TIP3   OH2 7904   4.439   0.032   1.486
 2633TIP3    H1 7905   4.446  -0.064   1.493
 2633TIP3    H2 7906   4.493   0.066   1.557
 2634TIP3   OH2 7907   0.306   3.847   3.044
 2634TIP3    H1 7908   0.217   3.849   3.007
 2634TIP3    H2 7909   0.364   3.844   2.968
 2635TIP3   OH2 7910   0.641   3.970   2.179
 2635TIP3    H1 7911   0.693   3.906   2.131
 2635TIP3    H2 7912   0.600   4.023   2.111
 2636TIP3   OH2 7913   4.278   1.405   0.632
 2636TIP3    H1 7914   4.370   1.430   0.635
 2636TIP3    H2 7915   4.236   1.462   0.697
 2637TIP3   OH2 7916   5.764   5.567   0.147
 2637TIP3    H1 7917   5.843   5.590   0.195
 2637TIP3    H2 7918   5.769   5.472   0.136
 2638TIP3   OH2 7919   4.573   3.777   4.149
 2638TIP3    H1 7920   4.553   3.758   4.057
 2638TIP3    H2 7921   4.584   3.872   4.153
 2639TIP3   OH2 7922   5.080   5.218   5.048
 2639TIP3    H1 7923   5.067   5.140   5.103
 2639TIP3    H2 7924   5.173   5.214   5.024
 2640TIP3   OH2 7925   6.005   5.173   0.519
 2640TIP3    H1 7926   6.095   5.183   0.489
 2640TIP3    H2 7927   5.952   5.179   0.440
 2641TIP3   OH2 7928   4.357   1.332   4.914
 2641TIP3    H1 7929   4.330   1.422   4.931
 2641TIP3    H2 7930   4.447   1.340   4.882
 2642TIP3   OH2 7931   4.633   0.020   4.302
 2642TIP3    H1 7932   4.689   0.068   4.363
 2642TIP3    H2 7933   4.546   0.056   4.316
 2643TIP3   OH2 7934   1.637   1.229   2.284
 2643TIP3    H1 7935   1.575   1.297   2.258
 2643TIP3    H2 7936   1.686   1.210   2.205
 2644TIP3   OH2 7937   1.075   1.095   2.816
 2644TIP3    H1 7938   1.154   1.111   2.868
 2644TIP3    H2 7939   1.099   1.121   2.727
 2645TIP3   OH2 7940   5.148   1.374   2.948
 2645TIP3    H1 7941   5.091   1.338   3.016
 2645TIP3    H2 7942   5.161   1.302   2.887
 2646TIP3   OH2 7943   5.378   3.058   2.993
 2646TIP3    H1 7944   5.332   3.084   2.913
 2646TIP3    H2 7945   5.459   3.017   2.963
 2647TIP3   OH2 7946   1.711   0.880   3.452
 2647TIP3    H1 7947   1.696   0.975   3.458
 2647TIP3    H2 7948   1.759   0.869   3.370
 2648TIP3   OH2 7949   2.975   3.541   0.909
 2648TIP3    H1 7950   2.934   3.587   0.982
 2648TIP3    H2 7951   2.996   3.454   0.943
 2649TIP3   OH2 7952   0.330   3.133   5.089
 2649TIP3    H1 7953   0.386   3.123   5.166
 2649TIP3    H2 7954   0.387   3.169   5.022
 2650TIP3   OH2 7955   6.180   4.469   0.943
 2650TIP3    H1 7956   6.170   4.380   0.975
 2650TIP3    H2 7957   6.091   4.498   0.923
 2651TIP3   OH2 7958   0.437   3.476   3.548
 2651TIP3    H1 7959   0.355   3.524   3.544
 2651TIP3    H2 7960   0.442   3.443   3.637
 2652TIP3   OH2 7961   5.232   5.855   3.155
 2652TIP3    H1 7962   5.218   5.767   3.122
 2652TIP3    H2 7963   5.310   5.887   3.109
 2653TIP3   OH2 7964   2.072   0.862   2.119
 2653TIP3    H1 7965   2.162   0.865   2.150
 2653TIP3    H2 7966   2.058   0.771   2.094
 2654TIP3   OH2 7967   3.158   4.985   1.820
 2654TIP3    H1 7968   3.188   4.931   1.747
 2654TIP3    H2 7969   3.233   4.989   1.879
 2655TIP3   OH2 7970   5.262   2.955   3.631
 2655TIP3    H1 7971   5.281   3.043   3.665
 2655TIP3    H2 7972   5.173   2.936   3.661
 2656TIP3   OH2 7973   4.605   3.903   3.451
 2656TIP3    H1 7974   4.568   3.843   3.515
 2656TIP3    H2 7975   4.693   3.923   3.483
 2657TIP3   OH2 7976   2.987   0.775   0.856
 2657TIP3    H1 7977   2.910   0.785   0.800
 2657TIP3    H2 7978   3.058   0.755   0.795
 2658TIP3   OH2 7979   0.789   2.655   3.761
 2658TIP3    H1 7980   0.722   2.650   3.829
 2658TIP3    H2 7981   0.739   2.663   3.679
 2659TIP3   OH2 7982   4.028   4.208   3.503
 2659TIP3    H1 7983   4.035   4.286   3.559
 2659TIP3    H2 7984   4.095   4.149   3.536
 2660TIP3   OH2 7985   0.042   1.930   2.041
 2660TIP3    H1 7986   0.128   1.914   2.080
 2660TIP3    H2 7987   0.057   1.924   1.947
 2661TIP3   OH2 7988   6.119   5.587   2.307
 2661TIP3    H1 7989   6.044   5.561   2.361
 2661TIP3    H2 7990   6.158   5.661   2.354
 2662TIP3   OH2 7991   0.010   4.215   2.409
 2662TIP3    H1 7992  -0.002   4.303   2.376
 2662TIP3    H2 7993   0.061   4.171   2.342
 2663TIP3   OH2 7994   3.390   2.106   0.448
 2663TIP3    H1 7995   3.433   2.166   0.386
 2663TIP3    H2 7996   3.370   2.160   0.524
 2664TIP3   OH2 7997   4.653   5.237   4.582
 2664TIP3    H1 7998   4.561   5.230   4.607
 2664TIP3    H2 7999   4.688   5.309   4.635
 2665TIP3   OH2 8000   0.936   0.701   4.044
 2665TIP3    H1 8001   0.976   0.728   3.962
 2665TIP3    H2 8002   0.956   0.772   4.105
 2666TIP3   OH2 8003   2.785   0.626   0.250
 2666TIP3    H1 8004   2.766   0.541   0.210
 2666TIP3    H2 8005   2.700   0.658   0.280
 2667TIP3   OH2 8006   4.133   0.160   4.207
 2667TIP3    H1 8007   4.050   0.160   4.158
 2667TIP3    H2 8008   4.192   0.212   4.153
 2668TIP3   OH2 8009   6.204   3.276   1.163
 2668TIP3    H1 8010   6.237   3.187   1.178
 2668TIP3    H2 8011   6.283   3.331   1.166
 2669TIP3   OH2 8012   5.041   5.443   4.902
 2669TIP3    H1 8013   5.002   5.468   4.818
 2669TIP3    H2 8014   5.047   5.348   4.900
 2670TIP3   OH2 8015   4.977   2.514   3.232
 2670TIP3    H1 8016   4.901   2.571   3.243
 2670TIP3    H2 8017   5.025   2.553   3.159
 2671TIP3   OH2 8018   1.964   2.245   4.515
 2671TIP3    H1 8019   1.922   2.316   4.563
 2671TIP3    H2 8020   2.005   2.287   4.440
 2672TIP3   OH2 8021   3.552   2.659   0.112
 2672TIP3    H1 8022   3.640   2.644   0.146
 2672TIP3    H2 8023   3.502   2.583   0.141
 2673TIP3   OH2 8024   3.595   0.511   1.595
 2673TIP3    H1 8025   3.532   0.485   1.528
 2673TIP3    H2 8026   3.549   0.576   1.648
 2674TIP3   OH2 8027   1.710   5.584   5.169
 2674TIP3    H1 8028   1.774   5.622   5.110
 2674TIP3    H2 8029   1.641   5.651   5.177
 2675TIP3   OH2 8030   3.458   1.940   3.421
 2675TIP3    H1 8031   3.489   1.919   3.333
 2675TIP3    H2 8032   3.366   1.964   3.409
 2676TIP3   OH2 8033   3.309   1.658   3.878
 2676TIP3    H1 8034   3.382   1.597   3.881
 2676TIP3    H2 8035   3.286   1.664   3.785
 2677TIP3   OH2 8036   4.406   3.379   2.000
 2677TIP3    H1 8037   4.415   3.350   1.909
 2677TIP3    H2 8038   4.326   3.431   2.001
 2678TIP3   OH2 8039   0.055   0.898   2.431
 2678TIP3    H1 8040   0.036   0.991   2.437
 2678TIP3    H2 8041   0.136   0.886   2.480
 2679TIP3   OH2 8042   3.330   0.568   4.586
 2679TIP3    H1 8043   3.384   0.554   4.664
 2679TIP3    H2 8044   3.260   0.503   4.593
 2680TIP3   OH2 8045   3.161   5.902   2.255
 2680TIP3    H1 8046   3.123   5.958   2.323
 2680TIP3    H2 8047   3.143   5.948   2.173
 2681TIP3   OH2 8048   1.205   3.352   4.670
 2681TIP3    H1 8049   1.124   3.316   4.705
 2681TIP3    H2 8050   1.254   3.276   4.638
 2682TIP3   OH2 8051   0.456  -0.006   2.807
 2682TIP3    H1 8052   0.386  -0.060   2.845
 2682TIP3    H2 8053   0.444   0.080   2.846
 2683TIP3   OH2 8054   3.172   3.048   0.970
 2683TIP3    H1 8055   3.194   2.983   1.037
 2683TIP3    H2 8056   3.257   3.075   0.934
 2684TIP3   OH2 8057   0.165   5.271   3.026
 2684TIP3    H1 8058   0.090   5.287   3.083
 2684TIP3    H2 8059   0.131   5.215   2.956
 2685TIP3   OH2 8060   4.733   4.796   0.684
 2685TIP3    H1 8061   4.770   4.881   0.661
 2685TIP3    H2 8062   4.771   4.735   0.621
 2686TIP3   OH2 8063   4.356   5.637   1.851
 2686TIP3    H1 8064   4.364   5.541   1.855
 2686TIP3    H2 8065   4.334   5.663   1.940
 2687TIP3   OH2 8066   4.910   5.375   2.599
 2687TIP3    H1 8067   4.876   5.438   2.536
 2687TIP3    H2 8068   5.005   5.376   2.586
 2688TIP3   OH2 8069   0.995   5.231   1.163
 2688TIP3    H1 8070   0.996   5.302   1.098
 2688TIP3    H2 8071   1.071   5.249   1.218
 2689TIP3   OH2 8072   1.593   5.982   1.528
 2689TIP3    H1 8073   1.531   5.909   1.525
 2689TIP3    H2 8074   1.543   6.056   1.493
 2690TIP3   OH2 8075   1.074   2.629   1.564
 2690TIP3    H1 8076   1.003   2.592   1.617
 2690TIP3    H2 8077   1.037   2.635   1.476
 2691TIP3   OH2 8078   0.454   5.466   4.243
 2691TIP3    H1 8079   0.414   5.553   4.249
 2691TIP3    H2 8080   0.415   5.427   4.164
 2692TIP3   OH2 8081   5.719   0.257   2.788
 2692TIP3    H1 8082   5.755   0.305   2.713
 2692TIP3    H2 8083   5.745   0.166   2.773
 2693TIP3   OH2 8084   5.515   5.446   2.848
 2693TIP3    H1 8085   5.567   5.453   2.929
 2693TIP3    H2 8086   5.449   5.515   2.856
 2694TIP3   OH2 8087   2.564   1.338   0.983
 2694TIP3    H1 8088   2.482   1.296   0.959
 2694TIP3    H2 8089   2.541   1.400   1.052
 2695TIP3   OH2 8090   5.169   4.188   2.668
 2695TIP3    H1 8091   5.249   4.138   2.656
 2695TIP3    H2 8092   5.123   4.180   2.585
 2696TIP3   OH2 8093   1.240   5.256   1.282
 2696TIP3    H1 8094   1.299   5.286   1.213
 2696TIP3    H2 8095   1.180   5.329   1.295
 2697TIP3   OH2 8096   3.885   2.866   1.377
 2697TIP3    H1 8097   3.884   2.929   1.305
 2697TIP3    H2 8098   3.903   2.919   1.455
 2698TIP3   OH2 8099   2.448   4.833   1.804
 2698TIP3    H1 8100   2.451   4.888   1.726
 2698TIP3    H2 8101   2.525   4.860   1.855
 2699TIP3   OH2 8102   6.063   5.447   3.287
 2699TIP3    H1 8103   5.975   5.419   3.312
 2699TIP3    H2 8104   6.113   5.446   3.368
 2700TIP3   OH2 8105   2.864   3.931   1.092
 2700TIP3    H1 8106   2.817   3.956   1.172
 2700TIP3    H2 8107   2.801   3.949   1.022
 2701TIP3   OH2 8108   2.046   4.120   2.955
 2701TIP3    H1 8109   1.988   4.067   3.010
 2701TIP3    H2 8110   2.117   4.061   2.930
 2702TIP3   OH2 8111   1.357   3.654   0.567
 2702TIP3    H1 8112   1.275   3.657   0.516
 2702TIP3    H2 8113   1.335   3.698   0.649
 2703TIP3   OH2 8114   2.945   0.189   1.586
 2703TIP3    H1 8115   2.963   0.253   1.655
 2703TIP3    H2 8116   2.972   0.232   1.505
 2704TIP3   OH2 8117   4.171   2.073   2.694
 2704TIP3    H1 8118   4.179   2.092   2.787
 2704TIP3    H2 8119   4.105   2.004   2.690
 2705TIP3   OH2 8120   0.635   3.918   4.216
 2705TIP3    H1 8121   0.604   3.870   4.139
 2705TIP3    H2 8122   0.588   4.001   4.213
 2706TIP3   OH2 8123   0.766   2.874   0.517
 2706TIP3    H1 8124   0.777   2.800   0.576
 2706TIP3    H2 8125   0.676   2.866   0.484
 2707TIP3   OH2 8126   2.943   4.627   2.298
 2707TIP3    H1 8127   3.034   4.641   2.324
 2707TIP3    H2 8128   2.916   4.549   2.346
 2708TIP3   OH2 8129   5.112   2.706   3.080
 2708TIP3    H1 8130   5.206   2.727   3.081
 2708TIP3    H2 8131   5.075   2.762   3.148
 2709TIP3   OH2 8132   2.758   0.358   4.064
 2709TIP3    H1 8133   2.837   0.381   4.015
 2709TIP3    H2 8134   2.756   0.262   4.064
 2710TIP3   OH2 8135   5.246   2.943   3.326
 2710TIP3    H1 8136   5.153   2.928   3.310
 2710TIP3    H2 8137   5.254   2.945   3.421
 2711TIP3   OH2 8138   3.712   5.795   0.749
 2711TIP3    H1 8139   3.794   5.795   0.799
 2711TIP3    H2 8140   3.645   5.816   0.814
 2712TIP3   OH2 8141   4.036   4.218   2.056
 2712TIP3    H1 8142   3.950   4.215   2.013
 2712TIP3    H2 8143   4.019   4.258   2.141
 2713TIP3   OH2 8144   2.196   4.605   0.836
 2713TIP3    H1 8145   2.194   4.518   0.796
 2713TIP3    H2 8146   2.108   4.640   0.821
 2714TIP3   OH2 8147   2.248   5.521   4.018
 2714TIP3    H1 8148   2.193   5.467   4.075
 2714TIP3    H2 8149   2.214   5.610   4.029
 2715TIP3   OH2 8150   1.991   0.742   0.954
 2715TIP3    H1 8151   1.966   0.764   1.044
 2715TIP3    H2 8152   1.921   0.779   0.900
 2716TIP3   OH2 8153   2.587   1.405   3.668
 2716TIP3    H1 8154   2.593   1.387   3.574
 2716TIP3    H2 8155   2.530   1.481   3.674
 2717TIP3   OH2 8156   0.677   4.199   1.649
 2717TIP3    H1 8157   0.616   4.191   1.576
 2717TIP3    H2 8158   0.636   4.263   1.707
 2718TIP3   OH2 8159   1.521   2.486   0.250
 2718TIP3    H1 8160   1.487   2.557   0.196
 2718TIP3    H2 8161   1.487   2.406   0.209
 2719TIP3   OH2 8162   1.210   2.490   0.365
 2719TIP3    H1 8163   1.159   2.423   0.319
 2719TIP3    H2 8164   1.276   2.518   0.302
 2720TIP3   OH2 8165   5.414   2.263   2.817
 2720TIP3    H1 8166   5.462   2.315   2.882
 2720TIP3    H2 8167   5.385   2.185   2.865
 2721TIP3   OH2 8168   3.136   5.008   4.872
 2721TIP3    H1 8169   3.201   4.938   4.874
 2721TIP3    H2 8170   3.081   4.992   4.949
 2722TIP3   OH2 8171   5.213   0.611   2.988
 2722TIP3    H1 8172   5.229   0.569   3.072
 2722TIP3    H2 8173   5.172   0.543   2.934
 2723TIP3   OH2 8174   2.589   4.368   3.619
 2723TIP3    H1 8175   2.629   4.298   3.672
 2723TIP3    H2 8176   2.598   4.446   3.673
 2724TIP3   OH2 8177   2.893   1.985   1.154
 2724TIP3    H1 8178   2.961   1.927   1.189
 2724TIP3    H2 8179   2.835   2.001   1.229
 2725TIP3   OH2 8180   3.372   5.868   0.976
 2725TIP3    H1 8181   3.396   5.836   1.063
 2725TIP3    H2 8182   3.307   5.805   0.944
 2726TIP3   OH2 8183   4.876   3.215   0.490
 2726TIP3    H1 8184   4.861   3.308   0.507
 2726TIP3    H2 8185   4.789   3.176   0.495
 2727TIP3   OH2 8186   0.636   2.589   3.487
 2727TIP3    H1 8187   0.572   2.520   3.506
 2727TIP3    H2 8188   0.587   2.671   3.500
 2728TIP3   OH2 8189   0.156   2.379   1.106
 2728TIP3    H1 8190   0.098   2.450   1.133
 2728TIP3    H2 8191   0.108   2.299   1.127
 2729TIP3   OH2 8192   0.043   0.412   0.764
 2729TIP3    H1 8193   0.083   0.469   0.699
 2729TIP3    H2 8194   0.116   0.387   0.821
 2730TIP3   OH2 8195   3.990   0.977   0.406
 2730TIP3    H1 8196   3.950   1.047   0.457
 2730TIP3    H2 8197   4.070   0.954   0.455
 2731TIP3   OH2 8198   1.476   4.113   2.413
 2731TIP3    H1 8199   1.493   4.023   2.441
 2731TIP3    H2 8200   1.541   4.166   2.459
 2732TIP3   OH2 8201   0.510   2.351   4.108
 2732TIP3    H1 8202   0.604   2.367   4.100
 2732TIP3    H2 8203   0.477   2.350   4.018
 2733TIP3   OH2 8204   5.110   2.938   0.034
 2733TIP3    H1 8205   5.084   2.851   0.004
 2733TIP3    H2 8206   5.056   2.998  -0.017
 2734TIP3   OH2 8207   5.466   2.388   3.553
 2734TIP3    H1 8208   5.505   2.366   3.468
 2734TIP3    H2 8209   5.510   2.329   3.615
 2735TIP3   OH2 8210   5.033   1.643   0.215
 2735TIP3    H1 8211   5.048   1.731   0.179
 2735TIP3    H2 8212   4.979   1.600   0.149
 2736TIP3   OH2 8213   4.808   1.550   4.584
 2736TIP3    H1 8214   4.783   1.616   4.649
 2736TIP3    H2 8215   4.732   1.542   4.527
 2737TIP3   OH2 8216   2.114   2.118   3.003
 2737TIP3    H1 8217   2.208   2.118   3.020
 2737TIP3    H2 8218   2.101   2.189   2.940
 2738TIP3   OH2 8219   4.800   4.449   2.774
 2738TIP3    H1 8220   4.802   4.512   2.702
 2738TIP3    H2 8221   4.736   4.485   2.835
 2739TIP3   OH2 8222   0.829   1.314   2.627
 2739TIP3    H1 8223   0.753   1.263   2.601
 2739TIP3    H2 8224   0.890   1.250   2.663
 2740TIP3   OH2 8225   3.059   2.459   5.025
 2740TIP3    H1 8226   3.002   2.437   4.951
 2740TIP3    H2 8227   3.140   2.410   5.008
 2741TIP3   OH2 8228   4.309   3.772   2.435
 2741TIP3    H1 8229   4.292   3.862   2.461
 2741TIP3    H2 8230   4.278   3.766   2.345
 2742TIP3   OH2 8231   3.251   0.679   4.264
 2742TIP3    H1 8232   3.201   0.607   4.302
 2742TIP3    H2 8233   3.313   0.704   4.332
 2743TIP3   OH2 8234   3.766   5.891   2.977
 2743TIP3    H1 8235   3.800   5.875   2.889
 2743TIP3    H2 8236   3.825   5.842   3.035
 2744TIP3   OH2 8237   2.179   2.637   1.545
 2744TIP3    H1 8238   2.165   2.565   1.607
 2744TIP3    H2 8239   2.273   2.656   1.552
 2745TIP3   OH2 8240   5.361   2.721   2.013
 2745TIP3    H1 8241   5.374   2.811   2.041
 2745TIP3    H2 8242   5.448   2.691   1.986
 2746TIP3   OH2 8243   5.010   4.343   5.118
 2746TIP3    H1 8244   4.952   4.384   5.182
 2746TIP3    H2 8245   4.955   4.277   5.074
 2747TIP3   OH2 8246   3.841   3.766   1.648
 2747TIP3    H1 8247   3.911   3.726   1.700
 2747TIP3    H2 8248   3.886   3.800   1.571
 2748TIP3   OH2 8249   2.903   1.693   0.457
 2748TIP3    H1 8250   2.930   1.614   0.410
 2748TIP3    H2 8251   2.945   1.765   0.409
 2749TIP3   OH2 8252   3.772   4.132   1.899
 2749TIP3    H1 8253   3.686   4.091   1.889
 2749TIP3    H2 8254   3.756   4.211   1.950
 2750TIP3   OH2 8255   0.588   3.185   0.470
 2750TIP3    H1 8256   0.562   3.109   0.418
 2750TIP3    H2 8257   0.505   3.227   0.494
 2751TIP3   OH2 8258   3.297   0.705   1.008
 2751TIP3    H1 8259   3.283   0.749   0.924
 2751TIP3    H2 8260   3.269   0.769   1.074
 2752TIP3   OH2 8261   0.192   0.843   0.940
 2752TIP3    H1 8262   0.147   0.921   0.908
 2752TIP3    H2 8263   0.236   0.808   0.862
 2753TIP3   OH2 8264   0.447   5.573   0.684
 2753TIP3    H1 8265   0.492   5.593   0.602
 2753TIP3    H2 8266   0.361   5.613   0.674
 2754TIP3   OH2 8267   2.958   4.313   2.905
 2754TIP3    H1 8268   2.900   4.374   2.861
 2754TIP3    H2 8269   2.906   4.233   2.915
 2755TIP3   OH2 8270   3.537   5.236   2.393
 2755TIP3    H1 8271   3.464   5.263   2.448
 2755TIP3    H2 8272   3.546   5.306   2.328
 2756TIP3   OH2 8273   5.606   5.354   3.906
 2756TIP3    H1 8274   5.520   5.318   3.927
 2756TIP3    H2 8275   5.649   5.287   3.854
 2757TIP3   OH2 8276   1.868   0.113   0.376
 2757TIP3    H1 8277   1.844   0.067   0.295
 2757TIP3    H2 8278   1.946   0.067   0.407
 2758TIP3   OH2 8279   2.564   3.225   4.635
 2758TIP3    H1 8280   2.495   3.176   4.679
 2758TIP3    H2 8281   2.619   3.158   4.595
 2759TIP3   OH2 8282   0.751   5.697   5.143
 2759TIP3    H1 8283   0.763   5.679   5.050
 2759TIP3    H2 8284   0.657   5.706   5.154
 2760TIP3   OH2 8285   6.319   2.316   0.329
 2760TIP3    H1 8286   6.405   2.348   0.303
 2760TIP3    H2 8287   6.322   2.315   0.425
 2761TIP3   OH2 8288   2.022   2.717   3.179
 2761TIP3    H1 8289   1.977   2.794   3.145
 2761TIP3    H2 8290   2.081   2.752   3.246
 2762TIP3   OH2 8291   0.326   4.302   4.996
 2762TIP3    H1 8292   0.313   4.334   5.085
 2762TIP3    H2 8293   0.369   4.374   4.950
 2763TIP3   OH2 8294   0.639   0.386   4.605
 2763TIP3    H1 8295   0.633   0.347   4.692
 2763TIP3    H2 8296   0.556   0.433   4.594
 2764TIP3   OH2 8297   0.603   5.712   2.823
 2764TIP3    H1 8298   0.528   5.675   2.777
 2764TIP3    H2 8299   0.639   5.639   2.873
 2765TIP3   OH2 8300   5.927   2.554   1.227
 2765TIP3    H1 8301   5.976   2.473   1.244
 2765TIP3    H2 8302   5.955   2.614   1.296
 2766TIP3   OH2 8303   4.395   0.981   5.053
 2766TIP3    H1 8304   4.399   1.050   5.119
 2766TIP3    H2 8305   4.369   0.903   5.102
 2767TIP3   OH2 8306   0.797   5.393   0.294
 2767TIP3    H1 8307   0.810   5.437   0.210
 2767TIP3    H2 8308   0.871   5.421   0.348
 2768TIP3   OH2 8309   2.295   4.645   3.342
 2768TIP3    H1 8310   2.387   4.627   3.361
 2768TIP3    H2 8311   2.291   4.740   3.329
 2769TIP3   OH2 8312   3.615   1.474   4.346
 2769TIP3    H1 8313   3.681   1.539   4.370
 2769TIP3    H2 8314   3.532   1.520   4.355
 2770TIP3   OH2 8315   5.099   1.965   3.604
 2770TIP3    H1 8316   5.177   1.936   3.557
 2770TIP3    H2 8317   5.120   1.951   3.696
 2771TIP3   OH2 8318   4.731   0.664   3.871
 2771TIP3    H1 8319   4.747   0.759   3.865
 2771TIP3    H2 8320   4.636   0.655   3.861
 2772TIP3   OH2 8321   0.949   3.035   2.314
 2772TIP3    H1 8322   0.939   3.068   2.403
 2772TIP3    H2 8323   1.040   3.056   2.291
 2773TIP3   OH2 8324   5.175   0.738   3.836
 2773TIP3    H1 8325   5.115   0.665   3.818
 2773TIP3    H2 8326   5.128   0.816   3.805
 2774TIP3   OH2 8327   3.678   4.311   0.027
 2774TIP3    H1 8328   3.621   4.252   0.077
 2774TIP3    H2 8329   3.669   4.281  -0.063
 2775TIP3   OH2 8330   0.794   4.347   2.965
 2775TIP3    H1 8331   0.843   4.422   2.934
 2775TIP3    H2 8332   0.709   4.383   2.992
 2776TIP3   OH2 8333   4.501   3.510   4.679
 2776TIP3    H1 8334   4.536   3.445   4.618
 2776TIP3    H2 8335   4.531   3.481   4.765
 2777TIP3   OH2 8336   4.813   1.025   1.097
 2777TIP3    H1 8337   4.786   1.113   1.124
 2777TIP3    H2 8338   4.883   1.003   1.158
 2778TIP3   OH2 8339   2.919   3.518   0.640
 2778TIP3    H1 8340   2.920   3.495   0.732
 2778TIP3    H2 8341   2.971   3.598   0.634
 2779TIP3   OH2 8342   2.147   4.848   2.028
 2779TIP3    H1 8343   2.144   4.753   2.013
 2779TIP3    H2 8344   2.123   4.886   1.943
 2780TIP3   OH2 8345   4.539   1.004   3.975
 2780TIP3    H1 8346   4.629   1.034   3.992
 2780TIP3    H2 8347   4.536   0.990   3.881
 2781TIP3   OH2 8348   5.257   4.723   4.038
 2781TIP3    H1 8349   5.162   4.731   4.044
 2781TIP3    H2 8350   5.272   4.680   3.954
 2782TIP3   OH2 8351   1.434   4.505   1.353
 2782TIP3    H1 8352   1.356   4.538   1.397
 2782TIP3    H2 8353   1.446   4.416   1.387
 2783TIP3   OH2 8354   6.249   2.945   0.841
 2783TIP3    H1 8355   6.181   2.904   0.894
 2783TIP3    H2 8356   6.252   2.893   0.761
 2784TIP3   OH2 8357   5.281   0.358   0.906
 2784TIP3    H1 8358   5.210   0.414   0.871
 2784TIP3    H2 8359   5.352   0.419   0.924
 2785TIP3   OH2 8360   0.946   3.468   0.349
 2785TIP3    H1 8361   0.897   3.394   0.385
 2785TIP3    H2 8362   1.002   3.429   0.281
 2786TIP3   OH2 8363   5.986   2.944   4.167
 2786TIP3    H1 8364   6.077   2.929   4.143
 2786TIP3    H2 8365   5.973   3.038   4.155
 2787TIP3   OH2 8366   5.797   2.830   1.075
 2787TIP3    H1 8367   5.707   2.799   1.072
 2787TIP3    H2 8368   5.794   2.916   1.034
 2788TIP3   OH2 8369   3.490   5.402   5.184
 2788TIP3    H1 8370   3.443   5.332   5.139
 2788TIP3    H2 8371   3.421   5.458   5.220
 2789TIP3   OH2 8372   0.194   2.702   1.511
 2789TIP3    H1 8373   0.113   2.651   1.521
 2789TIP3    H2 8374   0.189   2.767   1.581
 2790TIP3   OH2 8375   3.024   2.199   1.030
 2790TIP3    H1 8376   2.967   2.138   1.077
 2790TIP3    H2 8377   2.975   2.282   1.030
 2791TIP3   OH2 8378   5.816   3.340   3.166
 2791TIP3    H1 8379   5.851   3.290   3.240
 2791TIP3    H2 8380   5.729   3.302   3.151
 2792TIP3   OH2 8381   3.513   2.068   3.721
 2792TIP3    H1 8382   3.500   2.041   3.630
 2792TIP3    H2 8383   3.464   2.150   3.729
 2793TIP3   OH2 8384   4.268   0.848   1.731
 2793TIP3    H1 8385   4.277   0.829   1.825
 2793TIP3    H2 8386   4.305   0.936   1.722
 2794TIP3   OH2 8387   1.327   4.513   3.342
 2794TIP3    H1 8388   1.263   4.531   3.411
 2794TIP3    H2 8389   1.403   4.478   3.388
 2795TIP3   OH2 8390   6.112   4.935   0.137
 2795TIP3    H1 8391   6.145   5.025   0.142
 2795TIP3    H2 8392   6.068   4.930   0.052
 2796TIP3   OH2 8393   5.801   1.381   2.887
 2796TIP3    H1 8394   5.762   1.463   2.858
 2796TIP3    H2 8395   5.774   1.372   2.978
 2797TIP3   OH2 8396   4.062   0.882   2.776
 2797TIP3    H1 8397   4.051   0.894   2.871
 2797TIP3    H2 8398   4.108   0.799   2.767
 2798TIP3   OH2 8399   3.924   0.786   0.667
 2798TIP3    H1 8400   3.963   0.872   0.686
 2798TIP3    H2 8401   3.989   0.742   0.612
 2799TIP3   OH2 8402   3.141   3.366   0.533
 2799TIP3    H1 8403   3.081   3.430   0.494
 2799TIP3    H2 8404   3.180   3.412   0.607
 2800TIP3   OH2 8405   1.096   1.114   1.537
 2800TIP3    H1 8406   1.113   1.064   1.617
 2800TIP3    H2 8407   1.155   1.189   1.543
 2801TIP3   OH2 8408   1.772   5.941   3.737
 2801TIP3    H1 8409   1.760   5.867   3.797
 2801TIP3    H2 8410   1.866   5.948   3.726
 2802TIP3   OH2 8411   4.456   1.901   0.161
 2802TIP3    H1 8412   4.498   1.816   0.147
 2802TIP3    H2 8413   4.526   1.957   0.195
 2803TIP3   OH2 8414   1.289   5.631   0.938
 2803TIP3    H1 8415   1.229   5.556   0.938
 2803TIP3    H2 8416   1.231   5.708   0.933
 2804TIP3   OH2 8417   5.545   1.278   4.592
 2804TIP3    H1 8418   5.525   1.365   4.559
 2804TIP3    H2 8419   5.504   1.218   4.530
 2805TIP3   OH2 8420   6.162   2.191   1.454
 2805TIP3    H1 8421   6.224   2.150   1.515
 2805TIP3    H2 8422   6.123   2.263   1.504
 2806TIP3   OH2 8423   5.533   3.411   3.262
 2806TIP3    H1 8424   5.503   3.440   3.176
 2806TIP3    H2 8425   5.482   3.332   3.280
 2807TIP3   OH2 8426   0.067   5.658   1.238
 2807TIP3    H1 8427   0.138   5.721   1.230
 2807TIP3    H2 8428   0.107   5.582   1.280
 2808TIP3   OH2 8429   0.304   0.691   0.275
 2808TIP3    H1 8430   0.282   0.763   0.335
 2808TIP3    H2 8431   0.340   0.734   0.198
 2809TIP3   OH2 8432   0.551   2.890   3.444
 2809TIP3    H1 8433   0.572   2.950   3.373
 2809TIP3    H2 8434   0.481   2.933   3.492
 2810TIP3   OH2 8435   3.675   5.591   4.192
 2810TIP3    H1 8436   3.616   5.555   4.258
 2810TIP3    H2 8437   3.655   5.540   4.113
 2811TIP3   OH2 8438   2.590   4.890   3.051
 2811TIP3    H1 8439   2.516   4.840   3.015
 2811TIP3    H2 8440   2.596   4.968   2.997
 2812TIP3   OH2 8441   4.261   5.235   0.139
 2812TIP3    H1 8442   4.233   5.238   0.047
 2812TIP3    H2 8443   4.213   5.161   0.176
 2813TIP3   OH2 8444   3.275   2.155   2.751
 2813TIP3    H1 8445   3.335   2.227   2.772
 2813TIP3    H2 8446   3.289   2.139   2.658
 2814TIP3   OH2 8447   5.430   2.288   4.072
 2814TIP3    H1 8448   5.425   2.193   4.069
 2814TIP3    H2 8449   5.523   2.308   4.058
 2815TIP3   OH2 8450   5.590   1.808   1.438
 2815TIP3    H1 8451   5.664   1.747   1.428
 2815TIP3    H2 8452   5.627   1.882   1.487
 2816TIP3   OH2 8453   4.267   5.082   1.112
 2816TIP3    H1 8454   4.278   5.170   1.076
 2816TIP3    H2 8455   4.299   5.024   1.043
 2817TIP3   OH2 8456   1.094   4.315   4.915
 2817TIP3    H1 8457   1.129   4.306   5.003
 2817TIP3    H2 8458   1.097   4.409   4.897
 2818TIP3   OH2 8459   1.111   5.299   2.682
 2818TIP3    H1 8460   1.051   5.258   2.619
 2818TIP3    H2 8461   1.193   5.250   2.673
 2819TIP3   OH2 8462   3.847   1.363   0.489
 2819TIP3    H1 8463   3.868   1.427   0.557
 2819TIP3    H2 8464   3.827   1.416   0.412
 2820TIP3   OH2 8465   4.317   1.113   1.687
 2820TIP3    H1 8466   4.293   1.205   1.699
 2820TIP3    H2 8467   4.397   1.116   1.635
 2821TIP3   OH2 8468   4.344   2.135   2.922
 2821TIP3    H1 8469   4.372   2.126   3.013
 2821TIP3    H2 8470   4.396   2.207   2.887
 2822TIP3   OH2 8471   0.895   4.112   2.545
 2822TIP3    H1 8472   0.986   4.099   2.520
 2822TIP3    H2 8473   0.897   4.110   2.641
 2823TIP3   OH2 8474   6.081   4.530   4.892
 2823TIP3    H1 8475   6.140   4.469   4.934
 2823TIP3    H2 8476   6.075   4.499   4.801
 2824TIP3   OH2 8477   3.806   5.097   4.255
 2824TIP3    H1 8478   3.762   5.118   4.338
 2824TIP3    H2 8479   3.858   5.175   4.235
 2825TIP3   OH2 8480   5.290   3.603   1.249
 2825TIP3    H1 8481   5.217   3.560   1.205
 2825TIP3    H2 8482   5.357   3.536   1.257
 2826TIP3   OH2 8483   4.198   4.784   0.463
 2826TIP3    H1 8484   4.159   4.750   0.543
 2826TIP3    H2 8485   4.291   4.791   0.482
 2827TIP3   OH2 8486   6.006   4.508   1.618
 2827TIP3    H1 8487   5.943   4.548   1.558
 2827TIP3    H2 8488   6.062   4.581   1.646
 2828TIP3   OH2 8489   5.761   2.950   2.769
 2828TIP3    H1 8490   5.772   3.034   2.813
 2828TIP3    H2 8491   5.677   2.957   2.724
 2829TIP3   OH2 8492   3.428   3.710   3.531
 2829TIP3    H1 8493   3.350   3.676   3.575
 2829TIP3    H2 8494   3.495   3.643   3.546
 2830TIP3   OH2 8495   5.039   5.617   4.000
 2830TIP3    H1 8496   4.974   5.628   3.931
 2830TIP3    H2 8497   5.023   5.688   4.061
 2831TIP3   OH2 8498   3.195   1.723   3.540
 2831TIP3    H1 8499   3.202   1.632   3.513
 2831TIP3    H2 8500   3.273   1.738   3.593
 2832TIP3   OH2 8501   4.773   2.670   1.922
 2832TIP3    H1 8502   4.863   2.700   1.908
 2832TIP3    H2 8503   4.758   2.681   2.015
 2833TIP3   OH2 8504   0.313   0.302   4.570
 2833TIP3    H1 8505   0.327   0.381   4.622
 2833TIP3    H2 8506   0.218   0.291   4.569
 2834TIP3   OH2 8507   1.014   4.733   1.446
 2834TIP3    H1 8508   0.967   4.653   1.422
 2834TIP3    H2 8509   0.967   4.802   1.400
 2835TIP3   OH2 8510   1.036   2.725   3.350
 2835TIP3    H1 8511   1.056   2.800   3.294
 2835TIP3    H2 8512   0.951   2.693   3.318
 2836TIP3   OH2 8513   5.509   2.922   2.164
 2836TIP3    H1 8514   5.468   2.924   2.250
 2836TIP3    H2 8515   5.596   2.885   2.179
 2837TIP3   OH2 8516   0.527   3.182   4.887
 2837TIP3    H1 8517   0.466   3.218   4.823
 2837TIP3    H2 8518   0.564   3.105   4.844
 2838TIP3   OH2 8519   0.928   0.030   3.365
 2838TIP3    H1 8520   0.954  -0.049   3.318
 2838TIP3    H2 8521   0.938   0.100   3.302
 2839TIP3   OH2 8522   2.608   0.438   0.862
 2839TIP3    H1 8523   2.670   0.388   0.808
 2839TIP3    H2 8524   2.648   0.440   0.949
 2840TIP3   OH2 8525   1.912   0.217   4.119
 2840TIP3    H1 8526   1.817   0.207   4.112
 2840TIP3    H2 8527   1.946   0.128   4.116
 2841TIP3   OH2 8528   3.905   4.964   0.204
 2841TIP3    H1 8529   3.966   4.891   0.214
 2841TIP3    H2 8530   3.818   4.923   0.199
 2842TIP3   OH2 8531   6.137   4.933   2.843
 2842TIP3    H1 8532   6.134   5.028   2.850
 2842TIP3    H2 8533   6.077   4.911   2.772
 2843TIP3   OH2 8534   1.879   5.731   3.399
 2843TIP3    H1 8535   1.874   5.653   3.455
 2843TIP3    H2 8536   1.799   5.729   3.347
 2844TIP3   OH2 8537   4.475   5.136   3.696
 2844TIP3    H1 8538   4.410   5.095   3.638
 2844TIP3    H2 8539   4.470   5.086   3.777
 2845TIP3   OH2 8540   4.811   3.463   1.497
 2845TIP3    H1 8541   4.743   3.528   1.512
 2845TIP3    H2 8542   4.830   3.470   1.403
 2846TIP3   OH2 8543   4.364   3.228   4.054
 2846TIP3    H1 8544   4.444   3.272   4.028
 2846TIP3    H2 8545   4.339   3.175   3.978
 2847TIP3   OH2 8546   1.682   1.852   4.574
 2847TIP3    H1 8547   1.767   1.881   4.607
 2847TIP3    H2 8548   1.659   1.777   4.629
 2848TIP3   OH2 8549   2.659   0.115   2.362
 2848TIP3    H1 8550   2.704   0.092   2.444
 2848TIP3    H2 8551   2.686   0.047   2.300
 2849TIP3   OH2 8552   0.513   2.036   4.183
 2849TIP3    H1 8553   0.515   2.132   4.176
 2849TIP3    H2 8554   0.563   2.005   4.108
 2850TIP3   OH2 8555   1.984   0.511   4.004
 2850TIP3    H1 8556   1.987   0.462   4.085
 2850TIP3    H2 8557   2.073   0.509   3.970
 2851TIP3   OH2 8558   3.219   2.394   1.195
 2851TIP3    H1 8559   3.137   2.371   1.238
 2851TIP3    H2 8560   3.248   2.313   1.153
 2852TIP3   OH2 8561   0.380   1.215   3.045
 2852TIP3    H1 8562   0.363   1.297   3.091
 2852TIP3    H2 8563   0.469   1.224   3.011
 2853TIP3   OH2 8564   4.647   0.944   0.326
 2853TIP3    H1 8565   4.580   0.951   0.394
 2853TIP3    H2 8566   4.730   0.956   0.371
 2854TIP3   OH2 8567   4.444   4.895   2.754
 2854TIP3    H1 8568   4.406   4.813   2.784
 2854TIP3    H2 8569   4.501   4.870   2.681
 2855TIP3   OH2 8570   0.954   3.872   2.405
 2855TIP3    H1 8571   0.927   3.786   2.372
 2855TIP3    H2 8572   1.050   3.872   2.396
 2856TIP3   OH2 8573   5.932   4.356   4.390
 2856TIP3    H1 8574   5.846   4.371   4.349
 2856TIP3    H2 8575   5.995   4.378   4.321
 2857TIP3   OH2 8576   0.194   3.093   2.061
 2857TIP3    H1 8577   0.108   3.075   2.023
 2857TIP3    H2 8578   0.256   3.052   2.001
 2858TIP3   OH2 8579   5.880   1.792   3.168
 2858TIP3    H1 8580   5.934   1.751   3.236
 2858TIP3    H2 8581   5.897   1.886   3.177
 2859TIP3   OH2 8582   4.904   0.591   3.386
 2859TIP3    H1 8583   4.890   0.543   3.305
 2859TIP3    H2 8584   4.983   0.642   3.371
 2860TIP3   OH2 8585   0.917   4.023   0.281
 2860TIP3    H1 8586   0.954   3.961   0.219
 2860TIP3    H2 8587   0.837   3.981   0.313
 2861TIP3   OH2 8588   0.875   2.358   3.101
 2861TIP3    H1 8589   0.856   2.368   3.008
 2861TIP3    H2 8590   0.832   2.276   3.125
 2862TIP3   OH2 8591   1.979   3.779   2.839
 2862TIP3    H1 8592   1.891   3.780   2.875
 2862TIP3    H2 8593   2.019   3.699   2.876
 2863TIP3   OH2 8594   4.406   4.386   3.446
 2863TIP3    H1 8595   4.382   4.294   3.435
 2863TIP3    H2 8596   4.477   4.385   3.510
 2864TIP3   OH2 8597   2.039   0.003   0.682
 2864TIP3    H1 8598   2.050   0.073   0.747
 2864TIP3    H2 8599   2.055   0.046   0.598
 2865TIP3   OH2 8600   5.619   4.283   3.143
 2865TIP3    H1 8601   5.566   4.360   3.162
 2865TIP3    H2 8602   5.579   4.213   3.195
 2866TIP3   OH2 8603   2.719   3.038   4.567
 2866TIP3    H1 8604   2.772   2.976   4.617
 2866TIP3    H2 8605   2.779   3.071   4.500
 2867TIP3   OH2 8606   3.212   5.602   1.870
 2867TIP3    H1 8607   3.172   5.683   1.902
 2867TIP3    H2 8608   3.157   5.574   1.797
 2868TIP3   OH2 8609   3.876   4.255   0.357
 2868TIP3    H1 8610   3.782   4.258   0.341
 2868TIP3    H2 8611   3.893   4.328   0.417
 2869TIP3   OH2 8612   6.161   3.816   2.615
 2869TIP3    H1 8613   6.215   3.759   2.670
 2869TIP3    H2 8614   6.138   3.762   2.540
 2870TIP3   OH2 8615   6.043   2.053   3.220
 2870TIP3    H1 8616   6.129   2.062   3.178
 2870TIP3    H2 8617   6.064   2.036   3.313
 2871TIP3   OH2 8618   3.131   1.076   4.217
 2871TIP3    H1 8619   3.114   1.170   4.226
 2871TIP3    H2 8620   3.068   1.035   4.277
 2872TIP3   OH2 8621   6.198   1.159   3.851
 2872TIP3    H1 8622   6.118   1.138   3.899
 2872TIP3    H2 8623   6.168   1.187   3.765
 2873TIP3   OH2 8624   6.031   2.374   5.004
 2873TIP3    H1 8625   6.021   2.469   5.012
 2873TIP3    H2 8626   6.086   2.362   4.927
 2874TIP3   OH2 8627   2.698   5.442   0.507
 2874TIP3    H1 8628   2.751   5.515   0.539
 2874TIP3    H2 8629   2.727   5.366   0.557
 2875TIP3   OH2 8630   3.029   1.418   3.950
 2875TIP3    H1 8631   3.074   1.440   4.032
 2875TIP3    H2 8632   2.999   1.329   3.963
 2876TIP3   OH2 8633   4.507   0.252   5.109
 2876TIP3    H1 8634   4.456   0.188   5.160
 2876TIP3    H2 8635   4.595   0.247   5.146
 2877TIP3   OH2 8636   4.310   2.441   5.011
 2877TIP3    H1 8637   4.385   2.382   4.999
 2877TIP3    H2 8638   4.239   2.383   5.039
 2878TIP3   OH2 8639   1.046   2.249   2.782
 2878TIP3    H1 8640   0.975   2.308   2.806
 2878TIP3    H2 8641   1.018   2.163   2.814
 2879TIP3   OH2 8642   5.829   0.977   5.022
 2879TIP3    H1 8643   5.782   1.049   5.064
 2879TIP3    H2 8644   5.764   0.907   5.015
 2880TIP3   OH2 8645   2.987   2.516   1.535
 2880TIP3    H1 8646   2.915   2.522   1.598
 2880TIP3    H2 8647   2.953   2.460   1.466
 2881TIP3   OH2 8648   4.653   5.884   0.688
 2881TIP3    H1 8649   4.678   5.800   0.727
 2881TIP3    H2 8650   4.695   5.885   0.603
 2882TIP3   OH2 8651   2.059   4.827   2.733
 2882TIP3    H1 8652   2.020   4.902   2.689
 2882TIP3    H2 8653   1.996   4.756   2.720
 2883TIP3   OH2 8654   5.042   3.893   2.685
 2883TIP3    H1 8655   5.036   3.987   2.665
 2883TIP3    H2 8656   5.098   3.889   2.762
 2884TIP3   OH2 8657   1.769   3.818   2.632
 2884TIP3    H1 8658   1.695   3.878   2.640
 2884TIP3    H2 8659   1.770   3.770   2.714
 2885TIP3   OH2 8660   0.761   2.746   2.518
 2885TIP3    H1 8661   0.678   2.730   2.473
 2885TIP3    H2 8662   0.770   2.672   2.579
 2886TIP3   OH2 8663   3.558   2.503   3.683
 2886TIP3    H1 8664   3.653   2.501   3.683
 2886TIP3    H2 8665   3.534   2.534   3.596
 2887TIP3   OH2 8666   1.968   4.532   4.369
 2887TIP3    H1 8667   1.901   4.472   4.402
 2887TIP3    H2 8668   2.037   4.474   4.336
 2888TIP3   OH2 8669   4.115   0.166   0.368
 2888TIP3    H1 8670   4.117   0.249   0.321
 2888TIP3    H2 8671   4.025   0.159   0.399
 2889TIP3   OH2 8672   5.253   3.879   1.226
 2889TIP3    H1 8673   5.278   3.925   1.306
 2889TIP3    H2 8674   5.255   3.786   1.249
 2890TIP3   OH2 8675   5.678   4.317   2.568
 2890TIP3    H1 8676   5.610   4.292   2.630
 2890TIP3    H2 8677   5.642   4.393   2.521
 2891TIP3   OH2 8678   3.538   1.855   3.153
 2891TIP3    H1 8679   3.510   1.832   3.064
 2891TIP3    H2 8680   3.529   1.774   3.203
 2892TIP3   OH2 8681   1.167   3.870   3.196
 2892TIP3    H1 8682   1.200   3.809   3.263
 2892TIP3    H2 8683   1.171   3.820   3.114
 2893TIP3   OH2 8684   2.664   2.859   0.180
 2893TIP3    H1 8685   2.652   2.769   0.212
 2893TIP3    H2 8686   2.758   2.875   0.188
 2894TIP3   OH2 8687   0.459   5.628   4.742
 2894TIP3    H1 8688   0.379   5.609   4.791
 2894TIP3    H2 8689   0.457   5.566   4.669
 2895TIP3   OH2 8690   3.578   0.661   2.316
 2895TIP3    H1 8691   3.616   0.579   2.345
 2895TIP3    H2 8692   3.581   0.718   2.393
 2896TIP3   OH2 8693   2.782   3.439   3.873
 2896TIP3    H1 8694   2.843   3.476   3.937
 2896TIP3    H2 8695   2.721   3.510   3.853
 2897TIP3   OH2 8696   2.934   4.516   5.035
 2897TIP3    H1 8697   2.947   4.490   5.126
 2897TIP3    H2 8698   3.022   4.539   5.004
 2898TIP3   OH2 8699   3.484   0.490   2.696
 2898TIP3    H1 8700   3.397   0.529   2.694
 2898TIP3    H2 8701   3.477   0.417   2.757
 2899TIP3   OH2 8702   1.631   2.507   1.458
 2899TIP3    H1 8703   1.628   2.469   1.370
 2899TIP3    H2 8704   1.709   2.468   1.499
 2900TIP3   OH2 8705   2.189   3.798   4.665
 2900TIP3    H1 8706   2.238   3.830   4.589
 2900TIP3    H2 8707   2.251   3.804   4.738
 2901TIP3   OH2 8708   2.744   4.075   1.283
 2901TIP3    H1 8709   2.758   4.156   1.235
 2901TIP3    H2 8710   2.807   4.079   1.356
 2902TIP3   OH2 8711   2.785   3.477   1.579
 2902TIP3    H1 8712   2.824   3.395   1.609
 2902TIP3    H2 8713   2.704   3.484   1.629
 2903TIP3   OH2 8714   5.426   5.465   3.216
 2903TIP3    H1 8715   5.368   5.400   3.176
 2903TIP3    H2 8716   5.510   5.452   3.172
 2904TIP3   OH2 8717   5.412   1.081   2.641
 2904TIP3    H1 8718   5.461   1.161   2.659
 2904TIP3    H2 8719   5.479   1.013   2.634
 2905TIP3   OH2 8720   4.231   4.599   1.625
 2905TIP3    H1 8721   4.144   4.629   1.600
 2905TIP3    H2 8722   4.265   4.668   1.682
 2906TIP3   OH2 8723   1.473   3.492   4.059
 2906TIP3    H1 8724   1.526   3.487   4.138
 2906TIP3    H2 8725   1.385   3.468   4.088
 2907TIP3   OH2 8726   3.705   0.848   0.335
 2907TIP3    H1 8727   3.755   0.863   0.415
 2907TIP3    H2 8728   3.743   0.908   0.271
 2908TIP3   OH2 8729   4.722   2.625   4.864
 2908TIP3    H1 8730   4.814   2.639   4.841
 2908TIP3    H2 8731   4.674   2.692   4.815
 2909TIP3   OH2 8732   3.464   2.604   2.494
 2909TIP3    H1 8733   3.556   2.612   2.519
 2909TIP3    H2 8734   3.464   2.543   2.420
 2910TIP3   OH2 8735   3.235   4.100   3.501
 2910TIP3    H1 8736   3.194   4.024   3.542
 2910TIP3    H2 8737   3.173   4.172   3.517
 2911TIP3   OH2 8738   2.457   4.481   0.870
 2911TIP3    H1 8739   2.466   4.495   0.965
 2911TIP3    H2 8740   2.370   4.515   0.849
 2912TIP3   OH2 8741   3.036   3.380   1.425
 2912TIP3    H1 8742   2.948   3.343   1.418
 2912TIP3    H2 8743   3.022   3.469   1.458
 2913TIP3   OH2 8744   4.772   0.472   3.151
 2913TIP3    H1 8745   4.808   0.386   3.175
 2913TIP3    H2 8746   4.809   0.490   3.064
 2914TIP3   OH2 8747   5.197   3.859   4.862
 2914TIP3    H1 8748   5.230   3.841   4.950
 2914TIP3    H2 8749   5.139   3.934   4.873
 2915TIP3   OH2 8750   3.675   1.684   4.493
 2915TIP3    H1 8751   3.630   1.735   4.425
 2915TIP3    H2 8752   3.625   1.701   4.573
 2916TIP3   OH2 8753   5.467   1.450   4.927
 2916TIP3    H1 8754   5.380   1.419   4.901
 2916TIP3    H2 8755   5.463   1.459   5.022
 2917TIP3   OH2 8756   5.890   4.217   1.926
 2917TIP3    H1 8757   5.837   4.140   1.905
 2917TIP3    H2 8758   5.849   4.255   2.003
 2918TIP3   OH2 8759   1.092   3.690   0.962
 2918TIP3    H1 8760   1.015   3.742   0.985
 2918TIP3    H2 8761   1.056   3.608   0.926
 2919TIP3   OH2 8762   4.322   3.242   1.769
 2919TIP3    H1 8763   4.235   3.221   1.802
 2919TIP3    H2 8764   4.307   3.296   1.692
 2920TIP3   OH2 8765   3.581   1.084   0.847
 2920TIP3    H1 8766   3.493   1.101   0.883
 2920TIP3    H2 8767   3.623   1.029   0.913
 2921TIP3   OH2 8768   5.727   0.052   3.640
 2921TIP3    H1 8769   5.736   0.106   3.562
 2921TIP3    H2 8770   5.815   0.046   3.676
 2922TIP3   OH2 8771   0.227   4.043   1.538
 2922TIP3    H1 8772   0.164   4.063   1.607
 2922TIP3    H2 8773   0.175   4.043   1.457
 2923TIP3   OH2 8774   5.845   4.632   1.433
 2923TIP3    H1 8775   5.904   4.694   1.389
 2923TIP3    H2 8776   5.772   4.686   1.463
 2924TIP3   OH2 8777   5.741   0.182   0.121
 2924TIP3    H1 8778   5.749   0.099   0.168
 2924TIP3    H2 8779   5.708   0.157   0.035
 2925TIP3   OH2 8780   3.719   3.802   4.009
 2925TIP3    H1 8781   3.800   3.824   4.055
 2925TIP3    H2 8782   3.748   3.762   3.927
 2926TIP3   OH2 8783   3.006   2.406   0.553
 2926TIP3    H1 8784   3.016   2.494   0.589
 2926TIP3    H2 8785   3.081   2.357   0.587
 2927TIP3   OH2 8786   2.204   0.232   2.051
 2927TIP3    H1 8787   2.127   0.259   2.000
 2927TIP3    H2 8788   2.250   0.171   1.995
 2928TIP3   OH2 8789   1.097   4.908   4.026
 2928TIP3    H1 8790   1.118   4.947   3.941
 2928TIP3    H2 8791   1.145   4.826   4.027
 2929TIP3   OH2 8792   4.790   1.751   0.351
 2929TIP3    H1 8793   4.800   1.832   0.400
 2929TIP3    H2 8794   4.875   1.708   0.357
 2930TIP3   OH2 8795   4.475   5.232   2.001
 2930TIP3    H1 8796   4.488   5.278   1.919
 2930TIP3    H2 8797   4.400   5.276   2.042
 2931TIP3   OH2 8798   1.114   2.286   5.082
 2931TIP3    H1 8799   1.094   2.303   5.175
 2931TIP3    H2 8800   1.068   2.204   5.062
 2932TIP3   OH2 8801   4.676   3.193   1.961
 2932TIP3    H1 8802   4.584   3.219   1.965
 2932TIP3    H2 8803   4.724   3.268   1.997
 2933TIP3   OH2 8804   2.252   1.125   5.167
 2933TIP3    H1 8805   2.162   1.127   5.135
 2933TIP3    H2 8806   2.244   1.142   5.261
 2934TIP3   OH2 8807   5.013   5.786   3.534
 2934TIP3    H1 8808   4.935   5.826   3.496
 2934TIP3    H2 8809   5.047   5.730   3.465
 2935TIP3   OH2 8810   6.068   4.115   5.024
 2935TIP3    H1 8811   6.099   4.205   5.015
 2935TIP3    H2 8812   6.041   4.107   5.115
 2936TIP3   OH2 8813   5.361   3.087   4.197
 2936TIP3    H1 8814   5.341   3.030   4.123
 2936TIP3    H2 8815   5.325   3.042   4.273
 2937TIP3   OH2 8816   2.967   0.124   2.158
 2937TIP3    H1 8817   3.020   0.073   2.220
 2937TIP3    H2 8818   2.948   0.205   2.204
 2938TIP3   OH2 8819   3.065   5.424   3.283
 2938TIP3    H1 8820   2.980   5.461   3.306
 2938TIP3    H2 8821   3.049   5.330   3.277
 2939TIP3   OH2 8822   5.499   4.760   0.031
 2939TIP3    H1 8823   5.478   4.747  -0.061
 2939TIP3    H2 8824   5.439   4.704   0.078
 2940TIP3   OH2 8825   3.788   5.630   2.117
 2940TIP3    H1 8826   3.876   5.595   2.104
 2940TIP3    H2 8827   3.747   5.624   2.031
 2941TIP3   OH2 8828   0.994   1.223   3.717
 2941TIP3    H1 8829   1.027   1.286   3.653
 2941TIP3    H2 8830   1.072   1.189   3.761
 2942TIP3   OH2 8831   6.126   4.531   0.196
 2942TIP3    H1 8832   6.218   4.508   0.213
 2942TIP3    H2 8833   6.116   4.618   0.235
 2943TIP3   OH2 8834   5.418   3.948   1.452
 2943TIP3    H1 8835   5.435   3.963   1.545
 2943TIP3    H2 8836   5.493   3.897   1.422
 2944TIP3   OH2 8837   2.611   3.268   3.998
 2944TIP3    H1 8838   2.689   3.271   3.942
 2944TIP3    H2 8839   2.547   3.322   3.953
 2945TIP3   OH2 8840   2.508   5.394   4.532
 2945TIP3    H1 8841   2.511   5.298   4.524
 2945TIP3    H2 8842   2.541   5.412   4.619
 2946TIP3   OH2 8843   4.269   2.530   0.376
 2946TIP3    H1 8844   4.176   2.556   0.370
 2946TIP3    H2 8845   4.270   2.439   0.347
 2947TIP3   OH2 8846   3.330   0.898   0.069
 2947TIP3    H1 8847   3.275   0.956   0.016
 2947TIP3    H2 8848   3.325   0.935   0.157
 2948TIP3   OH2 8849   4.339   4.462   0.609
 2948TIP3    H1 8850   4.425   4.479   0.647
 2948TIP3    H2 8851   4.337   4.368   0.593
 2949TIP3   OH2 8852   4.041   0.857   3.032
 2949TIP3    H1 8853   3.999   0.778   2.997
 2949TIP3    H2 8854   4.067   0.833   3.121
 2950TIP3   OH2 8855   0.242   2.265   4.294
 2950TIP3    H1 8856   0.243   2.207   4.218
 2950TIP3    H2 8857   0.248   2.353   4.257
 2951TIP3   OH2 8858   0.254   2.531   0.136
 2951TIP3    H1 8859   0.328   2.492   0.185
 2951TIP3    H2 8860   0.218   2.458   0.086
 2952TIP3   OH2 8861   6.349   1.272   2.534
 2952TIP3    H1 8862   6.263   1.304   2.508
 2952TIP3    H2 8863   6.411   1.329   2.489
 2953TIP3   OH2 8864   2.463   2.654   1.605
 2953TIP3    H1 8865   2.464   2.585   1.672
 2953TIP3    H2 8866   2.481   2.607   1.523
 2954TIP3   OH2 8867   1.854   2.833   1.334
 2954TIP3    H1 8868   1.797   2.776   1.282
 2954TIP3    H2 8869   1.807   2.917   1.336
 2955TIP3   OH2 8870   4.884   3.523   3.305
 2955TIP3    H1 8871   4.965   3.545   3.260
 2955TIP3    H2 8872   4.875   3.589   3.374
 2956TIP3   OH2 8873   0.767   1.212   2.007
 2956TIP3    H1 8874   0.804   1.180   1.925
 2956TIP3    H2 8875   0.768   1.136   2.066
 2957TIP3   OH2 8876   4.699   1.272   1.202
 2957TIP3    H1 8877   4.765   1.303   1.265
 2957TIP3    H2 8878   4.618   1.315   1.229
 2958TIP3   OH2 8879   5.451   2.963   0.316
 2958TIP3    H1 8880   5.528   3.003   0.276
 2958TIP3    H2 8881   5.487   2.895   0.374
 2959TIP3   OH2 8882   0.340   4.474   4.122
 2959TIP3    H1 8883   0.431   4.504   4.125
 2959TIP3    H2 8884   0.340   4.403   4.058
 2960TIP3   OH2 8885   2.176   4.896   5.044
 2960TIP3    H1 8886   2.127   4.958   4.991
 2960TIP3    H2 8887   2.109   4.849   5.094
 2961TIP3   OH2 8888   0.605   2.052   0.515
 2961TIP3    H1 8889   0.658   1.975   0.531
 2961TIP3    H2 8890   0.539   2.051   0.585
 2962TIP3   OH2 8891   4.387   3.779   4.354
 2962TIP3    H1 8892   4.346   3.694   4.364
 2962TIP3    H2 8893   4.454   3.766   4.286
 2963TIP3   OH2 8894   0.476   2.452   2.026
 2963TIP3    H1 8895   0.400   2.488   2.073
 2963TIP3    H2 8896   0.541   2.522   2.027
 2964TIP3   OH2 8897   4.006   0.911   1.255
 2964TIP3    H1 8898   3.946   0.837   1.243
 2964TIP3    H2 8899   3.964   0.965   1.321
 2965TIP3   OH2 8900   5.732   0.316   1.953
 2965TIP3    H1 8901   5.748   0.408   1.970
 2965TIP3    H2 8902   5.819   0.275   1.955
 2966TIP3   OH2 8903   3.960   5.577   3.096
 2966TIP3    H1 8904   3.990   5.667   3.107
 2966TIP3    H2 8905   3.957   5.564   3.001
 2967TIP3   OH2 8906   2.764   0.608   3.610
 2967TIP3    H1 8907   2.694   0.555   3.646
 2967TIP3    H2 8908   2.724   0.694   3.596
 2968TIP3   OH2 8909   4.227   3.084   4.264
 2968TIP3    H1 8910   4.225   3.117   4.354
 2968TIP3    H2 8911   4.290   3.140   4.219
 2969TIP3   OH2 8912   1.605   3.901   0.372
 2969TIP3    H1 8913   1.561   3.949   0.302
 2969TIP3    H2 8914   1.594   3.809   0.350
 2970TIP3   OH2 8915   1.610   2.158   4.591
 2970TIP3    H1 8916   1.553   2.132   4.664
 2970TIP3    H2 8917   1.576   2.109   4.516
 2971TIP3   OH2 8918   0.129   0.036   4.993
 2971TIP3    H1 8919   0.213   0.047   4.949
 2971TIP3    H2 8920   0.146  -0.029   5.062
 2972TIP3   OH2 8921   0.477   3.345   3.828
 2972TIP3    H1 8922   0.490   3.348   3.923
 2972TIP3    H2 8923   0.518   3.264   3.800
 2973TIP3   OH2 8924   2.793   5.443   3.966
 2973TIP3    H1 8925   2.800   5.360   3.920
 2973TIP3    H2 8926   2.743   5.422   4.045
 2974TIP3   OH2 8927   0.043   2.284   3.704
 2974TIP3    H1 8928   0.060   2.248   3.617
 2974TIP3    H2 8929   0.085   2.222   3.764
 2975TIP3   OH2 8930   5.378   0.505   0.077
 2975TIP3    H1 8931   5.375   0.584   0.131
 2975TIP3    H2 8932   5.438   0.528   0.005
 2976TIP3   OH2 8933   5.699   4.786   1.761
 2976TIP3    H1 8934   5.616   4.805   1.804
 2976TIP3    H2 8935   5.694   4.694   1.737
 2977TIP3   OH2 8936   5.172   2.610   0.744
 2977TIP3    H1 8937   5.190   2.576   0.831
 2977TIP3    H2 8938   5.132   2.695   0.759
 2978TIP3   OH2 8939   3.060   5.412   4.948
 2978TIP3    H1 8940   3.022   5.487   4.994
 2978TIP3    H2 8941   3.148   5.403   4.986
 2979TIP3   OH2 8942   2.577   5.296   1.391
 2979TIP3    H1 8943   2.555   5.261   1.478
 2979TIP3    H2 8944   2.555   5.389   1.397
 2980TIP3   OH2 8945   4.030   0.204   4.615
 2980TIP3    H1 8946   4.020   0.284   4.668
 2980TIP3    H2 8947   3.940   0.175   4.599
 2981TIP3   OH2 8948   2.636   3.898   3.950
 2981TIP3    H1 8949   2.728   3.909   3.927
 2981TIP3    H2 8950   2.614   3.978   3.998
 2982TIP3   OH2 8951   4.635   1.536   4.185
 2982TIP3    H1 8952   4.543   1.518   4.163
 2982TIP3    H2 8953   4.639   1.526   4.280
 2983TIP3   OH2 8954   5.090   1.423   4.265
 2983TIP3    H1 8955   5.121   1.356   4.205
 2983TIP3    H2 8956   5.019   1.467   4.217
 2984TIP3   OH2 8957   2.260   0.471   3.180
 2984TIP3    H1 8958   2.336   0.516   3.217
 2984TIP3    H2 8959   2.248   0.395   3.237
 2985TIP3   OH2 8960   4.855   0.023   2.237
 2985TIP3    H1 8961   4.810  -0.011   2.315
 2985TIP3    H2 8962   4.923   0.081   2.272
 2986TIP3   OH2 8963   2.602   3.749   3.303
 2986TIP3    H1 8964   2.617   3.673   3.359
 2986TIP3    H2 8965   2.544   3.805   3.355
 2987TIP3   OH2 8966   0.610   1.390   0.450
 2987TIP3    H1 8967   0.703   1.406   0.468
 2987TIP3    H2 8968   0.611   1.316   0.389
 2988TIP3   OH2 8969   0.927   2.254   0.360
 2988TIP3    H1 8970   0.901   2.223   0.447
 2988TIP3    H2 8971   0.904   2.347   0.360
 2989TIP3   OH2 8972   1.315   2.725   1.627
 2989TIP3    H1 8973   1.315   2.820   1.614
 2989TIP3    H2 8974   1.232   2.697   1.588
 2990TIP3   OH2 8975   2.982   2.210   2.609
 2990TIP3    H1 8976   2.959   2.151   2.681
 2990TIP3    H2 8977   3.066   2.178   2.578
 2991TIP3   OH2 8978   1.378   5.914   2.045
 2991TIP3    H1 8979   1.430   5.982   2.088
 2991TIP3    H2 8980   1.311   5.962   1.996
 2992TIP3   OH2 8981   5.683   3.988   0.960
 2992TIP3    H1 8982   5.726   3.992   1.046
 2992TIP3    H2 8983   5.597   4.028   0.975
 2993TIP3   OH2 8984   0.643   0.905   4.505
 2993TIP3    H1 8985   0.580   0.857   4.451
 2993TIP3    H2 8986   0.652   0.852   4.584
 2994TIP3   OH2 8987   1.548   3.525   2.331
 2994TIP3    H1 8988   1.617   3.581   2.365
 2994TIP3    H2 8989   1.541   3.550   2.238
 2995TIP3   OH2 8990   3.247   5.897   1.635
 2995TIP3    H1 8991   3.266   5.955   1.708
 2995TIP3    H2 8992   3.152   5.885   1.638
 2996TIP3   OH2 8993   1.485   4.063   4.332
 2996TIP3    H1 8994   1.477   3.968   4.322
 2996TIP3    H2 8995   1.539   4.074   4.411
 2997TIP3   OH2 8996   0.185   0.990   0.070
 2997TIP3    H1 8997   0.095   0.989   0.105
 2997TIP3    H2 8998   0.217   1.078   0.091
 2998TIP3   OH2 8999   4.554   3.492   2.359
 2998TIP3    H1 9000   4.567   3.559   2.426
 2998TIP3    H2 9001   4.602   3.416   2.391
 2999TIP3   OH2 9002   1.694   2.525   4.340
 2999TIP3    H1 9003   1.718   2.609   4.300
 2999TIP3    H2 9004   1.610   2.503   4.300
 3000TIP3   OH2 9005   6.257   1.459   2.191
 3000TIP3    H1 9006   6.287   1.467   2.282
 3000TIP3    H2 9007   6.236   1.549   2.166
 3001TIP3   OH2 9008   3.434   1.090   1.690
 3001TIP3    H1 9009   3.493   1.110   1.763
 3001TIP3    H2 9010   3.449   1.160   1.627
 3002TIP3   OH2 9011   4.884   3.663   0.335
 3002TIP3    H1 9012   4.905   3.624   0.250
 3002TIP3    H2 9013   4.930   3.747   0.335
 3003TIP3   OH2 9014   2.435   0.295   3.019
 3003TIP3    H1 9015   2.418   0.290   2.925
 3003TIP3    H2 9016   2.352   0.271   3.060
 3004TIP3   OH2 9017   0.473   5.105   3.960
 3004TIP3    H1 9018   0.559   5.073   3.933
 3004TIP3    H2 9019   0.424   5.026   3.983
 3005TIP3   OH2 9020   1.694   1.447   3.809
 3005TIP3    H1 9021   1.741   1.528   3.789
 3005TIP3    H2 9022   1.761   1.379   3.799
 3006TIP3   OH2 9023   0.737   3.443   1.438
 3006TIP3    H1 9024   0.753   3.501   1.364
 3006TIP3    H2 9025   0.702   3.499   1.506
 3007TIP3   OH2 9026   5.980   3.109   1.489
 3007TIP3    H1 9027   6.035   3.031   1.492
 3007TIP3    H2 9028   5.939   3.113   1.576
 3008TIP3   OH2 9029   2.537   5.743   0.503
 3008TIP3    H1 9030   2.527   5.648   0.490
 3008TIP3    H2 9031   2.588   5.751   0.583
 3009TIP3   OH2 9032   2.110   2.478   1.752
 3009TIP3    H1 9033   2.017   2.460   1.740
 3009TIP3    H2 9034   2.114   2.542   1.823
 3010TIP3   OH2 9035   0.604   4.507   5.183
 3010TIP3    H1 9036   0.552   4.505   5.103
 3010TIP3    H2 9037   0.695   4.512   5.153
 3011TIP3   OH2 9038   0.349   0.251   2.243
 3011TIP3    H1 9039   0.318   0.339   2.260
 3011TIP3    H2 9040   0.271   0.202   2.217
 3012TIP3   OH2 9041   2.721   5.226   2.914
 3012TIP3    H1 9042   2.721   5.250   3.007
 3012TIP3    H2 9043   2.800   5.173   2.903
 3013TIP3   OH2 9044   0.282   4.769   0.768
 3013TIP3    H1 9045   0.206   4.739   0.818
 3013TIP3    H2 9046   0.290   4.706   0.697
 3014TIP3   OH2 9047   4.304   0.208   0.550
 3014TIP3    H1 9048   4.287   0.146   0.622
 3014TIP3    H2 9049   4.228   0.201   0.494
 3015TIP3   OH2 9050   5.224   5.697   2.034
 3015TIP3    H1 9051   5.303   5.643   2.045
 3015TIP3    H2 9052   5.201   5.724   2.123
 3016TIP3   OH2 9053   4.678   3.640   4.525
 3016TIP3    H1 9054   4.623   3.604   4.594
 3016TIP3    H2 9055   4.714   3.721   4.563
 3017TIP3   OH2 9056   2.211   0.176   3.124
 3017TIP3    H1 9057   2.171   0.126   3.053
 3017TIP3    H2 9058   2.147   0.171   3.195
 3018TIP3   OH2 9059   4.990   4.188   4.369
 3018TIP3    H1 9060   4.960   4.188   4.279
 3018TIP3    H2 9061   5.063   4.251   4.370
 3019TIP3   OH2 9062   4.861   0.929   2.900
 3019TIP3    H1 9063   4.926   0.965   2.961
 3019TIP3    H2 9064   4.804   0.875   2.956
 3020TIP3   OH2 9065   3.032   5.972   2.504
 3020TIP3    H1 9066   2.976   5.987   2.580
 3020TIP3    H2 9067   2.996   5.893   2.463
 3021TIP3   OH2 9068   1.142   1.434   2.136
 3021TIP3    H1 9069   1.096   1.384   2.203
 3021TIP3    H2 9070   1.222   1.384   2.119
 3022TIP3   OH2 9071   6.096   0.905   4.997
 3022TIP3    H1 9072   6.112   0.817   5.030
 3022TIP3    H2 9073   6.001   0.915   5.000
 3023TIP3   OH2 9074   4.209   1.807   4.863
 3023TIP3    H1 9075   4.175   1.886   4.822
 3023TIP3    H2 9076   4.280   1.779   4.806
 3024TIP3   OH2 9077   3.984   5.751   4.768
 3024TIP3    H1 9078   3.995   5.778   4.677
 3024TIP3    H2 9079   3.930   5.820   4.807
 3025TIP3   OH2 9080   1.436   3.535   1.844
 3025TIP3    H1 9081   1.442   3.528   1.748
 3025TIP3    H2 9082   1.349   3.570   1.860
 3026TIP3   OH2 9083   3.403   4.480   4.812
 3026TIP3    H1 9084   3.455   4.553   4.845
 3026TIP3    H2 9085   3.458   4.403   4.826
 3027TIP3   OH2 9086   4.279   3.475   1.549
 3027TIP3    H1 9087   4.234   3.547   1.592
 3027TIP3    H2 9088   4.367   3.475   1.586
 3028TIP3   OH2 9089   0.349   5.944   2.570
 3028TIP3    H1 9090   0.407   5.869   2.559
 3028TIP3    H2 9091   0.394   6.001   2.633
 3029TIP3   OH2 9092   2.992   2.148   4.666
 3029TIP3    H1 9093   2.940   2.068   4.672
 3029TIP3    H2 9094   2.958   2.204   4.736
 3030TIP3   OH2 9095   6.012   0.761   4.654
 3030TIP3    H1 9096   6.078   0.774   4.587
 3030TIP3    H2 9097   5.956   0.839   4.649
 3031TIP3   OH2 9098   6.053   4.530   4.603
 3031TIP3    H1 9099   5.968   4.575   4.595
 3031TIP3    H2 9100   6.051   4.463   4.535
 3032TIP3   OH2 9101   4.003   5.489   4.827
 3032TIP3    H1 9102   3.980   5.578   4.801
 3032TIP3    H2 9103   3.962   5.433   4.761
 3033TIP3   OH2 9104   2.409   2.953   0.166
 3033TIP3    H1 9105   2.489   2.907   0.142
 3033TIP3    H2 9106   2.436   3.044   0.176
 3034TIP3   OH2 9107   1.502   2.977   1.048
 3034TIP3    H1 9108   1.557   3.021   0.984
 3034TIP3    H2 9109   1.420   3.026   1.047
 3035TIP3   OH2 9110   4.831   4.110   2.153
 3035TIP3    H1 9111   4.910   4.083   2.105
 3035TIP3    H2 9112   4.809   4.035   2.208
 3036TIP3   OH2 9113   5.782   0.074   3.144
 3036TIP3    H1 9114   5.708   0.013   3.152
 3036TIP3    H2 9115   5.834   0.039   3.072
 3037TIP3   OH2 9116   5.438   4.993   3.721
 3037TIP3    H1 9117   5.450   5.031   3.808
 3037TIP3    H2 9118   5.360   5.037   3.687
 3038TIP3   OH2 9119   5.641   2.431   1.679
 3038TIP3    H1 9120   5.676   2.369   1.744
 3038TIP3    H2 9121   5.710   2.496   1.670
 3039TIP3   OH2 9122   1.147   1.009   1.006
 3039TIP3    H1 9123   1.211   1.061   0.957
 3039TIP3    H2 9124   1.197   0.935   1.039
 3040TIP3   OH2 9125   2.307   1.599   2.659
 3040TIP3    H1 9126   2.396   1.594   2.626
 3040TIP3    H2 9127   2.256   1.543   2.599
 3041TIP3   OH2 9128   2.862   3.851   0.543
 3041TIP3    H1 9129   2.903   3.797   0.610
 3041TIP3    H2 9130   2.807   3.790   0.493
 3042TIP3   OH2 9131   1.465   2.242   2.052
 3042TIP3    H1 9132   1.410   2.311   2.090
 3042TIP3    H2 9133   1.452   2.251   1.957
 3043TIP3   OH2 9134   0.908   1.671   0.251
 3043TIP3    H1 9135   0.824   1.677   0.204
 3043TIP3    H2 9136   0.974   1.667   0.182
 3044TIP3   OH2 9137   5.050   3.831   3.041
 3044TIP3    H1 9138   4.973   3.861   2.993
 3044TIP3    H2 9139   5.094   3.911   3.069
 3045TIP3   OH2 9140   5.767   4.722   0.055
 3045TIP3    H1 9141   5.674   4.742   0.046
 3045TIP3    H2 9142   5.769   4.630   0.083
 3046TIP3   OH2 9143   3.225   0.290   0.400
 3046TIP3    H1 9144   3.288   0.244   0.344
 3046TIP3    H2 9145   3.193   0.362   0.345
 3047TIP3   OH2 9146   3.445   4.163   3.286
 3047TIP3    H1 9147   3.493   4.081   3.275
 3047TIP3    H2 9148   3.365   4.138   3.333
 3048TIP3   OH2 9149   0.781   5.413   1.293
 3048TIP3    H1 9150   0.861   5.365   1.314
 3048TIP3    H2 9151   0.756   5.382   1.206
 3049TIP3   OH2 9152   2.379   3.248   2.054
 3049TIP3    H1 9153   2.369   3.235   2.149
 3049TIP3    H2 9154   2.473   3.250   2.040
 3050TIP3   OH2 9155   2.637   2.038   3.101
 3050TIP3    H1 9156   2.636   1.969   3.167
 3050TIP3    H2 9157   2.555   2.086   3.115
 3051TIP3   OH2 9158   4.026   2.163   4.296
 3051TIP3    H1 9159   3.948   2.109   4.309
 3051TIP3    H2 9160   4.094   2.101   4.273
 3052TIP3   OH2 9161   0.066   4.226   3.271
 3052TIP3    H1 9162   0.040   4.140   3.238
 3052TIP3    H2 9163  -0.017   4.275   3.276
 3053TIP3   OH2 9164   4.526   5.233   2.540
 3053TIP3    H1 9165   4.583   5.251   2.615
 3053TIP3    H2 9166   4.584   5.201   2.471
 3054TIP3   OH2 9167   3.967   4.386   0.024
 3054TIP3    H1 9168   3.889   4.341   0.056
 3054TIP3    H2 9169   3.987   4.450   0.092
 3055TIP3   OH2 9170   4.887   0.513   4.195
 3055TIP3    H1 9171   4.850   0.430   4.226
 3055TIP3    H2 9172   4.927   0.492   4.111
 3056TIP3   OH2 9173   1.172   5.073   0.632
 3056TIP3    H1 9174   1.124   5.098   0.711
 3056TIP3    H2 9175   1.143   4.983   0.615
 3057TIP3   OH2 9176   4.507   4.611   4.490
 3057TIP3    H1 9177   4.427   4.563   4.511
 3057TIP3    H2 9178   4.479   4.702   4.480
 3058TIP3   OH2 9179   0.192   5.442   2.600
 3058TIP3    H1 9180   0.168   5.361   2.555
 3058TIP3    H2 9181   0.262   5.416   2.660
 3059TIP3   OH2 9182   3.615   5.783   3.465
 3059TIP3    H1 9183   3.687   5.791   3.402
 3059TIP3    H2 9184   3.652   5.816   3.547
 3060TIP3   OH2 9185   2.158   5.693   1.353
 3060TIP3    H1 9186   2.106   5.771   1.377
 3060TIP3    H2 9187   2.236   5.699   1.408
 3061TIP3   OH2 9188   1.288   4.672   0.311
 3061TIP3    H1 9189   1.316   4.688   0.401
 3061TIP3    H2 9190   1.295   4.577   0.300
 3062TIP3   OH2 9191   0.278   0.043   0.321
 3062TIP3    H1 9192   0.213  -0.025   0.305
 3062TIP3    H2 9193   0.360  -0.005   0.336
 3063TIP3   OH2 9194   0.582   0.627   4.460
 3063TIP3    H1 9195   0.639   0.589   4.526
 3063TIP3    H2 9196   0.508   0.567   4.454
 3064TIP3   OH2 9197   2.532   2.079   0.567
 3064TIP3    H1 9198   2.561   2.078   0.658
 3064TIP3    H2 9199   2.574   2.003   0.527
 3065TIP3   OH2 9200   4.763   0.084   0.141
 3065TIP3    H1 9201   4.854   0.060   0.156
 3065TIP3    H2 9202   4.718   0.060   0.223
 3066TIP3   OH2 9203   1.161   3.738   4.845
 3066TIP3    H1 9204   1.222   3.746   4.772
 3066TIP3    H2 9205   1.109   3.819   4.842
 3067TIP3   OH2 9206   2.638   3.725   2.782
 3067TIP3    H1 9207   2.693   3.795   2.745
 3067TIP3    H2 9208   2.685   3.698   2.861
 3068TIP3   OH2 9209   3.503   3.777   0.551
 3068TIP3    H1 9210   3.476   3.686   0.541
 3068TIP3    H2 9211   3.591   3.773   0.588
 3069TIP3   OH2 9212   5.883   0.427   0.041
 3069TIP3    H1 9213   5.850   0.349   0.085
 3069TIP3    H2 9214   5.900   0.399  -0.049
 3070TIP3   OH2 9215   0.655   0.271   0.887
 3070TIP3    H1 9216   0.661   0.339   0.819
 3070TIP3    H2 9217   0.573   0.226   0.869
 3071TIP3   OH2 9218   6.141   5.510   0.381
 3071TIP3    H1 9219   6.046   5.509   0.368
 3071TIP3    H2 9220   6.165   5.602   0.372
 3072TIP3   OH2 9221   2.488   2.561   2.682
 3072TIP3    H1 9222   2.565   2.615   2.700
 3072TIP3    H2 9223   2.430   2.577   2.757
 3073TIP3   OH2 9224   1.801   0.861   0.767
 3073TIP3    H1 9225   1.783   0.897   0.680
 3073TIP3    H2 9226   1.824   0.937   0.821
 3074TIP3   OH2 9227   1.225   4.571   1.500
 3074TIP3    H1 9228   1.196   4.512   1.570
 3074TIP3    H2 9229   1.154   4.635   1.492
 3075TIP3   OH2 9230   4.356   2.651   3.395
 3075TIP3    H1 9231   4.380   2.567   3.357
 3075TIP3    H2 9232   4.272   2.673   3.356
 3076TIP3   OH2 9233   2.016   1.068   3.299
 3076TIP3    H1 9234   2.051   1.032   3.217
 3076TIP3    H2 9235   1.930   1.103   3.275
 3077TIP3   OH2 9236   5.565   3.049   1.926
 3077TIP3    H1 9237   5.569   2.971   1.870
 3077TIP3    H2 9238   5.552   3.014   2.014
 3078TIP3   OH2 9239   6.034   3.327   2.919
 3078TIP3    H1 9240   6.116   3.322   2.870
 3078TIP3    H2 9241   6.058   3.304   3.008
 3079TIP3   OH2 9242   2.598   3.392   1.385
 3079TIP3    H1 9243   2.670   3.447   1.413
 3079TIP3    H2 9244   2.572   3.343   1.463
 3080TIP3   OH2 9245   5.107   4.612   3.773
 3080TIP3    H1 9246   5.200   4.625   3.790
 3080TIP3    H2 9247   5.067   4.696   3.796
 3081TIP3   OH2 9248   0.046   1.242   1.715
 3081TIP3    H1 9249  -0.040   1.206   1.692
 3081TIP3    H2 9250   0.036   1.272   1.805
 3082TIP3   OH2 9251   5.698   3.602   0.043
 3082TIP3    H1 9252   5.633   3.653   0.092
 3082TIP3    H2 9253   5.679   3.621  -0.049
 3083TIP3   OH2 9254   4.527   4.288   2.473
 3083TIP3    H1 9255   4.452   4.308   2.417
 3083TIP3    H2 9256   4.489   4.274   2.559
 3084TIP3   OH2 9257   2.140   2.664   1.944
 3084TIP3    H1 9258   2.199   2.737   1.923
 3084TIP3    H2 9259   2.151   2.651   2.038
 3085TIP3   OH2 9260   1.370   4.456   3.762
 3085TIP3    H1 9261   1.319   4.396   3.707
 3085TIP3    H2 9262   1.353   4.543   3.726
 3086TIP3   OH2 9263   5.682   0.393   0.779
 3086TIP3    H1 9264   5.773   0.364   0.785
 3086TIP3    H2 9265   5.640   0.357   0.856
 3087TIP3   OH2 9266   0.136   4.905   4.539
 3087TIP3    H1 9267   0.157   4.966   4.610
 3087TIP3    H2 9268   0.143   4.818   4.579
 3088TIP3   OH2 9269   3.737   5.369   2.770
 3088TIP3    H1 9270   3.820   5.411   2.795
 3088TIP3    H2 9271   3.748   5.350   2.677
 3089TIP3   OH2 9272   5.065   3.165   1.856
 3089TIP3    H1 9273   4.983   3.116   1.857
 3089TIP3    H2 9274   5.056   3.226   1.783
 3090TIP3   OH2 9275   5.096   0.294   2.584
 3090TIP3    H1 9276   5.097   0.387   2.606
 3090TIP3    H2 9277   5.185   0.277   2.553
 3091TIP3   OH2 9278   3.574   2.530   3.060
 3091TIP3    H1 9279   3.666   2.550   3.080
 3091TIP3    H2 9280   3.546   2.602   3.003
 3092TIP3   OH2 9281   4.174   5.633   4.209
 3092TIP3    H1 9282   4.181   5.727   4.222
 3092TIP3    H2 9283   4.245   5.596   4.262
 3093TIP3   OH2 9284   5.335   4.327   1.915
 3093TIP3    H1 9285   5.368   4.256   1.860
 3093TIP3    H2 9286   5.325   4.287   2.001
 3094TIP3   OH2 9287   3.524   0.521   3.516
 3094TIP3    H1 9288   3.617   0.536   3.499
 3094TIP3    H2 9289   3.483   0.518   3.429
 3095TIP3   OH2 9290   3.654   2.355   1.856
 3095TIP3    H1 9291   3.583   2.409   1.820
 3095TIP3    H2 9292   3.709   2.334   1.781
 3096TIP3   OH2 9293   5.050   4.862   1.319
 3096TIP3    H1 9294   5.098   4.926   1.267
 3096TIP3    H2 9295   4.993   4.914   1.375
 3097TIP3   OH2 9296   3.098   4.354   2.274
 3097TIP3    H1 9297   3.007   4.371   2.249
 3097TIP3    H2 9298   3.126   4.282   2.217
 3098TIP3   OH2 9299   3.234   0.068   3.878
 3098TIP3    H1 9300   3.298   0.138   3.888
 3098TIP3    H2 9301   3.238   0.045   3.785
 3099TIP3   OH2 9302   3.896   5.401   4.581
 3099TIP3    H1 9303   3.856   5.316   4.566
 3099TIP3    H2 9304   3.920   5.432   4.493
 3100TIP3   OH2 9305   4.979   1.049   2.193
 3100TIP3    H1 9306   4.999   0.973   2.138
 3100TIP3    H2 9307   5.064   1.083   2.219
 3101TIP3   OH2 9308   1.106   1.584   2.362
 3101TIP3    H1 9309   1.090   1.672   2.330
 3101TIP3    H2 9310   1.109   1.529   2.283
 3102TIP3   OH2 9311   0.466   0.431   1.618
 3102TIP3    H1 9312   0.424   0.517   1.621
 3102TIP3    H2 9313   0.399   0.370   1.647
 3103TIP3   OH2 9314   2.944   0.723   2.694
 3103TIP3    H1 9315   2.970   0.668   2.621
 3103TIP3    H2 9316   2.922   0.662   2.764
 3104TIP3   OH2 9317   5.336   0.175   4.584
 3104TIP3    H1 9318   5.318   0.106   4.520
 3104TIP3    H2 9319   5.427   0.199   4.569
 3105TIP3   OH2 9320   3.781   2.455   1.066
 3105TIP3    H1 9321   3.798   2.414   1.151
 3105TIP3    H2 9322   3.826   2.540   1.071
 3106TIP3   OH2 9323   2.028   3.329   3.826
 3106TIP3    H1 9324   2.080   3.375   3.760
 3106TIP3    H2 9325   1.938   3.335   3.792
 3107TIP3   OH2 9326   5.474   2.956   2.583
 3107TIP3    H1 9327   5.455   2.925   2.671
 3107TIP3    H2 9328   5.466   2.879   2.527
 3108TIP3   OH2 9329   4.196   4.272   2.948
 3108TIP3    H1 9330   4.245   4.347   2.982
 3108TIP3    H2 9331   4.106   4.286   2.978
 3109TIP3   OH2 9332   5.175   1.125   1.816
 3109TIP3    H1 9333   5.086   1.091   1.819
 3109TIP3    H2 9334   5.231   1.049   1.837
 3110TIP3   OH2 9335   2.789   5.315   1.730
 3110TIP3    H1 9336   2.824   5.386   1.784
 3110TIP3    H2 9337   2.843   5.239   1.753
 3111TIP3   OH2 9338   4.450   5.293   0.739
 3111TIP3    H1 9339   4.472   5.386   0.735
 3111TIP3    H2 9340   4.526   5.252   0.781
 3112TIP3   OH2 9341   4.302   3.344   2.953
 3112TIP3    H1 9342   4.296   3.252   2.930
 3112TIP3    H2 9343   4.355   3.346   3.033
 3113TIP3   OH2 9344   1.117   1.868   1.145
 3113TIP3    H1 9345   1.114   1.876   1.049
 3113TIP3    H2 9346   1.185   1.928   1.172
 3114TIP3   OH2 9347   2.083   4.208   4.802
 3114TIP3    H1 9348   2.056   4.121   4.831
 3114TIP3    H2 9349   2.177   4.210   4.816
 3115TIP3   OH2 9350   0.255   4.308   0.792
 3115TIP3    H1 9351   0.229   4.276   0.706
 3115TIP3    H2 9352   0.338   4.265   0.809
 3116TIP3   OH2 9353  -0.021   0.049   3.631
 3116TIP3    H1 9354   0.001   0.139   3.607
 3116TIP3    H2 9355   0.037  -0.005   3.579
 3117TIP3   OH2 9356   5.020   2.426   2.427
 3117TIP3    H1 9357   5.078   2.356   2.396
 3117TIP3    H2 9358   5.016   2.413   2.522
 3118TIP3   OH2 9359   5.181   0.745   1.148
 3118TIP3    H1 9360   5.136   0.783   1.072
 3118TIP3    H2 9361   5.273   0.764   1.132
 3119TIP3   OH2 9362   2.379   0.814   3.035
 3119TIP3    H1 9363   2.434   0.755   2.984
 3119TIP3    H2 9364   2.438   0.883   3.064
 3120TIP3   OH2 9365   5.982   5.797   5.155
 3120TIP3    H1 9366   6.022   5.875   5.195
 3120TIP3    H2 9367   5.892   5.797   5.187
 3121TIP3   OH2 9368   5.590   4.217   3.460
 3121TIP3    H1 9369   5.641   4.298   3.451
 3121TIP3    H2 9370   5.647   4.158   3.508
 3122TIP3   OH2 9371   4.473   2.419   0.717
 3122TIP3    H1 9372   4.416   2.367   0.773
 3122TIP3    H2 9373   4.561   2.388   0.735
 3123TIP3   OH2 9374   3.704   3.786   3.377
 3123TIP3    H1 9375   3.696   3.708   3.432
 3123TIP3    H2 9376   3.732   3.855   3.438
 3124TIP3   OH2 9377   3.079   2.042   0.412
 3124TIP3    H1 9378   3.048   2.017   0.499
 3124TIP3    H2 9379   3.172   2.062   0.424
 3125TIP3   OH2 9380   3.710   5.965   2.682
 3125TIP3    H1 9381   3.803   5.972   2.660
 3125TIP3    H2 9382   3.696   5.871   2.695
 3126TIP3   OH2 9383   0.525   4.605   0.314
 3126TIP3    H1 9384   0.523   4.589   0.220
 3126TIP3    H2 9385   0.461   4.675   0.328
 3127TIP3   OH2 9386   2.652   4.953   1.650
 3127TIP3    H1 9387   2.733   4.996   1.622
 3127TIP3    H2 9388   2.678   4.901   1.726
 3128TIP3   OH2 9389   5.400   0.738   1.674
 3128TIP3    H1 9390   5.394   0.649   1.639
 3128TIP3    H2 9391   5.352   0.792   1.611
 3129TIP3   OH2 9392   4.126   3.928   0.379
 3129TIP3    H1 9393   4.084   3.851   0.341
 3129TIP3    H2 9394   4.139   3.987   0.305
 3130TIP3   OH2 9395   5.706   3.022   0.877
 3130TIP3    H1 9396   5.639   2.960   0.848
 3130TIP3    H2 9397   5.678   3.106   0.840
 3131TIP3   OH2 9398   4.243   5.986   4.526
 3131TIP3    H1 9399   4.201   5.901   4.532
 3131TIP3    H2 9400   4.194   6.041   4.588
 3132TIP3   OH2 9401   5.879   3.334   1.328
 3132TIP3    H1 9402   5.963   3.368   1.360
 3132TIP3    H2 9403   5.876   3.244   1.360
 3133TIP3   OH2 9404   2.570   4.207   4.702
 3133TIP3    H1 9405   2.578   4.227   4.609
 3133TIP3    H2 9406   2.660   4.210   4.735
 3134TIP3   OH2 9407   4.709   0.337   0.719
 3134TIP3    H1 9408   4.764   0.395   0.666
 3134TIP3    H2 9409   4.621   0.372   0.708
 3135TIP3   OH2 9410   1.109   3.658   1.508
 3135TIP3    H1 9411   1.085   3.665   1.415
 3135TIP3    H2 9412   1.135   3.746   1.533
 3136TIP3   OH2 9413   3.260   4.701   0.737
 3136TIP3    H1 9414   3.181   4.754   0.748
 3136TIP3    H2 9415   3.325   4.762   0.702
 3137TIP3   OH2 9416   4.072   3.130   1.871
 3137TIP3    H1 9417   4.110   3.076   1.940
 3137TIP3    H2 9418   4.048   3.212   1.915
 3138TIP3   OH2 9419   0.573   5.480   2.574
 3138TIP3    H1 9420   0.627   5.421   2.521
 3138TIP3    H2 9421   0.520   5.423   2.628
 3139TIP3   OH2 9422   4.215   5.022   4.844
 3139TIP3    H1 9423   4.159   5.076   4.787
 3139TIP3    H2 9424   4.203   5.060   4.931
 3140TIP3   OH2 9425   1.574   1.082   4.019
 3140TIP3    H1 9426   1.647   1.051   3.965
 3140TIP3    H2 9427   1.530   1.148   3.964
 3141TIP3   OH2 9428   3.444   3.492   0.530
 3141TIP3    H1 9429   3.517   3.460   0.478
 3141TIP3    H2 9430   3.366   3.464   0.482
 3142TIP3   OH2 9431   3.126   4.002   3.212
 3142TIP3    H1 9432   3.130   3.993   3.117
 3142TIP3    H2 9433   3.038   3.973   3.235
 3143TIP3   OH2 9434   0.333   1.523   1.495
 3143TIP3    H1 9435   0.245   1.494   1.518
 3143TIP3    H2 9436   0.321   1.573   1.414
 3144TIP3   OH2 9437   2.046   2.855   1.004
 3144TIP3    H1 9438   2.116   2.792   0.988
 3144TIP3    H2 9439   2.032   2.853   1.099
 3145TIP3   OH2 9440   3.626   3.332   0.679
 3145TIP3    H1 9441   3.667   3.345   0.594
 3145TIP3    H2 9442   3.566   3.406   0.688
 3146TIP3   OH2 9443   5.300   0.807   2.816
 3146TIP3    H1 9444   5.322   0.787   2.725
 3146TIP3    H2 9445   5.281   0.722   2.855
 3147TIP3   OH2 9446   0.307   4.288   4.673
 3147TIP3    H1 9447   0.392   4.319   4.703
 3147TIP3    H2 9448   0.251   4.292   4.750
 3148TIP3   OH2 9449   3.659   5.675   1.347
 3148TIP3    H1 9450   3.686   5.640   1.431
 3148TIP3    H2 9451   3.658   5.599   1.289
 3149TIP3   OH2 9452   4.277   0.438   1.002
 3149TIP3    H1 9453   4.225   0.518   1.004
 3149TIP3    H2 9454   4.291   0.420   0.909
 3150TIP3   OH2 9455   1.033   0.686   0.496
 3150TIP3    H1 9456   1.038   0.725   0.409
 3150TIP3    H2 9457   1.111   0.717   0.541
 3151TIP3   OH2 9458   5.380   5.379   1.738
 3151TIP3    H1 9459   5.419   5.441   1.677
 3151TIP3    H2 9460   5.453   5.322   1.764
 3152TIP3   OH2 9461   1.359   5.182   0.193
 3152TIP3    H1 9462   1.281   5.237   0.196
 3152TIP3    H2 9463   1.328   5.095   0.216
 3153TIP3   OH2 9464   2.177   5.787   3.971
 3153TIP3    H1 9465   2.267   5.817   3.959
 3153TIP3    H2 9466   2.144   5.772   3.883
 3154TIP3   OH2 9467   0.548   3.179   1.973
 3154TIP3    H1 9468   0.550   3.233   1.893
 3154TIP3    H2 9469   0.474   3.121   1.960
 3155TIP3   OH2 9470   2.256   4.027   2.142
 3155TIP3    H1 9471   2.341   4.069   2.131
 3155TIP3    H2 9472   2.212   4.040   2.057
 3156TIP3   OH2 9473   4.374   0.649   0.664
 3156TIP3    H1 9474   4.457   0.619   0.701
 3156TIP3    H2 9475   4.313   0.578   0.683
 3157TIP3   OH2 9476   1.539   4.404   4.277
 3157TIP3    H1 9477   1.470   4.339   4.291
 3157TIP3    H2 9478   1.620   4.353   4.281
 3158TIP3   OH2 9479   0.236   0.062   3.765
 3158TIP3    H1 9480   0.214  -0.018   3.814
 3158TIP3    H2 9481   0.332   0.063   3.764
 3159TIP3   OH2 9482   4.846   5.499   4.307
 3159TIP3    H1 9483   4.881   5.410   4.307
 3159TIP3    H2 9484   4.912   5.550   4.260
 3160TIP3   OH2 9485   0.384   2.749   2.059
 3160TIP3    H1 9486   0.331   2.759   1.980
 3160TIP3    H2 9487   0.341   2.679   2.108
 3161TIP3   OH2 9488   4.097   2.155   0.272
 3161TIP3    H1 9489   4.076   2.130   0.182
 3161TIP3    H2 9490   4.189   2.179   0.269
 3162TIP3   OH2 9491   0.648   0.145   3.397
 3162TIP3    H1 9492   0.614   0.067   3.441
 3162TIP3    H2 9493   0.727   0.116   3.352
 3163TIP3   OH2 9494   1.110   3.043   1.202
 3163TIP3    H1 9495   1.016   3.035   1.223
 3163TIP3    H2 9496   1.149   2.962   1.236
 3164TIP3   OH2 9497   6.223   2.031   3.441
 3164TIP3    H1 9498   6.205   2.040   3.535
 3164TIP3    H2 9499   6.213   1.938   3.423
 3165TIP3   OH2 9500   4.530   0.221   0.415
 3165TIP3    H1 9501   4.516   0.168   0.336
 3165TIP3    H2 9502   4.450   0.209   0.466
 3166TIP3   OH2 9503   6.035   1.816   0.478
 3166TIP3    H1 9504   5.969   1.855   0.421
 3166TIP3    H2 9505   6.076   1.748   0.425
 3167TIP3   OH2 9506   4.475   4.738   2.513
 3167TIP3    H1 9507   4.523   4.655   2.512
 3167TIP3    H2 9508   4.386   4.714   2.487
 3168TIP3   OH2 9509   1.247   2.622   3.500
 3168TIP3    H1 9510   1.226   2.556   3.566
 3168TIP3    H2 9511   1.166   2.629   3.448
 3169TIP3   OH2 9512   3.500   5.621   3.078
 3169TIP3    H1 9513   3.417   5.591   3.115
 3169TIP3    H2 9514   3.559   5.546   3.091
 3170TIP3   OH2 9515   1.917   5.818   2.599
 3170TIP3    H1 9516   1.841   5.875   2.608
 3170TIP3    H2 9517   1.896   5.761   2.526
 3171TIP3   OH2 9518   2.114   4.053   1.892
 3171TIP3    H1 9519   2.084   4.138   1.860
 3171TIP3    H2 9520   2.105   3.995   1.817
 3172TIP3   OH2 9521   5.926   0.135   1.634
 3172TIP3    H1 9522   5.914   0.219   1.590
 3172TIP3    H2 9523   6.015   0.109   1.610
 3173TIP3   OH2 9524   4.772   4.907   4.741
 3173TIP3    H1 9525   4.680   4.929   4.732
 3173TIP3    H2 9526   4.790   4.846   4.669
 3174TIP3   OH2 9527   5.596   4.394   3.768
 3174TIP3    H1 9528   5.515   4.425   3.730
 3174TIP3    H2 9529   5.583   4.402   3.863
 3175TIP3   OH2 9530   5.158   2.756   4.214
 3175TIP3    H1 9531   5.090   2.689   4.220
 3175TIP3    H2 9532   5.157   2.783   4.122
 3176TIP3   OH2 9533   1.062   1.606   1.285
 3176TIP3    H1 9534   0.993   1.617   1.351
 3176TIP3    H2 9535   1.054   1.684   1.230
 3177TIP3   OH2 9536   4.620   0.426   2.269
 3177TIP3    H1 9537   4.544   0.461   2.221
 3177TIP3    H2 9538   4.635   0.340   2.229
 3178TIP3   OH2 9539   6.138   0.855   2.945
 3178TIP3    H1 9540   6.091   0.893   3.019
 3178TIP3    H2 9541   6.080   0.866   2.870
 3179TIP3   OH2 9542   1.930   3.689   0.993
 3179TIP3    H1 9543   1.973   3.608   1.020
 3179TIP3    H2 9544   2.001   3.741   0.953
 3180TIP3   OH2 9545   2.310   0.991   4.237
 3180TIP3    H1 9546   2.355   1.074   4.218
 3180TIP3    H2 9547   2.219   1.016   4.252
 3181TIP3   OH2 9548   5.606   0.577   0.370
 3181TIP3    H1 9549   5.608   0.615   0.282
 3181TIP3    H2 9550   5.608   0.483   0.356
 3182TIP3   OH2 9551   5.735   1.412   2.563
 3182TIP3    H1 9552   5.660   1.393   2.507
 3182TIP3    H2 9553   5.756   1.504   2.545
 3183TIP3   OH2 9554   1.597   1.618   3.015
 3183TIP3    H1 9555   1.626   1.595   2.926
 3183TIP3    H2 9556   1.529   1.553   3.035
 3184TIP3   OH2 9557   2.974   5.631   0.168
 3184TIP3    H1 9558   2.899   5.669   0.215
 3184TIP3    H2 9559   2.975   5.676   0.084
 3185TIP3   OH2 9560   5.837   0.341   2.556
 3185TIP3    H1 9561   5.780   0.364   2.483
 3185TIP3    H2 9562   5.898   0.276   2.520
 3186TIP3   OH2 9563   0.677   3.624   1.069
 3186TIP3    H1 9564   0.693   3.581   0.985
 3186TIP3    H2 9565   0.734   3.579   1.130
 3187TIP3   OH2 9566   5.720   2.164   4.289
 3187TIP3    H1 9567   5.751   2.247   4.255
 3187TIP3    H2 9568   5.774   2.098   4.245
 3188TIP3   OH2 9569   1.063   0.734   4.494
 3188TIP3    H1 9570   1.138   0.723   4.435
 3188TIP3    H2 9571   0.987   0.740   4.436
 3189TIP3   OH2 9572   0.626   5.730   3.155
 3189TIP3    H1 9573   0.652   5.817   3.185
 3189TIP3    H2 9574   0.533   5.740   3.131
 3190TIP3   OH2 9575   3.325   2.563   3.222
 3190TIP3    H1 9576   3.243   2.522   3.195
 3190TIP3    H2 9577   3.388   2.536   3.156
 3191TIP3   OH2 9578   3.956   1.810   4.053
 3191TIP3    H1 9579   4.039   1.763   4.066
 3191TIP3    H2 9580   3.938   1.852   4.137
 3192TIP3   OH2 9581   4.658   1.485   3.122
 3192TIP3    H1 9582   4.652   1.392   3.101
 3192TIP3    H2 9583   4.570   1.509   3.152
 3193TIP3   OH2 9584   3.112   3.020   4.305
 3193TIP3    H1 9585   3.161   2.983   4.379
 3193TIP3    H2 9586   3.170   3.009   4.230
 3194TIP3   OH2 9587   5.945   1.832   2.087
 3194TIP3    H1 9588   5.912   1.750   2.123
 3194TIP3    H2 9589   5.936   1.823   1.992
 3195TIP3   OH2 9590   0.625   5.520   2.005
 3195TIP3    H1 9591   0.648   5.455   2.071
 3195TIP3    H2 9592   0.529   5.517   2.002
 3196TIP3   OH2 9593   3.079   5.223   3.894
 3196TIP3    H1 9594   3.061   5.159   3.962
 3196TIP3    H2 9595   3.021   5.197   3.821
 3197TIP3   OH2 9596   2.368   2.974   1.377
 3197TIP3    H1 9597   2.400   2.978   1.467
 3197TIP3    H2 9598   2.299   3.040   1.372
 3198TIP3   OH2 9599   5.013   4.116   0.704
 3198TIP3    H1 9600   5.095   4.136   0.659
 3198TIP3    H2 9601   5.035   4.117   0.797
 3199TIP3   OH2 9602   2.894   5.462   1.200
 3199TIP3    H1 9603   2.955   5.536   1.204
 3199TIP3    H2 9604   2.889   5.432   1.291
 3200TIP3   OH2 9605   3.408   2.334   3.349
 3200TIP3    H1 9606   3.407   2.319   3.254
 3200TIP3    H2 9607   3.500   2.326   3.373
 3201TIP3   OH2 9608   1.787   0.499   1.199
 3201TIP3    H1 9609   1.801   0.501   1.294
 3201TIP3    H2 9610   1.847   0.431   1.168
 3202TIP3   OH2 9611   3.114   1.283   0.879
 3202TIP3    H1 9612   3.062   1.236   0.814
 3202TIP3    H2 9613   3.050   1.314   0.943
 3203TIP3   OH2 9614   1.655   2.358   2.308
 3203TIP3    H1 9615   1.679   2.300   2.381
 3203TIP3    H2 9616   1.622   2.298   2.241
 3204TIP3   OH2 9617   5.947   1.604   3.941
 3204TIP3    H1 9618   5.948   1.651   3.858
 3204TIP3    H2 9619   5.996   1.524   3.923
 3205TIP3   OH2 9620   1.831   4.817   2.127
 3205TIP3    H1 9621   1.858   4.878   2.058
 3205TIP3    H2 9622   1.791   4.873   2.193
 3206TIP3   OH2 9623   4.673   2.774   1.191
 3206TIP3    H1 9624   4.606   2.730   1.243
 3206TIP3    H2 9625   4.693   2.712   1.121
 3207TIP3   OH2 9626   5.128   1.215   3.409
 3207TIP3    H1 9627   5.136   1.308   3.385
 3207TIP3    H2 9628   5.047   1.210   3.460
 3208TIP3   OH2 9629   5.454   1.426   2.409
 3208TIP3    H1 9630   5.395   1.401   2.479
 3208TIP3    H2 9631   5.398   1.432   2.331
 3209TIP3   OH2 9632   3.013   1.837   4.221
 3209TIP3    H1 9633   3.071   1.768   4.252
 3209TIP3    H2 9634   3.071   1.912   4.205
 3210TIP3   OH2 9635   0.131   4.927   3.118
 3210TIP3    H1 9636   0.066   4.890   3.178
 3210TIP3    H2 9637   0.135   4.865   3.045
 3211TIP3   OH2 9638   2.837   1.420   0.656
 3211TIP3    H1 9639   2.854   1.461   0.741
 3211TIP3    H2 9640   2.917   1.436   0.606
 3212TIP3   OH2 9641   5.957   4.598   4.127
 3212TIP3    H1 9642   5.984   4.625   4.215
 3212TIP3    H2 9643   5.866   4.571   4.137
 3213TIP3   OH2 9644   4.220   3.826   1.951
 3213TIP3    H1 9645   4.171   3.891   1.902
 3213TIP3    H2 9646   4.292   3.801   1.893
 3214TIP3   OH2 9647   3.580   5.974   1.635
 3214TIP3    H1 9648   3.602   5.893   1.680
 3214TIP3    H2 9649   3.655   6.031   1.650
 3215TIP3   OH2 9650   5.290   3.576   0.502
 3215TIP3    H1 9651   5.329   3.547   0.420
 3215TIP3    H2 9652   5.232   3.504   0.528
 3216TIP3   OH2 9653   5.723   4.876   2.514
 3216TIP3    H1 9654   5.739   4.835   2.429
 3216TIP3    H2 9655   5.630   4.900   2.512
 3217TIP3   OH2 9656   2.096   4.215   4.440
 3217TIP3    H1 9657   2.149   4.160   4.497
 3217TIP3    H2 9658   2.024   4.246   4.495
 3218TIP3   OH2 9659   1.348   3.575   0.048
 3218TIP3    H1 9660   1.309   3.488   0.053
 3218TIP3    H2 9661   1.286   3.631   0.095
 3219TIP3   OH2 9662   3.404   1.052   5.020
 3219TIP3    H1 9663   3.469   1.065   5.090
 3219TIP3    H2 9664   3.451   1.072   4.939
 3220TIP3   OH2 9665   2.381   2.400   1.610
 3220TIP3    H1 9666   2.446   2.363   1.670
 3220TIP3    H2 9667   2.297   2.369   1.645
 3221TIP3   OH2 9668   2.892   4.421   2.526
 3221TIP3    H1 9669   2.821   4.395   2.584
 3221TIP3    H2 9670   2.935   4.493   2.572
 3222TIP3   OH2 9671   3.436   0.564   3.251
 3222TIP3    H1 9672   3.498   0.551   3.179
 3222TIP3    H2 9673   3.380   0.636   3.221
 3223TIP3   OH2 9674   1.194   4.556   2.889
 3223TIP3    H1 9675   1.174   4.649   2.899
 3223TIP3    H2 9676   1.266   4.541   2.950
 3224TIP3   OH2 9677   5.438   5.816   1.554
 3224TIP3    H1 9678   5.464   5.881   1.619
 3224TIP3    H2 9679   5.373   5.861   1.500
 3225TIP3   OH2 9680   3.831   3.606   4.769
 3225TIP3    H1 9681   3.848   3.522   4.811
 3225TIP3    H2 9682   3.789   3.659   4.837
 3226TIP3   OH2 9683   4.793   5.676   0.749
 3226TIP3    H1 9684   4.792   5.623   0.829
 3226TIP3    H2 9685   4.863   5.740   0.762
 3227TIP3   OH2 9686   0.827   5.102   3.442
 3227TIP3    H1 9687   0.823   5.030   3.505
 3227TIP3    H2 9688   0.779   5.070   3.366
 3228TIP3   OH2 9689   5.317   0.775   2.099
 3228TIP3    H1 9690   5.347   0.820   2.178
 3228TIP3    H2 9691   5.352   0.687   2.108
 3229TIP3   OH2 9692   2.132   5.471   3.497
 3229TIP3    H1 9693   2.037   5.463   3.508
 3229TIP3    H2 9694   2.142   5.515   3.413
 3230TIP3   OH2 9695   1.856   1.521   2.267
 3230TIP3    H1 9696   1.859   1.598   2.324
 3230TIP3    H2 9697   1.849   1.556   2.179
 3231TIP3   OH2 9698   5.899   2.500   3.575
 3231TIP3    H1 9699   5.981   2.456   3.554
 3231TIP3    H2 9700   5.904   2.516   3.669
 3232TIP3   OH2 9701   3.380   1.502   3.395
 3232TIP3    H1 9702   3.394   1.424   3.448
 3232TIP3    H2 9703   3.296   1.487   3.352
 3233TIP3   OH2 9704   0.009   1.986   0.217
 3233TIP3    H1 9705   0.088   1.937   0.239
 3233TIP3    H2 9706  -0.028   1.940   0.142
 3234TIP3   OH2 9707   5.960   1.611   2.372
 3234TIP3    H1 9708   5.985   1.676   2.437
 3234TIP3    H2 9709   5.866   1.625   2.360
 3235TIP3   OH2 9710   5.155   0.331   4.246
 3235TIP3    H1 9711   5.126   0.383   4.321
 3235TIP3    H2 9712   5.208   0.262   4.285
 3236TIP3   OH2 9713   3.477   4.257   2.679
 3236TIP3    H1 9714   3.560   4.302   2.660
 3236TIP3    H2 9715   3.499   4.164   2.677
 3237TIP3   OH2 9716   4.920   4.484   1.150
 3237TIP3    H1 9717   5.015   4.477   1.142
 3237TIP3    H2 9718   4.886   4.457   1.065
 3238TIP3   OH2 9719   4.056   1.474   2.447
 3238TIP3    H1 9720   4.062   1.436   2.535
 3238TIP3    H2 9721   4.127   1.539   2.444
 3239TIP3   OH2 9722   2.791   5.508   4.628
 3239TIP3    H1 9723   2.753   5.439   4.683
 3239TIP3    H2 9724   2.788   5.587   4.682
 3240TIP3   OH2 9725   0.992   4.547   3.233
 3240TIP3    H1 9726   1.018   4.601   3.307
 3240TIP3    H2 9727   1.010   4.600   3.156
 3241TIP3   OH2 9728   4.216   4.691   0.002
 3241TIP3    H1 9729   4.287   4.657   0.056
 3241TIP3    H2 9730   4.141   4.697   0.061
 3242TIP3   OH2 9731   4.019   4.618   4.322
 3242TIP3    H1 9732   3.940   4.569   4.346
 3242TIP3    H2 9733   3.987   4.686   4.262
 3243TIP3   OH2 9734   2.656   3.916   0.010
 3243TIP3    H1 9735   2.748   3.887   0.011
 3243TIP3    H2 9736   2.661   4.011   0.018
 3244TIP3   OH2 9737   5.478   2.842   1.028
 3244TIP3    H1 9738   5.497   2.798   0.945
 3244TIP3    H2 9739   5.423   2.916   1.004
 3245TIP3   OH2 9740   5.813   1.601   4.184
 3245TIP3    H1 9741   5.858   1.605   4.100
 3245TIP3    H2 9742   5.762   1.521   4.180
 3246TIP3   OH2 9743   3.517   3.441   2.803
 3246TIP3    H1 9744   3.475   3.524   2.822
 3246TIP3    H2 9745   3.503   3.428   2.709
 3247TIP3   OH2 9746   0.986   2.968   5.155
 3247TIP3    H1 9747   0.913   2.996   5.099
 3247TIP3    H2 9748   1.062   3.012   5.118
 3248TIP3   OH2 9749   4.763   5.866   1.035
 3248TIP3    H1 9750   4.840   5.837   0.987
 3248TIP3    H2 9751   4.795   5.885   1.123
 3249TIP3   OH2 9752   2.746   1.701   2.396
 3249TIP3    H1 9753   2.743   1.669   2.305
 3249TIP3    H2 9754   2.775   1.791   2.388
 3250TIP3   OH2 9755   3.147   4.495   4.872
 3250TIP3    H1 9756   3.242   4.483   4.879
 3250TIP3    H2 9757   3.133   4.524   4.782
 3251TIP3   OH2 9758   1.896   0.502   1.438
 3251TIP3    H1 9759   1.870   0.588   1.473
 3251TIP3    H2 9760   1.991   0.510   1.423
 3252TIP3   OH2 9761   2.918   3.628   5.089
 3252TIP3    H1 9762   2.934   3.608   5.182
 3252TIP3    H2 9763   2.832   3.591   5.071
 3253TIP3   OH2 9764   3.183   1.017   1.767
 3253TIP3    H1 9765   3.273   1.042   1.746
 3253TIP3    H2 9766   3.184   0.998   1.860
 3254TIP3   OH2 9767   4.968   0.848   1.474
 3254TIP3    H1 9768   4.976   0.897   1.392
 3254TIP3    H2 9769   4.965   0.756   1.447
 3255TIP3   OH2 9770   4.786   5.345   1.227
 3255TIP3    H1 9771   4.786   5.378   1.317
 3255TIP3    H2 9772   4.693   5.344   1.202
 3256TIP3   OH2 9773   1.594   3.660   1.622
 3256TIP3    H1 9774   1.687   3.655   1.641
 3256TIP3    H2 9775   1.557   3.707   1.697
 3257TIP3   OH2 9776   5.578   5.182   3.175
 3257TIP3    H1 9777   5.563   5.135   3.258
 3257TIP3    H2 9778   5.492   5.218   3.153
 3258TIP3   OH2 9779   3.122   0.337   3.587
 3258TIP3    H1 9780   3.061   0.323   3.659
 3258TIP3    H2 9781   3.167   0.253   3.577
 3259TIP3   OH2 9782   2.392   3.211   5.087
 3259TIP3    H1 9783   2.314   3.204   5.142
 3259TIP3    H2 9784   2.370   3.276   5.020
 3260TIP3   OH2 9785   3.871   5.671   0.239
 3260TIP3    H1 9786   3.793   5.706   0.196
 3260TIP3    H2 9787   3.907   5.746   0.287
 3261TIP3   OH2 9788   0.726   2.579   1.532
 3261TIP3    H1 9789   0.635   2.566   1.560
 3261TIP3    H2 9790   0.773   2.595   1.613
 3262TIP3   OH2 9791   4.770   0.246   5.196
 3262TIP3    H1 9792   4.815   0.167   5.225
 3262TIP3    H2 9793   4.830   0.287   5.134
 3263TIP3   OH2 9794   0.710   4.342   4.489
 3263TIP3    H1 9795   0.772   4.342   4.562
 3263TIP3    H2 9796   0.711   4.432   4.456
 3264TIP3   OH2 9797   4.255   0.252   4.983
 3264TIP3    H1 9798   4.345   0.260   5.014
 3264TIP3    H2 9799   4.241   0.328   4.927
 3265TIP3   OH2 9800   4.202   2.731   1.813
 3265TIP3    H1 9801   4.134   2.668   1.838
 3265TIP3    H2 9802   4.191   2.804   1.874
 3266TIP3   OH2 9803   2.054   1.528   1.942
 3266TIP3    H1 9804   2.006   1.600   1.983
 3266TIP3    H2 9805   2.101   1.486   2.014
 3267TIP3   OH2 9806   1.308   3.927   4.632
 3267TIP3    H1 9807   1.303   3.987   4.558
 3267TIP3    H2 9808   1.356   3.851   4.598
 3268TIP3   OH2 9809   6.180   3.372   3.481
 3268TIP3    H1 9810   6.216   3.410   3.400
 3268TIP3    H2 9811   6.238   3.403   3.550
 3269TIP3   OH2 9812   1.942   5.273   5.194
 3269TIP3    H1 9813   1.969   5.318   5.114
 3269TIP3    H2 9814   1.880   5.206   5.164
 3270TIP3   OH2 9815   4.081   5.143   4.652
 3270TIP3    H1 9816   3.994   5.168   4.682
 3270TIP3    H2 9817   4.127   5.226   4.639
 3271TIP3   OH2 9818   4.109   1.241   4.772
 3271TIP3    H1 9819   4.183   1.273   4.824
 3271TIP3    H2 9820   4.149   1.178   4.711
 3272TIP3   OH2 9821   3.187   4.136   2.092
 3272TIP3    H1 9822   3.268   4.105   2.051
 3272TIP3    H2 9823   3.121   4.130   2.023
 3273TIP3   OH2 9824   0.850   4.139   0.870
 3273TIP3    H1 9825   0.851   4.123   0.776
 3273TIP3    H2 9826   0.914   4.209   0.883
 3274TIP3   OH2 9827   0.113   5.636   2.083
 3274TIP3    H1 9828   0.092   5.724   2.115
 3274TIP3    H2 9829   0.035   5.610   2.033
 3275TIP3   OH2 9830   0.553   0.527   2.173
 3275TIP3    H1 9831   0.588   0.515   2.261
 3275TIP3    H2 9832   0.490   0.456   2.163
 3276TIP3   OH2 9833   0.195   5.663   0.640
 3276TIP3    H1 9834   0.232   5.647   0.727
 3276TIP3    H2 9835   0.119   5.606   0.635
 3277TIP3   OH2 9836   4.184   2.806   4.275
 3277TIP3    H1 9837   4.252   2.778   4.337
 3277TIP3    H2 9838   4.204   2.898   4.257
 3278TIP3   OH2 9839   4.748   2.069   2.064
 3278TIP3    H1 9840   4.809   2.034   2.129
 3278TIP3    H2 9841   4.731   2.159   2.093
 3279TIP3   OH2 9842   3.976   3.543   2.487
 3279TIP3    H1 9843   4.046   3.502   2.537
 3279TIP3    H2 9844   4.020   3.599   2.424
 3280TIP3   OH2 9845   0.751   1.345   4.979
 3280TIP3    H1 9846   0.713   1.412   5.036
 3280TIP3    H2 9847   0.842   1.339   5.006
 3281TIP3   OH2 9848   2.346   1.713   4.135
 3281TIP3    H1 9849   2.360   1.622   4.162
 3281TIP3    H2 9850   2.426   1.758   4.164
 3282TIP3   OH2 9851   3.401   4.774   4.606
 3282TIP3    H1 9852   3.367   4.822   4.531
 3282TIP3    H2 9853   3.490   4.750   4.581
 3283TIP3   OH2 9854   5.026   2.238   3.698
 3283TIP3    H1 9855   5.025   2.249   3.794
 3283TIP3    H2 9856   5.117   2.258   3.674
 3284TIP3   OH2 9857   2.598   0.067   4.486
 3284TIP3    H1 9858   2.623   0.143   4.539
 3284TIP3    H2 9859   2.508   0.048   4.511
 3285TIP3   OH2 9860   2.969   2.259   3.811
 3285TIP3    H1 9861   2.965   2.345   3.853
 3285TIP3    H2 9862   3.059   2.250   3.781
 3286TIP3   OH2 9863   6.173   0.533   1.788
 3286TIP3    H1 9864   6.254   0.562   1.831
 3286TIP3    H2 9865   6.119   0.501   1.860
 3287TIP3   OH2 9866   4.422   0.758   2.965
 3287TIP3    H1 9867   4.379   0.839   2.939
 3287TIP3    H2 9868   4.362   0.688   2.938
 3288TIP3   OH2 9869   0.039   0.311   3.549
 3288TIP3    H1 9870   0.055   0.395   3.592
 3288TIP3    H2 9871   0.057   0.327   3.457
 3289TIP3   OH2 9872   5.178   2.765   2.465
 3289TIP3    H1 9873   5.207   2.702   2.398
 3289TIP3    H2 9874   5.199   2.851   2.428
 3290TIP3   OH2 9875   0.306   3.519   4.805
 3290TIP3    H1 9876   0.300   3.424   4.790
 3290TIP3    H2 9877   0.398   3.534   4.828
 3291TIP3   OH2 9878   2.078   3.726   5.042
 3291TIP3    H1 9879   2.094   3.668   4.968
 3291TIP3    H2 9880   2.114   3.680   5.118
 3292TIP3   OH2 9881   2.062   5.307   3.701
 3292TIP3    H1 9882   2.041   5.348   3.785
 3292TIP3    H2 9883   2.099   5.378   3.648
 3293TIP3   OH2 9884   5.464   0.226   4.132
 3293TIP3    H1 9885   5.411   0.274   4.068
 3293TIP3    H2 9886   5.424   0.139   4.136
 3294TIP3   OH2 9887   2.000   2.101   3.379
 3294TIP3    H1 9888   1.950   2.176   3.413
 3294TIP3    H2 9889   1.933   2.039   3.350
 3295TIP3   OH2 9890   2.655   1.349   2.956
 3295TIP3    H1 9891   2.675   1.324   3.046
 3295TIP3    H2 9892   2.662   1.268   2.906
 3296TIP3   OH2 9893   5.834   5.526   0.698
 3296TIP3    H1 9894   5.753   5.554   0.741
 3296TIP3    H2 9895   5.819   5.433   0.679
 3297TIP3   OH2 9896   4.118   1.617   4.187
 3297TIP3    H1 9897   4.066   1.629   4.266
 3297TIP3    H2 9898   4.110   1.524   4.167
 3298TIP3   OH2 9899   0.249   4.669   1.173
 3298TIP3    H1 9900   0.313   4.692   1.106
 3298TIP3    H2 9901   0.206   4.590   1.140
 3299TIP3   OH2 9902   3.040   0.537   0.259
 3299TIP3    H1 9903   2.956   0.580   0.242
 3299TIP3    H2 9904   3.099   0.609   0.283
 3300TIP3   OH2 9905   3.494   0.977   3.906
 3300TIP3    H1 9906   3.565   0.918   3.931
 3300TIP3    H2 9907   3.423   0.955   3.966
 3301TIP3   OH2 9908   2.445   2.479   1.907
 3301TIP3    H1 9909   2.500   2.424   1.963
 3301TIP3    H2 9910   2.356   2.448   1.924
 3302TIP3   OH2 9911   3.565   0.679   1.075
 3302TIP3    H1 9912   3.470   0.694   1.077
 3302TIP3    H2 9913   3.594   0.722   0.995
 3303TIP3   OH2 9914   1.040   5.864   4.906
 3303TIP3    H1 9915   1.079   5.944   4.872
 3303TIP3    H2 9916   1.035   5.877   5.000
 3304TIP3   OH2 9917   1.858   2.590   0.964
 3304TIP3    H1 9918   1.812   2.645   1.027
 3304TIP3    H2 9919   1.893   2.651   0.900
 3305TIP3   OH2 9920   2.397   5.666   0.815
 3305TIP3    H1 9921   2.444   5.582   0.816
 3305TIP3    H2 9922   2.340   5.662   0.892
 3306TIP3   OH2 9923   4.197   4.318   1.382
 3306TIP3    H1 9924   4.250   4.363   1.316
 3306TIP3    H2 9925   4.109   4.351   1.367
 3307TIP3   OH2 9926   5.322   5.506   4.885
 3307TIP3    H1 9927   5.226   5.500   4.886
 3307TIP3    H2 9928   5.342   5.557   4.807
 3308TIP3   OH2 9929   5.398   3.970   0.988
 3308TIP3    H1 9930   5.395   3.960   1.083
 3308TIP3    H2 9931   5.307   3.965   0.960
 3309TIP3   OH2 9932   4.598   1.862   2.475
 3309TIP3    H1 9933   4.639   1.802   2.412
 3309TIP3    H2 9934   4.538   1.807   2.525
 3310TIP3   OH2 9935   5.814   0.663   3.727
 3310TIP3    H1 9936   5.759   0.650   3.804
 3310TIP3    H2 9937   5.781   0.744   3.687
 3311TIP3   OH2 9938   2.734   4.285   5.009
 3311TIP3    H1 9939   2.789   4.355   5.044
 3311TIP3    H2 9940   2.666   4.330   4.959
 3312TIP3   OH2 9941   0.531   2.298   4.896
 3312TIP3    H1 9942   0.620   2.294   4.861
 3312TIP3    H2 9943   0.492   2.214   4.871
 3313TIP3   OH2 9944   4.016   2.909   2.382
 3313TIP3    H1 9945   4.035   2.991   2.427
 3313TIP3    H2 9946   4.094   2.855   2.397
 3314TIP3   OH2 9947   4.118   3.294   0.722
 3314TIP3    H1 9948   4.156   3.378   0.696
 3314TIP3    H2 9949   4.194   3.241   0.749
 3315TIP3   OH2 9950   3.199   4.128   4.321
 3315TIP3    H1 9951   3.250   4.097   4.246
 3315TIP3    H2 9952   3.259   4.120   4.396
 3316TIP3   OH2 9953   2.594   3.483   4.549
 3316TIP3    H1 9954   2.580   3.465   4.457
 3316TIP3    H2 9955   2.580   3.399   4.593
 3317TIP3   OH2 9956   2.902   4.923   1.478
 3317TIP3    H1 9957   2.854   4.841   1.490
 3317TIP3    H2 9958   2.860   4.965   1.403
 3318TIP3   OH2 9959   2.381   3.654   3.511
 3318TIP3    H1 9960   2.429   3.706   3.575
 3318TIP3    H2 9961   2.437   3.577   3.496
 3319TIP3   OH2 9962   1.873   4.342   1.364
 3319TIP3    H1 9963   1.917   4.360   1.447
 3319TIP3    H2 9964   1.780   4.347   1.385
 3320TIP3   OH2 9965   0.177   5.842   2.901
 3320TIP3    H1 9966   0.179   5.920   2.845
 3320TIP3    H2 9967   0.086   5.836   2.930
 3321TIP3   OH2 9968   4.270   4.728   4.349
 3321TIP3    H1 9969   4.247   4.794   4.414
 3321TIP3    H2 9970   4.190   4.678   4.336
 3322TIP3   OH2 9971   1.196   5.594   4.302
 3322TIP3    H1 9972   1.125   5.649   4.267
 3322TIP3    H2 9973   1.152   5.514   4.331
 3323TIP3   OH2 9974   2.137   3.935   0.588
 3323TIP3    H1 9975   2.053   3.944   0.543
 3323TIP3    H2 9976   2.119   3.875   0.661
 3324TIP3   OH2 9977   2.325   5.158   5.045
 3324TIP3    H1 9978   2.353   5.191   4.960
 3324TIP3    H2 9979   2.281   5.076   5.026
 3325TIP3   OH2 9980   2.733   2.618   2.414
 3325TIP3    H1 9981   2.761   2.709   2.422
 3325TIP3    H2 9982   2.778   2.573   2.485
 3326TIP3   OH2 9983   6.186   2.300   4.789
 3326TIP3    H1 9984   6.185   2.277   4.696
 3326TIP3    H2 9985   6.237   2.230   4.830
 3327TIP3   OH2 9986   5.951   1.343   4.930
 3327TIP3    H1 9987   5.892   1.280   4.889
 3327TIP3    H2 9988   5.916   1.429   4.904
 3328TIP3   OH2 9989   5.609   3.169   3.596
 3328TIP3    H1 9990   5.550   3.243   3.582
 3328TIP3    H2 9991   5.686   3.207   3.638
 3329TIP3   OH2 9992   4.845   4.185   4.847
 3329TIP3    H1 9993   4.752   4.173   4.830
 3329TIP3    H2 9994   4.883   4.204   4.761
 3330TIP3   OH2 9995   5.230   2.620   1.017
 3330TIP3    H1 9996   5.291   2.671   1.070
 3330TIP3    H2 9997   5.150   2.672   1.016
 3331TIP3   OH2 9998   0.127   2.262   1.414
 3331TIP3    H1 9999   0.088   2.210   1.344
 3331TIP3    H210000   0.075   2.343   1.415
 3332TIP3   OH210001   0.356   2.175   3.665
 3332TIP3    H110002   0.303   2.220   3.599
 3332TIP3    H210003   0.353   2.083   3.638
 3333TIP3   OH210004   1.674   2.231   1.286
 3333TIP3    H110005   1.764   2.258   1.270
 3333TIP3    H210006   1.621   2.300   1.245
 3334TIP3   OH210007   2.901   4.531   1.341
 3334TIP3    H110008   2.807   4.527   1.324
 3334TIP3    H210009   2.941   4.516   1.255
 3335TIP3   OH210010   4.833   3.522   3.727
 3335TIP3    H110011   4.833   3.524   3.823
 3335TIP3    H210012   4.907   3.467   3.703
 3336TIP3   OH210013   2.063   4.430   2.913
 3336TIP3    H110014   2.050   4.411   2.820
 3336TIP3    H210015   2.088   4.347   2.951
 3337TIP3   OH210016   1.197   0.982   4.272
 3337TIP3    H110017   1.257   0.927   4.321
 3337TIP3    H210018   1.178   1.055   4.331
 3338TIP3   OH210019   1.709   2.120   2.069
 3338TIP3    H110020   1.711   2.060   2.144
 3338TIP3    H210021   1.623   2.162   2.076
 3339TIP3   OH210022   1.266   0.054   1.755
 3339TIP3    H110023   1.348   0.074   1.800
 3339TIP3    H210024   1.215   0.006   1.820
 3340TIP3   OH210025   2.053   4.318   4.138
 3340TIP3    H110026   2.128   4.369   4.108
 3340TIP3    H210027   2.029   4.264   4.062
 3341TIP3   OH210028   1.783   4.982   0.052
 3341TIP3    H110029   1.689   5.000   0.042
 3341TIP3    H210030   1.797   4.902   0.002
 3342TIP3   OH210031   4.648   4.079   1.712
 3342TIP3    H110032   4.592   4.044   1.782
 3342TIP3    H210033   4.715   4.130   1.758
 3343TIP3   OH210034   3.486   1.309   1.053
 3343TIP3    H110035   3.581   1.303   1.042
 3343TIP3    H210036   3.472   1.394   1.096
 3344TIP3   OH210037   5.371   3.299   0.170
 3344TIP3    H110038   5.371   3.387   0.132
 3344TIP3    H210039   5.444   3.298   0.232
 3345TIP3   OH210040   5.977   4.514   3.022
 3345TIP3    H110041   5.890   4.487   2.992
 3345TIP3    H210042   6.036   4.452   2.981
 3346TIP3   OH210043   1.494   3.258   2.266
 3346TIP3    H110044   1.496   3.342   2.313
 3346TIP3    H210045   1.528   3.279   2.179
 3347TIP3   OH210046   4.674   4.416   3.137
 3347TIP3    H110047   4.721   4.449   3.214
 3347TIP3    H210048   4.641   4.330   3.164
 3348TIP3   OH210049   0.098   2.761   0.122
 3348TIP3    H110050   0.146   2.681   0.146
 3348TIP3    H210051   0.033   2.732   0.059
 3349TIP3   OH210052   2.481   5.923   0.321
 3349TIP3    H110053   2.512   5.855   0.382
 3349TIP3    H210054   2.389   5.901   0.307
 3350TIP3   OH210055   0.778   4.260   0.231
 3350TIP3    H110056   0.690   4.223   0.226
 3350TIP3    H210057   0.834   4.186   0.255
 3351TIP3   OH210058   6.293   1.481   4.371
 3351TIP3    H110059   6.273   1.392   4.399
 3351TIP3    H210060   6.227   1.501   4.304
 3352TIP3   OH210061   1.572   2.915   2.854
 3352TIP3    H110062   1.631   2.914   2.779
 3352TIP3    H210063   1.631   2.918   2.930
 3353TIP3   OH210064   4.670   4.003   0.926
 3353TIP3    H110065   4.714   4.088   0.929
 3353TIP3    H210066   4.639   3.988   1.015
 3354TIP3   OH210067   0.553   0.885   4.085
 3354TIP3    H110068   0.520   0.801   4.053
 3354TIP3    H210069   0.539   0.945   4.012
 3355TIP3   OH210070   3.431   1.370   2.074
 3355TIP3    H110071   3.352   1.334   2.116
 3355TIP3    H210072   3.404   1.386   1.984
 3356TIP3   OH210073   3.829   4.926   3.850
 3356TIP3    H110074   3.890   4.896   3.782
 3356TIP3    H210075   3.884   4.935   3.928
 3357TIP3   OH210076   5.928   5.403   3.883
 3357TIP3    H110077   5.906   5.314   3.909
 3357TIP3    H210078   5.846   5.440   3.850
 3358TIP3   OH210079   2.785   1.042   2.416
 3358TIP3    H110080   2.819   0.990   2.490
 3358TIP3    H210081   2.845   1.024   2.344
 3359TIP3   OH210082   6.025   4.182   3.964
 3359TIP3    H110083   6.111   4.166   3.926
 3359TIP3    H210084   6.027   4.274   3.990
 3360TIP3   OH210085   2.229   1.378   4.477
 3360TIP3    H110086   2.230   1.292   4.519
 3360TIP3    H210087   2.193   1.436   4.544
 3361TIP3   OH210088   3.924   3.158   3.328
 3361TIP3    H110089   3.844   3.210   3.329
 3361TIP3    H210090   3.929   3.119   3.415
 3362TIP3   OH210091   5.121   1.638   3.356
 3362TIP3    H110092   5.171   1.566   3.317
 3362TIP3    H210093   5.046   1.596   3.397
 3363TIP3   OH210094   2.912   3.197   2.543
 3363TIP3    H110095   2.999   3.207   2.504
 3363TIP3    H210096   2.889   3.285   2.572
 3364TIP3   OH210097   6.023   4.841   0.405
 3364TIP3    H110098   6.060   4.860   0.319
 3364TIP3    H210099   6.028   4.924   0.452
 3365TIP3   OH210100   0.352   3.221   2.845
 3365TIP3    H110101   0.416   3.276   2.890
 3365TIP3    H210102   0.344   3.260   2.758
 3366TIP3   OH210103   1.658   3.335   2.048
 3366TIP3    H110104   1.745   3.299   2.028
 3366TIP3    H210105   1.665   3.427   2.027
 3367TIP3   OH210106   4.789   1.870   0.741
 3367TIP3    H110107   4.718   1.807   0.725
 3367TIP3    H210108   4.753   1.929   0.807
 3368TIP3   OH210109   5.525   0.461   4.433
 3368TIP3    H110110   5.521   0.437   4.526
 3368TIP3    H210111   5.589   0.399   4.396
 3369TIP3   OH210112   4.524   0.380   3.791
 3369TIP3    H110113   4.482   0.345   3.712
 3369TIP3    H210114   4.501   0.473   3.790
 3370TIP3   OH210115   5.583   0.804   3.402
 3370TIP3    H110116   5.589   0.708   3.402
 3370TIP3    H210117   5.501   0.823   3.449
 3371TIP3   OH210118   2.732   3.906   1.648
 3371TIP3    H110119   2.712   3.926   1.740
 3371TIP3    H210120   2.698   3.818   1.635
 3372TIP3   OH210121   4.893   2.438   4.612
 3372TIP3    H110122   4.818   2.391   4.650
 3372TIP3    H210123   4.890   2.416   4.519
 3373TIP3   OH210124   2.655   4.275   0.267
 3373TIP3    H110125   2.663   4.363   0.231
 3373TIP3    H210126   2.664   4.217   0.191
 3374TIP3   OH210127   0.673   0.326   0.528
 3374TIP3    H110128   0.601   0.389   0.530
 3374TIP3    H210129   0.751   0.379   0.544
 3375TIP3   OH210130   4.326   4.695   0.955
 3375TIP3    H110131   4.292   4.691   1.045
 3375TIP3    H210132   4.399   4.634   0.954
 3376TIP3   OH210133   3.785   0.127   0.557
 3376TIP3    H110134   3.726   0.177   0.501
 3376TIP3    H210135   3.736   0.116   0.639
 3377TIP3   OH210136   0.406   3.270   0.736
 3377TIP3    H110137   0.367   3.347   0.694
 3377TIP3    H210138   0.386   3.197   0.676
 3378TIP3   OH210139   5.814   3.529   0.646
 3378TIP3    H110140   5.779   3.609   0.605
 3378TIP3    H210141   5.772   3.526   0.732
 3379TIP3   OH210142   3.237   5.059   3.435
 3379TIP3    H110143   3.172   5.109   3.486
 3379TIP3    H210144   3.321   5.097   3.460
 3380TIP3   OH210145   3.616   3.877   1.792
 3380TIP3    H110146   3.599   3.797   1.842
 3380TIP3    H210147   3.706   3.867   1.761
 3381TIP3   OH210148   5.097   3.693   1.423
 3381TIP3    H110149   5.042   3.674   1.347
 3381TIP3    H210150   5.175   3.639   1.409
 3382TIP3   OH210151   0.867   0.849   1.557
 3382TIP3    H110152   0.816   0.928   1.572
 3382TIP3    H210153   0.916   0.866   1.477
 3383TIP3   OH210154   2.915   3.406   0.295
 3383TIP3    H110155   2.963   3.489   0.296
 3383TIP3    H210156   2.828   3.428   0.262
 3384TIP3   OH210157   2.078   0.246   0.883
 3384TIP3    H110158   2.093   0.266   0.975
 3384TIP3    H210159   2.161   0.264   0.840
 3385TIP3   OH210160   2.616   3.251   3.006
 3385TIP3    H110161   2.702   3.239   2.967
 3385TIP3    H210162   2.583   3.333   2.968
 3386TIP3   OH210163   0.347   3.279   0.466
 3386TIP3    H110164   0.276   3.220   0.439
 3386TIP3    H210165   0.369   3.328   0.387
 3387TIP3   OH210166   5.126   5.385   1.004
 3387TIP3    H110167   5.040   5.344   0.994
 3387TIP3    H210168   5.177   5.352   0.930
 3388TIP3   OH210169   4.581   2.372   2.435
 3388TIP3    H110170   4.661   2.356   2.486
 3388TIP3    H210171   4.511   2.337   2.490
 3389TIP3   OH210172   0.220   5.940   5.132
 3389TIP3    H110173   0.155   5.873   5.153
 3389TIP3    H210174   0.215   6.002   5.205
 3390TIP3   OH210175   2.534   2.115   4.625
 3390TIP3    H110176   2.615   2.076   4.659
 3390TIP3    H210177   2.467   2.048   4.640
 3391TIP3   OH210178   5.441   5.705   3.677
 3391TIP3    H110179   5.417   5.615   3.699
 3391TIP3    H210180   5.420   5.714   3.584
 3392TIP3   OH210181   3.222   3.202   2.647
 3392TIP3    H110182   3.269   3.259   2.586
 3392TIP3    H210183   3.214   3.254   2.727
 3393TIP3   OH210184   5.611   0.846   4.208
 3393TIP3    H110185   5.689   0.813   4.252
 3393TIP3    H210186   5.644   0.885   4.127
 3394TIP3   OH210187   3.436   3.752   4.986
 3394TIP3    H110188   3.452   3.838   4.946
 3394TIP3    H210189   3.343   3.736   4.972
 3395TIP3   OH210190   2.398   1.329   1.828
 3395TIP3    H110191   2.318   1.278   1.821
 3395TIP3    H210192   2.440   1.320   1.743
 3396TIP3   OH210193   3.853   2.505   3.702
 3396TIP3    H110194   3.899   2.422   3.694
 3396TIP3    H210195   3.856   2.526   3.795
 3397TIP3   OH210196   4.302   1.581   2.234
 3397TIP3    H110197   4.278   1.673   2.238
 3397TIP3    H210198   4.396   1.581   2.218
 3398TIP3   OH210199   3.292   4.122   0.786
 3398TIP3    H110200   3.221   4.165   0.738
 3398TIP3    H210201   3.336   4.193   0.833
 3399TIP3   OH210202   1.529   0.164   2.637
 3399TIP3    H110203   1.472   0.190   2.565
 3399TIP3    H210204   1.569   0.247   2.667
 3400TIP3   OH210205   1.780   2.391   0.810
 3400TIP3    H110206   1.836   2.374   0.734
 3400TIP3    H210207   1.823   2.462   0.857
 3401TIP3   OH210208   5.721   3.476   0.335
 3401TIP3    H110209   5.745   3.420   0.409
 3401TIP3    H210210   5.747   3.426   0.258
 3402TIP3   OH210211   5.979   5.257   1.792
 3402TIP3    H110212   5.949   5.172   1.761
 3402TIP3    H210213   5.971   5.252   1.888
 3403TIP3   OH210214   5.335   3.620   1.784
 3403TIP3    H110215   5.420   3.616   1.740
 3403TIP3    H210216   5.272   3.590   1.718
 3404TIP3   OH210217   4.198   1.390   2.068
 3404TIP3    H110218   4.187   1.301   2.102
 3404TIP3    H210219   4.220   1.443   2.144
 3405TIP3   OH210220   3.386   2.008   4.954
 3405TIP3    H110221   3.359   2.039   4.867
 3405TIP3    H210222   3.349   1.920   4.961
 3406TIP3   OH210223   2.427   1.102   0.992
 3406TIP3    H110224   2.474   1.023   0.965
 3406TIP3    H210225   2.486   1.146   1.053
 3407TIP3   OH210226   6.329   5.010   0.495
 3407TIP3    H110227   6.311   5.100   0.467
 3407TIP3    H210228   6.417   5.013   0.530
 3408TIP3   OH210229   5.677   1.447   0.720
 3408TIP3    H110230   5.609   1.491   0.771
 3408TIP3    H210231   5.739   1.516   0.698
 3409TIP3   OH210232   3.540   1.139   4.127
 3409TIP3    H110233   3.622   1.152   4.175
 3409TIP3    H210234   3.565   1.092   4.048
 3410TIP3   OH210235   3.413   2.175   1.120
 3410TIP3    H110236   3.394   2.086   1.152
 3410TIP3    H210237   3.445   2.162   1.031
 3411TIP3   OH210238   4.688   4.392   3.531
 3411TIP3    H110239   4.723   4.432   3.611
 3411TIP3    H210240   4.752   4.413   3.463
 3412TIP3   OH210241   4.816   4.095   3.561
 3412TIP3    H110242   4.814   4.154   3.486
 3412TIP3    H210243   4.847   4.149   3.634
 3413TIP3   OH210244   5.447   1.779   2.255
 3413TIP3    H110245   5.391   1.743   2.186
 3413TIP3    H210246   5.520   1.716   2.261
 3414TIP3   OH210247   1.608   0.473   4.880
 3414TIP3    H110248   1.668   0.451   4.809
 3414TIP3    H210249   1.605   0.395   4.935
 3415TIP3   OH210250   3.133   2.736   0.388
 3415TIP3    H110251   3.111   2.744   0.481
 3415TIP3    H210252   3.199   2.804   0.374
 3416TIP3   OH210253   1.156   1.476   2.598
 3416TIP3    H110254   1.130   1.524   2.520
 3416TIP3    H210255   1.235   1.520   2.628
 3417TIP3   OH210256   2.136  -0.006   1.241
 3417TIP3    H110257   2.210  -0.067   1.234
 3417TIP3    H210258   2.177   0.080   1.249
 3418TIP3   OH210259   1.841   2.695   2.435
 3418TIP3    H110260   1.756   2.684   2.392
 3418TIP3    H210261   1.876   2.775   2.397
 3419TIP3   OH210262   2.583   2.036   2.557
 3419TIP3    H110263   2.593   2.047   2.651
 3419TIP3    H210264   2.659   2.079   2.519
 3420TIP3   OH210265   1.151   4.194   2.439
 3420TIP3    H110266   1.203   4.134   2.385
 3420TIP3    H210267   1.216   4.244   2.489
 3421TIP3   OH210268   3.368   1.373   0.804
 3421TIP3    H110269   3.276   1.349   0.815
 3421TIP3    H210270   3.414   1.330   0.876
 3422TIP3   OH210271   1.207   5.645   4.860
 3422TIP3    H110272   1.170   5.587   4.793
 3422TIP3    H210273   1.152   5.723   4.857
 3423TIP3   OH210274   0.984   3.813   0.639
 3423TIP3    H110275   0.907   3.763   0.665
 3423TIP3    H210276   1.030   3.756   0.577
 3424TIP3   OH210277   1.858   2.015   0.193
 3424TIP3    H110278   1.811   2.081   0.244
 3424TIP3    H210279   1.790   1.954   0.165
 3425TIP3   OH210280   2.037   5.824   2.197
 3425TIP3    H110281   1.999   5.908   2.169
 3425TIP3    H210282   2.132   5.840   2.197
 3426TIP3   OH210283   2.284   4.212   0.390
 3426TIP3    H110284   2.368   4.166   0.385
 3426TIP3    H210285   2.224   4.159   0.337
 3427TIP3   OH210286   0.087   0.896   4.869
 3427TIP3    H110287  -0.002   0.861   4.866
 3427TIP3    H210288   0.103   0.916   4.961
 3428TIP3   OH210289   2.961   2.990   2.226
 3428TIP3    H110290   2.971   3.078   2.190
 3428TIP3    H210291   3.050   2.956   2.230
 3429TIP3   OH210292   0.590   3.057   2.955
 3429TIP3    H110293   0.546   3.045   2.871
 3429TIP3    H210294   0.543   3.129   2.997
 3430TIP3   OH210295   1.491   3.853   1.775
 3430TIP3    H110296   1.403   3.820   1.758
 3430TIP3    H210297   1.480   3.913   1.849
 3431TIP3   OH210298   0.274   4.409   3.252
 3431TIP3    H110299   0.237   4.321   3.265
 3431TIP3    H210300   0.256   4.454   3.334
 3432TIP3   OH210301   6.273   5.991   4.271
 3432TIP3    H110302   6.313   5.985   4.358
 3432TIP3    H210303   6.262   5.900   4.244
 3433TIP3   OH210304   4.554   0.937   3.700
 3433TIP3    H110305   4.647   0.921   3.688
 3433TIP3    H210306   4.521   0.959   3.612
 3434TIP3   OH210307   0.525   4.110   1.976
 3434TIP3    H110308   0.555   4.200   1.959
 3434TIP3    H210309   0.437   4.107   1.938
 3435TIP3   OH210310   3.144   0.451   2.099
 3435TIP3    H110311   3.228   0.415   2.070
 3435TIP3    H210312   3.146   0.543   2.073
 3436TIP3   OH210313   5.450   0.830   1.138
 3436TIP3    H110314   5.425   0.829   1.230
 3436TIP3    H210315   5.527   0.887   1.134
 3437TIP3   OH210316   5.724   2.625   2.478
 3437TIP3    H110317   5.658   2.620   2.408
 3437TIP3    H210318   5.684   2.580   2.552
 3438TIP3   OH210319   3.857   5.579   4.398
 3438TIP3    H110320   3.927   5.556   4.338
 3438TIP3    H210321   3.781   5.594   4.342
 3439TIP3   OH210322   3.077   4.551   0.176
 3439TIP3    H110323   3.121   4.612   0.235
 3439TIP3    H210324   3.031   4.490   0.235
 3440TIP3   OH210325   3.714   1.273   3.329
 3440TIP3    H110326   3.697   1.262   3.235
 3440TIP3    H210327   3.796   1.322   3.333
 3441TIP3   OH210328   4.358   2.870   4.715
 3441TIP3    H110329   4.283   2.915   4.676
 3441TIP3    H210330   4.320   2.814   4.782
 3442TIP3   OH210331   0.782   0.576   0.230
 3442TIP3    H110332   0.822   0.608   0.311
 3442TIP3    H210333   0.848   0.520   0.191
 3443TIP3   OH210334   4.483   2.064   0.701
 3443TIP3    H110335   4.438   2.131   0.751
 3443TIP3    H210336   4.541   2.021   0.764
 3444TIP3   OH210337   2.748   5.390   2.223
 3444TIP3    H110338   2.836   5.412   2.193
 3444TIP3    H210339   2.754   5.298   2.250
 3445TIP3   OH210340   5.807   4.115   5.159
 3445TIP3    H110341   5.823   4.196   5.111
 3445TIP3    H210342   5.716   4.123   5.190
 3446TIP3   OH210343   4.972   2.877   1.346
 3446TIP3    H110344   5.025   2.799   1.366
 3446TIP3    H210345   4.958   2.873   1.251
 3447TIP3   OH210346   1.619   1.720   1.813
 3447TIP3    H110347   1.700   1.749   1.773
 3447TIP3    H210348   1.577   1.800   1.845
 3448TIP3   OH210349   5.644   4.551   2.425
 3448TIP3    H110350   5.724   4.592   2.393
 3448TIP3    H210351   5.574   4.607   2.394
 3449TIP3   OH210352   3.255   0.999   3.386
 3449TIP3    H110353   3.349   1.017   3.392
 3449TIP3    H210354   3.239   0.934   3.454
 3450TIP3   OH210355   3.290   1.615   0.888
 3450TIP3    H110356   3.227   1.643   0.821
 3450TIP3    H210357   3.336   1.541   0.849
 3451TIP3   OH210358   5.217   5.674   0.793
 3451TIP3    H110359   5.273   5.728   0.738
 3451TIP3    H210360   5.277   5.634   0.856
 3452TIP3   OH210361   5.433   1.951   4.659
 3452TIP3    H110362   5.397   1.930   4.573
 3452TIP3    H210363   5.436   1.868   4.706
 3453TIP3   OH210364   3.457   1.742   3.644
 3453TIP3    H110365   3.502   1.751   3.728
 3453TIP3    H210366   3.494   1.810   3.589
 3454TIP3   OH210367   4.289   0.305   2.428
 3454TIP3    H110368   4.363   0.264   2.384
 3454TIP3    H210369   4.223   0.236   2.435
 3455TIP3   OH210370   0.503   2.676   3.778
 3455TIP3    H110371   0.453   2.716   3.707
 3455TIP3    H210372   0.469   2.717   3.857
 3456TIP3   OH210373   2.183   0.027   4.008
 3456TIP3    H110374   2.127   0.013   4.085
 3456TIP3    H210375   2.272   0.021   4.041
 3457TIP3   OH210376   0.397   0.941   2.813
 3457TIP3    H110377   0.369   1.032   2.803
 3457TIP3    H210378   0.328   0.900   2.866
 3458TIP3   OH210379   4.332   2.520   0.047
 3458TIP3    H110380   4.257   2.571   0.079
 3458TIP3    H210381   4.309   2.496  -0.043
 3459TIP3   OH210382   3.153   3.382   2.889
 3459TIP3    H110383   3.242   3.394   2.921
 3459TIP3    H210384   3.136   3.459   2.835
 3460TIP3   OH210385   2.258   5.653   4.561
 3460TIP3    H110386   2.243   5.740   4.597
 3460TIP3    H210387   2.265   5.668   4.466
 3461TIP3   OH210388   4.988   2.671   4.739
 3461TIP3    H110389   5.053   2.706   4.678
 3461TIP3    H210390   4.947   2.598   4.692
 3462TIP3   OH210391   0.936   3.514   3.648
 3462TIP3    H110392   1.027   3.511   3.618
 3462TIP3    H210393   0.914   3.607   3.648
 3463TIP3   OH210394   5.734   5.712   4.182
 3463TIP3    H110395   5.756   5.706   4.274
 3463TIP3    H210396   5.717   5.621   4.155
 3464TIP3   OH210397   0.315   0.775   2.541
 3464TIP3    H110398   0.340   0.824   2.619
 3464TIP3    H210399   0.390   0.719   2.523
 3465TIP3   OH210400   6.355   0.027   3.914
 3465TIP3    H110401   6.272   0.073   3.924
 3465TIP3    H210402   6.374   0.032   3.820
 3466TIP3   OH210403   0.213   5.462   1.370
 3466TIP3    H110404   0.245   5.393   1.311
 3466TIP3    H210405   0.283   5.473   1.434
 3467TIP3   OH210406   2.607   3.211   0.389
 3467TIP3    H110407   2.682   3.167   0.348
 3467TIP3    H210408   2.560   3.141   0.434
 3468TIP3   OH210409   2.412   4.001   0.148
 3468TIP3    H110410   2.495   3.965   0.117
 3468TIP3    H210411   2.400   3.963   0.235
 3469TIP3   OH210412   2.500   0.570   4.397
 3469TIP3    H110413   2.589   0.602   4.410
 3469TIP3    H210414   2.481   0.589   4.305
 3470TIP3   OH210415   6.243   1.137   5.040
 3470TIP3    H110416   6.330   1.102   5.060
 3470TIP3    H210417   6.187   1.059   5.035
 3471TIP3   OH210418   4.190   3.092   3.254
 3471TIP3    H110419   4.226   3.122   3.338
 3471TIP3    H210420   4.095   3.102   3.264
 3472TIP3   OH210421   2.757   1.898   3.947
 3472TIP3    H110422   2.704   1.828   3.908
 3472TIP3    H210423   2.847   1.868   3.939
 3473TIP3   OH210424   0.615   4.340   3.908
 3473TIP3    H110425   0.635   4.337   4.002
 3473TIP3    H210426   0.519   4.340   3.905
 3474TIP3   OH210427   1.643   5.686   2.721
 3474TIP3    H110428   1.548   5.672   2.718
 3474TIP3    H210429   1.678   5.632   2.650
 3475TIP3   OH210430   2.364   3.987   2.917
 3475TIP3    H110431   2.388   3.899   2.946
 3475TIP3    H210432   2.344   4.034   2.998
 3476TIP3   OH210433   5.706   5.507   3.627
 3476TIP3    H110434   5.731   5.429   3.677
 3476TIP3    H210435   5.629   5.542   3.673
 3477TIP3   OH210436   5.668   0.702   4.591
 3477TIP3    H110437   5.592   0.685   4.535
 3477TIP3    H210438   5.695   0.791   4.567
 3478TIP3   OH210439   1.385   4.809   3.440
 3478TIP3    H110440   1.293   4.783   3.452
 3478TIP3    H210441   1.390   4.834   3.347
 3479TIP3   OH210442   2.261   2.805   5.187
 3479TIP3    H110443   2.183   2.798   5.132
 3479TIP3    H210444   2.263   2.722   5.236
 3480TIP3   OH210445   5.132   3.079   4.736
 3480TIP3    H110446   5.094   3.131   4.665
 3480TIP3    H210447   5.072   3.091   4.810
 3481TIP3   OH210448   3.322   5.496   2.191
 3481TIP3    H110449   3.292   5.415   2.151
 3481TIP3    H210450   3.418   5.493   2.183
 3482TIP3   OH210451   2.253   3.472   1.493
 3482TIP3    H110452   2.281   3.401   1.551
 3482TIP3    H210453   2.215   3.427   1.417
 3483TIP3   OH210454   5.042   4.116   2.432
 3483TIP3    H110455   4.979   4.188   2.437
 3483TIP3    H210456   4.992   4.042   2.398
 3484TIP3   OH210457   2.623   1.139   2.132
 3484TIP3    H110458   2.709   1.103   2.156
 3484TIP3    H210459   2.570   1.063   2.111
 3485TIP3   OH210460   1.665   3.601   0.928
 3485TIP3    H110461   1.761   3.602   0.927
 3485TIP3    H210462   1.642   3.508   0.921
 3486TIP3   OH210463   3.817   0.180   4.991
 3486TIP3    H110464   3.766   0.180   4.910
 3486TIP3    H210465   3.836   0.272   5.008
 3487TIP3   OH210466   0.981   4.966   0.370
 3487TIP3    H110467   0.922   4.894   0.390
 3487TIP3    H210468   0.924   5.038   0.343
 3488TIP3   OH210469   3.290   4.020   1.115
 3488TIP3    H110470   3.370   3.998   1.164
 3488TIP3    H210471   3.309   3.991   1.026
 3489TIP3   OH210472   1.449   4.967   0.496
 3489TIP3    H110473   1.524   5.004   0.449
 3489TIP3    H210474   1.375   4.979   0.437
 3490TIP3   OH210475   5.391   5.463   2.288
 3490TIP3    H110476   5.459   5.412   2.244
 3490TIP3    H210477   5.382   5.542   2.235
 3491TIP3   OH210478   2.642   5.816   0.754
 3491TIP3    H110479   2.609   5.905   0.748
 3491TIP3    H210480   2.570   5.766   0.794
 3492TIP3   OH210481   0.967   1.100   3.068
 3492TIP3    H110482   1.000   1.082   2.980
 3492TIP3    H210483   0.885   1.051   3.073
 3493TIP3   OH210484   5.325   0.179   3.866
 3493TIP3    H110485   5.316   0.136   3.781
 3493TIP3    H210486   5.257   0.138   3.920
 3494TIP3   OH210487   4.274   0.870   3.848
 3494TIP3    H110488   4.230   0.788   3.823
 3494TIP3    H210489   4.230   0.896   3.929
 3495TIP3   OH210490   5.868   4.112   2.441
 3495TIP3    H110491   5.838   4.176   2.505
 3495TIP3    H210492   5.831   4.029   2.472
 3496TIP3   OH210493   0.359   5.771   3.101
 3496TIP3    H110494   0.296   5.699   3.092
 3496TIP3    H210495   0.314   5.847   3.063
 3497TIP3   OH210496   5.985   1.405   0.457
 3497TIP3    H110497   6.042   1.474   0.423
 3497TIP3    H210498   5.905   1.412   0.404
 3498TIP3   OH210499   2.403   2.343   4.123
 3498TIP3    H110500   2.429   2.310   4.209
 3498TIP3    H210501   2.309   2.325   4.118
 3499TIP3   OH210502   6.053   3.615   2.459
 3499TIP3    H110503   5.974   3.580   2.417
 3499TIP3    H210504   6.104   3.537   2.481
 3500TIP3   OH210505   4.227   3.636   0.877
 3500TIP3    H110506   4.172   3.701   0.920
 3500TIP3    H210507   4.165   3.585   0.824
 3501TIP3   OH210508   5.859   2.178   3.492
 3501TIP3    H110509   5.806   2.254   3.515
 3501TIP3    H210510   5.948   2.212   3.487
 3502TIP3   OH210511   1.571   0.983   3.024
 3502TIP3    H110512   1.663   1.007   3.037
 3502TIP3    H210513   1.522   1.047   3.075
 3503TIP3   OH210514   5.098   2.353   0.640
 3503TIP3    H110515   5.127   2.435   0.679
 3503TIP3    H210516   5.020   2.377   0.590
 3504TIP3   OH210517   3.978   3.338   2.054
 3504TIP3    H110518   3.903   3.296   2.095
 3504TIP3    H210519   4.027   3.376   2.128
 3505TIP3   OH210520   5.135   3.805   0.998
 3505TIP3    H110521   5.201   3.759   0.946
 3505TIP3    H210522   5.184   3.839   1.073
 3506TIP3   OH210523   2.761   0.828   4.023
 3506TIP3    H110524   2.755   0.899   4.086
 3506TIP3    H210525   2.686   0.772   4.041
 3507TIP3   OH210526   2.716   4.937   3.888
 3507TIP3    H110527   2.719   4.970   3.978
 3507TIP3    H210528   2.628   4.900   3.879
 3508TIP3   OH210529   5.400   0.939   0.288
 3508TIP3    H110530   5.447   0.964   0.367
 3508TIP3    H210531   5.469   0.915   0.225
 3509TIP3   OH210532   4.247   5.206   5.045
 3509TIP3    H110533   4.337   5.175   5.059
 3509TIP3    H210534   4.216   5.230   5.133
 3510TIP3   OH210535   0.511   1.606   2.909
 3510TIP3    H110536   0.528   1.515   2.934
 3510TIP3    H210537   0.563   1.657   2.971
 3511TIP3   OH210538   1.022   3.487   0.792
 3511TIP3    H110539   0.965   3.411   0.801
 3511TIP3    H210540   1.055   3.482   0.702
 3512TIP3   OH210541   1.528   0.902   4.221
 3512TIP3    H110542   1.561   0.961   4.153
 3512TIP3    H210543   1.450   0.862   4.182
 3513TIP3   OH210544   0.168   5.190   2.486
 3513TIP3    H110545   0.175   5.189   2.391
 3513TIP3    H210546   0.078   5.164   2.504
 3514TIP3   OH210547   4.664   4.375   0.994
 3514TIP3    H110548   4.584   4.393   1.042
 3514TIP3    H210549   4.705   4.303   1.041
 3515TIP3   OH210550   1.723   2.941   1.955
 3515TIP3    H110551   1.735   2.878   1.884
 3515TIP3    H210552   1.757   2.896   2.032
 3516TIP3   OH210553   2.723   4.875   5.098
 3516TIP3    H110554   2.756   4.818   5.028
 3516TIP3    H210555   2.629   4.855   5.102
 3517TIP3   OH210556   4.580   4.152   3.176
 3517TIP3    H110557   4.538   4.134   3.260
 3517TIP3    H210558   4.649   4.087   3.169
 3518TIP3   OH210559   3.656   0.064   0.820
 3518TIP3    H110560   3.663  -0.017   0.871
 3518TIP3    H210561   3.564   0.089   0.828
 3519TIP3   OH210562   0.076   3.865   2.897
 3519TIP3    H110563   0.024   3.792   2.929
 3519TIP3    H210564   0.086   3.849   2.803
 3520TIP3   OH210565   3.119   4.017   4.901
 3520TIP3    H110566   3.077   4.043   4.820
 3520TIP3    H210567   3.062   4.051   4.970
 3521TIP3   OH210568   3.698   2.132   1.357
 3521TIP3    H110569   3.723   2.222   1.335
 3521TIP3    H210570   3.743   2.079   1.291
 3522TIP3   OH210571   0.656   5.012   3.246
 3522TIP3    H110572   0.585   4.965   3.203
 3522TIP3    H210573   0.727   5.013   3.182
 3523TIP3   OH210574   0.146   1.049   3.020
 3523TIP3    H110575   0.212   1.118   3.029
 3523TIP3    H210576   0.091   1.078   2.947
 3524TIP3   OH210577   5.198   5.592   3.048
 3524TIP3    H110578   5.201   5.622   2.958
 3524TIP3    H210579   5.228   5.501   3.044
 3525TIP3   OH210580   4.161   2.928   2.016
 3525TIP3    H110581   4.254   2.949   2.026
 3525TIP3    H210582   4.135   2.892   2.101
 3526TIP3   OH210583   0.873   3.254   0.851
 3526TIP3    H110584   0.873   3.189   0.781
 3526TIP3    H210585   0.780   3.263   0.875
 3527TIP3   OH210586   1.943   1.197   0.592
 3527TIP3    H110587   2.001   1.248   0.537
 3527TIP3    H210588   2.000   1.133   0.635
 3528TIP3   OH210589   2.946   2.105   3.421
 3528TIP3    H110590   2.897   2.166   3.366
 3528TIP3    H210591   2.879   2.060   3.473
 3529TIP3   OH210592   2.479   0.762   0.651
 3529TIP3    H110593   2.400   0.710   0.634
 3529TIP3    H210594   2.516   0.776   0.564
 3530TIP3   OH210595   3.748   4.372   5.121
 3530TIP3    H110596   3.824   4.406   5.074
 3530TIP3    H210597   3.704   4.450   5.154
 3531TIP3   OH210598   3.721   1.745   0.370
 3531TIP3    H110599   3.727   1.650   0.378
 3531TIP3    H210600   3.793   1.769   0.312
 3532TIP3   OH210601   4.081   4.005   4.722
 3532TIP3    H110602   4.069   3.931   4.781
 3532TIP3    H210603   4.110   3.967   4.640
 3533TIP3   OH210604   1.673   1.447   0.349
 3533TIP3    H110605   1.610   1.393   0.302
 3533TIP3    H210606   1.758   1.411   0.327
 3534TIP3   OH210607   4.411   5.601   4.668
 3534TIP3    H110608   4.356   5.654   4.726
 3534TIP3    H210609   4.500   5.614   4.700
 3535TIP3   OH210610   3.720   1.843   1.844
 3535TIP3    H110611   3.726   1.859   1.938
 3535TIP3    H210612   3.697   1.928   1.807
 3536TIP3   OH210613   0.916   3.042   0.668
 3536TIP3    H110614   0.909   2.976   0.737
 3536TIP3    H210615   0.880   2.999   0.590
 3537TIP3   OH210616   2.566   4.535   4.567
 3537TIP3    H110617   2.639   4.477   4.586
 3537TIP3    H210618   2.573   4.605   4.631
 3538TIP3   OH210619   1.734   1.754   5.104
 3538TIP3    H110620   1.750   1.748   5.198
 3538TIP3    H210621   1.680   1.832   5.093
 3539TIP3   OH210622   6.230   1.315   3.014
 3539TIP3    H110623   6.308   1.284   2.968
 3539TIP3    H210624   6.217   1.251   3.084
 3540TIP3   OH210625   6.142   3.984   0.043
 3540TIP3    H110626   6.088   4.019   0.114
 3540TIP3    H210627   6.107   4.025  -0.036
 3541TIP3   OH210628   0.886   1.969   1.277
 3541TIP3    H110629   0.945   1.957   1.351
 3541TIP3    H210630   0.930   1.927   1.203
 3542TIP3   OH210631   2.450   3.497   3.174
 3542TIP3    H110632   2.476   3.441   3.101
 3542TIP3    H210633   2.355   3.492   3.175
 3543TIP3   OH210634   4.645   4.607   2.915
 3543TIP3    H110635   4.674   4.555   2.989
 3543TIP3    H210636   4.556   4.634   2.938
 3544TIP3   OH210637   5.592   3.761   1.363
 3544TIP3    H110638   5.576   3.706   1.286
 3544TIP3    H210639   5.686   3.776   1.362
 3545TIP3   OH210640   2.730   1.309   1.895
 3545TIP3    H110641   2.720   1.224   1.938
 3545TIP3    H210642   2.641   1.339   1.881
 3546TIP3   OH210643   2.833   0.376   2.478
 3546TIP3    H110644   2.747   0.406   2.446
 3546TIP3    H210645   2.881   0.354   2.398
 3547TIP3   OH210646   3.565   4.541   3.778
 3547TIP3    H110647   3.503   4.485   3.733
 3547TIP3    H210648   3.650   4.499   3.764
 3548TIP3   OH210649   3.499   2.988   1.215
 3548TIP3    H110650   3.562   2.937   1.265
 3548TIP3    H210651   3.431   2.926   1.190
 3549TIP3   OH210652   3.700   3.641   1.321
 3549TIP3    H110653   3.642   3.619   1.248
 3549TIP3    H210654   3.742   3.723   1.295
 3550TIP3   OH210655   0.311   5.892   0.707
 3550TIP3    H110656   0.289   5.806   0.670
 3550TIP3    H210657   0.238   5.912   0.765
 3551TIP3   OH210658   5.207   4.214   4.872
 3551TIP3    H110659   5.118   4.188   4.898
 3551TIP3    H210660   5.197   4.301   4.836
 3552TIP3   OH210661   1.292   1.303   1.472
 3552TIP3    H110662   1.361   1.277   1.412
 3552TIP3    H210663   1.302   1.398   1.482
 3553TIP3   OH210664   1.764   5.178   3.882
 3553TIP3    H110665   1.740   5.144   3.969
 3553TIP3    H210666   1.790   5.100   3.833
 3554TIP3   OH210667   3.163   3.413   3.432
 3554TIP3    H110668   3.120   3.487   3.475
 3554TIP3    H210669   3.242   3.398   3.485
 3555TIP3   OH210670   0.425   3.889   0.433
 3555TIP3    H110671   0.340   3.921   0.404
 3555TIP3    H210672   0.423   3.899   0.529
 3556TIP3   OH210673   6.131   0.593   3.418
 3556TIP3    H110674   6.215   0.569   3.379
 3556TIP3    H210675   6.135   0.688   3.428
 3557TIP3   OH210676   1.368   3.889   3.887
 3557TIP3    H110677   1.338   3.952   3.953
 3557TIP3    H210678   1.338   3.926   3.804
 3558TIP3   OH210679   5.650   4.746   0.380
 3558TIP3    H110680   5.587   4.711   0.444
 3558TIP3    H210681   5.701   4.670   0.353
 3559TIP3   OH210682   0.510   5.294   4.835
 3559TIP3    H110683   0.571   5.367   4.841
 3559TIP3    H210684   0.467   5.291   4.921
 3560TIP3   OH210685   4.707   2.815   0.463
 3560TIP3    H110686   4.667   2.746   0.409
 3560TIP3    H210687   4.777   2.851   0.407
 3561TIP3   OH210688   3.748   5.876   4.615
 3561TIP3    H110689   3.771   5.938   4.546
 3561TIP3    H210690   3.658   5.897   4.639
 3562TIP3   OH210691   4.178   0.231   1.810
 3562TIP3    H110692   4.160   0.259   1.900
 3562TIP3    H210693   4.170   0.311   1.758
 3563TIP3   OH210694   1.279   2.088   1.189
 3563TIP3    H110695   1.235   2.169   1.216
 3563TIP3    H210696   1.361   2.087   1.238
 3564TIP3   OH210697   3.209   1.083   2.045
 3564TIP3    H110698   3.250   1.074   2.130
 3564TIP3    H210699   3.138   1.146   2.059
 3565TIP3   OH210700   6.234   5.154   3.458
 3565TIP3    H110701   6.312   5.098   3.462
 3565TIP3    H210702   6.198   5.139   3.371
 3566TIP3   OH210703   3.697   4.210   1.531
 3566TIP3    H110704   3.734   4.297   1.516
 3566TIP3    H210705   3.761   4.167   1.588
 3567TIP3   OH210706   4.306   0.090   0.814
 3567TIP3    H110707   4.321   0.013   0.760
 3567TIP3    H210708   4.304   0.056   0.904
 3568TIP3   OH210709   4.122   2.663   0.170
 3568TIP3    H110710   4.155   2.749   0.196
 3568TIP3    H210711   4.027   2.671   0.179
 3569TIP3   OH210712   0.528   2.695   0.635
 3569TIP3    H110713   0.471   2.668   0.564
 3569TIP3    H210714   0.504   2.787   0.651
 3570TIP3   OH210715   4.297   3.147   0.918
 3570TIP3    H110716   4.382   3.181   0.946
 3570TIP3    H210717   4.317   3.063   0.877
 3571TIP3   OH210718   1.142   2.490   4.004
 3571TIP3    H110719   1.174   2.429   3.938
 3571TIP3    H210720   1.112   2.566   3.954
 3572TIP3   OH210721   1.914   1.670   0.651
 3572TIP3    H110722   1.844   1.677   0.717
 3572TIP3    H210723   1.897   1.743   0.591
 3573TIP3   OH210724   5.222   2.950   4.390
 3573TIP3    H110725   5.203   2.878   4.330
 3573TIP3    H210726   5.148   3.011   4.377
 3574TIP3   OH210727   1.672   2.514   5.142
 3574TIP3    H110728   1.730   2.487   5.213
 3574TIP3    H210729   1.713   2.479   5.063
 3575TIP3   OH210730   1.364   1.267   5.001
 3575TIP3    H110731   1.392   1.274   4.910
 3575TIP3    H210732   1.295   1.200   5.000
 3576TIP3   OH210733   3.532   1.494   1.248
 3576TIP3    H110734   3.445   1.504   1.287
 3576TIP3    H210735   3.588   1.467   1.320
 3577TIP3   OH210736   5.902   5.565   1.778
 3577TIP3    H110737   5.924   5.483   1.734
 3577TIP3    H210738   5.968   5.627   1.746
 3578TIP3   OH210739   0.534   2.756   3.122
 3578TIP3    H110740   0.535   2.665   3.150
 3578TIP3    H210741   0.626   2.775   3.101
 3579TIP3   OH210742   5.919   3.137   0.349
 3579TIP3    H110743   5.967   3.191   0.412
 3579TIP3    H210744   5.970   3.056   0.343
 3580TIP3   OH210745   3.068   5.986   4.426
 3580TIP3    H110746   3.031   5.965   4.512
 3580TIP3    H210747   2.993   6.012   4.373
 3581TIP3   OH210748   0.654   5.976   2.558
 3581TIP3    H110749   0.591   5.903   2.561
 3581TIP3    H210750   0.739   5.935   2.575
 3582TIP3   OH210751   5.072   5.089   0.843
 3582TIP3    H110752   5.025   5.111   0.924
 3582TIP3    H210753   5.147   5.148   0.843
 3583TIP3   OH210754   1.952   2.763   3.776
 3583TIP3    H110755   1.972   2.732   3.688
 3583TIP3    H210756   1.949   2.858   3.768
 3584TIP3   OH210757   3.358   4.471   1.192
 3584TIP3    H110758   3.408   4.440   1.267
 3584TIP3    H210759   3.330   4.559   1.215
 3585TIP3   OH210760   5.614   0.626   1.437
 3585TIP3    H110761   5.605   0.714   1.473
 3585TIP3    H210762   5.559   0.627   1.358
 3586TIP3   OH210763   4.419   0.653   2.009
 3586TIP3    H110764   4.379   0.573   1.973
 3586TIP3    H210765   4.429   0.635   2.102
 3587TIP3   OH210766   2.601   3.720   1.886
 3587TIP3    H110767   2.524   3.773   1.865
 3587TIP3    H210768   2.599   3.649   1.821
 3588TIP3   OH210769   1.902   2.165   0.497
 3588TIP3    H110770   1.981   2.112   0.496
 3588TIP3    H210771   1.929   2.248   0.536
 3589TIP3   OH210772   5.395   4.114   0.694
 3589TIP3    H110773   5.452   4.042   0.718
 3589TIP3    H210774   5.323   4.073   0.645
 3590TIP3   OH210775   2.397   5.018   3.857
 3590TIP3    H110776   2.400   5.094   3.914
 3590TIP3    H210777   2.381   5.054   3.769
 3591TIP3   OH210778   2.213   5.515   0.382
 3591TIP3    H110779   2.291   5.461   0.383
 3591TIP3    H210780   2.195   5.532   0.475
 3592TIP3   OH210781   2.815   3.803   4.904
 3592TIP3    H110782   2.786   3.740   4.838
 3592TIP3    H210783   2.838   3.750   4.980
 3593TIP3   OH210784   4.295   0.495   3.431
 3593TIP3    H110785   4.267   0.490   3.340
 3593TIP3    H210786   4.375   0.442   3.434
 3594TIP3   OH210787   3.173   4.465   0.833
 3594TIP3    H110788   3.262   4.445   0.862
 3594TIP3    H210789   3.177   4.557   0.805
 3595TIP3   OH210790   2.962   4.724   0.517
 3595TIP3    H110791   2.868   4.709   0.509
 3595TIP3    H210792   2.975   4.813   0.486
 3596TIP3   OH210793   6.054   5.255   5.076
 3596TIP3    H110794   5.964   5.286   5.062
 3596TIP3    H210795   6.089   5.245   4.987
 3597TIP3   OH210796   0.724   1.784   0.613
 3597TIP3    H110797   0.733   1.760   0.705
 3597TIP3    H210798   0.812   1.811   0.586
 3598TIP3   OH210799   2.745   1.310   2.515
 3598TIP3    H110800   2.752   1.219   2.486
 3598TIP3    H210801   2.652   1.332   2.504
 3599TIP3   OH210802   2.693   4.530   3.135
 3599TIP3    H110803   2.770   4.582   3.156
 3599TIP3    H210804   2.675   4.480   3.215
 3600TIP3   OH210805   0.375   2.058   3.399
 3600TIP3    H110806   0.355   2.050   3.306
 3600TIP3    H210807   0.465   2.027   3.407
 3601TIP3   OH210808   5.016   1.956   4.933
 3601TIP3    H110809   4.984   1.940   4.844
 3601TIP3    H210810   5.075   1.883   4.951
 3602TIP3   OH210811   3.750   2.694   4.394
 3602TIP3    H110812   3.836   2.664   4.364
 3602TIP3    H210813   3.763   2.719   4.485
 3603TIP3   OH210814   5.218   5.645   0.315
 3603TIP3    H110815   5.256   5.625   0.229
 3603TIP3    H210816   5.254   5.577   0.372
 3604TIP3   OH210817   1.042   0.622   2.051
 3604TIP3    H110818   0.990   0.682   1.996
 3604TIP3    H210819   0.994   0.540   2.049
 3605TIP3   OH210820   5.418   2.235   0.178
 3605TIP3    H110821   5.376   2.215   0.262
 3605TIP3    H210822   5.352   2.212   0.113
 3606TIP3   OH210823   0.326   4.630   2.839
 3606TIP3    H110824   0.295   4.553   2.887
 3606TIP3    H210825   0.255   4.694   2.847
 3607TIP3   OH210826   3.134   4.556   4.616
 3607TIP3    H110827   3.198   4.485   4.606
 3607TIP3    H210828   3.186   4.636   4.609
 3608TIP3   OH210829   1.020   4.133   4.468
 3608TIP3    H110830   0.949   4.078   4.433
 3608TIP3    H210831   1.091   4.123   4.405
 3609TIP3   OH210832   1.314   1.081   3.210
 3609TIP3    H110833   1.297   1.061   3.302
 3609TIP3    H210834   1.372   1.157   3.213
 3610TIP3   OH210835   3.095   1.961   1.893
 3610TIP3    H110836   3.163   1.904   1.858
 3610TIP3    H210837   3.045   1.905   1.953
 3611TIP3   OH210838   6.109   5.856   1.165
 3611TIP3    H110839   6.199   5.877   1.190
 3611TIP3    H210840   6.067   5.941   1.152
 3612TIP3   OH210841   4.778   2.131   3.612
 3612TIP3    H110842   4.867   2.165   3.624
 3612TIP3    H210843   4.750   2.105   3.700
 3613TIP3   OH210844   4.267   5.360   2.419
 3613TIP3    H110845   4.314   5.277   2.428
 3613TIP3    H210846   4.312   5.420   2.478
 3614TIP3   OH210847   3.906   4.961   0.680
 3614TIP3    H110848   3.956   4.971   0.761
 3614TIP3    H210849   3.924   5.041   0.631
 3615TIP3   OH210850   3.451   6.011   2.615
 3615TIP3    H110851   3.400   5.930   2.617
 3615TIP3    H210852   3.536   5.987   2.652
 3616TIP3   OH210853   0.930   5.758   3.750
 3616TIP3    H110854   0.871   5.783   3.680
 3616TIP3    H210855   1.009   5.811   3.735
 3617TIP3   OH210856   0.280   1.167   0.463
 3617TIP3    H110857   0.244   1.245   0.504
 3617TIP3    H210858   0.296   1.193   0.372
 3618TIP3   OH210859   2.233   2.572   2.851
 3618TIP3    H110860   2.186   2.585   2.768
 3618TIP3    H210861   2.164   2.551   2.914
 3619TIP3   OH210862   0.837   0.918   2.821
 3619TIP3    H110863   0.803   0.918   2.732
 3619TIP3    H210864   0.922   0.962   2.815
 3620TIP3   OH210865  -0.022   2.617   5.097
 3620TIP3    H110866   0.009   2.539   5.143
 3620TIP3    H210867   0.050   2.641   5.038
 3621TIP3   OH210868   3.486   1.791   2.888
 3621TIP3    H110869   3.542   1.763   2.815
 3621TIP3    H210870   3.398   1.764   2.862
 3622TIP3   OH210871   0.571   0.827   1.008
 3622TIP3    H110872   0.533   0.878   0.936
 3622TIP3    H210873   0.525   0.743   1.005
 3623TIP3   OH210874   4.695   0.750   1.981
 3623TIP3    H110875   4.647   0.770   1.900
 3623TIP3    H210876   4.735   0.665   1.964
 3624TIP3   OH210877   4.921   1.755   1.799
 3624TIP3    H110878   4.831   1.777   1.822
 3624TIP3    H210879   4.917   1.662   1.775
 3625TIP3   OH210880   0.534   4.466   1.724
 3625TIP3    H110881   0.444   4.438   1.714
 3625TIP3    H210882   0.548   4.470   1.819
 3626TIP3   OH210883   5.920   2.308   4.516
 3626TIP3    H110884   5.868   2.348   4.447
 3626TIP3    H210885   5.939   2.380   4.577
 3627TIP3   OH210886   3.749   0.578   0.616
 3627TIP3    H110887   3.747   0.538   0.703
 3627TIP3    H210888   3.787   0.665   0.629
 3628TIP3   OH210889   6.111   1.737   3.332
 3628TIP3    H110890   6.160   1.681   3.393
 3628TIP3    H210891   6.123   1.696   3.247
 3629TIP3   OH210892   3.588   3.153   1.035
 3629TIP3    H110893   3.513   3.119   1.084
 3629TIP3    H210894   3.657   3.164   1.101
 3630TIP3   OH210895   0.927   1.706   5.044
 3630TIP3    H110896   1.000   1.754   5.083
 3630TIP3    H210897   0.966   1.656   4.972
 3631TIP3   OH210898   0.781   1.214   0.284
 3631TIP3    H110899   0.775   1.140   0.224
 3631TIP3    H210900   0.811   1.176   0.366
 3632TIP3   OH210901   3.451   1.027   0.603
 3632TIP3    H110902   3.454   1.023   0.698
 3632TIP3    H210903   3.505   1.103   0.580
 3633TIP3   OH210904   1.062   4.495   1.730
 3633TIP3    H110905   1.019   4.411   1.747
 3633TIP3    H210906   1.083   4.529   1.817
 3634TIP3   OH210907   0.834   5.807   0.979
 3634TIP3    H110908   0.743   5.808   1.010
 3634TIP3    H210909   0.827   5.804   0.884
 3635TIP3   OH210910   6.322   5.503   0.589
 3635TIP3    H110911   6.249   5.478   0.532
 3635TIP3    H210912   6.284   5.508   0.677
 3636TIP3   OH210913   6.039   3.713   3.284
 3636TIP3    H110914   5.951   3.695   3.252
 3636TIP3    H210915   6.066   3.793   3.238
 3637TIP3   OH210916   4.976   3.509   4.462
 3637TIP3    H110917   5.057   3.542   4.422
 3637TIP3    H210918   4.973   3.550   4.549
 3638TIP3   OH210919   2.346   1.025   1.467
 3638TIP3    H110920   2.350   1.111   1.426
 3638TIP3    H210921   2.300   0.970   1.403
 3639TIP3   OH210922   0.124   4.201   4.869
 3639TIP3    H110923   0.193   4.231   4.928
 3639TIP3    H210924   0.117   4.107   4.886
 3640TIP3   OH210925   3.541   1.840   0.566
 3640TIP3    H110926   3.590   1.794   0.497
 3640TIP3    H210927   3.580   1.809   0.648
 3641TIP3   OH210928   5.686   0.990   1.123
 3641TIP3    H110929   5.689   1.025   1.212
 3641TIP3    H210930   5.775   1.004   1.089
 3642TIP3   OH210931   1.315   4.252   2.953
 3642TIP3    H110932   1.362   4.331   2.981
 3642TIP3    H210933   1.229   4.260   2.995
 3643TIP3   OH210934   5.310   0.036   3.600
 3643TIP3    H110935   5.219   0.020   3.574
 3643TIP3    H210936   5.358  -0.039   3.566
 3644TIP3   OH210937   0.524   2.275   3.443
 3644TIP3    H110938   0.475   2.227   3.510
 3644TIP3    H210939   0.507   2.227   3.362
 3645TIP3   OH210940   4.822   0.248   4.205
 3645TIP3    H110941   4.834   0.162   4.165
 3645TIP3    H210942   4.828   0.233   4.299
 3646TIP3   OH210943   3.964   5.221   0.592
 3646TIP3    H110944   3.964   5.284   0.664
 3646TIP3    H210945   3.891   5.248   0.536
 3647TIP3   OH210946   0.815   1.039   4.840
 3647TIP3    H110947   0.818   1.123   4.884
 3647TIP3    H210948   0.722   1.025   4.820
 3648TIP3   OH210949   6.026   4.796   1.315
 3648TIP3    H110950   6.083   4.727   1.282
 3648TIP3    H210951   6.038   4.869   1.254
 3649TIP3   OH210952   1.203   1.574   3.320
 3649TIP3    H110953   1.151   1.508   3.274
 3649TIP3    H210954   1.161   1.582   3.406
 3650TIP3   OH210955   5.429   2.585   4.583
 3650TIP3    H110956   5.498   2.519   4.581
 3650TIP3    H210957   5.373   2.560   4.657
 3651TIP3   OH210958   3.122   1.695   4.449
 3651TIP3    H110959   3.098   1.618   4.501
 3651TIP3    H210960   3.077   1.767   4.493
 3652TIP3   OH210961   2.603   4.961   4.331
 3652TIP3    H110962   2.678   4.904   4.312
 3652TIP3    H210963   2.531   4.900   4.349
 3653TIP3   OH210964   1.581   1.982   0.370
 3653TIP3    H110965   1.605   1.890   0.362
 3653TIP3    H210966   1.519   1.997   0.298
 3654TIP3   OH210967   1.749   2.403   4.578
 3654TIP3    H110968   1.720   2.311   4.573
 3654TIP3    H210969   1.751   2.433   4.488
 3655TIP3   OH210970   3.050   3.297   1.003
 3655TIP3    H110971   3.131   3.326   1.046
 3655TIP3    H210972   3.067   3.205   0.979
 3656TIP3   OH210973   2.942   0.077   4.760
 3656TIP3    H110974   2.863   0.037   4.724
 3656TIP3    H210975   3.011   0.053   4.697
 3657TIP3   OH210976   2.949   4.372   0.307
 3657TIP3    H110977   3.019   4.307   0.297
 3657TIP3    H210978   2.868   4.323   0.296
 3658TIP3   OH210979   5.615   3.244   4.328
 3658TIP3    H110980   5.577   3.237   4.241
 3658TIP3    H210981   5.703   3.278   4.313
 3659TIP3   OH210982   3.252   2.869   4.469
 3659TIP3    H110983   3.316   2.812   4.426
 3659TIP3    H210984   3.294   2.894   4.551
 3660TIP3   OH210985   1.138   2.793   3.084
 3660TIP3    H110986   1.154   2.704   3.054
 3660TIP3    H210987   1.063   2.823   3.033
 3661TIP3   OH210988   4.452   2.456   3.586
 3661TIP3    H110989   4.498   2.384   3.543
 3661TIP3    H210990   4.373   2.470   3.534
 3662TIP3   OH210991   1.194   2.491   4.274
 3662TIP3    H110992   1.176   2.466   4.183
 3662TIP3    H210993   1.138   2.433   4.326
 3663TIP3   OH210994   4.540   5.376   1.094
 3663TIP3    H110995   4.479   5.306   1.119
 3663TIP3    H210996   4.497   5.457   1.123
 3664TIP3   OH210997   3.217   2.912   2.192
 3664TIP3    H110998   3.272   2.913   2.270
 3664TIP3    H210999   3.234   2.995   2.149
 3665TIP3   OH211000   4.689   3.544   1.827
 3665TIP3    H111001   4.782   3.569   1.819
 3665TIP3    H211002   4.684   3.494   1.908
 3666TIP3   OH211003   1.879   1.857   0.438
 3666TIP3    H111004   1.839   1.929   0.488
 3666TIP3    H211005   1.895   1.894   0.352
 3667TIP3   OH211006   1.771   1.589   3.235
 3667TIP3    H111007   1.705   1.586   3.166
 3667TIP3    H211008   1.813   1.503   3.232
 3668TIP3   OH211009   0.153   3.020   0.035
 3668TIP3    H111010   0.155   2.928   0.060
 3668TIP3    H211011   0.062   3.038   0.015
 3669TIP3   OH211012   5.894   3.832   2.722
 3669TIP3    H111013   5.979   3.832   2.679
 3669TIP3    H211014   5.878   3.741   2.746
 3670TIP3   OH211015   5.446   4.971   1.000
 3670TIP3    H111016   5.512   4.978   1.069
 3670TIP3    H211017   5.467   5.043   0.940
 3671TIP3   OH211018   0.046   2.542   0.831
 3671TIP3    H111019   0.005   2.622   0.800
 3671TIP3    H211020   0.040   2.547   0.927
 3672TIP3   OH211021   2.421   4.313   4.279
 3672TIP3    H111022   2.484   4.333   4.349
 3672TIP3    H211023   2.337   4.341   4.314
 3673TIP3   OH211024   6.041   4.503   3.883
 3673TIP3    H111025   6.112   4.565   3.870
 3673TIP3    H211026   6.002   4.528   3.967
 3674TIP3   OH211027   4.140   1.595   0.769
 3674TIP3    H111028   4.197   1.672   0.774
 3674TIP3    H211029   4.116   1.576   0.859
 3675TIP3   OH211030   5.712   2.098   2.922
 3675TIP3    H111031   5.762   2.154   2.863
 3675TIP3    H211032   5.722   2.010   2.887
 3676TIP3   OH211033   0.869   1.027   4.420
 3676TIP3    H111034   0.799   0.978   4.462
 3676TIP3    H211035   0.857   1.011   4.326
 3677TIP3   OH211036   2.730   0.210   0.349
 3677TIP3    H111037   2.670   0.136   0.348
 3677TIP3    H211038   2.677   0.284   0.319
 3678TIP3   OH211039   0.450   2.825   1.471
 3678TIP3    H111040   0.362   2.787   1.471
 3678TIP3    H211041   0.481   2.815   1.561
 3679TIP3   OH211042   1.015   3.383   1.540
 3679TIP3    H111043   0.920   3.376   1.532
 3679TIP3    H211044   1.032   3.477   1.536
 3680TIP3   OH211045   2.426   5.639   4.911
 3680TIP3    H111046   2.448   5.668   5.000
 3680TIP3    H211047   2.488   5.568   4.893
 3681TIP3   OH211048   0.442   0.735   1.620
 3681TIP3    H111049   0.510   0.790   1.660
 3681TIP3    H211050   0.446   0.757   1.527
 3682TIP3   OH211051   3.352   3.266   0.898
 3682TIP3    H111052   3.308   3.334   0.846
 3682TIP3    H211053   3.374   3.310   0.980
 3683TIP3   OH211054   1.366   1.158   2.641
 3683TIP3    H111055   1.348   1.248   2.669
 3683TIP3    H211056   1.449   1.136   2.683
 3684TIP3   OH211057   5.398   3.865   2.102
 3684TIP3    H111058   5.360   3.885   2.187
 3684TIP3    H211059   5.471   3.806   2.122
 3685TIP3   OH211060   1.510   5.961   3.663
 3685TIP3    H111061   1.483   5.874   3.634
 3685TIP3    H211062   1.601   5.949   3.692
 3686TIP3   OH211063   1.811   0.293   2.196
 3686TIP3    H111064   1.828   0.199   2.187
 3686TIP3    H211065   1.861   0.318   2.274
 3687TIP3   OH211066   3.187   5.271   2.110
 3687TIP3    H111067   3.112   5.321   2.076
 3687TIP3    H211068   3.149   5.189   2.140
 3688TIP3   OH211069   1.733   4.090   1.964
 3688TIP3    H111070   1.649   4.078   2.008
 3688TIP3    H211071   1.793   4.031   2.010
 3689TIP3   OH211072   3.649   3.715   4.611
 3689TIP3    H111073   3.624   3.790   4.664
 3689TIP3    H211074   3.714   3.668   4.664
 3690TIP3   OH211075   3.399   2.744   4.838
 3690TIP3    H111076   3.418   2.729   4.931
 3690TIP3    H211077   3.404   2.657   4.798
 3691TIP3   OH211078   5.530  -0.023   1.387
 3691TIP3    H111079   5.464   0.044   1.369
 3691TIP3    H211080   5.559  -0.005   1.476
 3692TIP3   OH211081   4.472   5.917   4.709
 3692TIP3    H111082   4.416   5.939   4.634
 3692TIP3    H211083   4.412   5.881   4.774
 3693TIP3   OH211084   1.198   2.130   0.370
 3693TIP3    H111085   1.109   2.152   0.340
 3693TIP3    H211086   1.215   2.192   0.441
 3694TIP3   OH211087   0.330   2.916   3.614
 3694TIP3    H111088   0.241   2.887   3.593
 3694TIP3    H211089   0.330   2.929   3.708
 3695TIP3   OH211090   4.774   4.951   1.121
 3695TIP3    H111091   4.814   4.872   1.085
 3695TIP3    H211092   4.680   4.935   1.116
 3696TIP3   OH211093   4.622   2.827   4.654
 3696TIP3    H111094   4.530   2.852   4.667
 3696TIP3    H211095   4.667   2.910   4.638
 3697TIP3   OH211096   6.156   3.000   3.118
 3697TIP3    H111097   6.066   2.985   3.148
 3697TIP3    H211098   6.171   3.093   3.132
 3698TIP3   OH211099   4.093   0.755   1.543
 3698TIP3    H111100   4.024   0.819   1.527
 3698TIP3    H211101   4.147   0.795   1.612
 3699TIP3   OH211102   2.768   5.307   0.801
 3699TIP3    H111103   2.742   5.261   0.721
 3699TIP3    H211104   2.853   5.346   0.781
 3700TIP3   OH211105   1.014   0.810   0.264
 3700TIP3    H111106   1.029   0.904   0.258
 3700TIP3    H211107   1.082   0.771   0.209
 3701TIP3   OH211108   0.705   3.074   4.704
 3701TIP3    H111109   0.793   3.037   4.697
 3701TIP3    H211110   0.664   3.052   4.620
 3702TIP3   OH211111   2.304   2.891   3.616
 3702TIP3    H111112   2.383   2.869   3.665
 3702TIP3    H211113   2.261   2.958   3.668
 3703TIP3   OH211114   3.349   4.891   2.157
 3703TIP3    H111115   3.345   4.935   2.241
 3703TIP3    H211116   3.337   4.798   2.177
 3704TIP3   OH211117   2.091   1.780   4.208
 3704TIP3    H111118   2.104   1.843   4.279
 3704TIP3    H211119   2.178   1.742   4.194
 3705TIP3   OH211120   1.377   2.796   3.662
 3705TIP3    H111121   1.365   2.745   3.742
 3705TIP3    H211122   1.343   2.739   3.593
 3706TIP3   OH211123   5.741   3.336   1.593
 3706TIP3    H111124   5.778   3.348   1.506
 3706TIP3    H211125   5.680   3.263   1.583
 3707TIP3   OH211126   1.997   1.764   4.468
 3707TIP3    H111127   2.065   1.732   4.527
 3707TIP3    H211128   1.971   1.849   4.503
 3708TIP3   OH211129   4.128   5.024   2.034
 3708TIP3    H111130   4.197   4.982   2.085
 3708TIP3    H211131   4.050   4.970   2.051
 3709TIP3   OH211132   5.836   4.773   2.039
 3709TIP3    H111133   5.782   4.797   1.963
 3709TIP3    H211134   5.876   4.690   2.014
 3710TIP3   OH211135   2.962   0.696   1.290
 3710TIP3    H111136   2.882   0.728   1.249
 3710TIP3    H211137   2.938   0.613   1.329
 3711TIP3   OH211138   5.248   3.613   4.422
 3711TIP3    H111139   5.331   3.568   4.440
 3711TIP3    H211140   5.274   3.695   4.381
 3712TIP3   OH211141   1.939   5.534   0.313
 3712TIP3    H111142   1.917   5.624   0.339
 3712TIP3    H211143   2.023   5.517   0.357
 3713TIP3   OH211144   5.650   1.610   3.210
 3713TIP3    H111145   5.715   1.672   3.177
 3713TIP3    H211146   5.567   1.641   3.173
 3714TIP3   OH211147   4.881   4.898   2.389
 3714TIP3    H111148   4.959   4.947   2.362
 3714TIP3    H211149   4.871   4.832   2.321
 3715TIP3   OH211150   5.391   4.693   3.772
 3715TIP3    H111151   5.479   4.697   3.810
 3715TIP3    H211152   5.374   4.783   3.743
 3716TIP3   OH211153   5.016   4.027   5.028
 3716TIP3    H111154   4.929   4.033   4.988
 3716TIP3    H211155   5.003   3.978   5.109
 3717TIP3   OH211156   5.134   3.862   3.765
 3717TIP3    H111157   5.094   3.811   3.835
 3717TIP3    H211158   5.061   3.895   3.713
 3718TIP3   OH211159   2.946   2.029   2.809
 3718TIP3    H111160   2.900   1.967   2.752
 3718TIP3    H211161   2.942   1.989   2.896
 3719TIP3   OH211162   1.960   1.096   1.954
 3719TIP3    H111163   1.993   1.024   2.008
 3719TIP3    H211164   1.938   1.165   2.016
 3720TIP3   OH211165   4.822   1.320   2.847
 3720TIP3    H111166   4.882   1.291   2.915
 3720TIP3    H211167   4.840   1.262   2.773
 3721TIP3   OH211168   6.228   5.530   2.687
 3721TIP3    H111169   6.323   5.518   2.680
 3721TIP3    H211170   6.214   5.622   2.663
 3722TIP3   OH211171   4.783   3.278   3.399
 3722TIP3    H111172   4.734   3.329   3.464
 3722TIP3    H211173   4.836   3.343   3.352
 3723TIP3   OH211174   0.095   0.624   2.632
 3723TIP3    H111175   0.157   0.695   2.618
 3723TIP3    H211176   0.052   0.612   2.547
 3724TIP3   OH211177   2.979   5.790   1.476
 3724TIP3    H111178   2.952   5.832   1.395
 3724TIP3    H211179   3.074   5.801   1.479
 3725TIP3   OH211180   3.197   4.768   3.976
 3725TIP3    H111181   3.206   4.732   4.064
 3725TIP3    H211182   3.124   4.830   3.982
 3726TIP3   OH211183   1.857   5.452   3.453
 3726TIP3    H111184   1.822   5.474   3.367
 3726TIP3    H211185   1.850   5.357   3.458
 3727TIP3   OH211186   3.951   2.370   0.422
 3727TIP3    H111187   3.990   2.351   0.507
 3727TIP3    H211188   4.000   2.316   0.360
 3728TIP3   OH211189   0.482   4.481   2.439
 3728TIP3    H111190   0.431   4.409   2.476
 3728TIP3    H211191   0.477   4.551   2.505
 3729TIP3   OH211192   1.856   0.276   5.177
 3729TIP3    H111193   1.763   0.284   5.157
 3729TIP3    H211194   1.897   0.254   5.094
 3730TIP3   OH211195   2.908   5.722   4.053
 3730TIP3    H111196   2.864   5.638   4.042
 3730TIP3    H211197   3.001   5.699   4.056
 3731TIP3   OH211198   3.366   3.180   4.397
 3731TIP3    H111199   3.435   3.114   4.385
 3731TIP3    H211200   3.413   3.264   4.389
 3732TIP3   OH211201   0.799   2.841   3.145
 3732TIP3    H111202   0.813   2.827   3.052
 3732TIP3    H211203   0.811   2.755   3.185
 3733TIP3   OH211204   6.130   5.015   5.184
 3733TIP3    H111205   6.071   4.953   5.142
 3733TIP3    H211206   6.108   5.099   5.143
 3734TIP3   OH211207   0.711   5.543   3.008
 3734TIP3    H111208   0.670   5.594   3.078
 3734TIP3    H211209   0.716   5.454   3.043
 3735TIP3   OH211210   5.026   0.603   1.341
 3735TIP3    H111211   5.046   0.512   1.320
 3735TIP3    H211212   5.080   0.653   1.280
 3736TIP3   OH211213   6.123   1.943   4.061
 3736TIP3    H111214   6.186   1.879   4.029
 3736TIP3    H211215   6.175   2.006   4.112
 3737TIP3   OH211216   5.659   2.489   4.841
 3737TIP3    H111217   5.613   2.408   4.861
 3737TIP3    H211218   5.747   2.462   4.814
 3738TIP3   OH211219   5.182   4.611   2.985
 3738TIP3    H111220   5.106   4.661   3.013
 3738TIP3    H211221   5.146   4.532   2.945
 3739TIP3   OH211222   0.241   5.088   1.459
 3739TIP3    H111223   0.183   5.165   1.454
 3739TIP3    H211224   0.197   5.022   1.406
 3740TIP3   OH211225   2.126   2.306   4.031
 3740TIP3    H111226   2.111   2.400   4.023
 3740TIP3    H211227   2.046   2.272   4.070
 3741TIP3   OH211228   3.451   2.990   1.621
 3741TIP3    H111229   3.409   3.044   1.554
 3741TIP3    H211230   3.526   2.950   1.576
 3742TIP3   OH211231   5.639   0.649   2.608
 3742TIP3    H111232   5.599   0.566   2.580
 3742TIP3    H211233   5.660   0.636   2.700
 3743TIP3   OH211234   1.719   4.540   4.888
 3743TIP3    H111235   1.632   4.540   4.928
 3743TIP3    H211236   1.737   4.449   4.867
 3744TIP3   OH211237   1.168   4.311   3.257
 3744TIP3    H111238   1.081   4.344   3.236
 3744TIP3    H211239   1.219   4.389   3.277
 3745TIP3   OH211240   1.284   1.827   3.233
 3745TIP3    H111241   1.232   1.893   3.279
 3745TIP3    H211242   1.258   1.744   3.274
 3746TIP3   OH211243   2.507   3.749   1.426
 3746TIP3    H111244   2.481   3.662   1.455
 3746TIP3    H211245   2.505   3.802   1.506
 3747TIP3   OH211246   2.843   0.392   4.619
 3747TIP3    H111247   2.851   0.374   4.526
 3747TIP3    H211248   2.905   0.463   4.635
 3748TIP3   OH211249   1.990   4.372   0.332
 3748TIP3    H111250   2.008   4.280   0.314
 3748TIP3    H211251   2.074   4.417   0.317
 3749TIP3   OH211252   4.751   4.158   1.173
 3749TIP3    H111253   4.738   4.218   1.246
 3749TIP3    H211254   4.800   4.085   1.211
 3750TIP3   OH211255   0.136   5.636   2.408
 3750TIP3    H111256   0.060   5.689   2.430
 3750TIP3    H211257   0.148   5.579   2.484
 3751TIP3   OH211258   4.969   2.703   0.937
 3751TIP3    H111259   4.926   2.783   0.967
 3751TIP3    H211260   4.945   2.696   0.845
 3752TIP3   OH211261   5.180   5.817   1.396
 3752TIP3    H111262   5.120   5.790   1.326
 3752TIP3    H211263   5.126   5.822   1.474
 3753TIP3   OH211264   3.910   4.359   2.935
 3753TIP3    H111265   3.839   4.365   2.999
 3753TIP3    H211266   3.878   4.295   2.871
 3754TIP3   OH211267   5.117   0.145   4.047
 3754TIP3    H111268   5.120   0.204   4.122
 3754TIP3    H211269   5.064   0.071   4.077
 3755TIP3   OH211270   5.841   5.920   1.502
 3755TIP3    H111271   5.813   5.858   1.434
 3755TIP3    H211272   5.797   5.890   1.582
 3756TIP3   OH211273   4.494   1.352   0.864
 3756TIP3    H111274   4.485   1.447   0.864
 3756TIP3    H211275   4.415   1.321   0.908
 3757TIP3   OH211276   4.681   5.031   0.350
 3757TIP3    H111277   4.635   4.958   0.309
 3757TIP3    H211278   4.612   5.096   0.365
 3758TIP3   OH211279   2.427   4.234   1.875
 3758TIP3    H111280   2.414   4.240   1.969
 3758TIP3    H211281   2.385   4.313   1.840
 3759TIP3   OH211282   3.790   1.962   3.611
 3759TIP3    H111283   3.790   1.866   3.610
 3759TIP3    H211284   3.827   1.985   3.697
 3760TIP3   OH211285   5.235   1.540   1.845
 3760TIP3    H111286   5.267   1.450   1.846
 3760TIP3    H211287   5.253   1.571   1.756
 3761TIP3   OH211288   3.982   1.862   2.017
 3761TIP3    H111289   3.971   1.830   2.107
 3761TIP3    H211290   4.074   1.888   2.012
 3762TIP3   OH211291   1.335   2.484   3.174
 3762TIP3    H111292   1.248   2.443   3.177
 3762TIP3    H211293   1.383   2.441   3.246
 3763TIP3   OH211294   4.403   0.432   1.279
 3763TIP3    H111295   4.437   0.521   1.286
 3763TIP3    H211296   4.361   0.430   1.192
 3764TIP3   OH211297   6.226   1.620   2.720
 3764TIP3    H111298   6.175   1.681   2.666
 3764TIP3    H211299   6.162   1.555   2.749
 3765TIP3   OH211300   4.720   3.293   4.380
 3765TIP3    H111301   4.698   3.362   4.317
 3765TIP3    H211302   4.788   3.330   4.435
 3766TIP3   OH211303   2.661   4.427   1.281
 3766TIP3    H111304   2.683   4.361   1.215
 3766TIP3    H211305   2.593   4.385   1.334
 3767TIP3   OH211306   0.064   1.400   0.678
 3767TIP3    H111307  -0.008   1.464   0.679
 3767TIP3    H211308   0.128   1.438   0.618
 3768TIP3   OH211309   0.742   4.394   2.368
 3768TIP3    H111310   0.726   4.300   2.377
 3768TIP3    H211311   0.656   4.435   2.380
 3769TIP3   OH211312   5.874   2.080   1.834
 3769TIP3    H111313   5.883   2.174   1.852
 3769TIP3    H211314   5.948   2.040   1.879
 3770TIP3   OH211315   0.948   4.096   2.215
 3770TIP3    H111316   0.907   4.176   2.182
 3770TIP3    H211317   1.040   4.105   2.191
 3771TIP3   OH211318   0.865   3.550   5.188
 3771TIP3    H111319   0.835   3.486   5.124
 3771TIP3    H211320   0.947   3.515   5.221
 3772TIP3   OH211321   3.478   5.144   4.821
 3772TIP3    H111322   3.504   5.073   4.763
 3772TIP3    H211323   3.518   5.222   4.782
 3773TIP3   OH211324   3.519   3.620   3.195
 3773TIP3    H111325   3.589   3.610   3.131
 3773TIP3    H211326   3.564   3.637   3.277
 3774TIP3   OH211327   4.252   0.536   4.486
 3774TIP3    H111328   4.234   0.506   4.575
 3774TIP3    H211329   4.268   0.629   4.495
 3775TIP3   OH211330   3.660   3.289   4.093
 3775TIP3    H111331   3.667   3.197   4.117
 3775TIP3    H211332   3.708   3.297   4.011
 3776TIP3   OH211333   2.416   2.472   0.980
 3776TIP3    H111334   2.432   2.461   0.886
 3776TIP3    H211335   2.491   2.523   1.011
 3777TIP3   OH211336   4.251   1.339   1.136
 3777TIP3    H111337   4.224   1.319   1.226
 3777TIP3    H211338   4.323   1.280   1.118
 3778TIP3   OH211339   0.507   2.246   3.159
 3778TIP3    H111340   0.590   2.199   3.162
 3778TIP3    H211341   0.455   2.200   3.093
 3779TIP3   OH211342   5.415   0.281   3.259
 3779TIP3    H111343   5.477   0.255   3.327
 3779TIP3    H211344   5.377   0.199   3.228
 3780TIP3   OH211345   3.426   4.224   2.964
 3780TIP3    H111346   3.437   4.236   2.870
 3780TIP3    H211347   3.341   4.181   2.973
 3781TIP3   OH211348   4.205   0.971   0.943
 3781TIP3    H111349   4.300   0.958   0.940
 3781TIP3    H211350   4.184   1.008   0.858
 3782TIP3   OH211351   3.948   2.035   1.783
 3782TIP3    H111352   3.917   1.981   1.711
 3782TIP3    H211353   3.951   1.976   1.858
 3783TIP3   OH211354   4.161   1.152   0.747
 3783TIP3    H111355   4.120   1.152   0.661
 3783TIP3    H211356   4.222   1.227   0.744
 3784TIP3   OH211357   6.111   4.953   3.602
 3784TIP3    H111358   6.142   5.039   3.573
 3784TIP3    H211359   6.016   4.957   3.593
 3785TIP3   OH211360   0.626   5.929   0.501
 3785TIP3    H111361   0.689   5.892   0.439
 3785TIP3    H211362   0.639   5.878   0.581
 3786TIP3   OH211363   2.919   0.962   4.870
 3786TIP3    H111364   3.005   0.964   4.911
 3786TIP3    H211365   2.869   1.030   4.915
 3787TIP3   OH211366   5.452   5.698   0.948
 3787TIP3    H111367   5.522   5.642   0.915
 3787TIP3    H211368   5.482   5.787   0.931
 3788TIP3   OH211369   0.152   0.312   1.878
 3788TIP3    H111370   0.074   0.264   1.905
 3788TIP3    H211371   0.127   0.356   1.797
 3789TIP3   OH211372   1.170   0.212   2.088
 3789TIP3    H111373   1.257   0.228   2.124
 3789TIP3    H211374   1.121   0.171   2.160
 3790TIP3   OH211375   6.133   3.855   4.471
 3790TIP3    H111376   6.131   3.950   4.459
 3790TIP3    H211377   6.175   3.842   4.556
 3791TIP3   OH211378   1.115   1.487   2.883
 3791TIP3    H111379   1.143   1.526   2.800
 3791TIP3    H211380   1.020   1.490   2.879
 3792TIP3   OH211381   1.627   4.629   1.535
 3792TIP3    H111382   1.572   4.604   1.462
 3792TIP3    H211383   1.652   4.546   1.576
 3793TIP3   OH211384   0.213   4.449   3.777
 3793TIP3    H111385   0.126   4.472   3.809
 3793TIP3    H211386   0.198   4.415   3.689
 3794TIP3   OH211387   4.614   4.593   0.422
 3794TIP3    H111388   4.618   4.555   0.510
 3794TIP3    H211389   4.700   4.633   0.409
 3795TIP3   OH211390   1.047   2.763   3.845
 3795TIP3    H111391   1.089   2.839   3.806
 3795TIP3    H211392   0.982   2.736   3.781
 3796TIP3   OH211393   4.662   0.057   0.654
 3796TIP3    H111394   4.667   0.149   0.678
 3796TIP3    H211395   4.600   0.055   0.581
 3797TIP3   OH211396   0.396   5.331   2.768
 3797TIP3    H111397   0.355   5.258   2.815
 3797TIP3    H211398   0.490   5.313   2.773
 3798TIP3   OH211399   4.936   0.476   3.904
 3798TIP3    H111400   4.870   0.545   3.914
 3798TIP3    H211401   4.959   0.478   3.811
 3799TIP3   OH211402   3.897   4.553   3.888
 3799TIP3    H111403   3.963   4.511   3.943
 3799TIP3    H211404   3.844   4.481   3.855
 3800TIP3   OH211405   0.441   0.574   0.969
 3800TIP3    H111406   0.452   0.482   0.942
 3800TIP3    H211407   0.392   0.614   0.897
 3801TIP3   OH211408   2.623   2.564   3.883
 3801TIP3    H111409   2.587   2.538   3.798
 3801TIP3    H211410   2.546   2.584   3.936
 3802TIP3   OH211411   4.255   3.095   0.412
 3802TIP3    H111412   4.307   3.163   0.455
 3802TIP3    H211413   4.297   3.013   0.438
 3803TIP3   OH211414   3.224   0.776   3.566
 3803TIP3    H111415   3.232   0.687   3.533
 3803TIP3    H211416   3.307   0.793   3.610
 3804TIP3   OH211417   1.726   2.797   4.825
 3804TIP3    H111418   1.753   2.782   4.735
 3804TIP3    H211419   1.650   2.741   4.838
 3805TIP3   OH211420   3.923   0.830   3.333
 3805TIP3    H111421   3.828   0.825   3.327
 3805TIP3    H211422   3.945   0.781   3.412
 3806TIP3   OH211423   1.918   0.956   2.524
 3806TIP3    H111424   1.916   0.971   2.429
 3806TIP3    H211425   1.944   1.040   2.561
 3807TIP3   OH211426   5.676   4.917   2.968
 3807TIP3    H111427   5.730   4.849   2.930
 3807TIP3    H211428   5.598   4.921   2.913
 3808TIP3   OH211429   2.365   4.860   2.183
 3808TIP3    H111430   2.407   4.780   2.153
 3808TIP3    H211431   2.286   4.868   2.129
 3809TIP3   OH211432   0.299   2.079   4.963
 3809TIP3    H111433   0.354   2.051   4.890
 3809TIP3    H211434   0.210   2.053   4.939
 3810TIP3   OH211435   2.886   0.977   2.169
 3810TIP3    H111436   2.860   0.928   2.091
 3810TIP3    H211437   2.957   0.925   2.207
 3811TIP3   OH211438   5.589   4.094   2.248
 3811TIP3    H111439   5.609   4.021   2.189
 3811TIP3    H211440   5.673   4.139   2.259
 3812TIP3   OH211441   5.621   2.483   2.876
 3812TIP3    H111442   5.586   2.517   2.959
 3812TIP3    H211443   5.714   2.468   2.895
 3813TIP3   OH211444   1.006   1.324   1.209
 3813TIP3    H111445   1.048   1.409   1.222
 3813TIP3    H211446   0.958   1.309   1.290
 3814TIP3   OH211447   4.021   5.843   1.251
 3814TIP3    H111448   3.951   5.864   1.313
 3814TIP3    H211449   4.100   5.841   1.305
 3815TIP3   OH211450   1.261   3.065   0.381
 3815TIP3    H111451   1.214   3.121   0.319
 3815TIP3    H211452   1.306   3.126   0.439
 3816TIP3   OH211453   0.261   2.388   4.777
 3816TIP3    H111454   0.250   2.317   4.714
 3816TIP3    H211455   0.354   2.385   4.800
 3817TIP3   OH211456   2.342   3.198   2.355
 3817TIP3    H111457   2.276   3.161   2.414
 3817TIP3    H211458   2.368   3.280   2.396
 3818TIP3   OH211459   4.521   5.465   1.527
 3818TIP3    H111460   4.450   5.510   1.481
 3818TIP3    H211461   4.533   5.383   1.479
 3819TIP3   OH211462   3.403   4.339   2.285
 3819TIP3    H111463   3.408   4.255   2.330
 3819TIP3    H211464   3.311   4.363   2.290
 3820TIP3   OH211465   0.420   1.343   3.416
 3820TIP3    H111466   0.373   1.425   3.428
 3820TIP3    H211467   0.371   1.278   3.466
 3821TIP3   OH211468   4.733   4.656   3.284
 3821TIP3    H111469   4.763   4.674   3.373
 3821TIP3    H211470   4.811   4.668   3.230
 3822TIP3   OH211471   3.624   3.553   0.867
 3822TIP3    H111472   3.676   3.503   0.930
 3822TIP3    H211473   3.578   3.617   0.920
 3823TIP3   OH211474   6.141   2.868   0.058
 3823TIP3    H111475   6.101   2.844  -0.026
 3823TIP3    H211476   6.178   2.955   0.042
 3824TIP3   OH211477   2.750   3.044   3.418
 3824TIP3    H111478   2.668   3.093   3.413
 3824TIP3    H211479   2.754   3.013   3.509
 3825TIP3   OH211480   6.084   5.621   0.034
 3825TIP3    H111481   6.036   5.695  -0.003
 3825TIP3    H211482   6.157   5.660   0.081
 3826TIP3   OH211483   0.530   5.695   1.597
 3826TIP3    H111484   0.610   5.699   1.544
 3826TIP3    H211485   0.561   5.698   1.687
 3827TIP3   OH211486   3.638   4.420   0.524
 3827TIP3    H111487   3.569   4.418   0.591
 3827TIP3    H211488   3.616   4.349   0.464
 3828TIP3   OH211489   5.448   3.231   2.072
 3828TIP3    H111490   5.485   3.179   1.999
 3828TIP3    H211491   5.368   3.184   2.096
 3829TIP3   OH211492   3.579   3.758   1.070
 3829TIP3    H111493   3.559   3.809   1.148
 3829TIP3    H211494   3.608   3.823   1.006
 3830TIP3   OH211495   1.147   4.007   1.180
 3830TIP3    H111496   1.125   4.097   1.158
 3830TIP3    H211497   1.101   3.955   1.113
 3831TIP3   OH211498   5.052   2.134   1.349
 3831TIP3    H111499   5.023   2.100   1.433
 3831TIP3    H211500   5.115   2.203   1.370
 3832TIP3   OH211501   3.430   1.168   0.080
 3832TIP3    H111502   3.357   1.118   0.044
 3832TIP3    H211503   3.394   1.255   0.097
 3833TIP3   OH211504   0.035   3.683   0.004
 3833TIP3    H111505   0.051   3.632   0.083
 3833TIP3    H211506   0.087   3.640  -0.063
 3834TIP3   OH211507   0.748   5.725   2.270
 3834TIP3    H111508   0.723   5.633   2.260
 3834TIP3    H211509   0.673   5.774   2.236
 3835TIP3   OH211510   0.398   4.199   3.614
 3835TIP3    H111511   0.398   4.126   3.676
 3835TIP3    H211512   0.307   4.229   3.611
 3836TIP3   OH211513   1.021   5.384   4.379
 3836TIP3    H111514   1.019   5.331   4.300
 3836TIP3    H211515   0.932   5.375   4.416
 3837TIP3   OH211516   4.640   3.068   0.551
 3837TIP3    H111517   4.549   3.088   0.572
 3837TIP3    H211518   4.639   2.977   0.523
 3838TIP3   OH211519   5.983   3.403   1.725
 3838TIP3    H111520   5.987   3.399   1.821
 3838TIP3    H211521   5.892   3.382   1.703
 3839TIP3   OH211522   2.907   2.523   4.259
 3839TIP3    H111523   2.824   2.517   4.306
 3839TIP3    H211524   2.883   2.512   4.167
 3840TIP3   OH211525   1.486   0.828   0.869
 3840TIP3    H111526   1.571   0.856   0.903
 3840TIP3    H211527   1.431   0.817   0.947
 3841TIP3   OH211528   0.353   4.281   3.925
 3841TIP3    H111529   0.298   4.317   3.856
 3841TIP3    H211530   0.327   4.189   3.930
 3842TIP3   OH211531   4.667   5.104   2.360
 3842TIP3    H111532   4.696   5.176   2.303
 3842TIP3    H211533   4.746   5.053   2.376
 3843TIP3   OH211534   2.571   3.459   1.727
 3843TIP3    H111535   2.477   3.464   1.747
 3843TIP3    H211536   2.593   3.367   1.741
 3844TIP3   OH211537   1.461   1.472   3.307
 3844TIP3    H111538   1.511   1.490   3.387
 3844TIP3    H211539   1.371   1.496   3.329
 3845TIP3   OH211540   0.374   1.932   3.154
 3845TIP3    H111541   0.468   1.941   3.166
 3845TIP3    H211542   0.364   1.871   3.081
 3846TIP3   OH211543   4.947   4.738   3.054
 3846TIP3    H111544   4.911   4.817   3.095
 3846TIP3    H211545   4.895   4.725   2.975
 3847TIP3   OH211546   4.451   4.617   3.287
 3847TIP3    H111547   4.431   4.533   3.329
 3847TIP3    H211548   4.546   4.616   3.276
 3848TIP3   OH211549   5.252   5.165   3.528
 3848TIP3    H111550   5.185   5.128   3.470
 3848TIP3    H211551   5.203   5.201   3.602
 3849TIP3   OH211552   1.573   3.466   2.964
 3849TIP3    H111553   1.616   3.406   2.904
 3849TIP3    H211554   1.556   3.414   3.043
 3850TIP3   OH211555   0.974   5.593   3.047
 3850TIP3    H111556   1.019   5.673   3.018
 3850TIP3    H211557   0.882   5.609   3.026
 3851TIP3   OH211558   3.680   1.020   2.353
 3851TIP3    H111559   3.741   0.961   2.309
 3851TIP3    H211560   3.677   1.098   2.297
 3852TIP3   OH211561   3.975   0.544   2.716
 3852TIP3    H111562   3.901   0.539   2.655
 3852TIP3    H211563   3.936   0.575   2.798
 3853TIP3   OH211564   6.005   1.376   2.204
 3853TIP3    H111565   6.083   1.387   2.150
 3853TIP3    H211566   6.023   1.426   2.283
 3854TIP3   OH211567   3.824   1.535   2.131
 3854TIP3    H111568   3.821   1.576   2.045
 3854TIP3    H211569   3.900   1.476   2.127
 3855TIP3   OH211570   4.024   4.089   0.591
 3855TIP3    H111571   3.930   4.105   0.591
 3855TIP3    H211572   4.041   4.043   0.508
 3856TIP3   OH211573   0.264   1.259   0.176
 3856TIP3    H111574   0.310   1.330   0.130
 3856TIP3    H211575   0.171   1.281   0.167
 3857TIP3   OH211576   0.812   2.772   2.150
 3857TIP3    H111577   0.849   2.849   2.192
 3857TIP3    H211578   0.878   2.704   2.163
 3858TIP3   OH211579   5.944   1.606   4.859
 3858TIP3    H111580   5.872   1.658   4.824
 3858TIP3    H211581   5.993   1.578   4.781
 3859TIP3   OH211582   2.436   1.914   3.646
 3859TIP3    H111583   2.358   1.935   3.595
 3859TIP3    H211584   2.409   1.924   3.737
 3860TIP3   OH211585   0.710   3.559   3.491
 3860TIP3    H111586   0.624   3.518   3.506
 3860TIP3    H211587   0.769   3.512   3.550
 3861TIP3   OH211588   0.093   2.018   0.708
 3861TIP3    H111589   0.126   2.104   0.681
 3861TIP3    H211590   0.166   1.958   0.692
 3862TIP3   OH211591   5.390   5.663   3.401
 3862TIP3    H111592   5.324   5.719   3.361
 3862TIP3    H211593   5.409   5.597   3.335
 3863TIP3   OH211594   3.275   2.086   2.165
 3863TIP3    H111595   3.300   2.104   2.074
 3863TIP3    H211596   3.337   2.019   2.194
 3864TIP3   OH211597   2.043   4.892   3.034
 3864TIP3    H111598   2.067   4.898   3.126
 3864TIP3    H211599   2.109   4.835   2.995
 3865TIP3   OH211600   1.871   2.424   2.702
 3865TIP3    H111601   1.821   2.495   2.741
 3865TIP3    H211602   1.837   2.345   2.744
 3866TIP3   OH211603   0.877   5.299   3.921
 3866TIP3    H111604   0.928   5.254   3.989
 3866TIP3    H211605   0.814   5.353   3.970
 3867TIP3   OH211606   1.554   1.526   0.732
 3867TIP3    H111607   1.580   1.540   0.823
 3867TIP3    H211608   1.626   1.475   0.694
 3868TIP3   OH211609   4.140   2.806   2.903
 3868TIP3    H111610   4.179   2.743   2.963
 3868TIP3    H211611   4.185   2.889   2.923
 3869TIP3   OH211612   4.851   4.515   3.732
 3869TIP3    H111613   4.947   4.512   3.724
 3869TIP3    H211614   4.836   4.536   3.825
 3870TIP3   OH211615   3.461   5.051   2.672
 3870TIP3    H111616   3.449   5.141   2.644
 3870TIP3    H211617   3.509   5.058   2.755
 3871TIP3   OH211618   4.480   0.504   4.758
 3871TIP3    H111619   4.563   0.462   4.782
 3871TIP3    H211620   4.429   0.435   4.716
 3872TIP3   OH211621   5.998   3.694   1.508
 3872TIP3    H111622   6.084   3.654   1.500
 3872TIP3    H211623   5.944   3.626   1.550
 3873TIP3   OH211624   4.826   5.033   0.570
 3873TIP3    H111625   4.854   5.124   0.561
 3873TIP3    H211626   4.779   5.014   0.489
 3874TIP3   OH211627   2.810   5.043   4.843
 3874TIP3    H111628   2.737   5.039   4.782
 3874TIP3    H211629   2.839   4.952   4.851
 3875TIP3   OH211630   5.867   0.930   2.754
 3875TIP3    H111631   5.901   1.015   2.724
 3875TIP3    H211632   5.790   0.953   2.806
 3876TIP3   OH211633   5.531   1.882   4.249
 3876TIP3    H111634   5.617   1.901   4.211
 3876TIP3    H211635   5.518   1.789   4.233
 3877TIP3   OH211636   2.887   4.796   2.532
 3877TIP3    H111637   2.911   4.747   2.454
 3877TIP3    H211638   2.938   4.757   2.602
 3878TIP3   OH211639   5.016   5.557   1.487
 3878TIP3    H111640   5.035   5.651   1.491
 3878TIP3    H211641   4.920   5.553   1.484
 3879TIP3   OH211642   4.402   2.674   5.132
 3879TIP3    H111643   4.367   2.610   5.070
 3879TIP3    H211644   4.370   2.645   5.217
 3880TIP3   OH211645   4.525   1.042   4.820
 3880TIP3    H111646   4.527   0.947   4.812
 3880TIP3    H211647   4.480   1.059   4.902
 3881TIP3   OH211648   1.328   4.235   1.794
 3881TIP3    H111649   1.273   4.277   1.860
 3881TIP3    H211650   1.417   4.241   1.831
 3882TIP3   OH211651   5.696   3.356   2.660
 3882TIP3    H111652   5.602   3.366   2.674
 3882TIP3    H211653   5.726   3.303   2.733
 3883TIP3   OH211654   1.423   2.236   1.739
 3883TIP3    H111655   1.510   2.199   1.725
 3883TIP3    H211656   1.418   2.308   1.675
 3884TIP3   OH211657   5.295   2.962   1.491
 3884TIP3    H111658   5.333   3.019   1.424
 3884TIP3    H211659   5.351   2.884   1.491
 3885TIP3   OH211660   0.573   1.313   4.802
 3885TIP3    H111661   0.542   1.224   4.814
 3885TIP3    H211662   0.643   1.323   4.867
 3886TIP3   OH211663   0.111   6.019   2.418
 3886TIP3    H111664   0.050   5.958   2.460
 3886TIP3    H211665   0.197   5.989   2.446
 3887TIP3   OH211666   0.713   5.660   1.382
 3887TIP3    H111667   0.730   5.565   1.380
 3887TIP3    H211668   0.775   5.696   1.319
 3888TIP3   OH211669   1.187   4.375   0.596
 3888TIP3    H111670   1.269   4.327   0.609
 3888TIP3    H211671   1.141   4.325   0.529
 3889TIP3   OH211672   2.054   0.791   3.521
 3889TIP3    H111673   2.047   0.877   3.481
 3889TIP3    H211674   2.045   0.730   3.448
 3890TIP3   OH211675   5.885   3.210   3.626
 3890TIP3    H111676   5.887   3.262   3.706
 3890TIP3    H211677   5.955   3.145   3.638
 3891TIP3   OH211678   3.344   3.648   2.909
 3891TIP3    H111679   3.259   3.687   2.887
 3891TIP3    H211680   3.323   3.582   2.975
 3892TIP3   OH211681   4.544   3.413   5.095
 3892TIP3    H111682   4.615   3.361   5.133
 3892TIP3    H211683   4.546   3.495   5.144
 3893TIP3   OH211684   2.400   3.768   1.046
 3893TIP3    H111685   2.431   3.682   1.075
 3893TIP3    H211686   2.457   3.830   1.091
 3894TIP3   OH211687   2.489   2.263   1.293
 3894TIP3    H111688   2.404   2.295   1.326
 3894TIP3    H211689   2.503   2.180   1.340
 3895TIP3   OH211690   0.019   4.242   3.902
 3895TIP3    H111691  -0.007   4.334   3.893
 3895TIP3    H211692   0.087   4.242   3.968
 3896TIP3   OH211693   4.051   4.466   3.602
 3896TIP3    H111694   4.090   4.526   3.665
 3896TIP3    H211695   4.050   4.514   3.519
 3897TIP3   OH211696   0.064   1.468   1.543
 3897TIP3    H111697   0.030   1.397   1.598
 3897TIP3    H211698   0.067   1.544   1.602
 3898TIP3   OH211699   5.391   3.445   3.027
 3898TIP3    H111700   5.307   3.464   2.985
 3898TIP3    H211701   5.444   3.408   2.956
 3899TIP3   OH211702   4.841   1.306   2.125
 3899TIP3    H111703   4.883   1.358   2.056
 3899TIP3    H211704   4.898   1.229   2.134
 3900TIP3   OH211705   1.014   3.007   3.314
 3900TIP3    H111706   0.985   2.979   3.227
 3900TIP3    H211707   0.937   3.048   3.353
 3901TIP3   OH211708   1.871   2.408   1.182
 3901TIP3    H111709   1.828   2.440   1.102
 3901TIP3    H211710   1.963   2.432   1.170
 3902TIP3   OH211711   4.423   1.616   4.774
 3902TIP3    H111712   4.511   1.633   4.806
 3902TIP3    H211713   4.436   1.565   4.694
 3903TIP3   OH211714   6.319   5.571   0.863
 3903TIP3    H111715   6.379   5.567   0.937
 3903TIP3    H211716   6.232   5.564   0.902
 3904TIP3   OH211717   1.678   4.891   1.588
 3904TIP3    H111718   1.652   4.803   1.561
 3904TIP3    H211719   1.613   4.949   1.546
 3905TIP3   OH211720   0.316   1.713   3.905
 3905TIP3    H111721   0.391   1.767   3.880
 3905TIP3    H211722   0.320   1.709   4.000
 3906TIP3   OH211723   5.628   2.988   3.412
 3906TIP3    H111724   5.598   3.057   3.472
 3906TIP3    H211725   5.550   2.933   3.399
 3907TIP3   OH211726   2.853   2.183   2.377
 3907TIP3    H111727   2.926   2.229   2.335
 3907TIP3    H211728   2.887   2.158   2.463
 3908TIP3   OH211729   4.135   1.515   1.482
 3908TIP3    H111730   4.106   1.591   1.532
 3908TIP3    H211731   4.167   1.551   1.399
 3909TIP3   OH211732   5.256   4.574   4.533
 3909TIP3    H111733   5.341   4.541   4.562
 3909TIP3    H211734   5.269   4.668   4.521
 3910TIP3   OH211735   1.380   4.068   3.238
 3910TIP3    H111736   1.344   4.139   3.184
 3910TIP3    H211737   1.303   4.020   3.268
 3911TIP3   OH211738   2.088   3.777   3.870
 3911TIP3    H111739   2.066   3.747   3.782
 3911TIP3    H211740   2.018   3.743   3.925
 3912TIP3   OH211741   0.455   0.611   4.715
 3912TIP3    H111742   0.419   0.635   4.801
 3912TIP3    H211743   0.534   0.665   4.707
 3913TIP3   OH211744   4.645   1.077   0.063
 3913TIP3    H111745   4.649   1.020   0.140
 3913TIP3    H211746   4.695   1.155   0.088
 3914TIP3   OH211747   4.615   3.962   1.447
 3914TIP3    H111748   4.615   3.879   1.495
 3914TIP3    H211749   4.612   4.029   1.515
 3915TIP3   OH211750   4.689   1.608   2.481
 3915TIP3    H111751   4.767   1.561   2.450
 3915TIP3    H211752   4.707   1.624   2.574
 3916TIP3   OH211753   4.725   2.364   0.803
 3916TIP3    H111754   4.769   2.312   0.870
 3916TIP3    H211755   4.785   2.362   0.728
 3917TIP3   OH211756   1.227   0.366   1.183
 3917TIP3    H111757   1.233   0.429   1.111
 3917TIP3    H211758   1.302   0.387   1.239
 3918TIP3   OH211759   2.367   2.295   2.625
 3918TIP3    H111760   2.436   2.258   2.570
 3918TIP3    H211761   2.393   2.386   2.639
 3919TIP3   OH211762   1.081   1.079   0.316
 3919TIP3    H111763   1.061   1.164   0.355
 3919TIP3    H211764   1.162   1.093   0.267
 3920TIP3   OH211765   5.124   3.568   2.883
 3920TIP3    H111766   5.084   3.610   2.960
 3920TIP3    H211767   5.051   3.553   2.824
 3921TIP3   OH211768   2.348   4.387   1.564
 3921TIP3    H111769   2.380   4.329   1.495
 3921TIP3    H211770   2.357   4.475   1.528
 3922TIP3   OH211771   5.582   5.704   0.296
 3922TIP3    H111772   5.551   5.618   0.325
 3922TIP3    H211773   5.651   5.684   0.233
 3923TIP3   OH211774   0.872   4.689   0.425
 3923TIP3    H111775   0.959   4.687   0.466
 3923TIP3    H211776   0.890   4.681   0.331
 3924TIP3   OH211777   0.477   3.430   1.180
 3924TIP3    H111778   0.396   3.385   1.155
 3924TIP3    H211779   0.512   3.464   1.098
 3925TIP3   OH211780   5.491   0.381   1.812
 3925TIP3    H111781   5.558   0.375   1.880
 3925TIP3    H211782   5.540   0.405   1.733
 3926TIP3   OH211783   5.702   2.124   0.205
 3926TIP3    H111784   5.713   2.102   0.112
 3926TIP3    H211785   5.607   2.132   0.216
 3927TIP3   OH211786   4.249   1.200   3.914
 3927TIP3    H111787   4.258   1.105   3.926
 3927TIP3    H211788   4.293   1.238   3.989
 3928TIP3   OH211789   0.517   3.558   5.024
 3928TIP3    H111790   0.577   3.485   5.008
 3928TIP3    H211791   0.564   3.635   4.993
 3929TIP3   OH211792   2.542   5.975   3.529
 3929TIP3    H111793   2.570   5.902   3.474
 3929TIP3    H211794   2.616   5.991   3.587
 3930TIP3   OH211795   4.462   1.151   1.107
 3930TIP3    H111796   4.556   1.147   1.128
 3930TIP3    H211797   4.426   1.071   1.145
 3931TIP3   OH211798   6.063   4.177   1.469
 3931TIP3    H111799   5.970   4.197   1.470
 3931TIP3    H211800   6.090   4.181   1.561
 3932TIP3   OH211801   2.332   1.919   2.875
 3932TIP3    H111802   2.296   1.962   2.798
 3932TIP3    H211803   2.416   1.884   2.846
 3933TIP3   OH211804   3.617   1.108   1.890
 3933TIP3    H111805   3.690   1.047   1.877
 3933TIP3    H211806   3.617   1.126   1.984
 3934TIP3   OH211807   1.699   3.301   4.037
 3934TIP3    H111808   1.762   3.245   4.083
 3934TIP3    H211809   1.653   3.347   4.107
 3935TIP3   OH211810   1.137   3.926   4.122
 3935TIP3    H111811   1.133   3.847   4.176
 3935TIP3    H211812   1.051   3.967   4.132
 3936TIP3   OH211813   2.357   2.143   2.034
 3936TIP3    H111814   2.289   2.135   1.968
 3936TIP3    H211815   2.312   2.128   2.117
 3937TIP3   OH211816   1.344   5.635   2.669
 3937TIP3    H111817   1.252   5.649   2.649
 3937TIP3    H211818   1.370   5.562   2.613
 3938TIP3   OH211819   1.544   5.862   0.131
 3938TIP3    H111820   1.575   5.823   0.050
 3938TIP3    H211821   1.621   5.862   0.189
 3939TIP3   OH211822   1.059   2.119   2.287
 3939TIP3    H111823   1.124   2.138   2.355
 3939TIP3    H211824   1.072   2.188   2.221
 3940TIP3   OH211825   4.553   4.319   3.945
 3940TIP3    H111826   4.592   4.328   4.032
 3940TIP3    H211827   4.530   4.409   3.920
 3941TIP3   OH211828   2.394   5.689   3.100
 3941TIP3    H111829   2.434   5.774   3.083
 3941TIP3    H211830   2.407   5.640   3.019
 3942TIP3   OH211831   1.233   4.659   1.850
 3942TIP3    H111832   1.183   4.663   1.768
 3942TIP3    H211833   1.324   4.659   1.822
 3943TIP3   OH211834   1.431   3.448   4.859
 3943TIP3    H111835   1.469   3.364   4.884
 3943TIP3    H211836   1.346   3.425   4.820
 3944TIP3   OH211837   4.646   4.806   4.077
 3944TIP3    H111838   4.568   4.795   4.130
 3944TIP3    H211839   4.628   4.882   4.022
 3945TIP3   OH211840   4.293   3.071   3.017
 3945TIP3    H111841   4.252   3.081   3.103
 3945TIP3    H211842   4.387   3.067   3.035
 3946TIP3   OH211843   0.090   1.102   3.302
 3946TIP3    H111844   0.166   1.084   3.246
 3946TIP3    H211845   0.112   1.185   3.345
 3947TIP3   OH211846   1.573   5.367   3.829
 3947TIP3    H111847   1.651   5.317   3.852
 3947TIP3    H211848   1.592   5.403   3.743
 3948TIP3   OH211849   3.843   2.342   2.569
 3948TIP3    H111850   3.791   2.279   2.620
 3948TIP3    H211851   3.923   2.294   2.546
 3949TIP3   OH211852   0.127   5.881   0.909
 3949TIP3    H111853   0.159   5.791   0.915
 3949TIP3    H211854   0.049   5.882   0.964
 3950TIP3   OH211855   0.858   0.014   2.307
 3950TIP3    H111856   0.859   0.012   2.403
 3950TIP3    H211857   0.768   0.040   2.285
 3951TIP3   OH211858   1.622   3.575   0.017
 3951TIP3    H111859   1.529   3.598   0.020
 3951TIP3    H211860   1.653   3.592   0.106
 3952TIP3   OH211861   2.353   3.291   2.623
 3952TIP3    H111862   2.298   3.221   2.659
 3952TIP3    H211863   2.328   3.369   2.673
 3953TIP3   OH211864   3.956   1.383   4.581
 3953TIP3    H111865   3.991   1.338   4.657
 3953TIP3    H211866   3.989   1.333   4.506
 3954TIP3   OH211867   3.644   4.697   0.369
 3954TIP3    H111868   3.710   4.766   0.374
 3954TIP3    H211869   3.666   4.638   0.441
 3955TIP3   OH211870   1.157   5.040   3.771
 3955TIP3    H111871   1.097   5.110   3.745
 3955TIP3    H211872   1.239   5.061   3.727
 3956TIP3   OH211873   2.381   4.718   0.513
 3956TIP3    H111874   2.410   4.654   0.448
 3956TIP3    H211875   2.448   4.716   0.581
 3957TIP3   OH211876   3.355   1.138   2.927
 3957TIP3    H111877   3.403   1.173   2.852
 3957TIP3    H211878   3.266   1.124   2.893
 3958TIP3   OH211879   1.063   5.521   3.318
 3958TIP3    H111880   1.061   5.538   3.223
 3958TIP3    H211881   0.972   5.525   3.345
 3959TIP3   OH211882   3.440   2.697   3.951
 3959TIP3    H111883   3.362   2.687   4.004
 3959TIP3    H211884   3.482   2.611   3.952
 3960TIP3   OH211885   4.463   0.629   1.567
 3960TIP3    H111886   4.512   0.678   1.633
 3960TIP3    H211887   4.393   0.688   1.540
 3961TIP3   OH211888   4.859   5.732   2.965
 3961TIP3    H111889   4.934   5.712   3.020
 3961TIP3    H211890   4.890   5.714   2.876
 3962TIP3   OH211891   4.418   3.802   4.965
 3962TIP3    H111892   4.503   3.776   4.931
 3962TIP3    H211893   4.371   3.835   4.889
 3963TIP3   OH211894   2.769   4.826   1.857
 3963TIP3    H111895   2.804   4.743   1.824
 3963TIP3    H211896   2.782   4.822   1.951
 3964TIP3   OH211897   1.331   5.502   0.160
 3964TIP3    H111898   1.351   5.460   0.077
 3964TIP3    H211899   1.316   5.594   0.137
 3965TIP3   OH211900   5.035   2.825   3.947
 3965TIP3    H111901   4.979   2.753   3.918
 3965TIP3    H211902   4.974   2.898   3.962
 3966TIP3   OH211903   0.362   2.198   2.136
 3966TIP3    H111904   0.340   2.165   2.049
 3966TIP3    H211905   0.396   2.286   2.120
 3967TIP3   OH211906   5.903   1.933   0.261
 3967TIP3    H111907   5.835   1.992   0.228
 3967TIP3    H211908   5.984   1.983   0.254
 3968TIP3   OH211909   3.818   4.459   4.420
 3968TIP3    H111910   3.758   4.523   4.458
 3968TIP3    H211911   3.780   4.374   4.442
 3969TIP3   OH211912   2.225   3.794   0.846
 3969TIP3    H111913   2.280   3.812   0.922
 3969TIP3    H211914   2.157   3.861   0.849
 3970TIP3   OH211915   5.591   5.661   1.826
 3970TIP3    H111916   5.609   5.749   1.859
 3970TIP3    H211917   5.678   5.621   1.818
 3971TIP3   OH211918   0.958   5.530   1.932
 3971TIP3    H111919   1.001   5.598   1.880
 3971TIP3    H211920   0.924   5.577   2.008
 3972TIP3   OH211921   4.932   4.980   2.031
 3972TIP3    H111922   4.925   4.969   1.936
 3972TIP3    H211923   5.013   5.030   2.043
 3973TIP3   OH211924   5.880   3.758   0.924
 3973TIP3    H111925   5.943   3.816   0.881
 3973TIP3    H211926   5.795   3.784   0.888
 3974TIP3   OH211927   0.622   1.913   3.433
 3974TIP3    H111928   0.625   1.903   3.338
 3974TIP3    H211929   0.708   1.948   3.456
 3975TIP3   OH211930   0.289   3.552   0.632
 3975TIP3    H111931   0.246   3.631   0.599
 3975TIP3    H211932   0.273   3.486   0.566
 3976TIP3   OH211933   0.910   1.060   1.803
 3976TIP3    H111934   0.988   1.007   1.790
 3976TIP3    H211935   0.872   1.070   1.715
 3977TIP3   OH211936   4.363   4.673   2.870
 3977TIP3    H111937   4.313   4.691   2.950
 3977TIP3    H211938   4.308   4.614   2.819
 3978TIP3   OH211939   1.078   1.671   3.567
 3978TIP3    H111940   0.997   1.645   3.610
 3978TIP3    H211941   1.096   1.759   3.599
 3979TIP3   OH211942   1.737   5.732   3.936
 3979TIP3    H111943   1.764   5.768   4.020
 3979TIP3    H211944   1.653   5.690   3.953
 3980TIP3   OH211945   2.840   2.031   4.337
 3980TIP3    H111946   2.879   2.004   4.254
 3980TIP3    H211947   2.807   2.119   4.320
 3981TIP3   OH211948   2.671   0.295   5.029
 3981TIP3    H111949   2.638   0.316   5.116
 3981TIP3    H211950   2.595   0.304   4.971
 3982TIP3   OH211951   4.596   2.528   4.520
 3982TIP3    H111952   4.586   2.475   4.599
 3982TIP3    H211953   4.606   2.618   4.551
 3983TIP3   OH211954   1.088   4.652   0.573
 3983TIP3    H111955   1.107   4.564   0.542
 3983TIP3    H211956   1.173   4.689   0.595
 3984TIP3   OH211957   2.627   0.347   3.227
 3984TIP3    H111958   2.581   0.302   3.298
 3984TIP3    H211959   2.569   0.339   3.151
 3985TIP3   OH211960   6.308   2.550   3.945
 3985TIP3    H111961   6.346   2.463   3.957
 3985TIP3    H211962   6.262   2.545   3.862
 3986TIP3   OH211963   0.965   2.104   4.930
 3986TIP3    H111964   0.904   2.077   4.999
 3986TIP3    H211965   0.924   2.181   4.891
 3987TIP3   OH211966   1.558   5.860   0.512
 3987TIP3    H111967   1.634   5.915   0.491
 3987TIP3    H211968   1.586   5.772   0.488
 3988TIP3   OH211969   5.360   5.897   2.600
 3988TIP3    H111970   5.438   5.842   2.588
 3988TIP3    H211971   5.394   5.984   2.621
 3989TIP3   OH211972   5.887   2.429   2.943
 3989TIP3    H111973   5.880   2.358   2.879
 3989TIP3    H211974   5.974   2.466   2.928
 3990TIP3   OH211975   0.821   1.445   3.380
 3990TIP3    H111976   0.791   1.458   3.290
 3990TIP3    H211977   0.914   1.422   3.371
 3991TIP3   OH211978   3.308   2.798   0.610
 3991TIP3    H111979   3.303   2.865   0.541
 3991TIP3    H211980   3.382   2.743   0.585
 3992TIP3   OH211981   2.169   5.577   4.797
 3992TIP3    H111982   2.202   5.583   4.708
 3992TIP3    H211983   2.227   5.633   4.848
 3993TIP3   OH211984   2.027   0.180   1.537
 3993TIP3    H111985   1.986   0.096   1.552
 3993TIP3    H211986   1.974   0.242   1.587
 3994TIP3   OH211987   5.576   3.607   1.613
 3994TIP3    H111988   5.566   3.627   1.520
 3994TIP3    H211989   5.611   3.518   1.615
 3995TIP3   OH211990   2.570   1.268   3.901
 3995TIP3    H111991   2.556   1.322   3.823
 3995TIP3    H211992   2.631   1.319   3.954
 3996TIP3   OH211993   4.015   3.058   4.100
 3996TIP3    H111994   4.104   3.072   4.133
 3996TIP3    H211995   4.020   3.081   4.008
 3997TIP3   OH211996   1.185   0.643   2.863
 3997TIP3    H111997   1.256   0.621   2.923
 3997TIP3    H211998   1.198   0.585   2.788
 3998TIP3   OH211999   4.130   2.863   1.166
 3998TIP3    H112000   4.203   2.906   1.121
 3998TIP3    H212001   4.119   2.913   1.247
 3999TIP3   OH212002   4.916   4.458   1.508
 3999TIP3    H112003   4.899   4.506   1.427
 3999TIP3    H212004   4.867   4.376   1.499
 4000TIP3   OH212005   0.926   2.915   4.685
 4000TIP3    H112006   0.936   2.920   4.589
 4000TIP3    H212007   0.996   2.854   4.712
 4001TIP3   OH212008   3.997   5.534   1.283
 4001TIP3    H112009   3.956   5.466   1.230
 4001TIP3    H212010   3.995   5.612   1.228
 4002TIP3   OH212011   2.597   2.291   2.145
 4002TIP3    H112012   2.534   2.333   2.203
 4002TIP3    H212013   2.546   2.228   2.094
 4003TIP3   OH212014   4.213   4.448   0.349
 4003TIP3    H112015   4.122   4.427   0.370
 4003TIP3    H212016   4.252   4.469   0.434
 4004TIP3   OH212017   4.819   1.000   0.523
 4004TIP3    H112018   4.807   0.920   0.574
 4004TIP3    H212019   4.897   1.041   0.562
 4005TIP3   OH212020   5.451   4.405   0.656
 4005TIP3    H112021   5.507   4.449   0.720
 4005TIP3    H212022   5.485   4.315   0.653
 4006TIP3   OH212023   1.701   5.902   5.031
 4006TIP3    H112024   1.647   5.885   5.108
 4006TIP3    H212025   1.708   5.997   5.027
 4007TIP3   OH212026   1.099   2.350   3.261
 4007TIP3    H112027   1.083   2.382   3.350
 4007TIP3    H212028   1.012   2.349   3.220
 4008TIP3   OH212029   4.532   5.393   1.793
 4008TIP3    H112030   4.619   5.435   1.796
 4008TIP3    H212031   4.506   5.400   1.701
 4009TIP3   OH212032   2.335   3.860   2.672
 4009TIP3    H112033   2.331   3.913   2.752
 4009TIP3    H212034   2.244   3.855   2.643
 4010TIP3   OH212035   1.706   5.970   2.469
 4010TIP3    H112036   1.718   5.887   2.423
 4010TIP3    H212037   1.668   6.029   2.403
 4011TIP3   OH212038   1.425   1.354   0.168
 4011TIP3    H112039   1.390   1.357   0.079
 4011TIP3    H212040   1.349   1.370   0.224
 4012TIP3   OH212041   0.931   2.622   0.195
 4012TIP3    H112042   0.837   2.639   0.195
 4012TIP3    H212043   0.968   2.697   0.148
 4013TIP3   OH212044   1.039   2.146   3.882
 4013TIP3    H112045   1.108   2.156   3.947
 4013TIP3    H212046   0.957   2.151   3.932
 4014TIP3   OH212047   3.845   2.848   5.121
 4014TIP3    H112048   3.879   2.919   5.176
 4014TIP3    H212049   3.753   2.841   5.146
 4015TIP3   OH212050   0.562   0.139   4.030
 4015TIP3    H112051   0.484   0.151   4.084
 4015TIP3    H212052   0.624   0.205   4.062
 4016TIP3   OH212053   5.993   4.550   1.957
 4016TIP3    H112054   5.940   4.509   1.889
 4016TIP3    H212055   6.082   4.552   1.921
 4017TIP3   OH212056   5.863   0.563   1.091
 4017TIP3    H112057   5.824   0.605   1.167
 4017TIP3    H212058   5.809   0.486   1.075
 4018TIP3   OH212059   1.568   0.147   4.528
 4018TIP3    H112060   1.655   0.109   4.527
 4018TIP3    H212061   1.530   0.121   4.444
 4019TIP3   OH212062   4.608   0.967   1.331
 4019TIP3    H112063   4.668   0.935   1.264
 4019TIP3    H212064   4.645   0.936   1.414
 4020TIP3   OH212065   1.558   0.246   3.849
 4020TIP3    H112066   1.626   0.217   3.788
 4020TIP3    H212067   1.505   0.308   3.798
 4021TIP3   OH212068   2.394   5.314   2.003
 4021TIP3    H112069   2.406   5.246   2.069
 4021TIP3    H212070   2.445   5.388   2.035
 4022TIP3   OH212071   1.658   1.631   4.714
 4022TIP3    H112072   1.730   1.569   4.708
 4022TIP3    H212073   1.628   1.624   4.804
 4023TIP3   OH212074   3.698   0.240   4.501
 4023TIP3    H112075   3.737   0.164   4.459
 4023TIP3    H212076   3.609   0.244   4.466
 4024TIP3   OH212077   5.810   5.305   0.063
 4024TIP3    H112078   5.726   5.268   0.035
 4024TIP3    H212079   5.861   5.312  -0.018
 4025TIP3   OH212080   1.225   4.119   4.282
 4025TIP3    H112081   1.190   4.060   4.215
 4025TIP3    H212082   1.313   4.087   4.299
 4026TIP3   OH212083   0.675   5.526   4.889
 4026TIP3    H112084   0.746   5.563   4.838
 4026TIP3    H212085   0.599   5.580   4.868
 4027TIP3   OH212086   0.986   4.755   1.708
 4027TIP3    H112087   0.987   4.660   1.717
 4027TIP3    H212088   0.973   4.770   1.615
 4028TIP3   OH212089   3.907   3.619   2.914
 4028TIP3    H112090   3.889   3.687   2.979
 4028TIP3    H212091   3.869   3.652   2.833
 4029TIP3   OH212092   2.111   3.983   4.994
 4029TIP3    H112093   2.087   3.892   4.978
 4029TIP3    H212094   2.141   3.984   5.085
 4030TIP3   OH212095   4.312   0.247   2.108
 4030TIP3    H112096   4.365   0.260   2.029
 4030TIP3    H212097   4.331   0.157   2.135
 4031TIP3   OH212098   5.090   5.416   1.705
 4031TIP3    H112099   5.183   5.424   1.685
 4031TIP3    H212100   5.045   5.464   1.635
 4032TIP3   OH212101   4.636   2.483   0.397
 4032TIP3    H112102   4.562   2.457   0.452
 4032TIP3    H212103   4.601   2.551   0.339
 4033TIP3   OH212104   1.199   1.902   1.902
 4033TIP3    H112105   1.229   1.818   1.935
 4033TIP3    H212106   1.117   1.918   1.948
 4034TIP3   OH212107   5.637   4.512   1.724
 4034TIP3    H112108   5.663   4.421   1.737
 4034TIP3    H212109   5.623   4.520   1.630
 4035TIP3   OH212110   5.785   4.280   2.186
 4035TIP3    H112111   5.774   4.310   2.276
 4035TIP3    H212112   5.726   4.336   2.135
 4036TIP3   OH212113   5.435   0.526   2.107
 4036TIP3    H112114   5.409   0.469   2.180
 4036TIP3    H212115   5.530   0.527   2.111
 4037TIP3   OH212116   0.618   3.640   1.552
 4037TIP3    H112117   0.540   3.600   1.590
 4037TIP3    H212118   0.620   3.729   1.587
 4038TIP3   OH212119   5.020   2.794   3.542
 4038TIP3    H112120   5.022   2.698   3.540
 4038TIP3    H212121   5.004   2.819   3.451
 4039TIP3   OH212122   1.074   5.224   0.246
 4039TIP3    H112123   1.122   5.216   0.328
 4039TIP3    H212124   1.009   5.292   0.264
 4040TIP3   OH212125   2.700   5.007   0.907
 4040TIP3    H112126   2.727   5.085   0.956
 4040TIP3    H212127   2.635   5.040   0.844
 4041TIP3   OH212128   5.507   2.751   1.296
 4041TIP3    H112129   5.519   2.665   1.255
 4041TIP3    H212130   5.491   2.810   1.222
 4042TIP3   OH212131   3.962   1.877   2.782
 4042TIP3    H112132   3.966   1.864   2.877
 4042TIP3    H212133   3.903   1.952   2.771
 4043TIP3   OH212134   5.534   1.987   1.917
 4043TIP3    H112135   5.544   1.894   1.895
 4043TIP3    H212136   5.444   2.008   1.892
 4044TIP3   OH212137   1.831   3.105   1.645
 4044TIP3    H112138   1.756   3.047   1.643
 4044TIP3    H212139   1.804   3.178   1.701
 4045TIP3   OH212140   3.624   5.936   1.182
 4045TIP3    H112141   3.575   5.906   1.258
 4045TIP3    H212142   3.557   5.963   1.119
 4046TIP3   OH212143   0.577   0.175   0.311
 4046TIP3    H112144   0.613   0.229   0.381
 4046TIP3    H212145   0.613   0.088   0.327
 4047TIP3   OH212146   4.928   4.774   0.918
 4047TIP3    H112147   4.901   4.682   0.908
 4047TIP3    H212148   4.890   4.819   0.843
 4048TIP3   OH212149   2.754   2.551   1.689
 4048TIP3    H112150   2.793   2.494   1.756
 4048TIP3    H212151   2.738   2.633   1.735
 4049TIP3   OH212152   4.943   3.632   2.377
 4049TIP3    H112153   4.923   3.638   2.470
 4049TIP3    H212154   5.038   3.624   2.373
 4050TIP3   OH212155   4.886   2.904   0.236
 4050TIP3    H112156   4.954   2.971   0.236
 4050TIP3    H212157   4.805   2.952   0.218
 4051TIP3   OH212158   2.949   3.143   0.624
 4051TIP3    H112159   3.001   3.210   0.579
 4051TIP3    H212160   2.860   3.157   0.591
 4052TIP3   OH212161   4.019   5.867   1.714
 4052TIP3    H112162   4.079   5.808   1.669
 4052TIP3    H212163   3.934   5.824   1.708
 4053TIP3   OH212164   0.165   3.677   4.623
 4053TIP3    H112165   0.243   3.727   4.601
 4053TIP3    H212166   0.198   3.601   4.671
 4054TIP3   OH212167   3.794   0.438   3.497
 4054TIP3    H112168   3.788   0.354   3.542
 4054TIP3    H212169   3.852   0.491   3.552
 4055TIP3   OH212170   1.089   2.649   5.156
 4055TIP3    H112171   1.151   2.696   5.099
 4055TIP3    H212172   1.074   2.709   5.229
 4056TIP3   OH212173   3.686   1.319   1.700
 4056TIP3    H112174   3.645   1.380   1.762
 4056TIP3    H212175   3.689   1.236   1.747
 4057TIP3   OH212176   3.657   0.169   4.769
 4057TIP3    H112177   3.684   0.079   4.755
 4057TIP3    H212178   3.699   0.218   4.697
 4058TIP3   OH212179   6.247   5.108   2.477
 4058TIP3    H112180   6.214   5.131   2.390
 4058TIP3    H212181   6.239   5.013   2.481
 4059TIP3   OH212182   0.457   3.761   0.904
 4059TIP3    H112183   0.399   3.688   0.883
 4059TIP3    H212184   0.540   3.720   0.926
 4060TIP3   OH212185   2.425   0.105   1.029
 4060TIP3    H112186   2.367   0.033   1.002
 4060TIP3    H212187   2.502   0.095   0.974
 4061TIP3   OH212188   0.258   2.535   2.184
 4061TIP3    H112189   0.226   2.571   2.267
 4061TIP3    H212190   0.179   2.519   2.133
 4062TIP3   OH212191   3.413   0.201   0.913
 4062TIP3    H112192   3.325   0.172   0.936
 4062TIP3    H212193   3.405   0.295   0.898
 4063TIP3   OH212194   1.642   4.172   4.052
 4063TIP3    H112195   1.632   4.077   4.061
 4063TIP3    H212196   1.552   4.205   4.052
 4064TIP3   OH212197   5.015   0.140   1.519
 4064TIP3    H112198   4.947   0.182   1.572
 4064TIP3    H212199   4.968   0.072   1.470
 4065TIP3   OH212200   1.511   5.015   0.023
 4065TIP3    H112201   1.492   4.956   0.096
 4065TIP3    H212202   1.445   5.084   0.029
 4066TIP3   OH212203   1.309   3.005   3.104
 4066TIP3    H112204   1.317   2.979   3.196
 4066TIP3    H212205   1.247   2.942   3.067
 4067TIP3   OH212206   2.608   4.401   4.086
 4067TIP3    H112207   2.617   4.358   4.000
 4067TIP3    H212208   2.533   4.358   4.126
 4068TIP3   OH212209   4.206   4.296   4.852
 4068TIP3    H112210   4.227   4.226   4.913
 4068TIP3    H212211   4.156   4.254   4.782
 4069TIP3   OH212212   1.532   5.937   2.709
 4069TIP3    H112213   1.569   5.976   2.630
 4069TIP3    H212214   1.561   5.846   2.707
 4070TIP3   OH212215   2.654   4.016   0.912
 4070TIP3    H112216   2.681   4.051   0.827
 4070TIP3    H212217   2.584   4.076   0.941
 4071TIP3   OH212218   1.526   3.134   0.782
 4071TIP3    H112219   1.555   3.044   0.766
 4071TIP3    H212220   1.432   3.132   0.767
 4072TIP3   OH212221   2.203   1.362   3.594
 4072TIP3    H112222   2.221   1.430   3.529
 4072TIP3    H212223   2.181   1.410   3.674
 4073TIP3   OH212224   0.114   4.786   1.623
 4073TIP3    H112225   0.029   4.805   1.664
 4073TIP3    H212226   0.174   4.776   1.697
 4074TIP3   OH212227   2.718   0.596   1.662
 4074TIP3    H112228   2.668   0.658   1.609
 4074TIP3    H212229   2.685   0.608   1.751
 4075TIP3   OH212230   2.046   4.869   3.303
 4075TIP3    H112231   2.132   4.891   3.339
 4075TIP3    H212232   1.988   4.865   3.379
 4076TIP3   OH212233   1.667   5.515   2.245
 4076TIP3    H112234   1.610   5.587   2.219
 4076TIP3    H212235   1.715   5.492   2.166
 4077TIP3   OH212236   5.005   0.499   3.639
 4077TIP3    H112237   4.979   0.560   3.571
 4077TIP3    H212238   4.984   0.412   3.604
 4078TIP3   OH212239   0.931   1.113   0.899
 4078TIP3    H112240   0.997   1.077   0.958
 4078TIP3    H212241   0.981   1.163   0.835
 4079TIP3   OH212242   1.972   4.062   4.246
 4079TIP3    H112243   2.009   4.132   4.300
 4079TIP3    H212244   2.004   4.080   4.158
 4080TIP3   OH212245   4.880   5.783   4.662
 4080TIP3    H112246   4.885   5.819   4.750
 4080TIP3    H212247   4.915   5.852   4.606
 4081TIP3   OH212248   2.407   2.660   3.322
 4081TIP3    H112249   2.381   2.634   3.233
 4081TIP3    H212250   2.401   2.578   3.373
 4082TIP3   OH212251   2.106   5.602   2.016
 4082TIP3    H112252   2.088   5.657   2.092
 4082TIP3    H212253   2.152   5.660   1.955
 4083TIP3   OH212254   5.868   0.047   0.580
 4083TIP3    H112255   5.802   0.116   0.572
 4083TIP3    H212256   5.844   0.000   0.660
 4084TIP3   OH212257   6.169   2.088   5.022
 4084TIP3    H112258   6.135   2.055   5.105
 4084TIP3    H212259   6.093   2.127   4.979
 4085TIP3   OH212260   3.558   5.204   0.049
 4085TIP3    H112261   3.649   5.195   0.078
 4085TIP3    H212262   3.517   5.260   0.115
 4086TIP3   OH212263   4.746   5.292   0.813
 4086TIP3    H112264   4.742   5.297   0.909
 4086TIP3    H212265   4.809   5.221   0.796
 4087TIP3   OH212266   0.016   2.734   4.555
 4087TIP3    H112267   0.056   2.811   4.595
 4087TIP3    H212268   0.090   2.681   4.525
 4088TIP3   OH212269   0.721   1.819   0.887
 4088TIP3    H112270   0.681   1.824   0.973
 4088TIP3    H212271   0.803   1.773   0.900
 4089TIP3   OH212272   5.461   0.597   3.814
 4089TIP3    H112273   5.389   0.562   3.762
 4089TIP3    H212274   5.540   0.562   3.771
 4090TIP3   OH212275   2.041   3.407   0.258
 4090TIP3    H112276   2.090   3.342   0.308
 4090TIP3    H212277   2.107   3.469   0.227
 4091TIP3   OH212278   4.447   0.849   0.951
 4091TIP3    H112279   4.434   0.820   1.042
 4091TIP3    H212280   4.520   0.796   0.919
 4092TIP3   OH212281   1.537   5.445   1.421
 4092TIP3    H112282   1.631   5.443   1.438
 4092TIP3    H212283   1.530   5.486   1.334
 4093TIP3   OH212284   3.289   0.033   5.142
 4093TIP3    H112285   3.371  -0.003   5.107
 4093TIP3    H212286   3.273   0.111   5.090
 4094TIP3   OH212287   1.049   0.462   4.078
 4094TIP3    H112288   1.000   0.543   4.062
 4094TIP3    H212289   1.096   0.479   4.160
 4095TIP3   OH212290   2.514   2.982   2.298
 4095TIP3    H112291   2.461   3.056   2.328
 4095TIP3    H212292   2.601   2.999   2.334
 4096TIP3   OH212293   2.043   4.767   4.276
 4096TIP3    H112294   2.027   4.693   4.335
 4096TIP3    H212295   1.960   4.781   4.232
 4097TIP3   OH212296   5.944   2.426   3.203
 4097TIP3    H112297   5.902   2.342   3.221
 4097TIP3    H212298   5.917   2.448   3.114
 4098TIP3   OH212299   4.339   3.572   2.212
 4098TIP3    H112300   4.418   3.542   2.257
 4098TIP3    H212301   4.365   3.579   2.120
 4099TIP3   OH212302   2.140   1.095   3.532
 4099TIP3    H112303   2.161   1.187   3.547
 4099TIP3    H212304   2.081   1.096   3.457
 4100TIP3   OH212305   2.997   2.254   4.220
 4100TIP3    H112306   2.955   2.327   4.266
 4100TIP3    H212307   2.926   2.215   4.168
 4101TIP3   OH212308   4.141   0.090   0.053
 4101TIP3    H112309   4.147   0.120   0.143
 4101TIP3    H212310   4.208   0.140   0.007
 4102TIP3   OH212311   4.885   3.171   4.953
 4102TIP3    H112312   4.812   3.208   5.003
 4102TIP3    H212313   4.886   3.078   4.978
 4103TIP3   OH212314   5.345   0.163   2.492
 4103TIP3    H112315   5.419   0.104   2.509
 4103TIP3    H212316   5.268   0.115   2.523
 4104TIP3   OH212317   1.995   0.949   4.798
 4104TIP3    H112318   1.905   0.940   4.829
 4104TIP3    H212319   2.015   0.864   4.757
 4105TIP3   OH212320   5.301   1.816   3.433
 4105TIP3    H112321   5.371   1.751   3.436
 4105TIP3    H212322   5.224   1.768   3.407
 4106TIP3   OH212323   4.171   0.691   0.922
 4106TIP3    H112324   4.244   0.681   0.861
 4106TIP3    H212325   4.174   0.783   0.949
 4107TIP3   OH212326   0.523   0.679   2.737
 4107TIP3    H112327   0.534   0.759   2.788
 4107TIP3    H212328   0.613   0.647   2.724
 4108TIP3   OH212329   6.080   2.986   1.848
 4108TIP3    H112330   6.066   3.074   1.883
 4108TIP3    H212331   5.996   2.942   1.862
 4109TIP3   OH212332   2.972   1.344   2.875
 4109TIP3    H112333   2.882   1.355   2.904
 4109TIP3    H212334   3.025   1.376   2.948
 4110TIP3   OH212335   5.863   0.719   3.070
 4110TIP3    H112336   5.894   0.641   3.023
 4110TIP3    H212337   5.768   0.718   3.058
 4111TIP3   OH212338   5.043   0.042   3.125
 4111TIP3    H112339   5.013   0.010   3.040
 4111TIP3    H212340   5.136   0.021   3.128
 4112TIP3   OH212341   5.459   3.517   4.749
 4112TIP3    H112342   5.535   3.475   4.790
 4112TIP3    H212343   5.385   3.490   4.805
 4113TIP3   OH212344   3.610   0.304   0.397
 4113TIP3    H112345   3.620   0.382   0.341
 4113TIP3    H212346   3.556   0.334   0.470
 4114TIP3   OH212347   3.947   4.899   1.334
 4114TIP3    H112348   3.971   4.846   1.411
 4114TIP3    H212349   3.860   4.934   1.355
 4115TIP3   OH212350   4.228   4.053   1.453
 4115TIP3    H112351   4.211   4.147   1.449
 4115TIP3    H212352   4.301   4.039   1.392
 4116TIP3   OH212353   6.259   5.751   3.409
 4116TIP3    H112354   6.227   5.701   3.484
 4116TIP3    H212355   6.315   5.689   3.361
 4117TIP3   OH212356   1.506   2.397   2.939
 4117TIP3    H112357   1.460   2.399   3.023
 4117TIP3    H212358   1.467   2.468   2.888
 4118TIP3   OH212359   4.590   3.312   4.865
 4118TIP3    H112360   4.532   3.236   4.861
 4118TIP3    H212361   4.576   3.350   4.951
 4119TIP3   OH212362   3.666   1.213   2.153
 4119TIP3    H112363   3.733   1.268   2.194
 4119TIP3    H212364   3.587   1.267   2.155
 4120TIP3   OH212365   0.909   2.706   0.738
 4120TIP3    H112366   0.918   2.621   0.782
 4120TIP3    H212367   0.982   2.709   0.676
 4121TIP3   OH212368   4.086   3.292   1.533
 4121TIP3    H112369   4.153   3.359   1.524
 4121TIP3    H212370   4.004   3.342   1.542
 4122TIP3   OH212371   5.691   4.530   4.130
 4122TIP3    H112372   5.634   4.604   4.149
 4122TIP3    H212373   5.632   4.457   4.112
 4123TIP3   OH212374   6.241   4.721   5.203
 4123TIP3    H112375   6.334   4.723   5.223
 4123TIP3    H212376   6.237   4.699   5.110
 4124TIP3   OH212377   3.932   4.832   3.156
 4124TIP3    H112378   3.849   4.817   3.110
 4124TIP3    H212379   3.917   4.912   3.206
 4125TIP3   OH212380   2.700   3.605   3.067
 4125TIP3    H112381   2.632   3.604   3.134
 4125TIP3    H212382   2.779   3.574   3.111
 4126TIP3   OH212383   6.047   1.304   5.189
 4126TIP3    H112384   6.132   1.263   5.173
 4126TIP3    H212385   6.018   1.332   5.102
 4127TIP3   OH212386   4.265   4.791   2.177
 4127TIP3    H112387   4.280   4.770   2.269
 4127TIP3    H212388   4.349   4.822   2.145
 4128TIP3   OH212389   2.639   0.266   4.726
 4128TIP3    H112390   2.687   0.203   4.780
 4128TIP3    H212391   2.706   0.329   4.698
 4129TIP3   OH212392   3.778   5.244   2.038
 4129TIP3    H112393   3.845   5.243   1.970
 4129TIP3    H212394   3.798   5.168   2.093
 4130TIP3   OH212395   5.669   3.263   4.645
 4130TIP3    H112396   5.644   3.278   4.736
 4130TIP3    H212397   5.708   3.346   4.617
 4131TIP3   OH212398   4.342   2.773   3.660
 4131TIP3    H112399   4.310   2.696   3.706
 4131TIP3    H212400   4.352   2.745   3.569
 4132TIP3   OH212401   3.859   1.901   4.312
 4132TIP3    H112402   3.782   1.847   4.292
 4132TIP3    H212403   3.867   1.894   4.408
 4133TIP3   OH212404   0.808   5.804   3.511
 4133TIP3    H112405   0.820   5.765   3.425
 4133TIP3    H212406   0.840   5.894   3.501
 4134TIP3   OH212407   5.419   1.719   3.013
 4134TIP3    H112408   5.471   1.788   3.055
 4134TIP3    H212409   5.329   1.737   3.040
 4135TIP3   OH212410   0.663   5.170   1.422
 4135TIP3    H112411   0.758   5.171   1.434
 4135TIP3    H212412   0.647   5.240   1.358
 4136TIP3   OH212413   5.249   5.277   3.115
 4136TIP3    H112414   5.256   5.193   3.070
 4136TIP3    H212415   5.195   5.259   3.191
 4137TIP3   OH212416   3.529   4.299   4.080
 4137TIP3    H112417   3.503   4.374   4.027
 4137TIP3    H212418   3.462   4.293   4.148
 4138TIP3   OH212419   2.089   2.645   2.627
 4138TIP3    H112420   2.165   2.622   2.573
 4138TIP3    H212421   2.020   2.587   2.595
 4139TIP3   OH212422   0.303   1.778   4.620
 4139TIP3    H112423   0.326   1.833   4.544
 4139TIP3    H212424   0.264   1.699   4.581
 4140TIP3   OH212425   3.150   1.253   1.410
 4140TIP3    H112426   3.155   1.266   1.504
 4140TIP3    H212427   3.125   1.162   1.399
 4141TIP3   OH212428   4.829   1.086   2.645
 4141TIP3    H112429   4.824   1.057   2.736
 4141TIP3    H212430   4.826   1.005   2.594
 4142TIP3   OH212431   4.954   3.919   0.162
 4142TIP3    H112432   4.929   3.883   0.077
 4142TIP3    H212433   4.911   4.005   0.165
 4143TIP3   OH212434   6.178   0.128   4.358
 4143TIP3    H112435   6.254   0.135   4.416
 4143TIP3    H212436   6.196   0.050   4.305
 4144TIP3   OH212437   6.139   0.872   3.546
 4144TIP3    H112438   6.049   0.894   3.524
 4144TIP3    H212439   6.132   0.804   3.613
 4145TIP3   OH212440   2.491   0.044   0.461
 4145TIP3    H112441   2.580   0.018   0.483
 4145TIP3    H212442   2.441   0.028   0.541
 4146TIP3   OH212443   1.202   5.301   0.477
 4146TIP3    H112444   1.226   5.221   0.523
 4146TIP3    H212445   1.280   5.357   0.483
 4147TIP3   OH212446   2.053   0.570   0.319
 4147TIP3    H112447   2.120   0.599   0.258
 4147TIP3    H212448   2.036   0.645   0.375
 4148TIP3   OH212449   3.488   4.338   1.405
 4148TIP3    H112450   3.537   4.266   1.444
 4148TIP3    H212451   3.436   4.374   1.476
 4149TIP3   OH212452   5.842   3.971   2.164
 4149TIP3    H112453   5.918   3.935   2.118
 4149TIP3    H212454   5.877   4.045   2.213
 4150TIP3   OH212455   1.964   3.670   0.481
 4150TIP3    H112456   1.989   3.582   0.508
 4150TIP3    H212457   1.881   3.686   0.526
 4151TIP3   OH212458   2.613   2.006   0.853
 4151TIP3    H112459   2.633   2.063   0.927
 4151TIP3    H212460   2.527   1.969   0.874
 4152TIP3   OH212461   1.855   0.456   0.156
 4152TIP3    H112462   1.904   0.494   0.229
 4152TIP3    H212463   1.784   0.517   0.139
 4153TIP3   OH212464   5.454   3.149   4.519
 4153TIP3    H112465   5.527   3.163   4.579
 4153TIP3    H212466   5.492   3.159   4.432
 4154TIP3   OH212467   2.734   3.153   2.360
 4154TIP3    H112468   2.789   3.173   2.436
 4154TIP3    H212469   2.671   3.224   2.357
 4155TIP3   OH212470   1.603   3.330   1.014
 4155TIP3    H112471   1.605   3.305   0.922
 4155TIP3    H212472   1.681   3.290   1.052
 4156TIP3   OH212473   4.788   0.538   2.437
 4156TIP3    H112474   4.734   0.499   2.368
 4156TIP3    H212475   4.751   0.505   2.519
 4157TIP3   OH212476   2.999   1.234   2.158
 4157TIP3    H112477   2.951   1.152   2.156
 4157TIP3    H212478   2.944   1.294   2.208
 4158TIP3   OH212479   2.235   5.823   0.250
 4158TIP3    H112480   2.273   5.736   0.261
 4158TIP3    H212481   2.234   5.837   0.155
 4159TIP3   OH212482   3.273   1.746   0.483
 4159TIP3    H112483   3.345   1.774   0.539
 4159TIP3    H212484   3.206   1.714   0.544
 4160TIP3   OH212485   1.664   1.859   0.076
 4160TIP3    H112486   1.588   1.812   0.110
 4160TIP3    H212487   1.710   1.795   0.023
 4161TIP3   OH212488   4.541   5.050   4.798
 4161TIP3    H112489   4.561   5.072   4.889
 4161TIP3    H212490   4.460   5.098   4.780
 4162TIP3   OH212491   1.216   2.851   1.960
 4162TIP3    H112492   1.182   2.902   1.887
 4162TIP3    H212493   1.169   2.768   1.954
 4163TIP3   OH212494   5.683   4.723   3.617
 4163TIP3    H112495   5.685   4.662   3.543
 4163TIP3    H212496   5.598   4.766   3.611
 4164TIP3   OH212497   2.843   3.397   3.278
 4164TIP3    H112498   2.922   3.440   3.245
 4164TIP3    H212499   2.830   3.323   3.219
 4165TIP3   OH212500   4.039   1.152   2.705
 4165TIP3    H112501   3.975   1.169   2.636
 4165TIP3    H212502   4.043   1.057   2.711
 4166TIP3   OH212503   4.180   4.750   4.635
 4166TIP3    H112504   4.087   4.747   4.658
 4166TIP3    H212505   4.190   4.832   4.587
 4167TIP3   OH212506   2.273   2.338   0.588
 4167TIP3    H112507   2.360   2.318   0.622
 4167TIP3    H212508   2.230   2.386   0.658
 4168TIP3   OH212509   2.607   1.775   1.175
 4168TIP3    H112510   2.694   1.803   1.147
 4168TIP3    H212511   2.547   1.823   1.117
 4169TIP3   OH212512   6.026   1.269   1.870
 4169TIP3    H112513   6.057   1.252   1.781
 4169TIP3    H212514   5.947   1.323   1.858
 4170TIP3   OH212515   1.353   3.806   2.202
 4170TIP3    H112516   1.333   3.815   2.295
 4170TIP3    H212517   1.270   3.823   2.157
 4171TIP3   OH212518   2.395   1.617   0.346
 4171TIP3    H112519   2.457   1.547   0.325
 4171TIP3    H212520   2.390   1.617   0.442
 4172TIP3   OH212521   4.427   1.398   4.027
 4172TIP3    H112522   4.498   1.351   3.983
 4172TIP3    H212523   4.407   1.470   3.967
 4173TIP3   OH212524   4.010   2.876   3.777
 4173TIP3    H112525   3.980   2.796   3.734
 4173TIP3    H212526   4.025   2.851   3.868
 4174TIP3   OH212527   6.065   1.747   5.057
 4174TIP3    H112528   6.008   1.705   4.993
 4174TIP3    H212529   6.154   1.729   5.026
 4175TIP3   OH212530   5.155   4.411   4.323
 4175TIP3    H112531   5.211   4.388   4.249
 4175TIP3    H212532   5.214   4.457   4.383
 4176TIP3   OH212533   6.181   4.597   2.324
 4176TIP3    H112534   6.162   4.558   2.409
 4176TIP3    H212535   6.265   4.560   2.298
 4177TIP3   OH212536   1.301   0.798   1.101
 4177TIP3    H112537   1.308   0.823   1.193
 4177TIP3    H212538   1.245   0.720   1.101
 4178TIP3   OH212539   1.783   5.775   1.426
 4178TIP3    H112540   1.800   5.758   1.519
 4178TIP3    H212541   1.725   5.851   1.426
 4179TIP3   OH212542   6.327   0.322   2.549
 4179TIP3    H112543   6.304   0.390   2.613
 4179TIP3    H212544   6.246   0.272   2.537
 4180TIP3   OH212545   0.764   0.263   0.026
 4180TIP3    H112546   0.671   0.258   0.049
 4180TIP3    H212547   0.777   0.190  -0.035
 4181TIP3   OH212548   4.019   5.683   3.384
 4181TIP3    H112549   4.100   5.729   3.409
 4181TIP3    H212550   3.972   5.746   3.329
 4182TIP3   OH212551   0.459   5.995   3.782
 4182TIP3    H112552   0.374   5.984   3.741
 4182TIP3    H212553   0.516   5.932   3.737
 4183TIP3   OH212554   1.301   2.443   0.797
 4183TIP3    H112555   1.249   2.437   0.877
 4183TIP3    H212556   1.252   2.502   0.740
 4184TIP3   OH212557   1.643   1.578   4.263
 4184TIP3    H112558   1.651   1.673   4.260
 4184TIP3    H212559   1.595   1.560   4.344
 4185TIP3   OH212560   5.601   5.775   2.593
 4185TIP3    H112561   5.696   5.789   2.589
 4185TIP3    H212562   5.592   5.679   2.597
 4186TIP3   OH212563   1.767   2.478   3.338
 4186TIP3    H112564   1.702   2.548   3.339
 4186TIP3    H212565   1.785   2.464   3.245
 4187TIP3   OH212566   0.649   3.811   5.116
 4187TIP3    H112567   0.734   3.824   5.158
 4187TIP3    H212568   0.654   3.860   5.035
 4188TIP3   OH212569   5.598   2.000   1.197
 4188TIP3    H112570   5.658   2.067   1.163
 4188TIP3    H212571   5.656   1.933   1.233
 4189TIP3   OH212572   4.192   3.524   0.604
 4189TIP3    H112573   4.137   3.519   0.525
 4189TIP3    H212574   4.232   3.611   0.600
 4190TIP3   OH212575   5.620   3.239   0.753
 4190TIP3    H112576   5.644   3.326   0.784
 4190TIP3    H212577   5.638   3.240   0.659
 4191TIP3   OH212578   2.173   2.448   1.157
 4191TIP3    H112579   2.248   2.432   1.100
 4191TIP3    H212580   2.170   2.543   1.167
 4192TIP3   OH212581   1.741   3.279   2.848
 4192TIP3    H112582   1.788   3.331   2.783
 4192TIP3    H212583   1.794   3.200   2.858
 4193TIP3   OH212584   0.370   3.001   1.861
 4193TIP3    H112585   0.441   2.944   1.829
 4193TIP3    H212586   0.297   2.982   1.803
 4194TIP3   OH212587   3.940   1.105   3.425
 4194TIP3    H112588   3.877   1.036   3.406
 4194TIP3    H212589   4.010   1.092   3.360
 4195TIP3   OH212590   4.609   1.972   0.941
 4195TIP3    H112591   4.658   1.922   1.006
 4195TIP3    H212592   4.539   2.014   0.991
 4196TIP3   OH212593   5.926   0.715   0.525
 4196TIP3    H112594   6.005   0.739   0.574
 4196TIP3    H212595   5.865   0.685   0.593
 4197TIP3   OH212596   3.041   5.728   3.774
 4197TIP3    H112597   3.054   5.730   3.869
 4197TIP3    H212598   3.119   5.769   3.738
 4198TIP3   OH212599   5.990   3.139   2.482
 4198TIP3    H112600   5.921   3.100   2.536
 4198TIP3    H212601   5.959   3.228   2.463
 4199TIP3   OH212602   3.703   3.653   5.005
 4199TIP3    H112603   3.732   3.599   5.079
 4199TIP3    H212604   3.643   3.717   5.044
 4200TIP3   OH212605   5.000   2.567   0.283
 4200TIP3    H112606   4.967   2.518   0.208
 4200TIP3    H212607   5.005   2.657   0.253
 4201TIP3   OH212608   0.991   4.436   0.173
 4201TIP3    H112609   0.906   4.393   0.181
 4201TIP3    H212610   1.051   4.365   0.149
 4202TIP3   OH212611   2.283   5.088   1.015
 4202TIP3    H112612   2.211   5.096   1.078
 4202TIP3    H212613   2.331   5.171   1.023
 4203TIP3   OH212614   2.849   4.748   4.884
 4203TIP3    H112615   2.884   4.748   4.794
 4203TIP3    H212616   2.892   4.673   4.926
 4204TIP3   OH212617   2.739   4.097   0.669
 4204TIP3    H112618   2.789   4.028   0.625
 4204TIP3    H212619   2.803   4.166   0.687
 4205TIP3   OH212620   2.846   3.706   3.639
 4205TIP3    H112621   2.932   3.723   3.600
 4205TIP3    H212622   2.844   3.611   3.651
 4206TIP3   OH212623   0.793   2.155   2.420
 4206TIP3    H112624   0.844   2.233   2.442
 4206TIP3    H212625   0.857   2.094   2.384
 4207TIP3   OH212626   4.410   3.461   3.479
 4207TIP3    H112627   4.318   3.480   3.458
 4207TIP3    H212628   4.449   3.547   3.495
 4208TIP3   OH212629   5.831   5.097   3.156
 4208TIP3    H112630   5.818   5.017   3.104
 4208TIP3    H212631   5.745   5.138   3.158
 4209TIP3   OH212632   2.567   5.779   1.290
 4209TIP3    H112633   2.648   5.830   1.295
 4209TIP3    H212634   2.519   5.817   1.217
 4210TIP3   OH212635   3.314   2.959   0.375
 4210TIP3    H112636   3.392   2.935   0.325
 4210TIP3    H212637   3.312   3.054   0.372
 4211TIP3   OH212638   4.435   2.646   3.034
 4211TIP3    H112639   4.516   2.639   2.983
 4211TIP3    H212640   4.448   2.723   3.089
 4212TIP3   OH212641   1.155   0.028   4.687
 4212TIP3    H112642   1.153   0.015   4.782
 4212TIP3    H212643   1.247   0.016   4.664
 4213TIP3   OH212644   0.513   3.164   2.381
 4213TIP3    H112645   0.462   3.094   2.340
 4213TIP3    H212646   0.530   3.226   2.310
 4214TIP3   OH212647   1.809   5.500   1.367
 4214TIP3    H112648   1.839   5.589   1.380
 4214TIP3    H212649   1.885   5.445   1.388
 4215TIP3   OH212650   0.762   3.358   4.060
 4215TIP3    H112651   0.717   3.436   4.091
 4215TIP3    H212652   0.823   3.336   4.130
 4216TIP3   OH212653   4.103   5.210   3.688
 4216TIP3    H112654   4.063   5.262   3.619
 4216TIP3    H212655   4.150   5.274   3.742
 4217TIP3   OH212656   5.239   0.390   5.110
 4217TIP3    H112657   5.184   0.398   5.188
 4217TIP3    H212658   5.203   0.315   5.063
 4218TIP3   OH212659   2.870   1.346   1.337
 4218TIP3    H112660   2.877   1.337   1.432
 4218TIP3    H212661   2.914   1.429   1.318
 4219TIP3   OH212662   0.228   5.100   1.830
 4219TIP3    H112663   0.208   5.083   1.737
 4219TIP3    H212664   0.216   5.195   1.839
 4220TIP3   OH212665   3.686   0.593   4.723
 4220TIP3    H112666   3.637   0.669   4.690
 4220TIP3    H212667   3.772   0.601   4.682
 4221TIP3   OH212668   1.055   3.234   2.040
 4221TIP3    H112669   0.963   3.213   2.049
 4221TIP3    H212670   1.062   3.276   1.954
 4222TIP3   OH212671   3.795   5.499   3.288
 4222TIP3    H112672   3.870   5.541   3.330
 4222TIP3    H212673   3.815   5.503   3.195
 4223TIP3   OH212674   4.918   3.589   0.044
 4223TIP3    H112675   4.974   3.520   0.007
 4223TIP3    H212676   4.905   3.651  -0.028
 4224TIP3   OH212677   0.176   2.870   5.172
 4224TIP3    H112678   0.132   2.836   5.094
 4224TIP3    H212679   0.245   2.927   5.137
 4225TIP3   OH212680   0.614   0.277   4.872
 4225TIP3    H112681   0.562   0.199   4.855
 4225TIP3    H212682   0.557   0.334   4.924
 4226TIP3   OH212683   3.886   5.036   2.194
 4226TIP3    H112684   3.972   5.040   2.235
 4226TIP3    H212685   3.844   4.959   2.231
 4227TIP3   OH212686   1.884   0.516   3.182
 4227TIP3    H112687   1.894   0.429   3.143
 4227TIP3    H212688   1.796   0.514   3.220
 4228TIP3   OH212689   3.960   1.638   4.466
 4228TIP3    H112690   3.868   1.659   4.484
 4228TIP3    H212691   3.981   1.569   4.528
 4229TIP3   OH212692   1.561   2.763   1.400
 4229TIP3    H112693   1.468   2.766   1.378
 4229TIP3    H212694   1.573   2.677   1.441
 4230TIP3   OH212695   3.266   1.686   1.144
 4230TIP3    H112696   3.266   1.595   1.172
 4230TIP3    H212697   3.277   1.682   1.049
 4231TIP3   OH212698   1.939   3.806   3.263
 4231TIP3    H112699   1.918   3.867   3.192
 4231TIP3    H212700   2.014   3.756   3.230
 4232TIP3   OH212701   2.741   2.124   3.762
 4232TIP3    H112702   2.825   2.170   3.771
 4232TIP3    H212703   2.735   2.071   3.842
 4233TIP3   OH212704   4.846   3.491   4.007
 4233TIP3    H112705   4.835   3.545   4.085
 4233TIP3    H212706   4.919   3.432   4.028
 4234TIP3   OH212707   3.311   5.385   3.144
 4234TIP3    H112708   3.221   5.384   3.178
 4234TIP3    H212709   3.364   5.353   3.217
 4235TIP3   OH212710   1.381   1.246   4.718
 4235TIP3    H112711   1.365   1.156   4.746
 4235TIP3    H212712   1.476   1.252   4.709
 4236TIP3   OH212713   2.802   0.421   0.038
 4236TIP3    H112714   2.716   0.405   0.075
 4236TIP3    H212715   2.785   0.457  -0.049
 4237TIP3   OH212716   4.899   0.781   4.106
 4237TIP3    H112717   4.932   0.694   4.132
 4237TIP3    H212718   4.936   0.840   4.172
 4238TIP3   OH212719   5.360   1.092   3.474
 4238TIP3    H112720   5.270   1.119   3.455
 4238TIP3    H212721   5.354   0.999   3.493
 4239TIP3   OH212722   3.309   5.655   0.628
 4239TIP3    H112723   3.254   5.662   0.550
 4239TIP3    H212724   3.253   5.686   0.700
 4240TIP3   OH212725   4.931   4.938   1.661
 4240TIP3    H112726   4.864   4.928   1.594
 4240TIP3    H212727   4.960   4.848   1.679
 4241TIP3   OH212728   3.888   3.271   0.857
 4241TIP3    H112729   3.831   3.244   0.786
 4241TIP3    H212730   3.975   3.276   0.817
 4242TIP3   OH212731   0.602   0.510   3.010
 4242TIP3    H112732   0.624   0.478   2.922
 4242TIP3    H212733   0.624   0.603   3.008
 4243TIP3   OH212734   5.896   2.017   3.946
 4243TIP3    H112735   5.903   2.110   3.927
 4243TIP3    H212736   5.973   1.998   4.000
 4244TIP3   OH212737   0.520   5.013   3.507
 4244TIP3    H112738   0.428   4.993   3.524
 4244TIP3    H212739   0.523   5.038   3.415
 4245TIP3   OH212740   4.908   0.658   0.264
 4245TIP3    H112741   4.993   0.701   0.274
 4245TIP3    H212742   4.891   0.619   0.350
 4246TIP3   OH212743   3.446   3.546   4.530
 4246TIP3    H112744   3.489   3.620   4.573
 4246TIP3    H212745   3.463   3.471   4.587
 4247TIP3   OH212746   4.927   4.319   1.882
 4247TIP3    H112747   4.949   4.349   1.970
 4247TIP3    H212748   4.844   4.362   1.862
 4248TIP3   OH212749   0.725   5.487   4.051
 4248TIP3    H112750   0.748   5.576   4.026
 4248TIP3    H212751   0.632   5.492   4.074
 4249TIP3   OH212752   4.499   0.144   3.973
 4249TIP3    H112753   4.506   0.216   3.909
 4249TIP3    H212754   4.587   0.105   3.974
 4250TIP3   OH212755   0.888   5.456   1.642
 4250TIP3    H112756   0.799   5.424   1.624
 4250TIP3    H212757   0.893   5.461   1.737
 4251TIP3   OH212758   5.824   0.314   3.514
 4251TIP3    H112759   5.898   0.364   3.549
 4251TIP3    H212760   5.826   0.332   3.420
 4252TIP3   OH212761   2.387   3.394   0.999
 4252TIP3    H112762   2.327   3.416   0.928
 4252TIP3    H212763   2.464   3.448   0.983
 4253TIP3   OH212764   5.426   0.498   1.245
 4253TIP3    H112765   5.452   0.469   1.157
 4253TIP3    H212766   5.377   0.579   1.229
 4254TIP3   OH212767   2.242   4.301   3.336
 4254TIP3    H112768   2.283   4.267   3.416
 4254TIP3    H212769   2.148   4.298   3.354
 4255TIP3   OH212770   1.465   1.240   3.805
 4255TIP3    H112771   1.494   1.331   3.809
 4255TIP3    H212772   1.480   1.215   3.714
 4256TIP3   OH212773   1.486   1.124  -0.018
 4256TIP3    H112774   1.535   1.204  -0.036
 4256TIP3    H212775   1.481   1.120   0.078
 4257TIP3   OH212776   5.930   3.157   3.339
 4257TIP3    H112777   5.918   3.073   3.295
 4257TIP3    H212778   5.887   3.146   3.424
 4258TIP3   OH212779   1.569   5.472   3.569
 4258TIP3    H112780   1.594   5.538   3.505
 4258TIP3    H212781   1.564   5.391   3.518
 4259TIP3   OH212782   4.075   5.931   4.165
 4259TIP3    H112783   4.013   5.867   4.198
 4259TIP3    H212784   4.036   5.964   4.084
 4260TIP3   OH212785   2.935   5.951   4.691
 4260TIP3    H112786   2.921   6.013   4.762
 4260TIP3    H212787   2.902   5.868   4.724
 4261TIP3   OH212788   1.966   4.234   0.809
 4261TIP3    H112789   1.908   4.165   0.777
 4261TIP3    H212790   1.927   4.263   0.891
 4262TIP3   OH212791   2.368   4.346   4.829
 4262TIP3    H112792   2.419   4.301   4.762
 4262TIP3    H212793   2.429   4.408   4.868
 4263TIP3   OH212794   1.697   5.303   1.761
 4263TIP3    H112795   1.740   5.387   1.748
 4263TIP3    H212796   1.739   5.244   1.699
 4264TIP3   OH212797   4.444   1.869   5.057
 4264TIP3    H112798   4.350   1.852   5.067
 4264TIP3    H212799   4.456   1.880   4.963
 4265TIP3   OH212800   2.875   0.382   3.343
 4265TIP3    H112801   2.860   0.433   3.422
 4265TIP3    H212802   2.787   0.359   3.312
 4266TIP3   OH212803   2.488   5.560   0.194
 4266TIP3    H112804   2.559   5.565   0.258
 4266TIP3    H212805   2.531   5.538   0.112
 4267TIP3   OH212806   6.208   2.204   4.547
 4267TIP3    H112807   6.180   2.260   4.475
 4267TIP3    H212808   6.168   2.119   4.528
 4268TIP3   OH212809   1.014   1.492   3.898
 4268TIP3    H112810   1.068   1.416   3.919
 4268TIP3    H212811   0.992   1.482   3.806
 4269TIP3   OH212812   0.679   4.533   1.504
 4269TIP3    H112813   0.641   4.513   1.590
 4269TIP3    H212814   0.636   4.472   1.444
 4270TIP3   OH212815   4.591   4.073   4.192
 4270TIP3    H112816   4.617   4.165   4.186
 4270TIP3    H212817   4.496   4.075   4.208
 4271TIP3   OH212818   3.777   2.422   0.780
 4271TIP3    H112819   3.817   2.499   0.740
 4271TIP3    H212820   3.800   2.428   0.873
 4272TIP3   OH212821   5.235   0.126   2.071
 4272TIP3    H112822   5.185   0.149   1.992
 4272TIP3    H212823   5.296   0.198   2.083
 4273TIP3   OH212824   1.883   3.206   1.971
 4273TIP3    H112825   1.824   3.135   1.949
 4273TIP3    H212826   1.970   3.166   1.976
 4274TIP3   OH212827   3.066   4.821   3.469
 4274TIP3    H112828   3.126   4.752   3.498
 4274TIP3    H212829   3.100   4.901   3.510
 4275TIP3   OH212830   5.809   5.338   4.966
 4275TIP3    H112831   5.758   5.264   4.933
 4275TIP3    H212832   5.744   5.405   4.987
 4276TIP3   OH212833   4.320   3.770   0.566
 4276TIP3    H112834   4.265   3.840   0.532
 4276TIP3    H212835   4.362   3.808   0.643
 4277TIP3   OH212836   0.692   2.347   2.244
 4277TIP3    H112837   0.642   2.418   2.284
 4277TIP3    H212838   0.736   2.304   2.318
 4278TIP3   OH212839   2.449   3.762   3.024
 4278TIP3    H112840   2.502   3.752   3.103
 4278TIP3    H212841   2.509   3.743   2.952
 4279TIP3   OH212842   1.581   5.737   4.246
 4279TIP3    H112843   1.664   5.764   4.206
 4279TIP3    H212844   1.526   5.712   4.172
 4280TIP3   OH212845   0.906   4.013   3.508
 4280TIP3    H112846   0.920   4.015   3.603
 4280TIP3    H212847   0.812   3.999   3.498
 4281TIP3   OH212848   3.440   2.550   1.436
 4281TIP3    H112849   3.495   2.619   1.472
 4281TIP3    H212850   3.466   2.544   1.344
 4282TIP3   OH212851   1.697   5.104   2.975
 4282TIP3    H112852   1.749   5.066   3.045
 4282TIP3    H212853   1.744   5.184   2.951
 4283TIP3   OH212854   4.661   4.442   1.857
 4283TIP3    H112855   4.628   4.527   1.886
 4283TIP3    H212856   4.642   4.383   1.930
 4284TIP3   OH212857   2.167   0.588   2.060
 4284TIP3    H112858   2.171   0.519   2.126
 4284TIP3    H212859   2.259   0.614   2.048
 4285TIP3   OH212860   4.985   1.712   1.419
 4285TIP3    H112861   4.953   1.794   1.380
 4285TIP3    H212862   4.938   1.643   1.373
 4286TIP3   OH212863   6.249   4.986   1.772
 4286TIP3    H112864   6.257   5.077   1.743
 4286TIP3    H212865   6.202   4.942   1.700
 4287TIP3   OH212866   2.709   2.531   4.450
 4287TIP3    H112867   2.717   2.462   4.515
 4287TIP3    H212868   2.694   2.611   4.502
 4288TIP3   OH212869   1.223   3.001   2.225
 4288TIP3    H112870   1.312   2.995   2.259
 4288TIP3    H212871   1.216   2.929   2.162
 4289TIP3   OH212872   1.829   0.590   2.327
 4289TIP3    H112873   1.806   0.653   2.259
 4289TIP3    H212874   1.776   0.513   2.309
 4290TIP3   OH212875   0.408   1.766   3.535
 4290TIP3    H112876   0.484   1.814   3.503
 4290TIP3    H212877   0.358   1.831   3.585
 4291TIP3   OH212878   5.572   4.802   1.201
 4291TIP3    H112879   5.582   4.836   1.290
 4291TIP3    H212880   5.524   4.720   1.213
 4292TIP3   OH212881   4.416   2.967   1.177
 4292TIP3    H112882   4.470   3.031   1.132
 4292TIP3    H212883   4.416   2.995   1.269
 4293TIP3   OH212884   6.095   2.913   0.368
 4293TIP3    H112885   6.139   2.931   0.452
 4293TIP3    H212886   6.166   2.887   0.309
 4294TIP3   OH212887   3.085   2.811   5.141
 4294TIP3    H112888   3.101   2.855   5.224
 4294TIP3    H212889   3.040   2.876   5.087
 4295TIP3   OH212890   0.252   1.836   0.288
 4295TIP3    H112891   0.319   1.832   0.356
 4295TIP3    H212892   0.261   1.754   0.240
 4296TIP3   OH212893   4.604   3.341   3.944
 4296TIP3    H112894   4.680   3.359   4.000
 4296TIP3    H212895   4.635   3.357   3.855
 4297TIP3   OH212896   1.855   4.164   4.586
 4297TIP3    H112897   1.804   4.206   4.656
 4297TIP3    H212898   1.884   4.081   4.623
 4298TIP3   OH212899   3.629   2.081   3.023
 4298TIP3    H112900   3.553   2.129   2.988
 4298TIP3    H212901   3.592   2.018   3.084
 4299TIP3   OH212902   6.139   1.808   0.889
 4299TIP3    H112903   6.146   1.804   0.985
 4299TIP3    H212904   6.088   1.888   0.873
 4300TIP3   OH212905   1.507   4.216   2.162
 4300TIP3    H112906   1.501   4.123   2.141
 4300TIP3    H212907   1.493   4.221   2.257
 4301TIP3   OH212908   5.907   5.002   1.689
 4301TIP3    H112909   5.827   4.954   1.668
 4301TIP3    H212910   5.978   4.946   1.658
 4302TIP3   OH212911   0.243   1.720   4.884
 4302TIP3    H112912   0.281   1.633   4.882
 4302TIP3    H212913   0.287   1.767   4.813
 4303TIP3   OH212914   1.441   2.111   0.951
 4303TIP3    H112915   1.401   2.067   1.026
 4303TIP3    H212916   1.371   2.114   0.885
 4304TIP3   OH212917   3.484   0.716   5.021
 4304TIP3    H112918   3.547   0.781   4.990
 4304TIP3    H212919   3.403   0.737   4.974
 4305TIP3   OH212920   4.716   5.299   2.132
 4305TIP3    H112921   4.758   5.301   2.046
 4305TIP3    H212922   4.629   5.264   2.116
 4306TIP3   OH212923   0.947   2.039   1.585
 4306TIP3    H112924   1.023   2.062   1.638
 4306TIP3    H212925   0.883   2.108   1.603
 4307TIP3   OH212926   6.215   0.947   4.519
 4307TIP3    H112927   6.300   0.912   4.493
 4307TIP3    H212928   6.235   1.009   4.589
 4308TIP3   OH212929   1.481   3.165   3.923
 4308TIP3    H112930   1.427   3.148   4.000
 4308TIP3    H212931   1.551   3.222   3.955
 4309TIP3   OH212932   1.899   1.998   4.599
 4309TIP3    H112933   1.915   2.078   4.549
 4309TIP3    H212934   1.941   2.015   4.684
 4310TIP3   OH212935   4.771   4.167   2.669
 4310TIP3    H112936   4.784   4.243   2.726
 4310TIP3    H212937   4.795   4.199   2.582
 4311TIP3   OH212938   2.126   3.039   4.448
 4311TIP3    H112939   2.036   3.020   4.423
 4311TIP3    H212940   2.138   2.992   4.531
 4312TIP3   OH212941   0.883   5.107   2.151
 4312TIP3    H112942   0.948   5.115   2.081
 4312TIP3    H212943   0.817   5.049   2.116
 4313TIP3   OH212944   0.505   2.984   0.724
 4313TIP3    H112945   0.546   3.060   0.682
 4313TIP3    H212946   0.576   2.943   0.774
 4314TIP3   OH212947   2.304   4.615   1.422
 4314TIP3    H112948   2.241   4.672   1.466
 4314TIP3    H212949   2.361   4.675   1.374
 4315TIP3   OH212950   4.438   2.960   4.409
 4315TIP3    H112951   4.372   3.025   4.432
 4315TIP3    H212952   4.423   2.887   4.469
 4316TIP3   OH212953   3.807   0.274   0.906
 4316TIP3    H112954   3.750   0.210   0.864
 4316TIP3    H212955   3.895   0.250   0.877
 4317TIP3   OH212956   5.793   1.890   4.182
 4317TIP3    H112957   5.808   1.796   4.191
 4317TIP3    H212958   5.831   1.912   4.097
 4318TIP3   OH212959   1.455   5.379   4.157
 4318TIP3    H112960   1.533   5.419   4.195
 4318TIP3    H212961   1.488   5.302   4.110
 4319TIP3   OH212962   4.845   2.711   2.608
 4319TIP3    H112963   4.888   2.667   2.534
 4319TIP3    H212964   4.809   2.639   2.660
 4320TIP3   OH212965   2.353   5.715   2.586
 4320TIP3    H112966   2.376   5.675   2.502
 4320TIP3    H212967   2.277   5.769   2.566
 4321TIP3   OH212968   1.019   4.872   2.632
 4321TIP3    H112969   1.085   4.861   2.563
 4321TIP3    H212970   1.000   4.784   2.661
 4322TIP3   OH212971   3.485   2.084   0.870
 4322TIP3    H112972   3.395   2.055   0.883
 4322TIP3    H212973   3.480   2.148   0.799
 4323TIP3   OH212974   4.439   3.335   1.183
 4323TIP3    H112975   4.350   3.325   1.216
 4323TIP3    H212976   4.436   3.416   1.132
 4324TIP3   OH212977   5.648   4.843   1.469
 4324TIP3    H112978   5.639   4.937   1.459
 4324TIP3    H212979   5.582   4.819   1.534
 4325TIP3   OH212980   0.828   4.102   5.089
 4325TIP3    H112981   0.736   4.104   5.066
 4325TIP3    H212982   0.840   4.177   5.148
 4326TIP3   OH212983   3.593   0.176   2.053
 4326TIP3    H112984   3.523   0.241   2.048
 4326TIP3    H212985   3.618   0.161   1.962
 4327TIP3   OH212986   4.036   1.104   1.739
 4327TIP3    H112987   4.121   1.102   1.695
 4327TIP3    H212988   4.037   1.186   1.788
 4328TIP3   OH212989   2.825   4.085   2.947
 4328TIP3    H112990   2.840   3.991   2.955
 4328TIP3    H212991   2.763   4.106   3.016
 4329TIP3   OH212992   2.561   4.831   3.616
 4329TIP3    H112993   2.627   4.879   3.667
 4329TIP3    H212994   2.612   4.780   3.553
 4330TIP3   OH212995   4.171   3.498   0.318
 4330TIP3    H112996   4.103   3.560   0.292
 4330TIP3    H212997   4.128   3.412   0.314
 4331TIP3   OH212998   0.186   3.563   3.541
 4331TIP3    H112999   0.190   3.579   3.446
 4331TIP3    H213000   0.128   3.487   3.550
 4332TIP3   OH213001   1.937   1.358   3.507
 4332TIP3    H113002   2.025   1.377   3.541
 4332TIP3    H213003   1.906   1.443   3.474
 4333TIP3   OH213004   0.070   0.958   5.152
 4333TIP3    H113005   0.024   0.875   5.153
 4333TIP3    H213006   0.134   0.952   5.222
 4334TIP3   OH213007   5.378   3.294   1.450
 4334TIP3    H113008   5.399   3.299   1.357
 4334TIP3    H213009   5.391   3.202   1.473
 4335TIP3   OH213010   3.664   3.091   4.753
 4335TIP3    H113011   3.695   3.137   4.676
 4335TIP3    H213012   3.741   3.049   4.790
 4336TIP3   OH213013   5.491   2.108   0.594
 4336TIP3    H113014   5.443   2.148   0.522
 4336TIP3    H213015   5.442   2.132   0.673
 4337TIP3   OH213016   4.748   2.302   2.223
 4337TIP3    H113017   4.685   2.316   2.294
 4337TIP3    H213018   4.787   2.389   2.208
 4338TIP3   OH213019   4.453   1.626   0.898
 4338TIP3    H113020   4.527   1.608   0.956
 4338TIP3    H213021   4.401   1.692   0.944
 4339TIP3   OH213022   4.009   3.426   3.347
 4339TIP3    H113023   4.059   3.349   3.374
 4339TIP3    H213024   3.919   3.407   3.374
 4340TIP3   OH213025   2.660   3.985   4.375
 4340TIP3    H113026   2.584   4.010   4.322
 4340TIP3    H213027   2.722   4.057   4.361
 4341TIP3   OH213028   4.764   0.271   3.818
 4341TIP3    H113029   4.817   0.329   3.873
 4341TIP3    H213030   4.679   0.314   3.812
 4342TIP3   OH213031   0.236   5.371   0.840
 4342TIP3    H113032   0.242   5.391   0.746
 4342TIP3    H213033   0.144   5.351   0.854
 4343TIP3   OH213034   4.927   0.682   4.480
 4343TIP3    H113035   4.935   0.607   4.421
 4343TIP3    H213036   5.017   0.698   4.510
 4344TIP3   OH213037   0.500   0.270   0.050
 4344TIP3    H113038   0.477   0.237   0.137
 4344TIP3    H213039   0.423   0.251  -0.004
 4345TIP3   OH213040   4.805   1.721   3.207
 4345TIP3    H113041   4.880   1.679   3.250
 4345TIP3    H213042   4.762   1.650   3.159
 4346TIP3   OH213043   2.247   4.078   1.508
 4346TIP3    H113044   2.193   4.155   1.526
 4346TIP3    H213045   2.205   4.036   1.433
 4347TIP3   OH213046   5.738   5.427   4.146
 4347TIP3    H113047   5.690   5.398   4.069
 4347TIP3    H213048   5.777   5.347   4.181
 4348TIP3   OH213049   4.858   2.552   2.253
 4348TIP3    H113050   4.880   2.644   2.236
 4348TIP3    H213051   4.905   2.532   2.334
 4349TIP3   OH213052   1.261   3.047   3.648
 4349TIP3    H113053   1.283   2.954   3.656
 4349TIP3    H213054   1.166   3.049   3.649
 4350TIP3   OH213055   5.067   0.404   0.472
 4350TIP3    H113056   5.076   0.362   0.558
 4350TIP3    H213057   5.156   0.403   0.436
 4351TIP3   OH213058   5.087   5.440   0.628
 4351TIP3    H113059   5.061   5.531   0.639
 4351TIP3    H213060   5.166   5.444   0.574
 4352TIP3   OH213061   3.312   1.938   1.533
 4352TIP3    H113062   3.363   1.910   1.457
 4352TIP3    H213063   3.348   2.024   1.556
 4353TIP3   OH213064   1.673   4.326   0.746
 4353TIP3    H113065   1.616   4.398   0.772
 4353TIP3    H213066   1.700   4.348   0.656
 4354TIP3   OH213067   5.691   1.921   4.510
 4354TIP3    H113068   5.637   1.980   4.561
 4354TIP3    H213069   5.666   1.938   4.419
 4355TIP3   OH213070   2.167   3.809   1.209
 4355TIP3    H113071   2.244   3.799   1.152
 4355TIP3    H213072   2.103   3.747   1.174
 4356TIP3   OH213073   0.828   1.643   4.509
 4356TIP3    H113074   0.850   1.555   4.478
 4356TIP3    H213075   0.907   1.673   4.554
 4357TIP3   OH213076   2.909   5.145   2.346
 4357TIP3    H113077   2.948   5.174   2.429
 4357TIP3    H213078   2.970   5.079   2.313
 4358TIP3   OH213079   5.964   5.838   2.239
 4358TIP3    H113080   5.980   5.777   2.167
 4358TIP3    H213081   6.044   5.891   2.244
 4359TIP3   OH213082   1.985   5.246   3.155
 4359TIP3    H113083   1.918   5.183   3.183
 4359TIP3    H213084   1.938   5.329   3.146
 4360TIP3   OH213085   4.510   4.664   1.951
 4360TIP3    H113086   4.594   4.703   1.974
 4360TIP3    H213087   4.480   4.622   2.031
 4361TIP3   OH213088   1.992   0.179   3.296
 4361TIP3    H113089   1.932   0.108   3.319
 4361TIP3    H213090   1.964   0.253   3.351
 4362TIP3   OH213091   3.773   1.237   4.286
 4362TIP3    H113092   3.697   1.283   4.321
 4362TIP3    H213093   3.826   1.216   4.363
 4363TIP3   OH213094   2.062   5.106   4.917
 4363TIP3    H113095   2.040   5.083   4.827
 4363TIP3    H213096   1.979   5.097   4.965
 4364TIP3   OH213097   3.753   4.755   2.928
 4364TIP3    H113098   3.660   4.735   2.926
 4364TIP3    H213099   3.760   4.842   2.888
 4365TIP3   OH213100   0.702   4.705   2.537
 4365TIP3    H113101   0.612   4.713   2.568
 4365TIP3    H213102   0.753   4.758   2.598
 4366TIP3   OH213103   1.074   1.938   3.690
 4366TIP3    H113104   1.163   1.923   3.723
 4366TIP3    H213105   1.036   2.000   3.753
 4367TIP3   OH213106   2.589   3.344   2.471
 4367TIP3    H113107   2.631   3.416   2.518
 4367TIP3    H213108   2.518   3.317   2.530
 4368TIP3   OH213109   2.585   3.901   4.610
 4368TIP3    H113110   2.616   3.939   4.528
 4368TIP3    H213111   2.640   3.941   4.677
 4369TIP3   OH213112   3.336   4.900   0.443
 4369TIP3    H113113   3.414   4.921   0.495
 4369TIP3    H213114   3.315   4.981   0.397
 4370TIP3   OH213115   5.096   5.132   1.758
 4370TIP3    H113116   5.042   5.074   1.705
 4370TIP3    H213117   5.083   5.219   1.720
 4371TIP3   OH213118   0.819   5.263   2.987
 4371TIP3    H113119   0.893   5.321   3.000
 4371TIP3    H213120   0.844   5.181   3.030
 4372TIP3   OH213121   3.350   5.303   1.153
 4372TIP3    H113122   3.331   5.324   1.245
 4372TIP3    H213123   3.334   5.385   1.106
 4373TIP3   OH213124   0.764   2.404   4.068
 4373TIP3    H113125   0.847   2.436   4.034
 4373TIP3    H213126   0.771   2.308   4.061
 4374TIP3   OH213127   4.835   1.290   1.705
 4374TIP3    H113128   4.800   1.379   1.695
 4374TIP3    H213129   4.829   1.272   1.798
 4375TIP3   OH213130   0.357   3.618   1.990
 4375TIP3    H113131   0.348   3.577   2.076
 4375TIP3    H213132   0.378   3.709   2.009
 4376TIP3   OH213133   2.276   1.008   0.431
 4376TIP3    H113134   2.203   1.011   0.493
 4376TIP3    H213135   2.257   1.078   0.368
 4377TIP3   OH213136   5.083   0.356   2.987
 4377TIP3    H113137   5.071   0.313   3.072
 4377TIP3    H213138   4.994   0.377   2.959
 4378TIP3   OH213139   3.190   2.266   3.648
 4378TIP3    H113140   3.270   2.297   3.690
 4378TIP3    H213141   3.194   2.302   3.560
 4379TIP3   OH213142   2.193   2.455   4.700
 4379TIP3    H113143   2.223   2.493   4.617
 4379TIP3    H213144   2.203   2.526   4.763
 4380TIP3   OH213145   0.771   1.070   1.180
 4380TIP3    H113146   0.682   1.105   1.193
 4380TIP3    H213147   0.797   1.102   1.094
 4381TIP3   OH213148   2.776   4.667   0.901
 4381TIP3    H113149   2.724   4.618   0.965
 4381TIP3    H213150   2.714   4.726   0.860
 4382TIP3   OH213151   0.558   4.664   2.118
 4382TIP3    H113152   0.637   4.656   2.171
 4382TIP3    H213153   0.492   4.698   2.178
 4383TIP3   OH213154   2.598   0.576   4.093
 4383TIP3    H113155   2.514   0.548   4.057
 4383TIP3    H213156   2.655   0.500   4.085
 4384TIP3   OH213157   2.510   4.418   0.547
 4384TIP3    H113158   2.432   4.428   0.601
 4384TIP3    H213159   2.520   4.323   0.536
 4385TIP3   OH213160   2.472   3.501   0.298
 4385TIP3    H113161   2.516   3.457   0.226
 4385TIP3    H213162   2.494   3.449   0.375
 4386TIP3   OH213163   1.819   5.813   1.697
 4386TIP3    H113164   1.747   5.870   1.722
 4386TIP3    H213165   1.882   5.871   1.654
 4387TIP3   OH213166   3.340   1.300   3.625
 4387TIP3    H113167   3.318   1.208   3.637
 4387TIP3    H213168   3.411   1.316   3.687
 4388TIP3   OH213169   5.260   3.889   1.879
 4388TIP3    H113170   5.279   3.813   1.824
 4388TIP3    H213171   5.290   3.865   1.966
 4389TIP3   OH213172   4.978   5.101   0.055
 4389TIP3    H113173   4.957   5.112   0.148
 4389TIP3    H213174   4.948   5.181   0.014
 4390TIP3   OH213175   3.482   0.448   4.817
 4390TIP3    H113176   3.512   0.506   4.886
 4390TIP3    H213177   3.551   0.451   4.751
 4391TIP3   OH213178   5.326   4.876   4.372
 4391TIP3    H113179   5.264   4.943   4.345
 4391TIP3    H213180   5.355   4.904   4.459
 4392TIP3   OH213181   2.470   2.202   3.791
 4392TIP3    H113182   2.526   2.153   3.730
 4392TIP3    H213183   2.518   2.283   3.807
 4393TIP3   OH213184   4.186   2.679   2.386
 4393TIP3    H113185   4.274   2.654   2.359
 4393TIP3    H213186   4.197   2.711   2.475
 4394TIP3   OH213187   4.929   0.953   1.779
 4394TIP3    H113188   4.884   0.934   1.697
 4394TIP3    H213189   4.984   0.876   1.795
 4395TIP3   OH213190   0.480   5.507   0.178
 4395TIP3    H113191   0.465   5.518   0.085
 4395TIP3    H213192   0.567   5.544   0.193
 4396TIP3   OH213193   0.400   5.651   2.288
 4396TIP3    H113194   0.307   5.637   2.304
 4396TIP3    H213195   0.421   5.593   2.214
 4397TIP3   OH213196   0.098   5.734   0.386
 4397TIP3    H113197   0.134   5.665   0.330
 4397TIP3    H213198   0.142   5.722   0.470
 4398TIP3   OH213199   6.137   2.573   0.197
 4398TIP3    H113200   6.111   2.662   0.221
 4398TIP3    H213201   6.169   2.581   0.107
 4399TIP3   OH213202   2.359   5.019   1.533
 4399TIP3    H113203   2.355   4.942   1.477
 4399TIP3    H213204   2.444   5.058   1.514
 4400TIP3   OH213205   4.274   5.505   0.193
 4400TIP3    H113206   4.319   5.505   0.278
 4400TIP3    H213207   4.282   5.415   0.162
 4401TIP3   OH213208   4.873   2.902   5.029
 4401TIP3    H113209   4.919   2.818   5.026
 4401TIP3    H213210   4.780   2.879   5.028
 4402TIP3   OH213211   3.063   1.309   3.263
 4402TIP3    H113212   3.066   1.381   3.326
 4402TIP3    H213213   3.154   1.293   3.239
 4403TIP3   OH213214   0.599   2.758   4.978
 4403TIP3    H113215   0.552   2.794   5.053
 4403TIP3    H213216   0.659   2.693   5.016
 4404TIP3   OH213217   5.634   2.780   1.551
 4404TIP3    H113218   5.728   2.793   1.540
 4404TIP3    H213219   5.601   2.765   1.462
 4405TIP3   OH213220   2.417   0.864   0.179
 4405TIP3    H113221   2.341   0.919   0.160
 4405TIP3    H213222   2.492   0.923   0.171
 4406TIP3   OH213223   4.784   3.562   4.285
 4406TIP3    H113224   4.865   3.527   4.323
 4406TIP3    H213225   4.734   3.592   4.360
 4407TIP3   OH213226   4.203   2.151   1.311
 4407TIP3    H113227   4.297   2.134   1.313
 4407TIP3    H213228   4.163   2.072   1.348
 4408TIP3   OH213229   2.671   1.205   0.474
 4408TIP3    H113230   2.697   1.115   0.456
 4408TIP3    H213231   2.652   1.205   0.568
 4409TIP3   OH213232   0.277   3.476   2.991
 4409TIP3    H113233   0.343   3.487   2.924
 4409TIP3    H213234   0.245   3.387   2.979
 4410TIP3   OH213235   3.165   1.502   3.007
 4410TIP3    H113236   3.130   1.516   3.095
 4410TIP3    H213237   3.177   1.590   2.971
 4411TIP3   OH213238   6.286   2.621   4.312
 4411TIP3    H113239   6.293   2.644   4.405
 4411TIP3    H213240   6.198   2.648   4.287
 4412TIP3   OH213241   4.855   3.925   2.347
 4412TIP3    H113242   4.886   3.838   2.321
 4412TIP3    H213243   4.775   3.907   2.397
 4413TIP3   OH213244   2.794   5.934   1.765
 4413TIP3    H113245   2.775   5.847   1.801
 4413TIP3    H213246   2.764   5.930   1.675
 4414TIP3   OH213247   3.545   3.613   4.144
 4414TIP3    H113248   3.607   3.554   4.187
 4414TIP3    H213249   3.599   3.683   4.107
 4415TIP3   OH213250   2.195   1.860   2.020
 4415TIP3    H113251   2.266   1.872   2.083
 4415TIP3    H213252   2.203   1.933   1.959
 4416TIP3   OH213253   0.943   0.342   3.848
 4416TIP3    H113254   0.977   0.391   3.923
 4416TIP3    H213255   0.863   0.388   3.824
 4417TIP3   OH213256   2.135   2.477   0.799
 4417TIP3    H113257   2.147   2.529   0.719
 4417TIP3    H213258   2.095   2.537   0.861
 4418TIP3   OH213259   3.823   3.490   2.265
 4418TIP3    H113260   3.806   3.580   2.239
 4418TIP3    H213261   3.882   3.497   2.340
 4419TIP3   OH213262   5.056   1.154   4.905
 4419TIP3    H113263   4.998   1.079   4.893
 4419TIP3    H213264   4.997   1.229   4.914
 4420TIP3   OH213265   1.005   1.272   2.308
 4420TIP3    H113266   1.040   1.248   2.394
 4420TIP3    H213267   0.945   1.201   2.285
 4421TIP3   OH213268   0.781   4.598   4.424
 4421TIP3    H113269   0.853   4.603   4.487
 4421TIP3    H213270   0.809   4.655   4.352
 4422TIP3   OH213271   1.708   3.817   3.727
 4422TIP3    H113272   1.789   3.767   3.713
 4422TIP3    H213273   1.678   3.790   3.814
 4423TIP3   OH213274   2.793   1.899   1.810
 4423TIP3    H113275   2.710   1.947   1.819
 4423TIP3    H213276   2.856   1.952   1.859
 4424TIP3   OH213277   3.025   4.995   4.045
 4424TIP3    H113278   2.936   5.008   4.078
 4424TIP3    H213279   3.081   5.001   4.123
 4425TIP3   OH213280   4.492   4.739   1.213
 4425TIP3    H113281   4.490   4.694   1.128
 4425TIP3    H213282   4.577   4.714   1.251
 4426TIP3   OH213283   4.894   5.710   2.101
 4426TIP3    H113284   4.811   5.745   2.131
 4426TIP3    H213285   4.903   5.626   2.146
 4427TIP3   OH213286   2.132   3.119   1.946
 4427TIP3    H113287   2.150   3.094   1.856
 4427TIP3    H213288   2.209   3.169   1.973
 4428TIP3   OH213289   1.180   1.932   4.934
 4428TIP3    H113290   1.135   1.878   5.000
 4428TIP3    H213291   1.118   2.001   4.913
 4429TIP3   OH213292   3.563   2.011   4.630
 4429TIP3    H113293   3.556   1.922   4.664
 4429TIP3    H213294   3.505   2.012   4.553
 4430TIP3   OH213295   0.582   3.568   4.094
 4430TIP3    H113296   0.496   3.551   4.055
 4430TIP3    H213297   0.569   3.554   4.188
 4431TIP3   OH213298   3.088   2.679   0.657
 4431TIP3    H113299   3.074   2.746   0.724
 4431TIP3    H213300   3.182   2.684   0.638
 4432TIP3   OH213301   2.120   1.601   3.703
 4432TIP3    H113302   2.129   1.683   3.752
 4432TIP3    H213303   2.054   1.620   3.636
 4433TIP3   OH213304   3.767   0.749   4.946
 4433TIP3    H113305   3.741   0.710   4.862
 4433TIP3    H213306   3.833   0.815   4.922
 4434TIP3   OH213307   4.933   5.371   3.558
 4434TIP3    H113308   4.852   5.384   3.508
 4434TIP3    H213309   5.003   5.384   3.494
 4435TIP3   OH213310   1.719   4.570   4.581
 4435TIP3    H113311   1.696   4.545   4.670
 4435TIP3    H213312   1.761   4.493   4.544
 4436TIP3   OH213313   2.118   0.990   0.715
 4436TIP3    H113314   2.058   1.005   0.789
 4436TIP3    H213315   2.186   0.934   0.751
 4437TIP3   OH213316   2.871   1.586   0.870
 4437TIP3    H113317   2.896   1.589   0.963
 4437TIP3    H213318   2.842   1.675   0.850
 4438TIP3   OH213319   4.908   4.469   0.875
 4438TIP3    H113320   4.899   4.449   0.781
 4438TIP3    H213321   5.000   4.452   0.895
 4439TIP3   OH213322   2.283   5.861   2.129
 4439TIP3    H113323   2.370   5.831   2.105
 4439TIP3    H213324   2.266   5.936   2.072
 4440TIP3   OH213325   5.401   0.028   5.126
 4440TIP3    H113326   5.319   0.063   5.159
 4440TIP3    H213327   5.410   0.065   5.038
 4441TIP3   OH213328   1.967   0.619   1.883
 4441TIP3    H113329   2.040   0.621   1.945
 4441TIP3    H213330   1.901   0.564   1.926
 4442TIP3   OH213331   0.581   5.784   4.449
 4442TIP3    H113332   0.578   5.876   4.422
 4442TIP3    H213333   0.501   5.746   4.414
 4443TIP3   OH213334   1.814   0.357   3.471
 4443TIP3    H113335   1.805   0.443   3.511
 4443TIP3    H213336   1.725   0.322   3.467
 4444TIP3   OH213337   2.940   5.345   0.233
 4444TIP3    H113338   2.977   5.310   0.314
 4444TIP3    H213339   2.883   5.416   0.262
 4445TIP3   OH213340   4.826   2.412   1.837
 4445TIP3    H113341   4.850   2.437   1.926
 4445TIP3    H213342   4.795   2.493   1.797
 4446TIP3   OH213343   4.459   1.841   1.284
 4446TIP3    H113344   4.499   1.928   1.291
 4446TIP3    H213345   4.527   1.786   1.247
 4447TIP3   OH213346   2.179   4.865   3.872
 4447TIP3    H113347   2.171   4.823   3.787
 4447TIP3    H213348   2.250   4.929   3.861
 4448TIP3   OH213349   5.274   0.539   1.487
 4448TIP3    H113350   5.296   0.507   1.400
 4448TIP3    H213351   5.191   0.496   1.509
 4449TIP3   OH213352   2.134   0.036   0.412
 4449TIP3    H113353   2.187   0.084   0.348
 4449TIP3    H213354   2.151  -0.056   0.393
 4450TIP3   OH213355   0.997   3.288   5.054
 4450TIP3    H113356   1.083   3.257   5.081
 4450TIP3    H213357   0.943   3.281   5.133
 4451TIP3   OH213358   1.572   1.509   1.010
 4451TIP3    H113359   1.582   1.528   1.103
 4451TIP3    H213360   1.660   1.514   0.974
 4452TIP3   OH213361   2.386   0.326   5.012
 4452TIP3    H113362   2.332   0.331   5.092
 4452TIP3    H213363   2.377   0.413   4.972
 4453TIP3   OH213364   1.533   2.957   4.565
 4453TIP3    H113365   1.507   2.867   4.550
 4453TIP3    H213366   1.620   2.964   4.525
 4454TIP3   OH213367   0.697   1.712   4.272
 4454TIP3    H113368   0.749   1.669   4.339
 4454TIP3    H213369   0.727   1.674   4.189
 4455TIP3   OH213370   1.230   3.396   0.961
 4455TIP3    H113371   1.306   3.414   0.904
 4455TIP3    H213372   1.155   3.424   0.909
 4456TIP3   OH213373   0.108   1.684   4.451
 4456TIP3    H113374   0.049   1.609   4.442
 4456TIP3    H213375   0.075   1.748   4.387
 4457TIP3   OH213376   5.510   2.756   0.749
 4457TIP3    H113377   5.482   2.841   0.715
 4457TIP3    H213378   5.532   2.706   0.671
 4458TIP3   OH213379   6.079   4.975   0.774
 4458TIP3    H113380   6.157   4.923   0.792
 4458TIP3    H213381   6.100   5.061   0.810
 4459TIP3   OH213382   2.511   0.139   3.409
 4459TIP3    H113383   2.497   0.048   3.382
 4459TIP3    H213384   2.425   0.167   3.440
 4460TIP3   OH213385   5.780   1.389   3.573
 4460TIP3    H113386   5.822   1.344   3.501
 4460TIP3    H213387   5.828   1.472   3.581
 4461TIP3   OH213388   6.092   3.505   1.313
 4461TIP3    H113389   6.133   3.440   1.256
 4461TIP3    H213390   6.161   3.529   1.374
 4462TIP3   OH213391   0.286   2.010   2.752
 4462TIP3    H113392   0.361   2.066   2.772
 4462TIP3    H213393   0.294   1.937   2.813
 4463TIP3   OH213394   1.008   3.907   0.037
 4463TIP3    H113395   1.022   3.981  -0.022
 4463TIP3    H213396   0.947   3.850  -0.011
 4464TIP3   OH213397   1.560   0.203   4.131
 4464TIP3    H113398   1.615   0.126   4.145
 4464TIP3    H213399   1.534   0.198   4.040
 4465TIP3   OH213400   5.131   2.329   1.698
 4465TIP3    H113401   5.054   2.346   1.751
 4465TIP3    H213402   5.202   2.376   1.741
 4466TIP3   OH213403   5.604   2.030   2.173
 4466TIP3    H113404   5.554   2.021   2.092
 4466TIP3    H213405   5.593   1.945   2.217
 4467TIP3   OH213406   2.701   4.190   3.811
 4467TIP3    H113407   2.732   4.224   3.896
 4467TIP3    H213408   2.731   4.100   3.808
 4468TIP3   OH213409   2.076   5.383   4.979
 4468TIP3    H113410   2.116   5.445   4.919
 4468TIP3    H213411   2.095   5.297   4.941
 4469TIP3   OH213412   5.174   4.947   2.349
 4469TIP3    H113413   5.157   5.001   2.272
 4469TIP3    H213414   5.241   4.995   2.398
 4470TIP3   OH213415   3.675   4.863   0.135
 4470TIP3    H113416   3.597   4.904   0.170
 4470TIP3    H213417   3.652   4.770   0.126
 4471TIP3   OH213418   3.641   5.087   2.884
 4471TIP3    H113419   3.658   5.181   2.883
 4471TIP3    H213420   3.591   5.073   2.964
 4472TIP3   OH213421   1.910   2.530   4.889
 4472TIP3    H113422   1.854   2.463   4.850
 4472TIP3    H213423   1.952   2.573   4.815
 4473TIP3   OH213424   0.418   3.372   0.219
 4473TIP3    H113425   0.458   3.458   0.207
 4473TIP3    H213426   0.453   3.318   0.148
 4474TIP3   OH213427   1.560   5.273   2.739
 4474TIP3    H113428   1.513   5.338   2.688
 4474TIP3    H213429   1.492   5.228   2.789
 4475TIP3   OH213430   2.938   3.646   2.513
 4475TIP3    H113431   2.955   3.646   2.608
 4475TIP3    H213432   2.844   3.630   2.506
 4476TIP3   OH213433   1.655   4.973   2.260
 4476TIP3    H113434   1.622   5.047   2.209
 4476TIP3    H213435   1.578   4.918   2.275
 4477TIP3   OH213436   4.089   2.806   4.023
 4477TIP3    H113437   4.064   2.868   4.091
 4477TIP3    H213438   4.150   2.746   4.066
 4478TIP3   OH213439   3.935   1.447   3.351
 4478TIP3    H113440   3.932   1.474   3.443
 4478TIP3    H213441   3.901   1.523   3.303
 4479TIP3   OH213442   3.267   2.263   4.199
 4479TIP3    H113443   3.172   2.262   4.211
 4479TIP3    H213444   3.296   2.342   4.243
 4480TIP3   OH213445   0.899   3.529   1.176
 4480TIP3    H113446   0.982   3.561   1.212
 4480TIP3    H213447   0.915   3.437   1.157
 4481TIP3   OH213448   4.049   3.192   1.079
 4481TIP3    H113449   4.103   3.146   1.015
 4481TIP3    H213450   3.997   3.254   1.028
 4482TIP3   OH213451   5.247   4.442   5.081
 4482TIP3    H113452   5.166   4.392   5.075
 4482TIP3    H213453   5.257   4.482   4.994
 4483TIP3   OH213454   6.207   1.831   4.374
 4483TIP3    H113455   6.189   1.838   4.468
 4483TIP3    H213456   6.246   1.916   4.352
 4484TIP3   OH213457   5.829   0.674   2.417
 4484TIP3    H113458   5.808   0.594   2.368
 4484TIP3    H213459   5.773   0.670   2.494
 4485TIP3   OH213460   4.322   5.440   2.153
 4485TIP3    H113461   4.290   5.414   2.240
 4485TIP3    H213462   4.327   5.535   2.156
 4486TIP3   OH213463   4.859   3.003   1.802
 4486TIP3    H113464   4.780   3.055   1.820
 4486TIP3    H213465   4.850   2.978   1.710
 4487TIP3   OH213466   1.795   2.697   4.580
 4487TIP3    H113467   1.822   2.630   4.517
 4487TIP3    H213468   1.819   2.780   4.538
 4488TIP3   OH213469   5.899   5.351   0.958
 4488TIP3    H113470   5.973   5.296   0.933
 4488TIP3    H213471   5.932   5.441   0.952
 4489TIP3   OH213472   5.377   2.232   4.623
 4489TIP3    H113473   5.401   2.140   4.623
 4489TIP3    H213474   5.405   2.264   4.537
 4490TIP3   OH213475   4.785   3.249   1.310
 4490TIP3    H113476   4.736   3.239   1.228
 4490TIP3    H213477   4.721   3.228   1.378
 4491TIP3   OH213478   5.774   2.825   4.975
 4491TIP3    H113479   5.800   2.873   4.896
 4491TIP3    H213480   5.688   2.789   4.954
 4492TIP3   OH213481   5.268   1.784   0.532
 4492TIP3    H113482   5.267   1.688   0.527
 4492TIP3    H213483   5.177   1.809   0.548
 4493TIP3   OH213484   2.117   3.046   0.111
 4493TIP3    H113485   2.150   3.135   0.100
 4493TIP3    H213486   2.194   2.995   0.136
 4494TIP3   OH213487   2.647   1.249   4.670
 4494TIP3    H113488   2.592   1.296   4.734
 4494TIP3    H213489   2.624   1.157   4.681
 4495TIP3   OH213490   4.657   4.457   0.670
 4495TIP3    H113491   4.745   4.425   0.649
 4495TIP3    H213492   4.631   4.406   0.747
 4496TIP3   OH213493   1.391   0.263   4.696
 4496TIP3    H113494   1.350   0.336   4.649
 4496TIP3    H213495   1.448   0.221   4.631
 4497TIP3   OH213496   1.647   3.979   1.563
 4497TIP3    H113497   1.623   3.919   1.633
 4497TIP3    H213498   1.708   4.041   1.604
 4498TIP3   OH213499   0.631   2.610   4.218
 4498TIP3    H113500   0.586   2.600   4.302
 4498TIP3    H213501   0.672   2.525   4.203
 4499TIP3   OH213502   6.060   0.251   0.616
 4499TIP3    H113503   6.150   0.225   0.600
 4499TIP3    H213504   6.008   0.182   0.575
 4500TIP3   OH213505   4.336   1.067   2.121
 4500TIP3    H113506   4.241   1.070   2.133
 4500TIP3    H213507   4.364   0.991   2.172
 4501TIP3   OH213508   5.828   5.125   2.355
 4501TIP3    H113509   5.897   5.067   2.324
 4501TIP3    H213510   5.862   5.160   2.437
 4502TIP3   OH213511   1.340   1.938   0.200
 4502TIP3    H113512   1.324   1.974   0.113
 4502TIP3    H213513   1.284   1.991   0.258
 4503TIP3   OH213514   5.078   0.979   3.105
 4503TIP3    H113515   5.159   0.928   3.101
 4503TIP3    H213516   5.037   0.951   3.187
 4504TIP3   OH213517   4.238   0.560   2.971
 4504TIP3    H113518   4.223   0.539   3.064
 4504TIP3    H213519   4.198   0.488   2.923
 4505TIP3   OH213520   2.772   1.942   2.288
 4505TIP3    H113521   2.708   1.992   2.237
 4505TIP3    H213522   2.834   2.007   2.320
 4506TIP3   OH213523   3.965   0.894   3.806
 4506TIP3    H113524   4.001   0.966   3.754
 4506TIP3    H213525   3.981   0.816   3.753
 4507TIP3   OH213526   1.582   3.411   1.296
 4507TIP3    H113527   1.574   3.380   1.205
 4507TIP3    H213528   1.602   3.504   1.288
 4508TIP3   OH213529   3.197   3.609   3.661
 4508TIP3    H113530   3.107   3.581   3.643
 4508TIP3    H213531   3.243   3.529   3.686
 4509TIP3   OH213532   3.697   5.736   1.737
 4509TIP3    H113533   3.647   5.663   1.773
 4509TIP3    H213534   3.766   5.695   1.685
 4510TIP3   OH213535   5.923   1.059   4.760
 4510TIP3    H113536   5.860   1.045   4.830
 4510TIP3    H213537   6.009   1.051   4.801
 4511TIP3   OH213538   1.504   5.740   2.227
 4511TIP3    H113539   1.464   5.764   2.311
 4511TIP3    H213540   1.460   5.795   2.162
 4512TIP3   OH213541   3.065   2.720   4.872
 4512TIP3    H113542   3.059   2.743   4.964
 4512TIP3    H213543   3.153   2.684   4.862
 4513TIP3   OH213544   5.869   0.839   1.707
 4513TIP3    H113545   5.955   0.870   1.733
 4513TIP3    H213546   5.884   0.751   1.673
 4514TIP3   OH213547   2.169   1.758   0.565
 4514TIP3    H113548   2.108   1.699   0.609
 4514TIP3    H213549   2.240   1.770   0.627
 4515TIP3   OH213550   4.043   3.890   2.668
 4515TIP3    H113551   4.093   3.942   2.606
 4515TIP3    H213552   4.069   3.923   2.754
 4516TIP3   OH213553   5.430   5.197   0.084
 4516TIP3    H113554   5.411   5.257   0.156
 4516TIP3    H213555   5.513   5.156   0.108
 4517TIP3   OH213556   3.954   5.461   5.091
 4517TIP3    H113557   4.040   5.455   5.134
 4517TIP3    H213558   3.972   5.445   4.999
 4518TIP3   OH213559   4.759   0.105   1.930
 4518TIP3    H113560   4.812   0.181   1.956
 4518TIP3    H213561   4.823   0.041   1.899
 4519TIP3   OH213562   6.111   2.546   2.868
 4519TIP3    H113563   6.148   2.605   2.934
 4519TIP3    H213564   6.084   2.604   2.797
 4520TIP3   OH213565   3.806   1.226   4.007
 4520TIP3    H113566   3.796   1.208   4.100
 4520TIP3    H213567   3.759   1.308   3.993
 4521TIP3   OH213568   4.379   5.559   2.542
 4521TIP3    H113569   4.352   5.651   2.541
 4521TIP3    H213570   4.439   5.553   2.616
 4522TIP3   OH213571   1.796   5.008   3.206
 4522TIP3    H113572   1.753   4.983   3.288
 4522TIP3    H213573   1.872   4.950   3.199
 4523TIP3   OH213574   2.162   3.619   4.425
 4523TIP3    H113575   2.140   3.687   4.489
 4523TIP3    H213576   2.258   3.614   4.428
 4524TIP3   OH213577   2.607   2.838   2.783
 4524TIP3    H113578   2.628   2.827   2.876
 4524TIP3    H213579   2.676   2.896   2.750
 4525TIP3   OH213580   3.833   4.675   2.666
 4525TIP3    H113581   3.887   4.661   2.744
 4525TIP3    H213582   3.800   4.764   2.675
 4526TIP3   OH213583   0.601   4.244   4.785
 4526TIP3    H113584   0.586   4.327   4.830
 4526TIP3    H213585   0.697   4.235   4.784
 4527TIP3   OH213586   2.565   3.546   1.150
 4527TIP3    H113587   2.579   3.473   1.211
 4527TIP3    H213588   2.643   3.601   1.161
 4528TIP3   OH213589   0.871   5.751   0.719
 4528TIP3    H113590   0.824   5.671   0.742
 4528TIP3    H213591   0.933   5.724   0.650
 4529TIP3   OH213592   1.408   3.446   0.759
 4529TIP3    H113593   1.407   3.376   0.694
 4529TIP3    H213594   1.403   3.526   0.707
 4530TIP3   OH213595   1.232   5.595   2.338
 4530TIP3    H113596   1.182   5.567   2.415
 4530TIP3    H213597   1.171   5.648   2.287
 4531TIP3   OH213598   3.478   5.592   0.886
 4531TIP3    H113599   3.432   5.610   0.804
 4531TIP3    H213600   3.409   5.569   0.947
 4532TIP3   OH213601   6.066   0.644   5.034
 4532TIP3    H113602   5.985   0.642   5.086
 4532TIP3    H213603   6.040   0.611   4.948
 4533TIP3   OH213604   6.003   3.729   3.575
 4533TIP3    H113605   5.985   3.635   3.580
 4533TIP3    H213606   6.036   3.742   3.487
 4534TIP3   OH213607   2.847   3.448   2.727
 4534TIP3    H113608   2.915   3.514   2.743
 4534TIP3    H213609   2.825   3.415   2.814
 4535TIP3   OH213610   3.535   2.773   2.918
 4535TIP3    H113611   3.454   2.773   2.868
 4535TIP3    H213612   3.563   2.864   2.918
 4536TIP3   OH213613   1.584   2.345   3.681
 4536TIP3    H113614   1.606   2.255   3.658
 4536TIP3    H213615   1.634   2.363   3.761
 4537TIP3   OH213616   3.297   0.393   4.067
 4537TIP3    H113617   3.361   0.449   4.111
 4537TIP3    H213618   3.283   0.436   3.982
 4538TIP3   OH213619   2.820   0.406   4.342
 4538TIP3    H113620   2.807   0.340   4.274
 4538TIP3    H213621   2.762   0.478   4.317
 4539TIP3   OH213622   5.044   1.682   2.125
 4539TIP3    H113623   5.017   1.730   2.202
 4539TIP3    H213624   5.138   1.702   2.116
 4540TIP3   OH213625   4.386   4.378   1.744
 4540TIP3    H113626   4.336   4.437   1.687
 4540TIP3    H213627   4.467   4.426   1.763
 4541TIP3   OH213628   0.138   1.937   1.769
 4541TIP3    H113629   0.223   1.923   1.728
 4541TIP3    H213630   0.108   2.021   1.734
 4542TIP3   OH213631   3.527   0.268   2.858
 4542TIP3    H113632   3.613   0.283   2.819
 4542TIP3    H213633   3.542   0.271   2.953
 4543TIP3   OH213634   3.028   1.650   4.897
 4543TIP3    H113635   2.935   1.663   4.917
 4543TIP3    H213636   3.029   1.582   4.830
 4544TIP3   OH213637   5.441   2.991   4.874
 4544TIP3    H113638   5.478   2.909   4.841
 4544TIP3    H213639   5.496   3.015   4.948
 4545TIP3   OH213640   6.230   5.782   0.200
 4545TIP3    H113641   6.302   5.763   0.260
 4545TIP3    H213642   6.262   5.851   0.143
 4546TIP3   OH213643   4.899   5.608   2.442
 4546TIP3    H113644   4.814   5.631   2.404
 4546TIP3    H213645   4.950   5.575   2.368
 4547TIP3   OH213646   0.765   2.316   5.147
 4547TIP3    H113647   0.805   2.329   5.233
 4547TIP3    H213648   0.757   2.221   5.138
 4548TIP3   OH213649   3.041   1.502   4.648
 4548TIP3    H113650   2.990   1.441   4.701
 4548TIP3    H213651   3.095   1.446   4.591
 4549TIP3   OH213652   2.662   3.652   2.518
 4549TIP3    H113653   2.667   3.676   2.611
 4549TIP3    H213654   2.571   3.626   2.505
 4550TIP3   OH213655   3.030   0.295   0.707
 4550TIP3    H113656   2.982   0.352   0.768
 4550TIP3    H213657   2.994   0.316   0.621
 4551TIP3   OH213658   3.859   1.684   2.581
 4551TIP3    H113659   3.925   1.617   2.563
 4551TIP3    H213660   3.894   1.734   2.654
 4552TIP3   OH213661   5.391   4.852   3.363
 4552TIP3    H113662   5.296   4.857   3.354
 4552TIP3    H213663   5.421   4.819   3.279
 4553TIP3   OH213664   1.380   2.499   5.133
 4553TIP3    H113665   1.324   2.458   5.199
 4553TIP3    H213666   1.453   2.438   5.123
 4554TIP3   OH213667   2.680   5.828   1.546
 4554TIP3    H113668   2.709   5.739   1.527
 4554TIP3    H213669   2.594   5.834   1.505
 4555TIP3   OH213670   6.152   0.881   1.765
 4555TIP3    H113671   6.228   0.867   1.821
 4555TIP3    H213672   6.182   0.857   1.677
 4556TIP3   OH213673   2.920   1.330   4.277
 4556TIP3    H113674   2.992   1.300   4.333
 4556TIP3    H213675   2.936   1.423   4.265
 4557TIP3   OH213676   2.261   3.455   3.705
 4557TIP3    H113677   2.267   3.404   3.625
 4557TIP3    H213678   2.273   3.546   3.677
 4558TIP3   OH213679   5.926   5.601   3.088
 4558TIP3    H113680   5.909   5.695   3.090
 4558TIP3    H213681   5.974   5.583   3.170
 4559TIP3   OH213682   3.186   4.284   3.242
 4559TIP3    H113683   3.281   4.277   3.244
 4559TIP3    H213684   3.155   4.193   3.248
 4560TIP3   OH213685   4.604   1.615   0.203
 4560TIP3    H113686   4.652   1.584   0.126
 4560TIP3    H213687   4.668   1.669   0.250
 4561TIP3   OH213688   0.792   5.650   2.538
 4561TIP3    H113689   0.714   5.598   2.556
 4561TIP3    H213690   0.782   5.676   2.446
 4562TIP3   OH213691   2.499   3.977   2.460
 4562TIP3    H113692   2.409   4.002   2.442
 4562TIP3    H213693   2.494   3.925   2.540
 4563TIP3   OH213694   2.586   5.489   0.865
 4563TIP3    H113695   2.663   5.433   0.865
 4563TIP3    H213696   2.585   5.528   0.952
 4564TIP3   OH213697   1.042   0.156   4.192
 4564TIP3    H113698   1.022   0.246   4.219
 4564TIP3    H213699   1.135   0.157   4.171
 4565TIP3   OH213700   0.405   3.253   3.312
 4565TIP3    H113701   0.392   3.304   3.392
 4565TIP3    H213702   0.402   3.162   3.340
 4566TIP3   OH213703   5.845   3.380   0.132
 4566TIP3    H113704   5.813   3.459   0.089
 4566TIP3    H213705   5.894   3.334   0.063
 4567TIP3   OH213706   5.536   5.556   1.546
 4567TIP3    H113707   5.486   5.632   1.575
 4567TIP3    H213708   5.622   5.591   1.522
 4568TIP3   OH213709   3.426   5.749   1.197
 4568TIP3    H113710   3.392   5.796   1.273
 4568TIP3    H213711   3.496   5.694   1.232
 4569TIP3   OH213712   1.147   4.804   0.027
 4569TIP3    H113713   1.231   4.758   0.031
 4569TIP3    H213714   1.168   4.895   0.047
 4570TIP3   OH213715   0.701   3.547   0.798
 4570TIP3    H113716   0.742   3.561   0.713
 4570TIP3    H213717   0.653   3.465   0.789
 4571TIP3   OH213718   5.075   4.062   2.047
 4571TIP3    H113719   5.134   4.009   1.993
 4571TIP3    H213720   5.122   4.145   2.058
 4572TIP3   OH213721   0.113   5.568   4.260
 4572TIP3    H113722   0.199   5.609   4.252
 4572TIP3    H213723   0.118   5.489   4.207
 4573TIP3   OH213724   0.598   4.783   1.845
 4573TIP3    H113725   0.511   4.775   1.806
 4573TIP3    H213726   0.585   4.766   1.938
 4574TIP3   OH213727   3.169   2.822   0.038
 4574TIP3    H113728   3.222   2.748   0.066
 4574TIP3    H213729   3.208   2.851  -0.044
 4575TIP3   OH213730   3.228   0.439   2.375
 4575TIP3    H113731   3.189   0.425   2.289
 4575TIP3    H213732   3.322   0.432   2.360
 4576TIP3   OH213733   2.196   5.674   1.068
 4576TIP3    H113734   2.167   5.685   1.158
 4576TIP3    H213735   2.118   5.645   1.021
 4577TIP3   OH213736   5.257   1.975   1.859
 4577TIP3    H113737   5.192   2.009   1.921
 4577TIP3    H213738   5.229   2.007   1.774
 4578TIP3   OH213739   4.229   5.285   0.463
 4578TIP3    H113740   4.224   5.211   0.401
 4578TIP3    H213741   4.164   5.264   0.530
 4579TIP3   OH213742   0.690   5.966   0.110
 4579TIP3    H113743   0.693   5.973   0.014
 4579TIP3    H213744   0.596   5.966   0.130
 4580TIP3   OH213745   3.511   1.470   2.557
 4580TIP3    H113746   3.504   1.558   2.593
 4580TIP3    H213747   3.491   1.480   2.464
 4581TIP3   OH213748   6.192   2.453   3.712
 4581TIP3    H113749   6.164   2.444   3.621
 4581TIP3    H213750   6.268   2.396   3.721
 4582TIP3   OH213751   5.599   2.596   1.989
 4582TIP3    H113752   5.630   2.530   1.926
 4582TIP3    H213753   5.647   2.577   2.069
 4583TIP3   OH213754   3.831   2.307   3.995
 4583TIP3    H113755   3.926   2.298   3.991
 4583TIP3    H213756   3.815   2.352   4.078
 4584TIP3   OH213757   5.145   4.918   3.818
 4584TIP3    H113758   5.132   4.905   3.912
 4584TIP3    H213759   5.107   5.003   3.800
 4585TIP3   OH213760   0.632   3.072   2.618
 4585TIP3    H113761   0.610   3.072   2.525
 4585TIP3    H213762   0.553   3.041   2.662
 4586TIP3   OH213763   4.752   4.674   1.290
 4586TIP3    H113764   4.807   4.605   1.253
 4586TIP3    H213765   4.742   4.649   1.382
 4587TIP3   OH213766   2.299   0.836   4.461
 4587TIP3    H113767   2.311   0.871   4.373
 4587TIP3    H213768   2.347   0.752   4.459
 4588TIP3   OH213769   5.711   2.100   4.739
 4588TIP3    H113770   5.755   2.029   4.786
 4588TIP3    H213771   5.781   2.147   4.695
 4589TIP3   OH213772   3.020   4.391   1.791
 4589TIP3    H113773   2.999   4.299   1.809
 4589TIP3    H213774   3.018   4.398   1.696
 4590TIP3   OH213775   5.187   5.074   2.112
 4590TIP3    H113776   5.223   5.054   2.026
 4590TIP3    H213777   5.214   5.164   2.129
 4591TIP3   OH213778   4.782   3.364   4.668
 4591TIP3    H113779   4.839   3.435   4.694
 4591TIP3    H213780   4.743   3.332   4.750
 4592TIP3   OH213781   1.600   5.918   1.175
 4592TIP3    H113782   1.618   6.009   1.194
 4592TIP3    H213783   1.647   5.900   1.093
 4593TIP3   OH213784   4.124   0.431   1.638
 4593TIP3    H113785   4.189   0.389   1.582
 4593TIP3    H213786   4.109   0.517   1.598
 4594TIP3   OH213787   1.781   3.000   0.920
 4594TIP3    H113788   1.847   2.936   0.947
 4594TIP3    H213789   1.740   2.961   0.842
 4595TIP3   OH213790   4.669   5.927   4.255
 4595TIP3    H113791   4.653   6.017   4.229
 4595TIP3    H213792   4.636   5.921   4.345
 4596TIP3   OH213793   2.996   1.977   0.661
 4596TIP3    H113794   3.009   1.884   0.681
 4596TIP3    H213795   2.905   1.995   0.688
 4597TIP3   OH213796   4.499   1.930   2.066
 4597TIP3    H113797   4.482   1.915   2.159
 4597TIP3    H213798   4.577   1.987   2.065
 4598TIP3   OH213799   2.205   1.283   1.405
 4598TIP3    H113800   2.242   1.298   1.318
 4598TIP3    H213801   2.193   1.370   1.441
 4599TIP3   OH213802   4.562   5.266   3.991
 4599TIP3    H113803   4.570   5.326   3.917
 4599TIP3    H213804   4.500   5.200   3.961
 4600TIP3   OH213805   3.156   1.982   3.128
 4600TIP3    H113806   3.169   1.966   3.221
 4600TIP3    H213807   3.083   1.925   3.104
 4601TIP3   OH213808   5.842   2.179   0.461
 4601TIP3    H113809   5.900   2.255   0.459
 4601TIP3    H213810   5.798   2.180   0.375
 4602TIP3   OH213811   4.477   2.437   3.880
 4602TIP3    H113812   4.483   2.435   3.784
 4602TIP3    H213813   4.563   2.469   3.908
 4603TIP3   OH213814   0.910   1.925   3.454
 4603TIP3    H113815   0.971   1.949   3.524
 4603TIP3    H213816   0.940   1.975   3.378
 4604TIP3   OH213817   4.528   1.072   2.762
 4604TIP3    H113818   4.456   1.009   2.758
 4604TIP3    H213819   4.539   1.102   2.672
 4605TIP3   OH213820   5.056   3.102   1.489
 4605TIP3    H113821   5.144   3.067   1.503
 4605TIP3    H213822   5.011   3.034   1.439
 4606TIP3   OH213823   6.296   5.513   1.795
 4606TIP3    H113824   6.221   5.527   1.853
 4606TIP3    H213825   6.293   5.587   1.734
 4607TIP3   OH213826   4.481   2.215   5.069
 4607TIP3    H113827   4.574   2.201   5.090
 4607TIP3    H213828   4.462   2.151   5.000
 4608TIP3   OH213829   4.493   5.799   0.928
 4608TIP3    H113830   4.452   5.884   0.941
 4608TIP3    H213831   4.585   5.813   0.949
 4609TIP3   OH213832   5.958   1.185   0.105
 4609TIP3    H113833   5.968   1.277   0.082
 4609TIP3    H213834   5.873   1.181   0.150
 4610TIP3   OH213835   0.998   5.620   4.588
 4610TIP3    H113836   0.927   5.665   4.634
 4610TIP3    H213837   0.959   5.587   4.507
 4611TIP3   OH213838   2.896   1.809   5.165
 4611TIP3    H113839   2.966   1.873   5.170
 4611TIP3    H213840   2.823   1.849   5.212
 4612TIP3   OH213841   5.348   3.606   3.395
 4612TIP3    H113842   5.409   3.540   3.361
 4612TIP3    H213843   5.378   3.688   3.357
 4613TIP3   OH213844   5.252   5.900   3.734
 4613TIP3    H113845   5.322   5.835   3.727
 4613TIP3    H213846   5.171   5.851   3.717
 4614TIP3   OH213847   4.129   2.925   4.567
 4614TIP3    H113848   4.132   2.858   4.498
 4614TIP3    H213849   4.036   2.947   4.574
 4615TIP3   OH213850   3.591   2.211   4.823
 4615TIP3    H113851   3.556   2.196   4.911
 4615TIP3    H213852   3.549   2.144   4.769
 4616TIP3   OH213853   2.769   5.139   0.581
 4616TIP3    H113854   2.770   5.080   0.505
 4616TIP3    H213855   2.682   5.127   0.619
 4617TIP3   OH213856   5.691   5.468   3.067
 4617TIP3    H113857   5.729   5.381   3.075
 4617TIP3    H213858   5.748   5.524   3.119
 4618TIP3   OH213859   3.868   0.283   3.931
 4618TIP3    H113860   3.860   0.211   3.993
 4618TIP3    H213861   3.927   0.250   3.863
 4619TIP3   OH213862   0.721   0.714   4.745
 4619TIP3    H113863   0.705   0.722   4.839
 4619TIP3    H213864   0.789   0.648   4.738
 4620TIP3   OH213865   3.292   3.614   4.085
 4620TIP3    H113866   3.385   3.628   4.099
 4620TIP3    H213867   3.253   3.626   4.172
 4621TIP3   OH213868   2.187   1.383   2.132
 4621TIP3    H113869   2.225   1.297   2.119
 4621TIP3    H213870   2.206   1.405   2.223
 4622TIP3   OH213871   4.457   4.572   3.824
 4622TIP3    H113872   4.396   4.591   3.895
 4622TIP3    H213873   4.404   4.578   3.745
 4623TIP3   OH213874   2.224   4.510   4.980
 4623TIP3    H113875   2.244   4.424   4.944
 4623TIP3    H213876   2.129   4.516   4.977
 4624TIP3   OH213877   5.593   0.736   3.042
 4624TIP3    H113878   5.509   0.754   3.084
 4624TIP3    H213879   5.571   0.690   2.962
 4625TIP3   OH213880   3.666   5.359   0.868
 4625TIP3    H113881   3.610   5.435   0.882
 4625TIP3    H213882   3.735   5.367   0.934
 4626TIP3   OH213883   1.969   3.102   4.737
 4626TIP3    H113884   1.899   3.140   4.684
 4626TIP3    H213885   1.999   3.026   4.688
 4627TIP3   OH213886   0.380   2.709   4.062
 4627TIP3    H113887   0.297   2.664   4.077
 4627TIP3    H213888   0.446   2.644   4.086
 4628TIP3   OH213889   2.679   2.345   4.633
 4628TIP3    H113890   2.724   2.338   4.717
 4628TIP3    H213891   2.620   2.270   4.631
 4629TIP3   OH213892   1.177   2.929   2.537
 4629TIP3    H113893   1.198   2.844   2.575
 4629TIP3    H213894   1.090   2.951   2.572
 4630TIP3   OH213895   3.064   3.956   0.877
 4630TIP3    H113896   3.073   4.047   0.850
 4630TIP3    H213897   2.986   3.955   0.931
 4631TIP3   OH213898   1.761   0.597   3.840
 4631TIP3    H113899   1.840   0.580   3.891
 4631TIP3    H213900   1.791   0.595   3.749
 4632TIP3   OH213901   1.473   3.163   2.777
 4632TIP3    H113902   1.504   3.093   2.835
 4632TIP3    H213903   1.537   3.233   2.787
 4633TIP3   OH213904   4.368   2.575   2.083
 4633TIP3    H113905   4.278   2.549   2.062
 4633TIP3    H213906   4.415   2.569   1.999
 4634TIP3   OH213907   4.015   3.974   3.938
 4634TIP3    H113908   4.041   4.029   4.012
 4634TIP3    H213909   3.950   4.028   3.891
 4635TIP3   OH213910   4.907   1.486   3.414
 4635TIP3    H113911   4.812   1.498   3.404
 4635TIP3    H213912   4.915   1.402   3.460
 4636TIP3   OH213913   4.379   4.785   4.922
 4636TIP3    H113914   4.365   4.734   4.842
 4636TIP3    H213915   4.340   4.871   4.903
 4637TIP3   OH213916   4.419   2.930   2.235
 4637TIP3    H113917   4.424   2.845   2.280
 4637TIP3    H213918   4.474   2.919   2.158
 4638TIP3   OH213919   5.999   2.769   2.128
 4638TIP3    H113920   6.081   2.721   2.141
 4638TIP3    H213921   5.988   2.771   2.032
 4639TIP3   OH213922   5.574   5.287   2.175
 4639TIP3    H113923   5.642   5.308   2.111
 4639TIP3    H213924   5.619   5.241   2.245
 4640TIP3   OH213925   0.404   0.413   3.808
 4640TIP3    H113926   0.320   0.367   3.815
 4640TIP3    H213927   0.465   0.348   3.773
 4641TIP3   OH213928   1.089   2.708   2.717
 4641TIP3    H113929   1.101   2.676   2.806
 4641TIP3    H213930   1.000   2.679   2.693
 4642TIP3   OH213931   6.103   5.628   1.593
 4642TIP3    H113932   6.047   5.701   1.566
 4642TIP3    H213933   6.166   5.618   1.521
 4643TIP3   OH213934   5.842   2.748   2.931
 4643TIP3    H113935   5.798   2.808   2.871
 4643TIP3    H213936   5.866   2.673   2.876
 4644TIP3   OH213937   0.934   3.637   1.799
 4644TIP3    H113938   0.881   3.557   1.800
 4644TIP3    H213939   0.870   3.708   1.791
 4645TIP3   OH213940   2.163   2.897   4.667
 4645TIP3    H113941   2.258   2.885   4.666
 4645TIP3    H213942   2.130   2.827   4.610
 4646TIP3   OH213943   1.567   0.478   0.106
 4646TIP3    H113944   1.576   0.533   0.185
 4646TIP3    H213945   1.633   0.410   0.117
 4647TIP3   OH213946   2.349   4.079   3.183
 4647TIP3    H113947   2.351   4.028   3.264
 4647TIP3    H213948   2.324   4.167   3.210
 4648TIP3   OH213949   4.659   0.799   5.010
 4648TIP3    H113950   4.640   0.826   5.100
 4648TIP3    H213951   4.574   0.776   4.973
 4649TIP3   OH213952   5.858   2.611   3.831
 4649TIP3    H113953   5.813   2.694   3.813
 4649TIP3    H213954   5.937   2.636   3.879
 4650TIP3   OH213955   5.696   0.065   2.321
 4650TIP3    H113956   5.647   0.012   2.384
 4650TIP3    H213957   5.633   0.084   2.252
 4651TIP3   OH213958   1.144   2.503   2.297
 4651TIP3    H113959   1.160   2.457   2.380
 4651TIP3    H213960   1.118   2.591   2.323
 4652TIP3   OH213961   0.292   4.248   1.989
 4652TIP3    H113962   0.334   4.293   2.062
 4652TIP3    H213963   0.300   4.310   1.916
 4653TIP3   OH213964   3.730   5.922   3.921
 4653TIP3    H113965   3.769   5.903   3.836
 4653TIP3    H213966   3.673   5.997   3.906
 4654TIP3   OH213967   1.556   2.679   3.419
 4654TIP3    H113968   1.559   2.763   3.466
 4654TIP3    H213969   1.534   2.703   3.330
 4655TIP3   OH213970   5.098   1.271   1.276
 4655TIP3    H113971   5.172   1.331   1.280
 4655TIP3    H213972   5.071   1.259   1.367
 4656TIP3   OH213973   1.160   2.877   0.931
 4656TIP3    H113974   1.200   2.964   0.929
 4656TIP3    H213975   1.233   2.817   0.948
 4657TIP3   OH213976   2.895   2.509   2.150
 4657TIP3    H113977   2.821   2.540   2.203
 4657TIP3    H213978   2.909   2.419   2.178
 4658TIP3   OH213979   2.900   4.688   4.436
 4658TIP3    H113980   2.930   4.600   4.460
 4658TIP3    H213981   2.941   4.746   4.500
 4659TIP3   OH213982   2.672   4.832   0.110
 4659TIP3    H113983   2.651   4.854   0.020
 4659TIP3    H213984   2.602   4.871   0.161
 4660TIP3   OH213985   2.135   3.046   1.671
 4660TIP3    H113986   2.107   2.960   1.640
 4660TIP3    H213987   2.058   3.101   1.662
 4661TIP3   OH213988   3.339   3.190   2.172
 4661TIP3    H113989   3.356   3.282   2.189
 4661TIP3    H213990   3.302   3.187   2.084
 4662TIP3   OH213991   0.062   0.164   2.167
 4662TIP3    H113992   0.052   0.155   2.073
 4662TIP3    H213993   0.014   0.244   2.189
 4663TIP3   OH213994   4.653   5.690   2.587
 4663TIP3    H113995   4.696   5.774   2.575
 4663TIP3    H213996   4.626   5.689   2.679
 4664TIP3   OH213997   3.192   3.100   5.036
 4664TIP3    H113998   3.127   3.115   4.968
 4664TIP3    H213999   3.273   3.082   4.988
 4665TIP3   OH214000   2.417   4.747   4.370
 4665TIP3    H114001   2.468   4.739   4.289
 4665TIP3    H214002   2.392   4.657   4.391
 4666TIP3   OH214003   6.200   0.955   1.331
 4666TIP3    H114004   6.254   1.004   1.269
 4666TIP3    H214005   6.263   0.913   1.390
 4667TIP3   OH214006   5.013   1.870   0.554
 4667TIP3    H114007   4.954   1.850   0.626
 4667TIP3    H214008   4.998   1.963   0.536
 4668TIP3   OH214009   1.904   4.819   1.780
 4668TIP3    H114010   1.968   4.889   1.765
 4668TIP3    H214011   1.833   4.838   1.718
 4669TIP3   OH214012   1.592   5.181   1.461
 4669TIP3    H114013   1.553   5.156   1.377
 4669TIP3    H214014   1.570   5.274   1.470
 4670TIP3   OH214015   5.422   0.088   2.884
 4670TIP3    H114016   5.467   0.046   2.811
 4670TIP3    H214017   5.467   0.057   2.962
 4671TIP3   OH214018   5.772   3.795   4.770
 4671TIP3    H114019   5.712   3.774   4.841
 4671TIP3    H214020   5.800   3.885   4.788
 4672TIP3   OH214021   4.528   5.522   5.132
 4672TIP3    H114022   4.579   5.441   5.128
 4672TIP3    H214023   4.466   5.514   5.059
 4673TIP3   OH214024   0.200   3.584   3.244
 4673TIP3    H114025   0.238   3.671   3.230
 4673TIP3    H214026   0.228   3.533   3.168
 4674TIP3   OH214027   6.170   5.617   1.303
 4674TIP3    H114028   6.262   5.637   1.317
 4674TIP3    H214029   6.143   5.676   1.233
 4675TIP3   OH214030   0.445   5.887   1.894
 4675TIP3    H114031   0.526   5.838   1.878
 4675TIP3    H214032   0.406   5.897   1.807
 4676TIP3   OH214033   4.991   3.429   0.824
 4676TIP3    H114034   5.053   3.420   0.752
 4676TIP3    H214035   4.937   3.503   0.799
 4677TIP3   OH214036   2.558   4.674   4.151
 4677TIP3    H114037   2.584   4.584   4.136
 4677TIP3    H214038   2.509   4.699   4.073
 4678TIP3   OH214039   5.842   2.831   1.887
 4678TIP3    H114040   5.882   2.774   1.821
 4678TIP3    H214041   5.748   2.819   1.875
 4679TIP3   OH214042   3.623   5.429   4.846
 4679TIP3    H114043   3.634   5.498   4.780
 4679TIP3    H214044   3.648   5.470   4.928
 4680TIP3   OH214045   1.977   0.427   1.687
 4680TIP3    H114046   1.926   0.467   1.617
 4680TIP3    H214047   1.989   0.497   1.751
 4681TIP3   OH214048   2.862   1.301   3.693
 4681TIP3    H114049   2.892   1.340   3.775
 4681TIP3    H214050   2.775   1.338   3.680
 4682TIP3   OH214051   3.343   5.373   0.469
 4682TIP3    H114052   3.410   5.356   0.535
 4682TIP3    H214053   3.288   5.441   0.507
 4683TIP3   OH214054   5.305   1.438   3.572
 4683TIP3    H114055   5.241   1.503   3.602
 4683TIP3    H214056   5.304   1.370   3.639
 4684TIP3   OH214057   1.376   5.488   0.586
 4684TIP3    H114058   1.464   5.485   0.622
 4684TIP3    H214059   1.349   5.579   0.594
 4685TIP3   OH214060   3.424   5.850   2.158
 4685TIP3    H114061   3.436   5.937   2.121
 4685TIP3    H214062   3.333   5.848   2.186
 4686TIP3   OH214063   5.737   0.622   3.994
 4686TIP3    H114064   5.815   0.616   4.048
 4686TIP3    H214065   5.671   0.572   4.040
 4687TIP3   OH214066   5.957   4.365   0.331
 4687TIP3    H114067   6.018   4.413   0.276
 4687TIP3    H214068   5.979   4.392   0.420
 4688TIP3   OH214069   0.905   4.481   1.339
 4688TIP3    H114070   0.895   4.425   1.262
 4688TIP3    H214071   0.822   4.471   1.386
 4689TIP3   OH214072   1.469   2.231   0.190
 4689TIP3    H114073   1.429   2.154   0.150
 4689TIP3    H214074   1.436   2.232   0.280
 4690TIP3   OH214075   5.218   3.281   5.040
 4690TIP3    H114076   5.285   3.213   5.033
 4690TIP3    H214077   5.139   3.234   5.064
 4691TIP3   OH214078   0.494   3.467   2.834
 4691TIP3    H114079   0.540   3.426   2.762
 4691TIP3    H214080   0.543   3.548   2.852
 4692TIP3   OH214081   0.430   1.734   1.903
 4692TIP3    H114082   0.433   1.744   1.808
 4692TIP3    H214083   0.507   1.681   1.924
 4693TIP3   OH214084   2.340   3.185   1.196
 4693TIP3    H114085   2.416   3.172   1.253
 4693TIP3    H214086   2.367   3.254   1.135
 4694TIP3   OH214087   5.496   1.766   3.709
 4694TIP3    H114088   5.557   1.839   3.710
 4694TIP3    H214089   5.514   1.721   3.626
 4695TIP3   OH214090   0.704   5.342   4.327
 4695TIP3    H114091   0.718   5.430   4.291
 4695TIP3    H214092   0.609   5.333   4.332
 4696TIP3   OH214093   4.615   2.617   3.711
 4696TIP3    H114094   4.596   2.711   3.704
 4696TIP3    H214095   4.545   2.575   3.662
 4697TIP3   OH214096   2.466   3.786   0.680
 4697TIP3    H114097   2.505   3.859   0.729
 4697TIP3    H214098   2.374   3.787   0.706
 4698TIP3   OH214099   3.694   2.567   2.637
 4698TIP3    H114100   3.758   2.507   2.600
 4698TIP3    H214101   3.742   2.615   2.704
 4699TIP3   OH214102   5.476   0.117   1.771
 4699TIP3    H114103   5.466   0.211   1.753
 4699TIP3    H214104   5.566   0.097   1.743
 4700TIP3   OH214105   1.234   4.402   4.141
 4700TIP3    H114106   1.229   4.328   4.200
 4700TIP3    H214107   1.203   4.477   4.193
 4701TIP3   OH214108   5.088   1.258   1.552
 4701TIP3    H114109   5.172   1.284   1.590
 4701TIP3    H214110   5.030   1.246   1.627
 4702TIP3   OH214111   0.669   2.164   1.984
 4702TIP3    H114112   0.691   2.217   2.061
 4702TIP3    H214113   0.643   2.079   2.020
 4703TIP3   OH214114   3.495   3.422   1.169
 4703TIP3    H114115   3.429   3.487   1.146
 4703TIP3    H214116   3.457   3.375   1.243
 4704TIP3   OH214117   1.087   4.513   0.808
 4704TIP3    H114118   1.091   4.596   0.761
 4704TIP3    H214119   1.150   4.457   0.764
 4705TIP3   OH214120   2.842   1.408   2.289
 4705TIP3    H114121   2.814   1.371   2.373
 4705TIP3    H214122   2.773   1.469   2.265
 4706TIP3   OH214123   0.754   0.757   1.231
 4706TIP3    H114124   0.735   0.833   1.175
 4706TIP3    H214125   0.806   0.699   1.176
 4707TIP3   OH214126   0.557   5.056   5.027
 4707TIP3    H114127   0.566   4.986   4.963
 4707TIP3    H214128   0.507   5.124   4.982
 4708TIP3   OH214129   4.890   1.966   2.980
 4708TIP3    H114130   4.827   1.897   2.959
 4708TIP3    H214131   4.945   1.928   3.049
 4709TIP3   OH214132   4.443   3.403   3.181
 4709TIP3    H114133   4.489   3.319   3.175
 4709TIP3    H214134   4.403   3.402   3.268
 4710TIP3   OH214135   1.052   4.732   2.117
 4710TIP3    H114136   1.086   4.807   2.069
 4710TIP3    H214137   1.123   4.707   2.176
 4711TIP3   OH214138   0.493   2.327   4.371
 4711TIP3    H114139   0.411   2.280   4.359
 4711TIP3    H214140   0.511   2.365   4.285
 4712TIP3   OH214141   1.187   1.478   4.314
 4712TIP3    H114142   1.195   1.446   4.404
 4712TIP3    H214143   1.214   1.405   4.260
 4713TIP3   OH214144   1.296   0.648   4.704
 4713TIP3    H114145   1.201   0.658   4.695
 4713TIP3    H214146   1.320   0.588   4.634
 4714TIP3   OH214147   4.114   3.347   5.068
 4714TIP3    H114148   4.043   3.379   5.124
 4714TIP3    H214149   4.154   3.426   5.032
 4715TIP3   OH214150   5.778   5.202   1.157
 4715TIP3    H114151   5.769   5.267   1.227
 4715TIP3    H214152   5.812   5.252   1.082
 4716TIP3   OH214153   1.016   1.303   0.452
 4716TIP3    H114154   0.949   1.369   0.472
 4716TIP3    H214155   1.057   1.285   0.537
 4717TIP3   OH214156   3.304   1.668   4.957
 4717TIP3    H114157   3.324   1.575   4.950
 4717TIP3    H214158   3.209   1.673   4.945
 4718TIP3   OH214159   4.767   3.290   0.886
 4718TIP3    H114160   4.711   3.321   0.814
 4718TIP3    H214161   4.847   3.341   0.878
 4719TIP3   OH214162   0.661   5.215   3.646
 4719TIP3    H114163   0.617   5.160   3.581
 4719TIP3    H214164   0.754   5.204   3.627
 4720TIP3   OH214165   3.381   2.681   5.147
 4720TIP3    H114166   3.440   2.647   5.214
 4720TIP3    H214167   3.296   2.688   5.191
 4721TIP3   OH214168   4.172   4.826   3.686
 4721TIP3    H114169   4.217   4.746   3.656
 4721TIP3    H214170   4.150   4.872   3.605
 4722TIP3   OH214171   3.475   2.917   4.657
 4722TIP3    H114172   3.538   2.977   4.697
 4722TIP3    H214173   3.451   2.857   4.728
 4723TIP3   OH214174   2.783   1.665   4.192
 4723TIP3    H114175   2.707   1.719   4.214
 4723TIP3    H214176   2.858   1.719   4.215
 4724TIP3   OH214177   0.609   4.953   2.159
 4724TIP3    H114178   0.562   4.990   2.233
 4724TIP3    H214179   0.645   4.870   2.192
 4725TIP3   OH214180   0.205   3.963   0.984
 4725TIP3    H114181   0.291   3.921   0.987
 4725TIP3    H214182   0.159   3.919   0.913
 4726TIP3   OH214183   1.467   3.072   1.371
 4726TIP3    H114184   1.503   3.042   1.455
 4726TIP3    H214185   1.408   3.003   1.344
 4727TIP3   OH214186   2.259   5.279   1.502
 4727TIP3    H114187   2.261   5.184   1.515
 4727TIP3    H214188   2.292   5.315   1.584
 4728TIP3   OH214189   5.035   1.791   4.691
 4728TIP3    H114190   5.042   1.848   4.614
 4728TIP3    H214191   5.088   1.715   4.669
 4729TIP3   OH214192   1.161   3.526   2.983
 4729TIP3    H114193   1.077   3.523   2.938
 4729TIP3    H214194   1.186   3.434   2.993
 4730TIP3   OH214195   5.438   4.742   5.144
 4730TIP3    H114196   5.409   4.716   5.057
 4730TIP3    H214197   5.360   4.778   5.186
 4731TIP3   OH214198   1.806   4.961   4.484
 4731TIP3    H114199   1.863   5.000   4.417
 4731TIP3    H214200   1.717   4.974   4.449
 4732TIP3   OH214201   1.762   0.061   1.864
 4732TIP3    H114202   1.780  -0.033   1.865
 4732TIP3    H214203   1.845   0.101   1.890
 4733TIP3   OH214204   6.060   3.405   0.295
 4733TIP3    H114205   6.046   3.382   0.387
 4733TIP3    H214206   5.971   3.413   0.260
 4734TIP3   OH214207   0.665   4.063   2.998
 4734TIP3    H114208   0.600   4.051   3.067
 4734TIP3    H214209   0.726   4.128   3.032
 4735TIP3   OH214210   5.901   1.202   2.664
 4735TIP3    H114211   5.844   1.242   2.598
 4735TIP3    H214212   5.929   1.275   2.719
 4736TIP3   OH214213   4.064   0.084   2.145
 4736TIP3    H114214   4.060   0.164   2.093
 4736TIP3    H214215   3.983   0.037   2.122
 4737TIP3   OH214216   5.215   2.436   3.603
 4737TIP3    H114217   5.306   2.406   3.596
 4737TIP3    H214218   5.218   2.505   3.669
 4738TIP3   OH214219   1.057   5.516   0.283
 4738TIP3    H114220   1.054   5.598   0.234
 4738TIP3    H214221   1.149   5.490   0.281
 4739TIP3   OH214222   1.026   0.782   2.262
 4739TIP3    H114223   1.018   0.719   2.190
 4739TIP3    H214224   1.091   0.744   2.321
 4740TIP3   OH214225   3.228   4.005   1.422
 4740TIP3    H114226   3.295   4.060   1.464
 4740TIP3    H214227   3.219   4.042   1.334
 4741TIP3   OH214228   4.465   4.405   1.148
 4741TIP3    H114229   4.375   4.380   1.126
 4741TIP3    H214230   4.465   4.414   1.243
 4742TIP3   OH214231   5.969   3.033   5.044
 4742TIP3    H114232   5.965   3.112   5.099
 4742TIP3    H214233   6.009   2.967   5.100
 4743TIP3   OH214234   5.948   1.175   0.838
 4743TIP3    H114235   5.989   1.092   0.865
 4743TIP3    H214236   6.022   1.232   0.819
 4744TIP3   OH214237   0.370   1.597   0.226
 4744TIP3    H114238   0.399   1.558   0.144
 4744TIP3    H214239   0.442   1.653   0.253
 4745TIP3   OH214240   1.205   1.347   4.550
 4745TIP3    H114241   1.146   1.281   4.588
 4745TIP3    H214242   1.281   1.345   4.608
 4746TIP3   OH214243   0.099   0.909   4.421
 4746TIP3    H114244   0.098   0.924   4.326
 4746TIP3    H214245   0.186   0.937   4.449
 4747TIP3   OH214246   3.856   2.774   4.645
 4747TIP3    H114247   3.850   2.862   4.608
 4747TIP3    H214248   3.855   2.788   4.740
 4748TIP3   OH214249   1.901   1.016   1.547
 4748TIP3    H114250   1.989   0.979   1.542
 4748TIP3    H214251   1.897   1.078   1.475
 4749TIP3   OH214252   4.796   2.326   2.625
 4749TIP3    H114253   4.882   2.337   2.666
 4749TIP3    H214254   4.791   2.233   2.603
 4750TIP3   OH214255   5.495   4.101   3.943
 4750TIP3    H114256   5.437   4.110   3.867
 4750TIP3    H214257   5.477   4.014   3.977
 4751TIP3   OH214258   0.847   1.654   1.465
 4751TIP3    H114259   0.790   1.729   1.481
 4751TIP3    H214260   0.812   1.585   1.522
 4752TIP3   OH214261   4.206   0.180   3.444
 4752TIP3    H114262   4.112   0.198   3.450
 4752TIP3    H214263   4.227   0.193   3.351
 4753TIP3   OH214264   3.089   4.599   1.535
 4753TIP3    H114265   3.030   4.571   1.465
 4753TIP3    H214266   3.154   4.528   1.542
 4754TIP3   OH214267   1.282   3.724   3.403
 4754TIP3    H114268   1.337   3.777   3.460
 4754TIP3    H214269   1.342   3.660   3.365
 4755TIP3   OH214270   3.287   5.217   4.996
 4755TIP3    H114271   3.206   5.196   4.950
 4755TIP3    H214272   3.355   5.207   4.929
 4756TIP3   OH214273   5.258   0.908   4.873
 4756TIP3    H114274   5.230   0.859   4.951
 4756TIP3    H214275   5.191   0.890   4.808
 4757TIP3   OH214276   3.717   5.214   3.801
 4757TIP3    H114277   3.733   5.127   3.835
 4757TIP3    H214278   3.684   5.200   3.712
 4758TIP3   OH214279   5.175   5.908   0.575
 4758TIP3    H114280   5.259   5.863   0.574
 4758TIP3    H214281   5.114   5.846   0.535
 4759TIP3   OH214282   5.584   0.824   0.791
 4759TIP3    H114283   5.564   0.839   0.698
 4759TIP3    H214284   5.564   0.908   0.833
 4760TIP3   OH214285   3.578   4.797   4.997
 4760TIP3    H114286   3.590   4.885   5.035
 4760TIP3    H214287   3.583   4.738   5.072
 4761TIP3   OH214288   5.920   1.801   1.314
 4761TIP3    H114289   5.866   1.758   1.380
 4761TIP3    H214290   5.876   1.782   1.231
 4762TIP3   OH214291   0.471   5.042   1.685
 4762TIP3    H114292   0.383   5.044   1.722
 4762TIP3    H214293   0.526   5.084   1.751
 4763TIP3   OH214294   4.571   0.376   4.166
 4763TIP3    H114295   4.635   0.305   4.167
 4763TIP3    H214296   4.523   0.367   4.248
 4764TIP3   OH214297   3.777   5.218   4.807
 4764TIP3    H114298   3.817   5.194   4.891
 4764TIP3    H214299   3.733   5.302   4.825
 4765TIP3   OH214300   0.827   4.932   1.870
 4765TIP3    H114301   0.747   4.881   1.857
 4765TIP3    H214302   0.891   4.891   1.812
 4766TIP3   OH214303   3.312   2.824   1.110
 4766TIP3    H114304   3.221   2.805   1.134
 4766TIP3    H214305   3.346   2.740   1.078
 4767TIP3   OH214306   5.057   2.071   1.628
 4767TIP3    H114307   5.073   2.159   1.664
 4767TIP3    H214308   4.981   2.039   1.677
 4768TIP3   OH214309   5.636   4.484   4.922
 4768TIP3    H114310   5.560   4.425   4.917
 4768TIP3    H214311   5.697   4.440   4.981
 4769TIP3   OH214312   5.974   5.100   3.891
 4769TIP3    H114313   5.956   5.041   3.965
 4769TIP3    H214314   6.069   5.110   3.891
 4770TIP3   OH214315   6.087   1.186   1.154
 4770TIP3    H114316   6.010   1.179   1.210
 4770TIP3    H214317   6.071   1.125   1.082
 4771TIP3   OH214318   0.194   1.466   0.437
 4771TIP3    H114319   0.274   1.499   0.397
 4771TIP3    H214320   0.140   1.543   0.451
 4772TIP3   OH214321   0.056   5.408   2.229
 4772TIP3    H114322   0.104   5.482   2.191
 4772TIP3    H214323  -0.001   5.448   2.294
 4773TIP3   OH214324   5.689   3.755   3.752
 4773TIP3    H114325   5.781   3.734   3.735
 4773TIP3    H214326   5.668   3.823   3.688
 4774TIP3   OH214327   3.822   3.060   2.956
 4774TIP3    H114328   3.772   3.059   2.875
 4774TIP3    H214329   3.893   2.998   2.941
 4775TIP3   OH214330   6.025   2.641   2.499
 4775TIP3    H114331   6.056   2.695   2.572
 4775TIP3    H214332   5.930   2.640   2.508
 4776TIP3   OH214333   3.734   1.482   0.255
 4776TIP3    H114334   3.677   1.544   0.209
 4776TIP3    H214335   3.807   1.468   0.195
 4777TIP3   OH214336   4.631   3.155   1.533
 4777TIP3    H114337   4.647   3.077   1.479
 4777TIP3    H214338   4.633   3.123   1.623
 4778TIP3   OH214339   1.989   1.676   0.077
 4778TIP3    H114340   2.029   1.661   0.163
 4778TIP3    H214341   2.044   1.626   0.016
 4779TIP3   OH214342   4.045   3.168   3.843
 4779TIP3    H114343   4.029   3.080   3.809
 4779TIP3    H214344   4.127   3.194   3.800
 4780TIP3   OH214345   1.677   2.111   1.686
 4780TIP3    H114346   1.766   2.141   1.704
 4780TIP3    H214347   1.676   2.020   1.714
 4781TIP3   OH214348   1.743   4.388   1.672
 4781TIP3    H114349   1.773   4.298   1.659
 4781TIP3    H214350   1.695   4.385   1.755
 4782TIP3   OH214351   3.182   2.688   1.470
 4782TIP3    H114352   3.257   2.631   1.453
 4782TIP3    H214353   3.119   2.631   1.514
 4783TIP3   OH214354   4.856   5.078   4.453
 4783TIP3    H114355   4.833   5.116   4.369
 4783TIP3    H214356   4.781   5.096   4.509
 4784TIP3   OH214357   0.769   4.911   3.634
 4784TIP3    H114358   0.760   4.853   3.709
 4784TIP3    H214359   0.681   4.915   3.597
 4785TIP3   OH214360   4.463   4.387   0.066
 4785TIP3    H114361   4.454   4.323  -0.005
 4785TIP3    H214362   4.487   4.335   0.143
 4786TIP3   OH214363   3.787   4.355   2.064
 4786TIP3    H114364   3.823   4.442   2.078
 4786TIP3    H214365   3.693   4.369   2.054
 4787TIP3   OH214366   0.670   0.171   4.392
 4787TIP3    H114367   0.583   0.131   4.402
 4787TIP3    H214368   0.678   0.228   4.469
 4788TIP3   OH214369   4.291   2.020  -0.032
 4788TIP3    H114370   4.326   1.975   0.045
 4788TIP3    H214371   4.198   2.033  -0.012
 4789TIP3   OH214372   0.744   3.538   0.116
 4789TIP3    H114373   0.706   3.524   0.029
 4789TIP3    H214374   0.696   3.613   0.150
 4790TIP3   OH214375   0.763   0.097   3.661
 4790TIP3    H114376   0.793   0.176   3.616
 4790TIP3    H214377   0.817   0.027   3.625
 4791TIP3   OH214378   0.393   2.785   1.106
 4791TIP3    H114379   0.410   2.693   1.086
 4791TIP3    H214380   0.318   2.782   1.165
 4792TIP3   OH214381   0.109   3.504   2.330
 4792TIP3    H114382   0.038   3.463   2.379
 4792TIP3    H214383   0.094   3.598   2.341
 4793TIP3   OH214384   3.813   2.963   4.277
 4793TIP3    H114385   3.873   2.986   4.205
 4793TIP3    H214386   3.802   2.868   4.270
 4794TIP3   OH214387   5.330   2.104   1.597
 4794TIP3    H114388   5.318   2.022   1.549
 4794TIP3    H214389   5.247   2.151   1.584
 4795TIP3   OH214390   1.673   2.878   1.615
 4795TIP3    H114391   1.761   2.841   1.627
 4795TIP3    H214392   1.636   2.828   1.542
 4796TIP3   OH214393   2.993   0.478   5.084
 4796TIP3    H114394   3.030   0.413   5.024
 4796TIP3    H214395   3.067   0.535   5.105
 4797TIP3   OH214396   0.438   3.211   4.339
 4797TIP3    H114397   0.505   3.149   4.370
 4797TIP3    H214398   0.441   3.283   4.402
 4798TIP3   OH214399   0.063   3.950   1.325
 4798TIP3    H114400   0.041   3.884   1.259
 4798TIP3    H214401   0.009   3.927   1.401
 4799TIP3   OH214402   0.147   3.667   0.261
 4799TIP3    H114403   0.147   3.686   0.355
 4799TIP3    H214404   0.115   3.577   0.255
 4800TIP3   OH214405   2.945   5.135   4.458
 4800TIP3    H114406   2.955   5.176   4.543
 4800TIP3    H214407   2.975   5.201   4.395
 4801TIP3   OH214408   5.007   2.150   3.392
 4801TIP3    H114409   5.033   2.102   3.471
 4801TIP3    H214410   5.059   2.230   3.395
 4802TIP3   OH214411   6.341   5.414   5.020
 4802TIP3    H114412   6.317   5.396   4.929
 4802TIP3    H214413   6.261   5.397   5.070
 4803TIP3   OH214414   6.307   4.799   0.834
 4803TIP3    H114415   6.320   4.759   0.748
 4803TIP3    H214416   6.247   4.740   0.880
 4804TIP3   OH214417   5.927   4.015   0.497
 4804TIP3    H114418   5.967   4.096   0.528
 4804TIP3    H214419   5.920   3.961   0.576
 4805TIP3   OH214420   2.726   1.352   5.157
 4805TIP3    H114421   2.674   1.432   5.169
 4805TIP3    H214422   2.790   1.354   5.229
 4806TIP3   OH214423   0.338   5.894   1.628
 4806TIP3    H114424   0.307   5.966   1.573
 4806TIP3    H214425   0.378   5.833   1.567
 4807TIP3   OH214426   5.853   3.854   4.503
 4807TIP3    H114427   5.947   3.847   4.517
 4807TIP3    H214428   5.815   3.856   4.591
 4808TIP3   OH214429   5.688   1.230   5.128
 4808TIP3    H114430   5.715   1.265   5.043
 4808TIP3    H214431   5.626   1.294   5.161
 4809TIP3   OH214432   2.696   4.551   0.186
 4809TIP3    H114433   2.728   4.585   0.103
 4809TIP3    H214434   2.705   4.625   0.247
 4810TIP3   OH214435   2.512   2.724   2.222
 4810TIP3    H114436   2.518   2.811   2.263
 4810TIP3    H214437   2.574   2.670   2.271
 4811TIP3   OH214438   0.376   3.550   1.611
 4811TIP3    H114439   0.347   3.468   1.572
 4811TIP3    H214440   0.304   3.611   1.596
 4812TIP3   OH214441   4.516   4.435   4.969
 4812TIP3    H114442   4.506   4.502   4.901
 4812TIP3    H214443   4.494   4.353   4.926
 4813TIP3   OH214444   0.512   1.422   4.401
 4813TIP3    H114445   0.540   1.503   4.443
 4813TIP3    H214446   0.543   1.353   4.461
 4814TIP3   OH214447   5.579   2.807   1.803
 4814TIP3    H114448   5.535   2.725   1.826
 4814TIP3    H214449   5.604   2.796   1.712
 4815TIP3   OH214450   0.379   5.465   1.584
 4815TIP3    H114451   0.428   5.548   1.583
 4815TIP3    H214452   0.440   5.401   1.620
 4816TIP3   OH214453   2.591   0.874   2.636
 4816TIP3    H114454   2.618   0.784   2.616
 4816TIP3    H214455   2.523   0.894   2.572
 4817TIP3   OH214456   3.061   4.502   3.137
 4817TIP3    H114457   2.999   4.462   3.076
 4817TIP3    H214458   3.104   4.428   3.180
 4818TIP3   OH214459   4.697   1.076   1.892
 4818TIP3    H114460   4.769   1.022   1.858
 4818TIP3    H214461   4.624   1.015   1.901
 4819TIP3   OH214462   2.860   5.461   1.473
 4819TIP3    H114463   2.922   5.526   1.506
 4819TIP3    H214464   2.803   5.443   1.548
 4820TIP3   OH214465   5.006   0.745   2.789
 4820TIP3    H114466   4.944   0.817   2.796
 4820TIP3    H214467   5.075   0.765   2.852
 4821TIP3   OH214468   2.724   5.085   1.319
 4821TIP3    H114469   2.787   5.105   1.250
 4821TIP3    H214470   2.683   5.169   1.340
 4822TIP3   OH214471   0.684   1.875   4.551
 4822TIP3    H114472   0.737   1.897   4.628
 4822TIP3    H214473   0.713   1.787   4.527
 4823TIP3   OH214474   5.540   5.213   0.854
 4823TIP3    H114475   5.585   5.289   0.890
 4823TIP3    H214476   5.596   5.186   0.780
 4824TIP3   OH214477   6.310   1.916   3.147
 4824TIP3    H114478   6.334   1.979   3.078
 4824TIP3    H214479   6.329   1.831   3.108
 4825TIP3   OH214480   2.406   4.032   1.710
 4825TIP3    H114481   2.342   4.063   1.645
 4825TIP3    H214482   2.399   4.094   1.782
 4826TIP3   OH214483   0.315   0.755   4.214
 4826TIP3    H114484   0.357   0.718   4.137
 4826TIP3    H214485   0.229   0.784   4.184
 4827TIP3   OH214486   2.505   1.003   4.694
 4827TIP3    H114487   2.453   1.032   4.770
 4827TIP3    H214488   2.441   0.965   4.634
 4828TIP3   OH214489   2.287   0.652   4.695
 4828TIP3    H114490   2.373   0.647   4.653
 4828TIP3    H214491   2.307   0.667   4.788
 4829TIP3   OH214492   1.617   3.942   5.157
 4829TIP3    H114493   1.683   3.990   5.207
 4829TIP3    H214494   1.646   3.851   5.161
 4830TIP3   OH214495   5.403   3.356   2.689
 4830TIP3    H114496   5.335   3.308   2.737
 4830TIP3    H214497   5.380   3.448   2.700
 4831TIP3   OH214498   6.227   4.528   1.820
 4831TIP3    H114499   6.247   4.462   1.886
 4831TIP3    H214500   6.275   4.500   1.742
 4832TIP3   OH214501   1.245   1.607   1.920
 4832TIP3    H114502   1.219   1.543   1.986
 4832TIP3    H214503   1.180   1.597   1.851
 4833TIP3   OH214504   4.949   1.397   0.445
 4833TIP3    H114505   4.891   1.431   0.513
 4833TIP3    H214506   5.033   1.439   0.461
 4834TIP3   OH214507   1.064   2.551   2.952
 4834TIP3    H114508   1.053   2.462   2.985
 4834TIP3    H214509   0.993   2.562   2.888
 4835TIP3   OH214510   0.579   2.567   2.356
 4835TIP3    H114511   0.492   2.578   2.394
 4835TIP3    H214512   0.598   2.651   2.313
 4836TIP3   OH214513   3.050   3.705   1.757
 4836TIP3    H114514   3.107   3.694   1.681
 4836TIP3    H214515   3.086   3.780   1.804
 4837TIP3   OH214516   3.485   4.765   1.363
 4837TIP3    H114517   3.481   4.861   1.369
 4837TIP3    H214518   3.395   4.739   1.342
 4838TIP3   OH214519   1.243   5.701   3.787
 4838TIP3    H114520   1.317   5.712   3.728
 4838TIP3    H214521   1.211   5.613   3.769
 4839TIP3   OH214522   5.192   0.642   4.678
 4839TIP3    H114523   5.261   0.625   4.742
 4839TIP3    H214524   5.173   0.557   4.640
 4840TIP3   OH214525   1.965   3.433   4.369
 4840TIP3    H114526   1.971   3.430   4.274
 4840TIP3    H214527   2.040   3.487   4.396
 4841TIP3   OH214528   6.142   0.494   3.049
 4841TIP3    H114529   6.196   0.536   2.982
 4841TIP3    H214530   6.052   0.504   3.017
 4842TIP3   OH214531   6.068   0.947   0.942
 4842TIP3    H114532   6.070   0.861   0.900
 4842TIP3    H214533   6.160   0.970   0.956
 4843TIP3   OH214534   1.034   2.947   1.514
 4843TIP3    H114535   0.940   2.963   1.505
 4843TIP3    H214536   1.040   2.858   1.550
 4844TIP3   OH214537   5.724   1.921   1.637
 4844TIP3    H114538   5.664   1.860   1.680
 4844TIP3    H214539   5.772   1.963   1.709
 4845TIP3   OH214540   1.764   1.398   1.398
 4845TIP3    H114541   1.686   1.427   1.351
 4845TIP3    H214542   1.740   1.406   1.491
 4846TIP3   OH214543   6.067   0.097   0.071
 4846TIP3    H114544   6.157   0.100   0.039
 4846TIP3    H214545   6.067   0.151   0.150
 4847TIP3   OH214546   4.590   5.717   1.716
 4847TIP3    H114547   4.504   5.707   1.757
 4847TIP3    H214548   4.614   5.629   1.690
 4848TIP3   OH214549   1.645   5.581   0.501
 4848TIP3    H114550   1.643   5.550   0.411
 4848TIP3    H214551   1.640   5.501   0.554
 4849TIP3   OH214552   2.175   1.555   1.435
 4849TIP3    H114553   2.133   1.531   1.518
 4849TIP3    H214554   2.102   1.584   1.380
 4850TIP3   OH214555   2.815   1.825   2.646
 4850TIP3    H114556   2.741   1.796   2.592
 4850TIP3    H214557   2.884   1.847   2.584
 4851TIP3   OH214558   2.527   4.857   1.284
 4851TIP3    H114559   2.583   4.935   1.280
 4851TIP3    H214560   2.575   4.796   1.341
 4852TIP3   OH214561   1.272   0.447   4.521
 4852TIP3    H114562   1.266   0.499   4.440
 4852TIP3    H214563   1.207   0.378   4.510
 4853TIP3   OH214564   3.781   3.317   3.623
 4853TIP3    H114565   3.803   3.276   3.706
 4853TIP3    H214566   3.817   3.257   3.557
 4854TIP3   OH214567   3.251   4.328   3.782
 4854TIP3    H114568   3.235   4.259   3.846
 4854TIP3    H214569   3.191   4.308   3.710
 4855TIP3   OH214570   3.929   3.669   1.897
 4855TIP3    H114571   3.913   3.755   1.935
 4855TIP3    H214572   3.845   3.623   1.905
 4856TIP3   OH214573   3.026   2.139   1.540
 4856TIP3    H114574   3.085   2.065   1.550
 4856TIP3    H214575   2.948   2.102   1.499
 4857TIP3   OH214576   3.922   0.044   3.306
 4857TIP3    H114577   3.859  -0.021   3.275
 4857TIP3    H214578   3.996   0.037   3.246
 4858TIP3   OH214579   1.236   0.591   2.370
 4858TIP3    H114580   1.317   0.640   2.389
 4858TIP3    H214581   1.258   0.536   2.295
 4859TIP3   OH214582   4.810   5.431   1.762
 4859TIP3    H114583   4.905   5.436   1.771
 4859TIP3    H214584   4.796   5.368   1.692
 4860TIP3   OH214585   4.066   4.363   2.382
 4860TIP3    H114586   4.087   4.335   2.471
 4860TIP3    H214587   4.062   4.458   2.387
 4861TIP3   OH214588   0.332   4.974   2.545
 4861TIP3    H114589   0.283   4.919   2.484
 4861TIP3    H214590   0.283   5.056   2.548
 4862TIP3   OH214591   4.038   1.258   3.165
 4862TIP3    H114592   4.040   1.339   3.114
 4862TIP3    H214593   4.032   1.287   3.256
 4863TIP3   OH214594   4.152   5.030   1.485
 4863TIP3    H114595   4.059   5.008   1.482
 4863TIP3    H214596   4.196   4.953   1.451
 4864TIP3   OH214597   2.896   2.994   5.022
 4864TIP3    H114598   2.931   3.011   4.935
 4864TIP3    H214599   2.826   2.931   5.008
 4865TIP3   OH214600   3.111   1.420   3.501
 4865TIP3    H114601   3.051   1.447   3.570
 4865TIP3    H214602   3.190   1.393   3.548
 4866TIP3   OH214603   1.415   4.749   2.221
 4866TIP3    H114604   1.386   4.662   2.247
 4866TIP3    H214605   1.369   4.766   2.139
 4867TIP3   OH214606   5.413   1.752   0.973
 4867TIP3    H114607   5.407   1.801   0.890
 4867TIP3    H214608   5.436   1.663   0.946
 4868TIP3   OH214609   5.189   4.287   0.574
 4868TIP3    H114610   5.206   4.379   0.552
 4868TIP3    H214611   5.272   4.256   0.610
 4869TIP3   OH214612   3.145   5.685   4.523
 4869TIP3    H114613   3.140   5.778   4.503
 4869TIP3    H214614   3.068   5.647   4.481
 4870TIP3   OH214615   6.105   2.013   3.724
 4870TIP3    H114616   6.116   2.059   3.808
 4870TIP3    H214617   6.035   1.950   3.740
 4871TIP3   OH214618   3.076   2.587   3.397
 4871TIP3    H114619   2.990   2.582   3.354
 4871TIP3    H214620   3.138   2.567   3.328
 4872TIP3   OH214621   5.214   3.495   1.558
 4872TIP3    H114622   5.143   3.436   1.585
 4872TIP3    H214623   5.282   3.438   1.524
 4873TIP3   OH214624   0.778   3.636   0.525
 4873TIP3    H114625   0.710   3.649   0.458
 4873TIP3    H214626   0.853   3.601   0.478
 4874TIP3   OH214627   4.764   2.162   1.794
 4874TIP3    H114628   4.786   2.255   1.808
 4874TIP3    H214629   4.744   2.129   1.881
 4875TIP3   OH214630   6.078   0.081   5.195
 4875TIP3    H114631   6.032   0.165   5.188
 4875TIP3    H214632   6.170   0.102   5.178
 4876TIP3   OH214633   2.935   3.664   1.426
 4876TIP3    H114634   3.005   3.707   1.475
 4876TIP3    H214635   2.882   3.620   1.493
 4877TIP3   OH214636   0.578   5.873   4.702
 4877TIP3    H114637   0.514   5.885   4.632
 4877TIP3    H214638   0.556   5.788   4.741
 4878TIP3   OH214639   4.007   1.742   1.615
 4878TIP3    H114640   4.048   1.734   1.701
 4878TIP3    H214641   3.917   1.769   1.634
 4879TIP3   OH214642   0.691   4.752   4.818
 4879TIP3    H114643   0.665   4.662   4.796
 4879TIP3    H214644   0.624   4.781   4.880
 4880TIP3   OH214645   3.597   4.774   1.960
 4880TIP3    H114646   3.529   4.831   1.996
 4880TIP3    H214647   3.575   4.767   1.867
 4881TIP3   OH214648   2.418   1.117   4.944
 4881TIP3    H114649   2.389   1.094   5.032
 4881TIP3    H214650   2.367   1.195   4.922
 4882TIP3   OH214651   1.923   3.075   2.858
 4882TIP3    H114652   2.013   3.102   2.838
 4882TIP3    H214653   1.900   3.016   2.786
 4883TIP3   OH214654   1.432   0.707   2.538
 4883TIP3    H114655   1.364   0.774   2.538
 4883TIP3    H214656   1.514   0.755   2.547
 4884TIP3   OH214657   3.113   5.847   1.922
 4884TIP3    H114658   3.047   5.814   1.983
 4884TIP3    H214659   3.098   5.942   1.919
 4885TIP3   OH214660   3.217   1.927   0.188
 4885TIP3    H114661   3.150   1.929   0.256
 4885TIP3    H214662   3.299   1.915   0.237
 4886TIP3   OH214663   1.173   3.480   3.518
 4886TIP3    H114664   1.256   3.440   3.544
 4886TIP3    H214665   1.196   3.570   3.496
 4887TIP3   OH214666   3.472   3.912   3.320
 4887TIP3    H114667   3.431   3.866   3.394
 4887TIP3    H214668   3.563   3.883   3.320
 4888TIP3   OH214669   1.968   3.356   0.853
 4888TIP3    H114670   2.009   3.280   0.894
 4888TIP3    H214671   2.033   3.425   0.861
 4889TIP3   OH214672   3.493   2.353   0.780
 4889TIP3    H114673   3.508   2.405   0.859
 4889TIP3    H214674   3.569   2.371   0.724
 4890TIP3   OH214675   3.451   5.472   2.718
 4890TIP3    H114676   3.463   5.503   2.628
 4890TIP3    H214677   3.540   5.448   2.747
 4891TIP3   OH214678   4.993   3.413   2.689
 4891TIP3    H114679   4.922   3.357   2.720
 4891TIP3    H214680   4.951   3.493   2.660
 4892TIP3   OH214681   1.286   2.284   2.671
 4892TIP3    H114682   1.285   2.377   2.648
 4892TIP3    H214683   1.198   2.267   2.705
 4893TIP3   OH214684   2.058   0.082   2.897
 4893TIP3    H114685   2.114   0.083   2.819
 4893TIP3    H214686   1.989   0.019   2.876
 4894TIP3   OH214687   3.531   2.502   4.515
 4894TIP3    H114688   3.530   2.540   4.603
 4894TIP3    H214689   3.442   2.468   4.503
 4895TIP3   OH214690   4.309   2.095   3.559
 4895TIP3    H114691   4.247   2.126   3.493
 4895TIP3    H214692   4.395   2.114   3.521
 4896TIP3   OH214693   2.859   1.695   4.578
 4896TIP3    H114694   2.911   1.622   4.612
 4896TIP3    H214695   2.785   1.654   4.533
 4897TIP3   OH214696   4.500   1.894   4.733
 4897TIP3    H114697   4.436   1.964   4.748
 4897TIP3    H214698   4.473   1.854   4.650
 4898TIP3   OH214699   5.892   0.469   2.922
 4898TIP3    H114700   5.820   0.406   2.927
 4898TIP3    H214701   5.917   0.470   2.829
 4899TIP3   OH214702   1.127   1.542   4.881
 4899TIP3    H114703   1.217   1.557   4.912
 4899TIP3    H214704   1.130   1.455   4.841
 4900TIP3   OH214705   1.460   2.400   3.421
 4900TIP3    H114706   1.461   2.362   3.509
 4900TIP3    H214707   1.505   2.484   3.430
 4901TIP3   OH214708   0.776   4.496   3.552
 4901TIP3    H114709   0.783   4.401   3.565
 4901TIP3    H214710   0.720   4.526   3.624
 4902TIP3   OH214711   3.009   4.179   3.695
 4902TIP3    H114712   3.046   4.135   3.772
 4902TIP3    H214713   2.952   4.113   3.655
 4903TIP3   OH214714   6.284   1.094   0.327
 4903TIP3    H114715   6.189   1.102   0.337
 4903TIP3    H214716   6.309   1.029   0.393
 4904TIP3   OH214717   5.794   2.809   0.073
 4904TIP3    H114718   5.800   2.808   0.168
 4904TIP3    H214719   5.716   2.861   0.054
 4905TIP3   OH214720   4.516   5.682   2.860
 4905TIP3    H114721   4.500   5.588   2.869
 4905TIP3    H214722   4.519   5.715   2.950
 4906TIP3   OH214723   1.166   3.642   1.220
 4906TIP3    H114724   1.126   3.653   1.134
 4906TIP3    H214725   1.258   3.663   1.206
 4907TIP3   OH214726   1.468   0.490   3.693
 4907TIP3    H114727   1.391   0.513   3.642
 4907TIP3    H214728   1.514   0.573   3.708
 4908TIP3   OH214729   1.885   5.168   3.535
 4908TIP3    H114730   1.906   5.078   3.561
 4908TIP3    H214731   1.959   5.220   3.568
 4909TIP3   OH214732   4.528   5.177   5.098
 4909TIP3    H114733   4.611   5.218   5.072
 4909TIP3    H214734   4.551   5.116   5.167
 4910TIP3   OH214735   2.047   2.503   3.020
 4910TIP3    H114736   1.957   2.472   3.022
 4910TIP3    H214737   2.044   2.586   3.068
 4911TIP3   OH214738   2.849   3.826   2.975
 4911TIP3    H114739   2.802   3.752   3.014
 4911TIP3    H214740   2.925   3.786   2.933
 4912TIP3   OH214741   3.107   3.706   4.548
 4912TIP3    H114742   3.179   3.653   4.512
 4912TIP3    H214743   3.044   3.711   4.476
 4913TIP3   OH214744   0.388   3.795   4.443
 4913TIP3    H114745   0.417   3.809   4.533
 4913TIP3    H214746   0.427   3.868   4.394
 4914TIP3   OH214747   3.911   0.639   2.953
 4914TIP3    H114748   3.823   0.666   2.977
 4914TIP3    H214749   3.917   0.548   2.984
 4915TIP3   OH214750   0.082   1.273   4.602
 4915TIP3    H114751   0.011   1.227   4.647
 4915TIP3    H214752   0.057   1.270   4.509
 4916TIP3   OH214753   3.169   0.327   4.589
 4916TIP3    H114754   3.142   0.366   4.506
 4916TIP3    H214755   3.181   0.234   4.570
 4917TIP3   OH214756   0.304   3.868   4.920
 4917TIP3    H114757   0.222   3.897   4.879
 4917TIP3    H214758   0.278   3.837   5.006
 4918TIP3   OH214759   1.444   5.020   3.717
 4918TIP3    H114760   1.538   5.008   3.726
 4918TIP3    H214761   1.433   5.065   3.634
 4919TIP3   OH214762   2.571   4.631   1.083
 4919TIP3    H114763   2.600   4.580   1.159
 4919TIP3    H214764   2.566   4.721   1.114
 4920TIP3   OH214765   0.694   0.078   1.303
 4920TIP3    H114766   0.728   0.129   1.377
 4920TIP3    H214767   0.771   0.037   1.265
 4921TIP3   OH214768   0.925   0.912   2.484
 4921TIP3    H114769   0.939   0.864   2.402
 4921TIP3    H214770   1.004   0.895   2.535
 4922TIP3   OH214771   2.219   1.424   1.110
 4922TIP3    H114772   2.204   1.432   1.016
 4922TIP3    H214773   2.251   1.510   1.137
 4923TIP3   OH214774   0.559   1.576   4.649
 4923TIP3    H114775   0.466   1.593   4.643
 4923TIP3    H214776   0.566   1.496   4.702
 4924TIP3   OH214777   5.330   4.603   3.426
 4924TIP3    H114778   5.361   4.689   3.398
 4924TIP3    H214779   5.235   4.610   3.423
 4925TIP3   OH214780   2.615   0.816   2.338
 4925TIP3    H114781   2.698   0.863   2.351
 4925TIP3    H214782   2.549   0.884   2.334
 4926TIP3   OH214783   1.202   3.243   2.915
 4926TIP3    H114784   1.284   3.196   2.901
 4926TIP3    H214785   1.155   3.190   2.979
 4927TIP3   OH214786   0.154   2.543   3.693
 4927TIP3    H114787   0.077   2.532   3.637
 4927TIP3    H214788   0.163   2.459   3.737
 4928TIP3   OH214789   2.000   4.138   3.951
 4928TIP3    H114790   1.959   4.069   3.899
 4928TIP3    H214791   2.088   4.147   3.915
 4929TIP3   OH214792   4.612   1.575   1.111
 4929TIP3    H114793   4.668   1.641   1.154
 4929TIP3    H214794   4.579   1.522   1.183
 4930TIP3   OH214795   4.787   2.056   2.579
 4930TIP3    H114796   4.727   1.999   2.530
 4930TIP3    H214797   4.803   2.009   2.661
 4931TIP3   OH214798   3.400   1.922   1.252
 4931TIP3    H114799   3.493   1.903   1.266
 4931TIP3    H214800   3.361   1.836   1.239
 4932TIP3   OH214801   3.108   5.662   1.218
 4932TIP3    H114802   3.180   5.673   1.280
 4932TIP3    H214803   3.050   5.736   1.235
 4933TIP3   OH214804   1.747   2.010   1.174
 4933TIP3    H114805   1.717   2.075   1.238
 4933TIP3    H214806   1.742   2.056   1.090
 4934TIP3   OH214807   4.797   4.977   1.404
 4934TIP3    H114808   4.825   4.990   1.314
 4934TIP3    H214809   4.703   4.960   1.398
 4935TIP3   OH214810   3.993   4.461   0.509
 4935TIP3    H114811   4.002   4.424   0.596
 4935TIP3    H214812   3.961   4.550   0.524
 4936TIP3   OH214813   6.018   1.287   3.380
 4936TIP3    H114814   5.962   1.333   3.316
 4936TIP3    H214815   6.075   1.232   3.326
 4937TIP3   OH214816   3.018   5.611   2.845
 4937TIP3    H114817   3.045   5.530   2.888
 4937TIP3    H214818   2.958   5.583   2.775
 4938TIP3   OH214819   2.594   5.548   1.144
 4938TIP3    H114820   2.688   5.537   1.157
 4938TIP3    H214821   2.565   5.600   1.220
 4939TIP3   OH214822   2.870   1.318   4.800
 4939TIP3    H114823   2.795   1.316   4.740
 4939TIP3    H214824   2.841   1.270   4.877
 4940TIP3   OH214825   3.621   2.836   1.415
 4940TIP3    H114826   3.712   2.855   1.394
 4940TIP3    H214827   3.624   2.767   1.481
 4941TIP3   OH214828   2.398   0.703   3.285
 4941TIP3    H114829   2.356   0.736   3.206
 4941TIP3    H214830   2.393   0.775   3.348
 4942TIP3   OH214831   1.315   1.594   1.076
 4942TIP3    H114832   1.390   1.586   1.016
 4942TIP3    H214833   1.341   1.662   1.138
 4943TIP3   OH214834   5.474   4.262   4.860
 4943TIP3    H114835   5.519   4.183   4.832
 4943TIP3    H214836   5.386   4.232   4.884
 4944TIP3   OH214837   1.776   0.782   5.049
 4944TIP3    H114838   1.717   0.785   4.974
 4944TIP3    H214839   1.839   0.713   5.029
 4945TIP3   OH214840   2.800   3.173   3.764
 4945TIP3    H114841   2.763   3.260   3.781
 4945TIP3    H214842   2.855   3.185   3.687
 4946TIP3   OH214843   4.654   2.721   2.891
 4946TIP3    H114844   4.646   2.816   2.884
 4946TIP3    H214845   4.620   2.687   2.808
 4947TIP3   OH214846   1.089   4.294   1.439
 4947TIP3    H114847   1.029   4.219   1.437
 4947TIP3    H214848   1.034   4.369   1.415
 4948TIP3   OH214849   2.362   2.353   2.279
 4948TIP3    H114850   2.327   2.436   2.246
 4948TIP3    H214851   2.285   2.304   2.307
 4949TIP3   OH214852   0.945   1.815   0.478
 4949TIP3    H114853   0.920   1.774   0.396
 4949TIP3    H214854   1.039   1.801   0.485
 4950TIP3   OH214855   4.064   1.489   1.033
 4950TIP3    H114856   4.138   1.440   1.068
 4950TIP3    H214857   3.997   1.484   1.102
 4951TIP3   OH214858   1.895   4.364   3.723
 4951TIP3    H114859   1.884   4.274   3.754
 4951TIP3    H214860   1.832   4.415   3.773
 4952TIP3   OH214861   6.088   4.218   3.035
 4952TIP3    H114862   6.162   4.178   2.989
 4952TIP3    H214863   6.017   4.154   3.025
 4953TIP3   OH214864   5.700   0.904   3.965
 4953TIP3    H114865   5.682   0.913   3.871
 4953TIP3    H214866   5.686   0.811   3.983
 4954TIP3   OH214867   0.339   0.910   3.137
 4954TIP3    H114868   0.299   0.823   3.138
 4954TIP3    H214869   0.275   0.965   3.090
 4955TIP3   OH214870   3.743   4.565   1.167
 4955TIP3    H114871   3.656   4.604   1.177
 4955TIP3    H214872   3.795   4.635   1.128
 4956TIP3   OH214873   5.813   5.902   2.462
 4956TIP3    H114874   5.878   5.875   2.397
 4956TIP3    H214875   5.858   5.965   2.517
 4957TIP3   OH214876   6.221   2.964   2.857
 4957TIP3    H114877   6.308   3.001   2.842
 4957TIP3    H214878   6.215   2.956   2.952
 4958TIP3   OH214879   3.841   2.038   3.368
 4958TIP3    H114880   3.833   1.957   3.317
 4958TIP3    H214881   3.826   2.011   3.459
 4959TIP3   OH214882   3.841   1.867   5.106
 4959TIP3    H114883   3.864   1.783   5.066
 4959TIP3    H214884   3.766   1.846   5.162
 4960TIP3   OH214885   1.279   0.395   3.923
 4960TIP3    H114886   1.318   0.473   3.883
 4960TIP3    H214887   1.192   0.424   3.952
 4961TIP3   OH214888   0.831   0.495   3.270
 4961TIP3    H114889   0.793   0.575   3.307
 4961TIP3    H214890   0.895   0.527   3.206
 4962TIP3   OH214891   1.515   4.519   0.520
 4962TIP3    H114892   1.570   4.590   0.486
 4962TIP3    H214893   1.508   4.538   0.614
 4963TIP3   OH214894   4.085   1.958   0.980
 4963TIP3    H114895   4.090   1.998   0.893
 4963TIP3    H214896   4.042   1.874   0.965
 4964TIP3   OH214897   3.044   5.164   3.220
 4964TIP3    H114898   3.117   5.103   3.236
 4964TIP3    H214899   2.999   5.127   3.144
 4965TIP3   OH214900   1.469   4.950   0.932
 4965TIP3    H114901   1.415   5.026   0.953
 4965TIP3    H214902   1.554   4.986   0.908
 4966TIP3   OH214903   0.456   1.404   2.205
 4966TIP3    H114904   0.481   1.387   2.114
 4966TIP3    H214905   0.533   1.378   2.256
 4967TIP3   OH214906   6.273   3.836   3.698
 4967TIP3    H114907   6.258   3.742   3.692
 4967TIP3    H214908   6.187   3.873   3.718
 4968TIP3   OH214909   1.799   0.046   2.604
 4968TIP3    H114910   1.769   0.040   2.694
 4968TIP3    H214911   1.870  -0.018   2.597
 4969TIP3   OH214912   6.274   2.527   1.094
 4969TIP3    H114913   6.207   2.459   1.105
 4969TIP3    H214914   6.228   2.608   1.116
 4970TIP3   OH214915   1.022   4.557   5.154
 4970TIP3    H114916   0.989   4.644   5.130
 4970TIP3    H214917   0.954   4.497   5.124
 4971TIP3   OH214918   3.780   4.361   3.706
 4971TIP3    H114919   3.853   4.417   3.679
 4971TIP3    H214920   3.768   4.300   3.633
 4972TIP3   OH214921   4.540   2.817   3.260
 4972TIP3    H114922   4.568   2.901   3.297
 4972TIP3    H214923   4.482   2.779   3.326
 4973TIP3   OH214924   4.470   0.649   3.826
 4973TIP3    H114925   4.433   0.615   3.907
 4973TIP3    H214926   4.433   0.737   3.818
 4974TIP3   OH214927   3.360   2.633   1.906
 4974TIP3    H114928   3.373   2.604   1.816
 4974TIP3    H214929   3.295   2.572   1.942
 4975TIP3   OH214930   5.348   0.122   4.871
 4975TIP3    H114931   5.371   0.112   4.779
 4975TIP3    H214932   5.253   0.137   4.871
 4976TIP3   OH214933   3.906   2.601   3.987
 4976TIP3    H114934   3.958   2.678   3.965
 4976TIP3    H214935   3.948   2.565   4.066
 4977TIP3   OH214936   2.495   5.102   2.180
 4977TIP3    H114937   2.471   5.128   2.269
 4977TIP3    H214938   2.460   5.013   2.171
 4978TIP3   OH214939   1.348   3.750   0.825
 4978TIP3    H114940   1.377   3.665   0.858
 4978TIP3    H214941   1.264   3.766   0.869
 4979TIP3   OH214942   6.104   4.833   1.570
 4979TIP3    H114943   6.049   4.804   1.498
 4979TIP3    H214944   6.177   4.879   1.528
 4980TIP3   OH214945   0.608   4.579   3.751
 4980TIP3    H114946   0.517   4.603   3.738
 4980TIP3    H214947   0.605   4.501   3.808
 4981TIP3   OH214948   0.999   3.148   3.577
 4981TIP3    H114949   0.983   3.225   3.523
 4981TIP3    H214950   0.970   3.172   3.665
 4982TIP3   OH214951   2.752   1.155   4.985
 4982TIP3    H114952   2.735   1.228   5.045
 4982TIP3    H214953   2.666   1.134   4.948
 4983TIP3   OH214954   1.207   2.164   3.020
 4983TIP3    H114955   1.296   2.176   3.052
 4983TIP3    H214956   1.199   2.224   2.945
 4984TIP3   OH214957   3.138   3.318   2.380
 4984TIP3    H114958   3.071   3.353   2.321
 4984TIP3    H214959   3.213   3.301   2.324
 4985TIP3   OH214960   3.812   4.311   1.088
 4985TIP3    H114961   3.783   4.402   1.086
 4985TIP3    H214962   3.861   4.299   1.006
 4986TIP3   OH214963   6.290   4.958   1.440
 4986TIP3    H114964   6.330   4.921   1.361
 4986TIP3    H214965   6.304   5.053   1.431
 4987TIP3   OH214966   2.455   4.561   2.523
 4987TIP3    H114967   2.380   4.620   2.521
 4987TIP3    H214968   2.517   4.602   2.584
 4988TIP3   OH214969   6.340   2.358   2.196
 4988TIP3    H114970   6.246   2.342   2.210
 4988TIP3    H214971   6.367   2.409   2.272
 4989TIP3   OH214972   2.312   4.364   2.422
 4989TIP3    H114973   2.367   4.295   2.384
 4989TIP3    H214974   2.374   4.431   2.450
 4990TIP3   OH214975   6.174   1.132   3.219
 4990TIP3    H114976   6.111   1.062   3.205
 4990TIP3    H214977   6.254   1.088   3.248
 4991TIP3   OH214978   3.185   3.931   2.956
 4991TIP3    H114979   3.123   3.873   2.911
 4991TIP3    H214980   3.171   4.016   2.915
 4992TIP3   OH214981   0.683   3.813   2.483
 4992TIP3    H114982   0.596   3.830   2.518
 4992TIP3    H214983   0.697   3.720   2.498
 4993TIP3   OH214984   1.503   2.689   4.566
 4993TIP3    H114985   1.519   2.670   4.659
 4993TIP3    H214986   1.585   2.667   4.522
 4994TIP3   OH214987   3.721   1.898   2.109
 4994TIP3    H114988   3.815   1.900   2.128
 4994TIP3    H214989   3.679   1.910   2.194
 4995TIP3   OH214990   2.541   5.736   3.339
 4995TIP3    H114991   2.491   5.709   3.262
 4995TIP3    H214992   2.507   5.681   3.410
 4996TIP3   OH214993   5.507   1.298   2.760
 4996TIP3    H114994   5.459   1.381   2.762
 4996TIP3    H214995   5.598   1.322   2.774
 4997TIP3   OH214996   3.494   1.964  -0.001
 4997TIP3    H114997   3.509   1.963   0.093
 4997TIP3    H214998   3.423   1.901  -0.015
 4998TIP3   OH214999   4.896   2.378   1.516
 4998TIP3    H115000   4.988   2.356   1.527
 4998TIP3    H215001   4.877   2.358   1.424
 4999TIP3   OH215002   5.405   1.489   0.187
 4999TIP3    H115003   5.358   1.488   0.103
 4999TIP3    H215004   5.476   1.552   0.173
 5000TIP3   OH215005   1.895   2.224   1.903
 5000TIP3    H115006   1.938   2.278   1.969
 5000TIP3    H215007   1.832   2.171   1.952
 5001TIP3   OH215008   1.014   2.885   3.603
 5001TIP3    H115009   1.025   2.815   3.539
 5001TIP3    H215010   1.013   2.965   3.551
 5002TIP3   OH215011   6.177   0.457   0.979
 5002TIP3    H115012   6.252   0.444   0.921
 5002TIP3    H215013   6.205   0.526   1.039
 5003TIP3   OH215014   6.291   0.556   3.972
 5003TIP3    H115015   6.269   0.486   4.033
 5003TIP3    H215016   6.378   0.585   3.999
 5004TIP3   OH215017   5.134   4.302   0.150
 5004TIP3    H115018   5.193   4.282   0.078
 5004TIP3    H215019   5.110   4.394   0.137
 5005TIP3   OH215020   5.333   1.349   1.659
 5005TIP3    H115021   5.410   1.400   1.632
 5005TIP3    H215022   5.370   1.265   1.687
 5006TIP3   OH215023   0.425   2.939   0.014
 5006TIP3    H115024   0.452   2.946   0.106
 5006TIP3    H215025   0.347   2.994   0.008
 5007TIP3   OH215026   1.408   3.696   3.069
 5007TIP3    H115027   1.477   3.629   3.061
 5007TIP3    H215028   1.329   3.653   3.035
 5008TIP3   OH215029   2.972   5.451   2.073
 5008TIP3    H115030   2.942   5.481   1.987
 5008TIP3    H215031   3.021   5.526   2.108
 5009TIP3   OH215032   1.800   0.881   2.842
 5009TIP3    H115033   1.819   0.952   2.903
 5009TIP3    H215034   1.871   0.885   2.777
 5010TIP3   OH215035   6.290   3.059   1.465
 5010TIP3    H115036   6.263   3.136   1.515
 5010TIP3    H215037   6.335   3.003   1.529
 5011TIP3   OH215038   1.165   3.396   0.582
 5011TIP3    H115039   1.221   3.443   0.520
 5011TIP3    H215040   1.110   3.340   0.527
 5012TIP3   OH215041   5.471   1.636   4.139
 5012TIP3    H115042   5.390   1.585   4.132
 5012TIP3    H215043   5.536   1.574   4.172
 5013TIP3   OH215044   1.587   0.258   5.067
 5013TIP3    H115045   1.513   0.225   5.118
 5013TIP3    H215046   1.597   0.195   4.995
 5014TIP3   OH215047   1.304   5.293   0.790
 5014TIP3    H115048   1.330   5.352   0.719
 5014TIP3    H215049   1.298   5.207   0.749
 5015TIP3   OH215050   1.224   0.967   0.038
 5015TIP3    H115051   1.211   0.887   0.090
 5015TIP3    H215052   1.309   1.001   0.066
 5016TIP3   OH215053   3.586   2.904   5.154
 5016TIP3    H115054   3.508   2.954   5.179
 5016TIP3    H215055   3.552   2.818   5.129
 5017TIP3   OH215056   3.087   4.928   2.890
 5017TIP3    H115057   3.040   4.939   2.973
 5017TIP3    H215058   3.057   5.001   2.836
 5018TIP3   OH215059   0.848   5.003   4.120
 5018TIP3    H115060   0.931   4.973   4.085
 5018TIP3    H215061   0.796   5.026   4.042
 5019TIP3   OH215062   5.216   5.811   4.084
 5019TIP3    H115063   5.306   5.843   4.086
 5019TIP3    H215064   5.224   5.721   4.053
 5020TIP3   OH215065   1.068   0.973   2.057
 5020TIP3    H115066   1.053   0.905   2.123
 5020TIP3    H215067   0.984   0.984   2.013
 5021TIP3   OH215068   2.752   2.403   0.287
 5021TIP3    H115069   2.835   2.358   0.304
 5021TIP3    H215070   2.741   2.399   0.192
 5022TIP3   OH215071   4.178   4.958   4.470
 5022TIP3    H115072   4.139   4.980   4.385
 5022TIP3    H215073   4.126   5.007   4.533
 5023TIP3   OH215074   0.912   5.768   1.241
 5023TIP3    H115075   0.894   5.763   1.147
 5023TIP3    H215076   0.938   5.859   1.255
 5024TIP3   OH215077   5.275   3.594   3.669
 5024TIP3    H115078   5.267   3.655   3.596
 5024TIP3    H215079   5.309   3.646   3.741
 5025TIP3   OH215080   1.073   1.677   4.631
 5025TIP3    H115081   1.059   1.646   4.720
 5025TIP3    H215082   1.155   1.726   4.635
 5026TIP3   OH215083   6.063   1.414   2.795
 5026TIP3    H115084   6.135   1.404   2.857
 5026TIP3    H215085   5.984   1.393   2.846
 5027TIP3   OH215086   1.428   5.292   1.818
 5027TIP3    H115087   1.520   5.316   1.810
 5027TIP3    H215088   1.383   5.374   1.834
 5028TIP3   OH215089   2.925   1.154   0.698
 5028TIP3    H115090   2.842   1.105   0.700
 5028TIP3    H215091   2.899   1.242   0.668
 5029TIP3   OH215092   2.013   1.488   1.651
 5029TIP3    H115093   2.056   1.475   1.735
 5029TIP3    H215094   1.933   1.436   1.657
 5030TIP3   OH215095   2.482   5.692   4.022
 5030TIP3    H115096   2.539   5.677   3.947
 5030TIP3    H215097   2.419   5.620   4.020
 5031TIP3   OH215098   4.096   0.438   2.129
 5031TIP3    H115099   4.174   0.392   2.159
 5031TIP3    H215100   4.044   0.371   2.084
 5032TIP3   OH215101   0.644   5.338   3.228
 5032TIP3    H115102   0.680   5.257   3.192
 5032TIP3    H215103   0.557   5.344   3.189
 5033TIP3   OH215104   0.535   5.150   1.990
 5033TIP3    H115105   0.616   5.185   1.952
 5033TIP3    H215106   0.564   5.075   2.043
 5034TIP3   OH215107   1.717   3.686   0.653
 5034TIP3    H115108   1.659   3.656   0.723
 5034TIP3    H215109   1.688   3.775   0.634
 5035TIP3   OH215110   1.276   0.935   1.393
 5035TIP3    H115111   1.242   0.857   1.437
 5035TIP3    H215112   1.211   1.003   1.411
 5036TIP3   OH215113   1.597   3.008   3.726
 5036TIP3    H115114   1.527   3.056   3.771
 5036TIP3    H215115   1.573   2.916   3.737
 5037TIP3   OH215116   1.181   1.356   1.020
 5037TIP3    H115117   1.108   1.339   1.080
 5037TIP3    H215118   1.210   1.444   1.043
 5038TIP3   OH215119   2.924   1.735   2.073
 5038TIP3    H115120   2.837   1.764   2.101
 5038TIP3    H215121   2.911   1.646   2.042
 5039TIP3   OH215122   5.627   0.917   2.538
 5039TIP3    H115123   5.624   0.829   2.576
 5039TIP3    H215124   5.695   0.963   2.587
 5040TIP3   OH215125   1.292   4.731   5.008
 5040TIP3    H115126   1.309   4.752   4.916
 5040TIP3    H215127   1.217   4.671   5.005
 5041TIP3   OH215128   3.009   0.039   4.322
 5041TIP3    H115129   2.931  -0.002   4.284
 5041TIP3    H215130   2.992   0.133   4.314
 5042TIP3   OH215131   5.618   3.343   4.908
 5042TIP3    H115132   5.698   3.306   4.945
 5042TIP3    H215133   5.573   3.384   4.982
 5043TIP3   OH215134   5.905   3.457   4.884
 5043TIP3    H115135   5.894   3.363   4.891
 5043TIP3    H215136   5.994   3.473   4.916
 5044TIP3   OH215137   0.740   0.405   3.553
 5044TIP3    H115138   0.713   0.458   3.628
 5044TIP3    H215139   0.752   0.468   3.482
 5045TIP3   OH215140   1.409   3.995   1.031
 5045TIP3    H115141   1.342   4.007   1.098
 5045TIP3    H215142   1.435   3.903   1.039
 5046TIP3   OH215143   0.023   0.101   0.028
 5046TIP3    H115144   0.063   0.131   0.110
 5046TIP3    H215145   0.030   0.005   0.032
 5047TIP3   OH215146   5.403   5.900   1.951
 5047TIP3    H115147   5.324   5.848   1.963
 5047TIP3    H215148   5.443   5.904   2.037
 5048TIP3   OH215149   0.808   0.057   2.570
 5048TIP3    H115150   0.896   0.055   2.607
 5048TIP3    H215151   0.754   0.095   2.640
 5049TIP3   OH215152   5.242   1.397   2.573
 5049TIP3    H115153   5.232   1.406   2.667
 5049TIP3    H215154   5.158   1.360   2.543
 5050TIP3   OH215155   4.417   5.701   2.153
 5050TIP3    H115156   4.474   5.778   2.157
 5050TIP3    H215157   4.469   5.630   2.189
 5051TIP3   OH215158   3.173   5.440   3.725
 5051TIP3    H115159   3.154   5.350   3.749
 5051TIP3    H215160   3.128   5.493   3.791
 5052TIP3   OH215161   1.719   2.575   3.781
 5052TIP3    H115162   1.723   2.561   3.686
 5052TIP3    H215163   1.776   2.650   3.796
 5053TIP3   OH215164   2.226   2.213   4.828
 5053TIP3    H115165   2.206   2.276   4.759
 5053TIP3    H215166   2.179   2.247   4.905
 5054TIP3   OH215167   1.635   2.888   0.724
 5054TIP3    H115168   1.627   2.909   0.631
 5054TIP3    H215169   1.670   2.799   0.725
 5055TIP3   OH215170   5.921   0.209   2.208
 5055TIP3    H115171   5.851   0.146   2.224
 5055TIP3    H215172   5.934   0.208   2.113
 5056TIP3   OH215173   4.216   3.498   3.975
 5056TIP3    H115174   4.218   3.434   4.046
 5056TIP3    H215175   4.194   3.581   4.019
 5057TIP3   OH215176   4.089   2.063   0.738
 5057TIP3    H115177   4.098   2.026   0.650
 5057TIP3    H215178   4.005   2.108   0.737
 5058TIP3   OH215179   2.956   0.065   3.963
 5058TIP3    H115180   2.958   0.138   4.025
 5058TIP3    H215181   3.047   0.049   3.941
 5059TIP3   OH215182   1.126   2.056   3.277
 5059TIP3    H115183   1.121   2.133   3.334
 5059TIP3    H215184   1.145   2.092   3.191
 5060TIP3   OH215185   1.613   5.238   3.380
 5060TIP3    H115186   1.628   5.255   3.287
 5060TIP3    H215187   1.688   5.185   3.407
 5061TIP3   OH215188   3.878   2.937   4.863
 5061TIP3    H115189   3.944   3.006   4.867
 5061TIP3    H215190   3.883   2.894   4.948
 5062TIP3   OH215191   5.030   4.881   4.513
 5062TIP3    H115192   4.982   4.950   4.560
 5062TIP3    H215193   5.045   4.916   4.426
 5063TIP3   OH215194   5.042   5.504   4.628
 5063TIP3    H115195   5.110   5.436   4.628
 5063TIP3    H215196   5.071   5.567   4.562
 5064TIP3   OH215197   6.082   2.649   4.069
 5064TIP3    H115198   6.171   2.671   4.040
 5064TIP3    H215199   6.079   2.553   4.064
 5065TIP3   OH215200   2.344   1.632   4.890
 5065TIP3    H115201   2.415   1.679   4.935
 5065TIP3    H215202   2.267   1.687   4.905
 5066TIP3   OH215203   0.776   0.575   2.635
 5066TIP3    H115204   0.867   0.578   2.606
 5066TIP3    H215205   0.770   0.496   2.689
 5067TIP3   OH215206   6.137   2.387   4.232
 5067TIP3    H115207   6.190   2.465   4.248
 5067TIP3    H215208   6.192   2.329   4.180
 5068TIP3   OH215209   4.221   0.294   2.837
 5068TIP3    H115210   4.153   0.351   2.800
 5068TIP3    H215211   4.175   0.241   2.902
 5069TIP3   OH215212   1.504   1.575   2.031
 5069TIP3    H115213   1.573   1.635   2.003
 5069TIP3    H215214   1.436   1.584   1.964
 5070TIP3   OH215215   3.140   0.019   2.329
 5070TIP3    H115216   3.216   0.069   2.358
 5070TIP3    H215217   3.114  -0.033   2.405
 5071TIP3   OH215218   3.367   5.634   4.990
 5071TIP3    H115219   3.436   5.689   5.028
 5071TIP3    H215220   3.386   5.634   4.896
 5072TIP3   OH215221   2.648   2.678   1.126
 5072TIP3    H115222   2.630   2.770   1.146
 5072TIP3    H215223   2.721   2.680   1.064
 5073TIP3   OH215224   1.438   1.898   5.021
 5073TIP3    H115225   1.415   1.948   5.099
 5073TIP3    H215226   1.363   1.909   4.963
 5074TIP3   OH215227   3.227   3.415   5.098
 5074TIP3    H115228   3.175   3.351   5.048
 5074TIP3    H215229   3.221   3.496   5.047
 5075TIP3   OH215230   1.841   2.451   1.736
 5075TIP3    H115231   1.773   2.515   1.757
 5075TIP3    H215232   1.832   2.384   1.803
 5076TIP3   OH215233   4.774   2.155   3.235
 5076TIP3    H115234   4.715   2.080   3.239
 5076TIP3    H215235   4.849   2.128   3.288
 5077TIP3   OH215236   1.471   2.710   3.158
 5077TIP3    H115237   1.428   2.624   3.164
 5077TIP3    H215238   1.416   2.760   3.099
 5078TIP3   OH215239   0.302   0.027   2.494
 5078TIP3    H115240   0.268   0.115   2.510
 5078TIP3    H215241   0.397   0.038   2.491
 5079TIP3   OH215242   3.857   0.127   4.165
 5079TIP3    H115243   3.874   0.074   4.243
 5079TIP3    H215244   3.775   0.173   4.184
 5080TIP3   OH215245   3.775   3.946   1.328
 5080TIP3    H115246   3.836   3.902   1.387
 5080TIP3    H215247   3.766   4.034   1.364
 5081TIP3   OH215248   0.202   1.547   2.032
 5081TIP3    H115249   0.220   1.577   2.121
 5081TIP3    H215250   0.265   1.594   1.977
 5082TIP3   OH215251   2.601   1.694   3.869
 5082TIP3    H115252   2.650   1.618   3.899
 5082TIP3    H215253   2.518   1.658   3.835
 5083TIP3   OH215254   3.580   5.722   0.119
 5083TIP3    H115255   3.552   5.645   0.069
 5083TIP3    H215256   3.628   5.775   0.055
 5084TIP3   OH215257   2.065   3.180   2.481
 5084TIP3    H115258   1.974   3.189   2.455
 5084TIP3    H215259   2.074   3.089   2.508
 5085TIP3   OH215260   3.344   1.329   0.535
 5085TIP3    H115261   3.359   1.364   0.623
 5085TIP3    H215262   3.431   1.314   0.500
 5086TIP3   OH215263   4.682   0.816   3.070
 5086TIP3    H115264   4.593   0.848   3.057
 5086TIP3    H215265   4.678   0.768   3.153
 5087TIP3   OH215266   2.600   0.631   2.546
 5087TIP3    H115267   2.528   0.568   2.538
 5087TIP3    H215268   2.602   0.677   2.462
 5088TIP3   OH215269   5.540   3.715   0.874
 5088TIP3    H115270   5.456   3.703   0.829
 5088TIP3    H215271   5.519   3.771   0.949
 5089TIP3   OH215272   2.684   3.183   2.080
 5089TIP3    H115273   2.712   3.153   2.167
 5089TIP3    H215274   2.709   3.275   2.078
 5090TIP3   OH215275   5.081   0.824   3.341
 5090TIP3    H115276   5.172   0.792   3.337
 5090TIP3    H215277   5.075   0.868   3.425
 5091TIP3   OH215278   5.282   2.709   1.615
 5091TIP3    H115279   5.274   2.778   1.681
 5091TIP3    H215280   5.293   2.629   1.666
 5092TIP3   OH215281   5.808   4.105   2.786
 5092TIP3    H115282   5.844   4.030   2.740
 5092TIP3    H215283   5.826   4.088   2.879
 5093TIP3   OH215284   1.269   0.542   0.963
 5093TIP3    H115285   1.261   0.531   0.868
 5093TIP3    H215286   1.345   0.599   0.974
 5094TIP3   OH215287   0.164   0.747   3.461
 5094TIP3    H115288   0.148   0.838   3.488
 5094TIP3    H215289   0.197   0.704   3.539
 5095TIP3   OH215290   5.513   3.588   2.367
 5095TIP3    H115291   5.549   3.508   2.329
 5095TIP3    H215292   5.547   3.658   2.312
 5096TIP3   OH215293   4.329   4.828   1.780
 5096TIP3    H115294   4.275   4.882   1.837
 5096TIP3    H215295   4.372   4.765   1.839
 5097TIP3   OH215296   0.192   5.383   1.770
 5097TIP3    H115297   0.113   5.436   1.774
 5097TIP3    H215298   0.245   5.423   1.701
 5098TIP3   OH215299   2.782   2.355   5.162
 5098TIP3    H115300   2.825   2.432   5.197
 5098TIP3    H215301   2.692   2.359   5.195
 5099TIP3   OH215302   2.253   1.318   4.883
 5099TIP3    H115303   2.204   1.400   4.896
 5099TIP3    H215304   2.209   1.275   4.810
 5100TIP3   OH215305   4.502   5.253   0.276
 5100TIP3    H115306   4.455   5.218   0.201
 5100TIP3    H215307   4.433   5.284   0.335
 5101TIP3   OH215308   3.487   3.227   3.353
 5101TIP3    H115309   3.395   3.239   3.329
 5101TIP3    H215310   3.524   3.177   3.280
 5102TIP3   OH215311   1.354   0.315   3.401
 5102TIP3    H115312   1.276   0.351   3.443
 5102TIP3    H215313   1.321   0.256   3.334
 5103TIP3   OH215314   3.129   3.749   1.093
 5103TIP3    H115315   3.120   3.814   1.162
 5103TIP3    H215316   3.135   3.800   1.012
 5104TIP3   OH215317   4.279   1.000   1.236
 5104TIP3    H115318   4.200   0.967   1.193
 5104TIP3    H215319   4.254   1.085   1.271
 5105TIP3   OH215320   2.837   2.870   2.463
 5105TIP3    H115321   2.832   2.930   2.538
 5105TIP3    H215322   2.849   2.928   2.388
 5106TIP3   OH215323   5.241   1.495   2.229
 5106TIP3    H115324   5.149   1.509   2.207
 5106TIP3    H215325   5.275   1.440   2.158
 5107TIP3   OH215326   2.305   4.780   2.606
 5107TIP3    H115327   2.312   4.857   2.549
 5107TIP3    H215328   2.217   4.783   2.642
 5108TIP3   OH215329   1.202   0.701   0.115
 5108TIP3    H115330   1.233   0.669   0.030
 5108TIP3    H215331   1.262   0.662   0.178
 5109TIP3   OH215332   5.401   4.089   3.317
 5109TIP3    H115333   5.457   4.117   3.390
 5109TIP3    H215334   5.315   4.125   3.337
 5110TIP3   OH215335   0.647   5.977   3.290
 5110TIP3    H115336   0.696   6.006   3.367
 5110TIP3    H215337   0.563   5.948   3.324
 5111TIP3   OH215338   2.221   3.234   4.001
 5111TIP3    H115339   2.153   3.284   3.955
 5111TIP3    H215340   2.201   3.247   4.094
 5112TIP3   OH215341   3.813   2.410   1.333
 5112TIP3    H115342   3.905   2.427   1.311
 5112TIP3    H215343   3.806   2.436   1.425
 5113TIP3   OH215344   3.597   3.058   0.015
 5113TIP3    H115345   3.602   2.982  -0.042
 5113TIP3    H215346   3.503   3.070   0.031
 5114TIP3   OH215347   4.254   4.057   3.168
 5114TIP3    H115348   4.327   4.059   3.229
 5114TIP3    H215349   4.209   4.140   3.182
 5115TIP3   OH215350   2.715   0.943   1.859
 5115TIP3    H115351   2.643   0.915   1.803
 5115TIP3    H215352   2.760   0.863   1.884
 5116TIP3   OH215353   3.534   4.618   4.383
 5116TIP3    H115354   3.451   4.663   4.368
 5116TIP3    H215355   3.513   4.551   4.449
 5117TIP3   OH215356   4.192   1.958   4.199
 5117TIP3    H115357   4.281   1.974   4.167
 5117TIP3    H215358   4.184   1.863   4.202
 5118TIP3   OH215359   3.607   2.206   0.323
 5118TIP3    H115360   3.672   2.237   0.260
 5118TIP3    H215361   3.653   2.141   0.376
 5119TIP3   OH215362   1.784   3.725   5.123
 5119TIP3    H115363   1.788   3.630   5.131
 5119TIP3    H215364   1.875   3.752   5.108
 5120TIP3   OH215365   3.897   3.224   0.550
 5120TIP3    H115366   3.977   3.276   0.563
 5120TIP3    H215367   3.843   3.276   0.491
 5121TIP3   OH215368   3.435   0.852   0.396
 5121TIP3    H115369   3.430   0.907   0.475
 5121TIP3    H215370   3.527   0.857   0.370
 5122TIP3   OH215371   4.270   4.207   0.214
 5122TIP3    H115372   4.177   4.185   0.220
 5122TIP3    H215373   4.277   4.293   0.257
 5123TIP3   OH215374   6.187   5.485   3.782
 5123TIP3    H115375   6.213   5.479   3.690
 5123TIP3    H215376   6.092   5.476   3.780
 5124TIP3   OH215377   2.553   3.792   3.711
 5124TIP3    H115378   2.584   3.840   3.788
 5124TIP3    H215379   2.604   3.711   3.713
 5125TIP3   OH215380   1.108   2.630   0.573
 5125TIP3    H115381   1.153   2.714   0.569
 5125TIP3    H215382   1.144   2.579   0.500
 5126TIP3   OH215383   1.202   4.173   0.090
 5126TIP3    H115384   1.234   4.263   0.085
 5126TIP3    H215385   1.173   4.153   0.001
 5127TIP3   OH215386   0.257   4.229   0.523
 5127TIP3    H115387   0.341   4.217   0.478
 5127TIP3    H215388   0.200   4.161   0.486
 5128TIP3   OH215389   1.665   4.863   3.859
 5128TIP3    H115390   1.634   4.774   3.876
 5128TIP3    H215391   1.648   4.910   3.941
 5129TIP3   OH215392   2.784   0.250   1.227
 5129TIP3    H115393   2.821   0.223   1.143
 5129TIP3    H215394   2.743   0.171   1.262
 5130TIP3   OH215395   6.201   2.743   0.678
 5130TIP3    H115396   6.114   2.713   0.704
 5130TIP3    H215397   6.210   2.715   0.587
 5131TIP3   OH215398   2.972   1.134   3.977
 5131TIP3    H115399   2.972   1.077   3.900
 5131TIP3    H215400   3.034   1.094   4.037
 5132TIP3   OH215401   1.860   4.508   4.006
 5132TIP3    H115402   1.911   4.453   4.065
 5132TIP3    H215403   1.771   4.474   4.013
 5133TIP3   OH215404   0.384   2.938   3.878
 5133TIP3    H115405   0.448   2.995   3.920
 5133TIP3    H215406   0.347   2.886   3.950
 5134TIP3   OH215407   6.148   5.804   2.883
 5134TIP3    H115408   6.181   5.720   2.915
 5134TIP3    H215409   6.132   5.790   2.790
 5135TIP3   OH215410   3.328   5.155   0.320
 5135TIP3    H115411   3.357   5.208   0.395
 5135TIP3    H215412   3.310   5.218   0.251
 5136TIP3   OH215413   5.647   0.845   0.513
 5136TIP3    H115414   5.605   0.763   0.487
 5136TIP3    H215415   5.738   0.836   0.485
 5137TIP3   OH215416   2.805   3.672   1.181
 5137TIP3    H115417   2.836   3.755   1.144
 5137TIP3    H215418   2.861   3.657   1.258
 5138TIP3   OH215419   2.850   4.490   4.195
 5138TIP3    H115420   2.837   4.581   4.222
 5138TIP3    H215421   2.770   4.468   4.147
 5139TIP3   OH215422   1.524   1.260   4.439
 5139TIP3    H115423   1.520   1.332   4.502
 5139TIP3    H215424   1.511   1.302   4.354
 5140TIP3   OH215425   1.566   1.518   1.608
 5140TIP3    H115426   1.545   1.568   1.687
 5140TIP3    H215427   1.486   1.522   1.556
 5141TIP3   OH215428   4.269   5.813   3.400
 5141TIP3    H115429   4.337   5.767   3.450
 5141TIP3    H215430   4.316   5.886   3.360
 5142TIP3   OH215431   4.619   0.633   1.132
 5142TIP3    H115432   4.682   0.567   1.102
 5142TIP3    H215433   4.651   0.658   1.219
 5143TIP3   OH215434   0.747   3.963   4.454
 5143TIP3    H115435   0.661   3.982   4.491
 5143TIP3    H215436   0.730   3.939   4.363
 5144TIP3   OH215437   1.433   1.363   2.174
 5144TIP3    H115438   1.465   1.450   2.151
 5144TIP3    H215439   1.459   1.308   2.100
 5145TIP3   OH215440   0.491   0.927   0.739
 5145TIP3    H115441   0.504   1.022   0.741
 5145TIP3    H215442   0.539   0.898   0.661
 5146TIP3   OH215443   3.986   2.505   2.282
 5146TIP3    H115444   3.997   2.429   2.338
 5146TIP3    H215445   4.029   2.577   2.329
 5147TIP3   OH215446   2.063   5.366   4.387
 5147TIP3    H115447   2.030   5.369   4.477
 5147TIP3    H215448   2.151   5.401   4.393
 5148TIP3   OH215449   5.282   1.300   1.987
 5148TIP3    H115450   5.349   1.249   2.031
 5148TIP3    H215451   5.237   1.237   1.931
 5149TIP3   OH215452   5.876   3.194   4.851
 5149TIP3    H115453   5.910   3.150   4.929
 5149TIP3    H215454   5.822   3.127   4.808
 5150TIP3   OH215455   2.648   5.892   2.451
 5150TIP3    H115456   2.653   5.804   2.414
 5150TIP3    H215457   2.668   5.880   2.544
 5151TIP3   OH215458   6.095   5.091   3.218
 5151TIP3    H115459   6.089   4.997   3.231
 5151TIP3    H215460   6.004   5.118   3.202
 5152TIP3   OH215461   0.915   4.616   4.118
 5152TIP3    H115462   0.936   4.694   4.170
 5152TIP3    H215463   0.988   4.556   4.135
 5153TIP3   OH215464   2.294   1.789   3.115
 5153TIP3    H115465   2.333   1.812   3.199
 5153TIP3    H215466   2.318   1.861   3.056
 5154TIP3   OH215467   5.771   5.208   3.738
 5154TIP3    H115468   5.846   5.161   3.772
 5154TIP3    H215469   5.732   5.150   3.673
 5155TIP3   OH215470   3.264   5.971   0.391
 5155TIP3    H115471   3.356   5.994   0.398
 5155TIP3    H215472   3.263   5.885   0.347
 5156TIP3   OH215473   0.351   1.210   4.006
 5156TIP3    H115474   0.322   1.151   4.075
 5156TIP3    H215475   0.282   1.276   3.999
 5157TIP3   OH215476   0.841   0.033   3.965
 5157TIP3    H115477   0.756   0.026   4.010
 5157TIP3    H215478   0.883  -0.052   3.982
 5158TIP3   OH215479   5.465   3.860   4.086
 5158TIP3    H115480   5.390   3.885   4.140
 5158TIP3    H215481   5.513   3.796   4.140
 5159TIP3   OH215482   1.227   2.090   0.807
 5159TIP3    H115483   1.184   2.005   0.798
 5159TIP3    H215484   1.241   2.120   0.717
 5160TIP3   OH215485   4.459   1.027   3.195
 5160TIP3    H115486   4.387   1.044   3.134
 5160TIP3    H215487   4.533   1.075   3.159
 5161TIP3   OH215488   0.154   5.301   0.118
 5161TIP3    H115489   0.197   5.273   0.037
 5161TIP3    H215490   0.194   5.248   0.187
 5162TIP3   OH215491   4.993   0.187   0.659
 5162TIP3    H115492   4.934   0.128   0.613
 5162TIP3    H215493   4.963   0.185   0.750
 5163TIP3   OH215494   5.356   1.811   0.232
 5163TIP3    H115495   5.277   1.820   0.180
 5163TIP3    H215496   5.326   1.817   0.323
 5164TIP3   OH215497   3.810   5.312   2.516
 5164TIP3    H115498   3.889   5.269   2.481
 5164TIP3    H215499   3.739   5.254   2.490
 5165TIP3   OH215500   3.745   3.006   1.858
 5165TIP3    H115501   3.719   2.926   1.904
 5165TIP3    H215502   3.828   2.984   1.816
 5166TIP3   OH215503   4.892   2.606   3.853
 5166TIP3    H115504   4.834   2.589   3.779
 5166TIP3    H215505   4.846   2.568   3.928
 5167TIP3   OH215506   3.226   4.666   2.961
 5167TIP3    H115507   3.160   4.609   3.002
 5167TIP3    H215508   3.178   4.747   2.941
 5168TIP3   OH215509   4.837   1.416   2.365
 5168TIP3    H115510   4.835   1.372   2.280
 5168TIP3    H215511   4.903   1.368   2.415
 5169TIP3   OH215512   4.174   5.705   5.086
 5169TIP3    H115513   4.095   5.756   5.105
 5169TIP3    H215514   4.221   5.700   5.169
 5170TIP3   OH215515   5.004   0.691   2.348
 5170TIP3    H115516   4.921   0.644   2.355
 5170TIP3    H215517   4.996   0.743   2.268
 5171TIP3   OH215518   4.623   3.374   3.648
 5171TIP3    H115519   4.562   3.401   3.579
 5171TIP3    H215520   4.686   3.445   3.655
 5172TIP3   OH215521   1.893   0.327   2.991
 5172TIP3    H115522   1.967   0.276   2.960
 5172TIP3    H215523   1.878   0.393   2.922
 5173TIP3   OH215524   2.528   3.486   4.264
 5173TIP3    H115525   2.480   3.456   4.187
 5173TIP3    H215526   2.617   3.501   4.232
 5174TIP3   OH215527   4.451   0.769   4.809
 5174TIP3    H115528   4.465   0.677   4.788
 5174TIP3    H215529   4.356   0.780   4.809
 5175TIP3   OH215530   1.661   0.810   1.383
 5175TIP3    H115531   1.605   0.743   1.422
 5175TIP3    H215532   1.624   0.893   1.415
 5176TIP3   OH215533   6.250   5.255   1.709
 5176TIP3    H115534   6.158   5.257   1.737
 5176TIP3    H215535   6.281   5.344   1.722
 5177TIP3   OH215536   3.317   2.536   4.314
 5177TIP3    H115537   3.253   2.599   4.281
 5177TIP3    H215538   3.399   2.585   4.320
 5178TIP3   OH215539   6.223   0.683   0.652
 5178TIP3    H115540   6.179   0.675   0.737
 5178TIP3    H215541   6.240   0.593   0.626
 5179TIP3   OH215542   6.328   3.958   4.293
 5179TIP3    H115543   6.347   4.023   4.361
 5179TIP3    H215544   6.287   3.886   4.341
 5180TIP3   OH215545   0.223   4.390   2.918
 5180TIP3    H115546   0.135   4.414   2.947
 5180TIP3    H215547   0.248   4.316   2.973
 5181TIP3   OH215548   6.203   0.730   0.296
 5181TIP3    H115549   6.115   0.766   0.306
 5181TIP3    H215550   6.189   0.644   0.257
 5182TIP3   OH215551   2.927   5.334   2.568
 5182TIP3    H115552   2.990   5.377   2.510
 5182TIP3    H215553   2.856   5.397   2.577
 5183TIP3   OH215554   4.782   5.411   4.731
 5183TIP3    H115555   4.738   5.481   4.779
 5183TIP3    H215556   4.824   5.455   4.658
 5184TIP3   OH215557   5.075   1.998   0.937
 5184TIP3    H115558   5.086   1.914   0.893
 5184TIP3    H215559   5.061   1.975   1.029
 5185TIP3   OH215560   5.006   3.695   0.656
 5185TIP3    H115561   5.004   3.757   0.584
 5185TIP3    H215562   4.955   3.737   0.726
 5186TIP3   OH215563   0.664   0.571   4.045
 5186TIP3    H115564   0.658   0.475   4.044
 5186TIP3    H215565   0.756   0.589   4.060
 5187TIP3   OH215566   4.064   5.439   3.522
 5187TIP3    H115567   4.059   5.396   3.436
 5187TIP3    H215568   4.067   5.532   3.502
 5188TIP3   OH215569   1.047   2.635   1.960
 5188TIP3    H115570   0.989   2.585   2.018
 5188TIP3    H215571   1.107   2.570   1.923
 5189TIP3   OH215572   4.791   4.948   3.860
 5189TIP3    H115573   4.806   5.001   3.782
 5189TIP3    H215574   4.730   4.881   3.832
 5190TIP3   OH215575   0.589   5.763   3.698
 5190TIP3    H115576   0.662   5.795   3.646
 5190TIP3    H215577   0.627   5.695   3.754
 5191TIP3   OH215578   3.195   4.635   2.473
 5191TIP3    H115579   3.236   4.550   2.493
 5191TIP3    H215580   3.233   4.695   2.537
 5192TIP3   OH215581   2.213   5.191   4.200
 5192TIP3    H115582   2.222   5.106   4.244
 5192TIP3    H215583   2.233   5.255   4.268
 5193TIP3   OH215584   0.350   4.739   2.251
 5193TIP3    H115585   0.308   4.813   2.206
 5193TIP3    H215586   0.302   4.731   2.333
 5194TIP3   OH215587   0.098   2.973   4.716
 5194TIP3    H115588   0.102   3.005   4.806
 5194TIP3    H215589   0.032   3.028   4.674
 5195TIP3   OH215590   1.964   5.358   1.673
 5195TIP3    H115591   1.930   5.270   1.654
 5195TIP3    H215592   1.996   5.391   1.589
 5196TIP3   OH215593   5.597   3.941   0.692
 5196TIP3    H115594   5.651   3.925   0.769
 5196TIP3    H215595   5.603   3.860   0.642
 5197TIP3   OH215596   0.342   5.494   2.011
 5197TIP3    H115597   0.331   5.481   1.917
 5197TIP3    H215598   0.267   5.548   2.037
 5198TIP3   OH215599   1.094   2.393   0.125
 5198TIP3    H115600   1.025   2.457   0.107
 5198TIP3    H215601   1.051   2.308   0.111
 5199TIP3   OH215602   0.666   1.820   1.153
 5199TIP3    H115603   0.588   1.817   1.208
 5199TIP3    H215604   0.733   1.862   1.208
 5200TIP3   OH215605   5.344   1.897   1.194
 5200TIP3    H115606   5.359   1.849   1.113
 5200TIP3    H215607   5.427   1.944   1.209
 5201TIP3   OH215608   3.924   2.293   1.769
 5201TIP3    H115609   3.912   2.308   1.863
 5201TIP3    H215610   3.950   2.201   1.763
 5202TIP3   OH215611   6.097   0.058   3.489
 5202TIP3    H115612   6.128   0.146   3.468
 5202TIP3    H215613   6.157   0.027   3.557
 5203TIP3   OH215614   5.792   4.955   1.039
 5203TIP3    H115615   5.752   4.881   1.086
 5203TIP3    H215616   5.764   5.032   1.088
 5204TIP3   OH215617   2.085   1.931   1.227
 5204TIP3    H115618   2.081   2.026   1.215
 5204TIP3    H215619   1.996   1.907   1.254
 5205TIP3   OH215620   0.919   3.110   0.031
 5205TIP3    H115621   0.849   3.120  -0.033
 5205TIP3    H215622   0.876   3.071   0.108
 5206TIP3   OH215623   5.981   2.386   2.389
 5206TIP3    H115624   6.058   2.330   2.402
 5206TIP3    H215625   6.016   2.475   2.390
 5207TIP3   OH215626   1.560   0.193   1.744
 5207TIP3    H115627   1.573   0.211   1.651
 5207TIP3    H215628   1.642   0.153   1.773
 5208TIP3   OH215629   4.756   4.813   0.127
 5208TIP3    H115630   4.792   4.737   0.174
 5208TIP3    H215631   4.689   4.847   0.186
 5209TIP3   OH215632   3.215   0.703   0.361
 5209TIP3    H115633   3.297   0.751   0.353
 5209TIP3    H215634   3.230   0.640   0.432
 5210TIP3   OH215635   2.345   5.427   4.332
 5210TIP3    H115636   2.350   5.507   4.279
 5210TIP3    H215637   2.395   5.447   4.411
 5211TIP3   OH215638   1.926   4.631   2.529
 5211TIP3    H115639   1.834   4.627   2.502
 5211TIP3    H215640   1.974   4.652   2.449
 5212TIP3   OH215641   2.648   3.738   0.446
 5212TIP3    H115642   2.681   3.648   0.449
 5212TIP3    H215643   2.580   3.741   0.513
 5213TIP3   OH215644   2.312   5.395   1.761
 5213TIP3    H115645   2.350   5.477   1.792
 5213TIP3    H215646   2.264   5.360   1.836
 5214TIP3   OH215647   1.276   0.816   3.069
 5214TIP3    H115648   1.224   0.793   2.992
 5214TIP3    H215649   1.250   0.906   3.090
 5215TIP3   OH215650   4.870   2.451   0.518
 5215TIP3    H115651   4.786   2.465   0.474
 5215TIP3    H215652   4.928   2.518   0.481
 5216TIP3   OH215653   5.669   5.866   0.494
 5216TIP3    H115654   5.634   5.804   0.429
 5216TIP3    H215655   5.631   5.950   0.469
 5217TIP3   OH215656   3.234   0.086   3.591
 5217TIP3    H115657   3.290   0.143   3.539
 5217TIP3    H215658   3.198   0.023   3.528
 5218TIP3   OH215659   3.910   0.687   1.769
 5218TIP3    H115660   3.888   0.599   1.739
 5218TIP3    H215661   3.979   0.716   1.709
 5219TIP3   OH215662   3.821   0.743   4.290
 5219TIP3    H115663   3.916   0.755   4.289
 5219TIP3    H215664   3.809   0.651   4.316
 5220TIP3   OH215665   5.021   2.168   0.373
 5220TIP3    H115666   4.978   2.160   0.288
 5220TIP3    H215667   4.950   2.183   0.435
 5221TIP3   OH215668   2.683   3.674   2.225
 5221TIP3    H115669   2.702   3.666   2.318
 5221TIP3    H215670   2.690   3.585   2.191
 5222TIP3   OH215671   5.507   2.277   4.885
 5222TIP3    H115672   5.493   2.249   4.794
 5222TIP3    H215673   5.420   2.299   4.917
 5223TIP3   OH215674   4.552   3.674   3.617
 5223TIP3    H115675   4.498   3.683   3.696
 5223TIP3    H215676   4.633   3.721   3.637
 5224TIP3   OH215677   4.610   3.857   3.154
 5224TIP3    H115678   4.524   3.855   3.113
 5224TIP3    H215679   4.592   3.853   3.248
 5225TIP3   OH215680   5.250   3.285   3.487
 5225TIP3    H115681   5.272   3.378   3.488
 5225TIP3    H215682   5.235   3.263   3.579
 5226TIP3   OH215683   3.888   0.502   1.510
 5226TIP3    H115684   3.921   0.423   1.552
 5226TIP3    H215685   3.792   0.495   1.516
 5227TIP3   OH215686   4.445   4.077   1.233
 5227TIP3    H115687   4.461   4.164   1.269
 5227TIP3    H215688   4.528   4.031   1.245
 5228TIP3   OH215689   4.369   5.575   3.190
 5228TIP3    H115690   4.365   5.642   3.122
 5228TIP3    H215691   4.336   5.618   3.268
 5229TIP3   OH215692   1.490   5.400   5.125
 5229TIP3    H115693   1.533   5.339   5.065
 5229TIP3    H215694   1.544   5.479   5.123
 5230TIP3   OH215695   0.474   2.066   4.739
 5230TIP3    H115696   0.556   2.110   4.717
 5230TIP3    H215697   0.449   2.019   4.659
 5231TIP3   OH215698   5.472   2.481   1.200
 5231TIP3    H115699   5.456   2.452   1.290
 5231TIP3    H215700   5.457   2.402   1.147
 5232TIP3   OH215701   3.756   0.507   3.809
 5232TIP3    H115702   3.661   0.504   3.812
 5232TIP3    H215703   3.785   0.438   3.869
 5233TIP3   OH215704   4.177   4.501   2.723
 5233TIP3    H115705   4.104   4.542   2.769
 5233TIP3    H215706   4.157   4.407   2.724
 5234TIP3   OH215707   0.189   5.899   3.783
 5234TIP3    H115708   0.137   5.914   3.861
 5234TIP3    H215709   0.142   5.942   3.712
 5235TIP3   OH215710   5.237   3.914   0.593
 5235TIP3    H115711   5.150   3.895   0.555
 5235TIP3    H215712   5.270   3.828   0.620
 5236TIP3   OH215713   1.132   3.949   1.466
 5236TIP3    H115714   1.145   3.984   1.377
 5236TIP3    H215715   1.057   3.998   1.500
 5237TIP3   OH215716   4.768   1.066   4.958
 5237TIP3    H115717   4.720   1.065   4.875
 5237TIP3    H215718   4.763   0.976   4.990
 5238TIP3   OH215719   3.372   1.609   4.432
 5238TIP3    H115720   3.392   1.702   4.439
 5238TIP3    H215721   3.276   1.605   4.432
 5239TIP3   OH215722   3.438   3.434   1.649
 5239TIP3    H115723   3.517   3.382   1.636
 5239TIP3    H215724   3.453   3.515   1.599
 5240TIP3   OH215725   5.733   3.983   3.569
 5240TIP3    H115726   5.819   4.025   3.567
 5240TIP3    H215727   5.731   3.927   3.492
 5241TIP3   OH215728   3.071   4.393   4.088
 5241TIP3    H115729   2.991   4.414   4.136
 5241TIP3    H215730   3.129   4.467   4.105
 5242TIP3   OH215731   0.857   2.064   0.853
 5242TIP3    H115732   0.855   2.124   0.778
 5242TIP3    H215733   0.795   1.995   0.830
 5243TIP3   OH215734   2.835   3.012   1.150
 5243TIP3    H115735   2.760   2.966   1.188
 5243TIP3    H215736   2.818   3.011   1.056
 5244TIP3   OH215737   6.334   0.873   0.511
 5244TIP3    H115738   6.298   0.812   0.574
 5244TIP3    H215739   6.334   0.826   0.428
 5245TIP3   OH215740   3.553   2.414   2.103
 5245TIP3    H115741   3.567   2.388   2.012
 5245TIP3    H215742   3.605   2.493   2.113
 5246TIP3   OH215743   1.269   4.672   4.003
 5246TIP3    H115744   1.250   4.578   4.005
 5246TIP3    H215745   1.308   4.687   3.917
 5247TIP3   OH215746   2.227   3.226   0.359
 5247TIP3    H115747   2.306   3.226   0.305
 5247TIP3    H215748   2.222   3.138   0.395
 5248TIP3   OH215749   2.928   1.590   1.145
 5248TIP3    H115750   3.022   1.593   1.125
 5248TIP3    H215751   2.921   1.629   1.232
 5249TIP3   OH215752   0.111   4.985   3.529
 5249TIP3    H115753   0.145   5.021   3.611
 5249TIP3    H215754   0.186   4.941   3.489
 5250TIP3   OH215755   1.371   4.863   1.493
 5250TIP3    H115756   1.304   4.930   1.509
 5250TIP3    H215757   1.365   4.804   1.569
 5251TIP3   OH215758   5.388   2.567   4.249
 5251TIP3    H115759   5.362   2.478   4.226
 5251TIP3    H215760   5.308   2.607   4.282
 5252TIP3   OH215761   5.780   1.774   4.717
 5252TIP3    H115762   5.746   1.836   4.653
 5252TIP3    H215763   5.783   1.823   4.799
 5253TIP3   OH215764   1.035   2.253   1.288
 5253TIP3    H115765   0.946   2.284   1.301
 5253TIP3    H215766   1.028   2.191   1.215
 5254TIP3   OH215767   5.706   4.092   0.049
 5254TIP3    H115768   5.755   4.010   0.057
 5254TIP3    H215769   5.660   4.101   0.132
 5255TIP3   OH215770   3.938   4.745   4.756
 5255TIP3    H115771   3.939   4.666   4.810
 5255TIP3    H215772   3.932   4.817   4.818
 5256TIP3   OH215773   1.795   4.262   3.172
 5256TIP3    H115774   1.772   4.339   3.223
 5256TIP3    H215775   1.870   4.289   3.120
 5257TIP3   OH215776   2.272   2.651   4.914
 5257TIP3    H115777   2.227   2.735   4.918
 5257TIP3    H215778   2.242   2.604   4.992
 5258TIP3   OH215779   5.472   3.392   1.197
 5258TIP3    H115780   5.490   3.305   1.162
 5258TIP3    H215781   5.554   3.440   1.186
 5259TIP3   OH215782   5.001   0.878   0.957
 5259TIP3    H115783   4.949   0.943   1.005
 5259TIP3    H215784   5.087   0.918   0.948
 5260TIP3   OH215785   6.024   2.923   3.765
 5260TIP3    H115786   6.078   2.952   3.691
 5260TIP3    H215787   5.938   2.907   3.727
 5261TIP3   OH215788   2.517   1.512   1.240
 5261TIP3    H115789   2.479   1.540   1.323
 5261TIP3    H215790   2.544   1.593   1.196
 5262TIP3   OH215791   2.415   1.235   0.198
 5262TIP3    H115792   2.435   1.297   0.128
 5262TIP3    H215793   2.450   1.277   0.277
 5263TIP3   OH215794   3.917   5.600   1.577
 5263TIP3    H115795   3.969   5.611   1.497
 5263TIP3    H215796   3.974   5.550   1.635
 5264TIP3   OH215797   2.943   4.100   1.934
 5264TIP3    H115798   2.849   4.110   1.922
 5264TIP3    H215799   2.951   4.035   2.004
 5265TIP3   OH215800   2.284   3.726   4.165
 5265TIP3    H115801   2.209   3.685   4.206
 5265TIP3    H215802   2.292   3.811   4.209
 5266TIP3   OH215803   5.399   1.284   4.312
 5266TIP3    H115804   5.362   1.214   4.258
 5266TIP3    H215805   5.355   1.275   4.397
 5267TIP3   OH215806   5.146   4.211   1.687
 5267TIP3    H115807   5.079   4.165   1.636
 5267TIP3    H215808   5.103   4.229   1.771
 5268TIP3   OH215809   4.653   5.465   0.629
 5268TIP3    H115810   4.699   5.546   0.652
 5268TIP3    H215811   4.690   5.399   0.688
 5269TIP3   OH215812   1.081   1.908   4.076
 5269TIP3    H115813   1.048   1.840   4.016
 5269TIP3    H215814   1.103   1.860   4.156
 5270TIP3   OH215815   0.486   4.147   1.463
 5270TIP3    H115816   0.410   4.102   1.426
 5270TIP3    H215817   0.546   4.158   1.390
 5271TIP3   OH215818   4.352   3.384   0.066
 5271TIP3    H115819   4.419   3.450   0.084
 5271TIP3    H215820   4.274   3.416   0.112
 5272TIP3   OH215821   2.639   2.735   4.650
 5272TIP3    H115822   2.718   2.782   4.677
 5272TIP3    H215823   2.622   2.673   4.721
 5273TIP3   OH215824   5.273   4.069   5.121
 5273TIP3    H115825   5.257   4.153   5.165
 5273TIP3    H215826   5.185   4.035   5.104
 5274TIP3   OH215827   0.383   2.977   2.242
 5274TIP3    H115828   0.297   2.997   2.205
 5274TIP3    H215829   0.418   2.909   2.184
 5275TIP3   OH215830   1.269   2.022   4.387
 5275TIP3    H115831   1.362   2.003   4.394
 5275TIP3    H215832   1.230   1.940   4.354
 5276TIP3   OH215833   2.688   2.235   4.204
 5276TIP3    H115834   2.613   2.177   4.197
 5276TIP3    H215835   2.677   2.297   4.132
 5277TIP3   OH215836   5.464   3.669   3.889
 5277TIP3    H115837   5.425   3.743   3.935
 5277TIP3    H215838   5.540   3.705   3.845
 5278TIP3   OH215839   2.862   2.905   4.308
 5278TIP3    H115840   2.914   2.853   4.369
 5278TIP3    H215841   2.863   2.855   4.226
 5279TIP3   OH215842   0.044   1.139   2.243
 5279TIP3    H115843  -0.029   1.195   2.217
 5279TIP3    H215844   0.119   1.172   2.193
 5280TIP3   OH215845   2.482   0.821   5.084
 5280TIP3    H115846   2.412   0.843   5.022
 5280TIP3    H215847   2.452   0.858   5.167
 5281TIP3   OH215848   4.956   0.233   3.500
 5281TIP3    H115849   4.866   0.201   3.507
 5281TIP3    H215850   5.010   0.159   3.529
 5282TIP3   OH215851   2.391   5.722   1.493
 5282TIP3    H115852   2.452   5.720   1.418
 5282TIP3    H215853   2.437   5.673   1.561
 5283TIP3   OH215854   1.468   1.256   0.958
 5283TIP3    H115855   1.377   1.250   0.929
 5283TIP3    H215856   1.485   1.349   0.968
 5284TIP3   OH215857   5.851   2.106   2.167
 5284TIP3    H115858   5.757   2.090   2.166
 5284TIP3    H215859   5.890   2.022   2.144
 5285TIP3   OH215860   4.068   1.503   3.078
 5285TIP3    H115861   4.155   1.532   3.052
 5285TIP3    H215862   4.023   1.483   2.995
 5286TIP3   OH215863   1.940   5.540   3.817
 5286TIP3    H115864   2.012   5.588   3.776
 5286TIP3    H215865   1.872   5.606   3.830
 5287TIP3   OH215866   4.662   3.172   5.163
 5287TIP3    H115867   4.656   3.089   5.115
 5287TIP3    H215868   4.661   3.146   5.255
 5288TIP3   OH215869   5.506   1.097   0.484
 5288TIP3    H115870   5.526   1.189   0.498
 5288TIP3    H215871   5.588   1.051   0.504
 5289TIP3   OH215872   3.390   0.010   2.804
 5289TIP3    H115873   3.480  -0.013   2.781
 5289TIP3    H215874   3.388   0.105   2.800
 5290TIP3   OH215875   4.432   4.767   0.568
 5290TIP3    H115876   4.451   4.861   0.565
 5290TIP3    H215877   4.502   4.727   0.516
 5291TIP3   OH215878   0.820   1.468   2.941
 5291TIP3    H115879   0.776   1.384   2.926
 5291TIP3    H215880   0.758   1.518   2.995
 5292TIP3   OH215881   0.248   4.633   4.324
 5292TIP3    H115882   0.268   4.604   4.236
 5292TIP3    H215883   0.324   4.685   4.351
 5293TIP3   OH215884   3.662   3.995   0.175
 5293TIP3    H115885   3.729   4.000   0.107
 5293TIP3    H215886   3.632   3.904   0.173
 5294TIP3   OH215887   4.806   1.955   4.645
 5294TIP3    H115888   4.861   1.882   4.673
 5294TIP3    H215889   4.815   1.957   4.550
 5295TIP3   OH215890   1.340   4.713   0.898
 5295TIP3    H115891   1.370   4.801   0.918
 5295TIP3    H215892   1.278   4.692   0.968
 5296TIP3   OH215893   2.604   1.856   4.318
 5296TIP3    H115894   2.541   1.904   4.264
 5296TIP3    H215895   2.681   1.912   4.320
 5297TIP3   OH215896   4.122   0.441   3.664
 5297TIP3    H115897   4.188   0.430   3.596
 5297TIP3    H215898   4.096   0.352   3.686
 5298TIP3   OH215899   2.663   1.838   0.523
 5298TIP3    H115900   2.634   1.840   0.432
 5298TIP3    H215901   2.744   1.787   0.521
 5299TIP3   OH215902   2.175   2.835   3.366
 5299TIP3    H115903   2.185   2.846   3.460
 5299TIP3    H215904   2.255   2.792   3.338
 5300TIP3   OH215905   1.483   4.676   1.762
 5300TIP3    H115906   1.545   4.663   1.834
 5300TIP3    H215907   1.535   4.664   1.683
 5301TIP3   OH215908   2.227   4.877   0.309
 5301TIP3    H115909   2.235   4.788   0.345
 5301TIP3    H215910   2.146   4.874   0.258
 5302TIP3   OH215911   2.610   0.920   0.935
 5302TIP3    H115912   2.664   0.887   0.863
 5302TIP3    H215913   2.558   0.844   0.963
 5303TIP3   OH215914   6.147   3.266   3.155
 5303TIP3    H115915   6.079   3.279   3.221
 5303TIP3    H215916   6.208   3.338   3.169
 5304TIP3   OH215917   0.846   3.625   4.050
 5304TIP3    H115918   0.865   3.679   3.973
 5304TIP3    H215919   0.755   3.597   4.038
 5305TIP3   OH215920   2.193   3.022   2.694
 5305TIP3    H115921   2.272   2.975   2.667
 5305TIP3    H215922   2.205   3.036   2.788
 5306TIP3   OH215923   5.432   1.480   0.849
 5306TIP3    H115924   5.432   1.403   0.906
 5306TIP3    H215925   5.377   1.455   0.775
 5307TIP3   OH215926   1.218   5.453   4.036
 5307TIP3    H115927   1.294   5.407   4.072
 5307TIP3    H215928   1.202   5.525   4.097
 5308TIP3   OH215929   4.136   1.884   4.569
 5308TIP3    H115930   4.107   1.793   4.569
 5308TIP3    H215931   4.056   1.935   4.563
 5309TIP3   OH215932   4.958   3.575   1.218
 5309TIP3    H115933   4.882   3.575   1.161
 5309TIP3    H215934   4.982   3.482   1.227
 5310TIP3   OH215935   0.954   0.280   2.315
 5310TIP3    H115936   0.919   0.317   2.234
 5310TIP3    H215937   0.921   0.190   2.317
 5311TIP3   OH215938   5.268   4.706   2.732
 5311TIP3    H115939   5.335   4.638   2.730
 5311TIP3    H215940   5.220   4.690   2.814
 5312TIP3   OH215941   1.716   5.447   3.179
 5312TIP3    H115942   1.696   5.459   3.087
 5312TIP3    H215943   1.636   5.472   3.225
 5313TIP3   OH215944   1.054   0.997   4.014
 5313TIP3    H115945   0.988   1.065   4.031
 5313TIP3    H215946   1.120   1.011   4.082
 5314TIP3   OH215947   0.808   5.239   1.861
 5314TIP3    H115948   0.888   5.248   1.912
 5314TIP3    H215949   0.817   5.154   1.818
 5315TIP3   OH215950   2.864   3.144   0.333
 5315TIP3    H115951   2.875   3.114   0.243
 5315TIP3    H215952   2.886   3.237   0.330
 5316TIP3   OH215953   2.401   1.593   3.668
 5316TIP3    H115954   2.419   1.648   3.592
 5316TIP3    H215955   2.306   1.583   3.668
 5317TIP3   OH215956   4.436   3.097   4.892
 5317TIP3    H115957   4.377   3.136   4.957
 5317TIP3    H215958   4.385   3.029   4.850
 5318TIP3   OH215959   2.457   4.607   2.097
 5318TIP3    H115960   2.520   4.556   2.147
 5318TIP3    H215961   2.481   4.593   2.005
 5319TIP3   OH215962   2.530   1.665   3.370
 5319TIP3    H115963   2.470   1.740   3.368
 5319TIP3    H215964   2.617   1.703   3.366
 5320TIP3   OH215965   6.217   2.632   2.266
 5320TIP3    H115966   6.284   2.610   2.330
 5320TIP3    H215967   6.140   2.654   2.318
 5321TIP3   OH215968   1.913   1.269   2.174
 5321TIP3    H115969   1.861   1.332   2.225
 5321TIP3    H215970   1.992   1.318   2.149
 5322TIP3   OH215971   5.108   4.973   0.515
 5322TIP3    H115972   5.162   5.029   0.570
 5322TIP3    H215973   5.022   5.015   0.514
 5323TIP3   OH215974   2.047   4.093   0.296
 5323TIP3    H115975   1.970   4.062   0.343
 5323TIP3    H215976   2.077   4.018   0.245
 5324TIP3   OH215977   5.838   4.326   3.644
 5324TIP3    H115978   5.821   4.386   3.571
 5324TIP3    H215979   5.778   4.355   3.713
 5325TIP3   OH215980   0.027   3.959   0.161
 5325TIP3    H115981   0.033   3.872   0.199
 5325TIP3    H215982  -0.049   3.955   0.103
 5326TIP3   OH215983   4.380   3.981   4.532
 5326TIP3    H115984   4.387   3.914   4.464
 5326TIP3    H215985   4.346   3.933   4.608
 5327TIP3   OH215986   1.683   1.250   4.701
 5327TIP3    H115987   1.708   1.223   4.612
 5327TIP3    H215988   1.748   1.316   4.725
 5328TIP3   OH215989   0.055   2.046   5.183
 5328TIP3    H115990  -0.011   2.022   5.118
 5328TIP3    H215991   0.096   1.962   5.207
 5329TIP3   OH215992   2.512   5.446   2.480
 5329TIP3    H115993   2.528   5.353   2.463
 5329TIP3    H215994   2.496   5.451   2.574
 5330TIP3   OH215995   3.672   2.222   2.278
 5330TIP3    H115996   3.660   2.243   2.371
 5330TIP3    H215997   3.635   2.298   2.232
 5331TIP3   OH215998   1.914   2.953   2.137
 5331TIP3    H115999   1.897   3.030   2.191
 5331TIP3    H216000   2.002   2.925   2.163
 5332TIP3   OH216001   0.486   1.219   0.658
 5332TIP3    H116002   0.433   1.166   0.600
 5332TIP3    H216003   0.528   1.283   0.601
 5333TIP3   OH216004   5.181   1.566   1.071
 5333TIP3    H116005   5.235   1.575   1.150
 5333TIP3    H216006   5.212   1.485   1.030
 5334TIP3   OH216007   2.637   2.901   1.326
 5334TIP3    H116008   2.695   2.897   1.402
 5334TIP3    H216009   2.552   2.872   1.360
 5335TIP3   OH216010   1.564   0.352   1.093
 5335TIP3    H116011   1.531   0.439   1.115
 5335TIP3    H216012   1.659   0.362   1.089
 5336TIP3   OH216013   5.509   3.493   4.456
 5336TIP3    H116014   5.560   3.412   4.460
 5336TIP3    H216015   5.512   3.527   4.546
 5337TIP3   OH216016   5.192   1.802   3.133
 5337TIP3    H116017   5.191   1.891   3.167
 5337TIP3    H216018   5.153   1.749   3.203
 5338TIP3   OH216019   0.451   1.660   3.215
 5338TIP3    H116020   0.535   1.704   3.206
 5338TIP3    H216021   0.404   1.711   3.281
 5339TIP3   OH216022   0.867   4.255   4.780
 5339TIP3    H116023   0.875   4.164   4.751
 5339TIP3    H216024   0.943   4.269   4.837
 5340TIP3   OH216025   1.947   3.741   3.643
 5340TIP3    H116026   1.953   3.688   3.563
 5340TIP3    H216027   1.962   3.831   3.614
 5341TIP3   OH216028   5.943   4.555   3.294
 5341TIP3    H116029   5.921   4.648   3.288
 5341TIP3    H216030   5.969   4.531   3.205
 5342TIP3   OH216031   4.821   1.407   0.981
 5342TIP3    H116032   4.770   1.488   0.988
 5342TIP3    H216033   4.787   1.350   1.050
 5343TIP3   OH216034   5.516   5.974   2.291
 5343TIP3    H116035   5.588   6.014   2.242
 5343TIP3    H216036   5.556   5.945   2.373
 5344TIP3   OH216037   3.766   2.389   4.966
 5344TIP3    H116038   3.690   2.332   4.955
 5344TIP3    H216039   3.788   2.417   4.877
 5345TIP3   OH216040   0.556   0.749   0.131
 5345TIP3    H116041   0.635   0.695   0.142
 5345TIP3    H216042   0.510   0.709   0.057
 5346TIP3   OH216043   0.405   1.472   2.669
 5346TIP3    H116044   0.472   1.513   2.725
 5346TIP3    H216045   0.369   1.545   2.618
 5347TIP3   OH216046   4.761   5.880   3.489
 5347TIP3    H116047   4.687   5.939   3.501
 5347TIP3    H216048   4.739   5.802   3.539
 5348TIP3   OH216049   5.465   1.261   3.760
 5348TIP3    H116050   5.494   1.348   3.787
 5348TIP3    H216051   5.539   1.225   3.711
 5349TIP3   OH216052   1.614   1.769   1.259
 5349TIP3    H116053   1.632   1.840   1.197
 5349TIP3    H216054   1.590   1.814   1.340
 5350TIP3   OH216055   2.416   0.259   1.724
 5350TIP3    H116056   2.491   0.236   1.669
 5350TIP3    H216057   2.365   0.321   1.672
 5351TIP3   OH216058   0.151   4.570   3.479
 5351TIP3    H116059   0.188   4.648   3.520
 5351TIP3    H216060   0.057   4.586   3.477
 5352TIP3   OH216061   2.296   1.108   2.107
 5352TIP3    H116062   2.292   1.037   2.171
 5352TIP3    H216063   2.279   1.065   2.023
 5353TIP3   OH216064   0.282   2.936   2.569
 5353TIP3    H116065   0.275   3.031   2.559
 5353TIP3    H216066   0.245   2.901   2.488
 5354TIP3   OH216067   2.076   2.311   5.057
 5354TIP3    H116068   1.984   2.293   5.035
 5354TIP3    H216069   2.076   2.403   5.084
 5355TIP3   OH216070   1.730   2.783   4.176
 5355TIP3    H116071   1.772   2.852   4.227
 5355TIP3    H216072   1.754   2.803   4.085
 5356TIP3   OH216073   3.371   1.913   4.446
 5356TIP3    H116074   3.277   1.922   4.462
 5356TIP3    H216075   3.381   1.933   4.353
 5357TIP3   OH216076   6.238   2.621   0.450
 5357TIP3    H116077   6.196   2.598   0.368
 5357TIP3    H216078   6.313   2.562   0.457
 5358TIP3   OH216079   3.215   3.501   0.790
 5358TIP3    H116080   3.279   3.551   0.842
 5358TIP3    H216081   3.140   3.492   0.848
 5359TIP3   OH216082   4.903   1.499   4.079
 5359TIP3    H116083   4.812   1.525   4.094
 5359TIP3    H216084   4.896   1.417   4.029
 5360TIP3   OH216085   6.084   2.921   4.760
 5360TIP3    H116086   6.122   2.843   4.801
 5360TIP3    H216087   6.051   2.973   4.833
 5361TIP3   OH216088   3.546   1.966   2.318
 5361TIP3    H116089   3.543   2.052   2.276
 5361TIP3    H216090   3.562   1.986   2.411
 5362TIP3   OH216091   5.626   4.716   0.657
 5362TIP3    H116092   5.693   4.649   0.647
 5362TIP3    H216093   5.667   4.784   0.710
 5363TIP3   OH216094   2.391   5.328   2.753
 5363TIP3    H116095   2.303   5.296   2.733
 5363TIP3    H216096   2.388   5.353   2.845
 5364TIP3   OH216097   3.931   1.487   0.067
 5364TIP3    H116098   3.983   1.568   0.068
 5364TIP3    H216099   3.983   1.425   0.118
 5365TIP3   OH216100   4.636   0.654   4.175
 5365TIP3    H116101   4.682   0.719   4.123
 5365TIP3    H216102   4.690   0.575   4.167
 5366TIP3   OH216103   2.001   4.548   3.334
 5366TIP3    H116104   2.094   4.571   3.333
 5366TIP3    H216105   1.972   4.559   3.243
 5367TIP3   OH216106   5.433   3.828   3.271
 5367TIP3    H116107   5.518   3.820   3.313
 5367TIP3    H216108   5.413   3.922   3.273
 5368TIP3   OH216109   5.467   4.412   4.366
 5368TIP3    H116110   5.494   4.500   4.341
 5368TIP3    H216111   5.459   4.416   4.461
 5369TIP3   OH216112   4.397   0.607   2.275
 5369TIP3    H116113   4.394   0.680   2.337
 5369TIP3    H216114   4.415   0.530   2.329
 5370TIP3   OH216115   1.174   5.075   1.473
 5370TIP3    H116116   1.141   5.002   1.421
 5370TIP3    H216117   1.211   5.136   1.409
 5371TIP3   OH216118   1.072   0.351   0.398
 5371TIP3    H116119   1.011   0.396   0.457
 5371TIP3    H216120   1.024   0.345   0.315
 5372TIP3   OH216121   0.928   5.215   1.484
 5372TIP3    H116122   1.010   5.165   1.484
 5372TIP3    H216123   0.933   5.269   1.564
 5373TIP3   OH216124   5.103   2.927   0.767
 5373TIP3    H116125   5.023   2.964   0.730
 5373TIP3    H216126   5.113   2.971   0.851
 5374TIP3   OH216127   4.042   0.587   2.387
 5374TIP3    H116128   4.057   0.573   2.293
 5374TIP3    H216129   4.129   0.574   2.427
 5375TIP3   OH216130   5.745   5.913   3.290
 5375TIP3    H116131   5.780   5.886   3.374
 5375TIP3    H216132   5.811   5.885   3.226
 5376TIP3   OH216133   2.252   4.876   1.296
 5376TIP3    H116134   2.342   4.903   1.279
 5376TIP3    H216135   2.224   4.830   1.217
 5377TIP3   OH216136   3.605   0.223   4.180
 5377TIP3    H116137   3.574   0.168   4.108
 5377TIP3    H216138   3.526   0.249   4.226
 5378TIP3   OH216139   6.246   5.422   3.529
 5378TIP3    H116140   6.247   5.334   3.491
 5378TIP3    H216141   6.298   5.475   3.469
 5379TIP3   OH216142   3.107   2.705   4.221
 5379TIP3    H116143   3.049   2.760   4.167
 5379TIP3    H216144   3.055   2.626   4.239
 5380TIP3   OH216145   3.306   3.353   3.684
 5380TIP3    H116146   3.334   3.361   3.775
 5380TIP3    H216147   3.274   3.264   3.676
 5381TIP3   OH216148   5.241   4.283   4.107
 5381TIP3    H116149   5.271   4.195   4.081
 5381TIP3    H216150   5.184   4.311   4.035
 5382TIP3   OH216151   2.533   0.664   1.863
 5382TIP3    H116152   2.507   0.573   1.876
 5382TIP3    H216153   2.533   0.701   1.951
 5383TIP3   OH216154   0.848   3.191   3.851
 5383TIP3    H116155   0.775   3.178   3.791
 5383TIP3    H216156   0.810   3.237   3.926
 5384TIP3   OH216157   5.452   5.939   3.009
 5384TIP3    H116158   5.525   5.891   2.969
 5384TIP3    H216159   5.395   5.961   2.935
 5385TIP3   OH216160   6.135   3.709   2.172
 5385TIP3    H116161   6.158   3.792   2.215
 5385TIP3    H216162   6.080   3.664   2.235
 5386TIP3   OH216163   5.690   1.269   4.863
 5386TIP3    H116164   5.674   1.238   4.774
 5386TIP3    H216165   5.631   1.343   4.874
 5387TIP3   OH216166   4.130   2.828   1.542
 5387TIP3    H116167   4.151   2.808   1.634
 5387TIP3    H216168   4.060   2.893   1.547
 5388TIP3   OH216169   5.270   2.522   2.763
 5388TIP3    H116170   5.321   2.489   2.837
 5388TIP3    H216171   5.321   2.499   2.686
 5389TIP3   OH216172   5.132   2.279   4.745
 5389TIP3    H116173   5.067   2.315   4.685
 5389TIP3    H216174   5.215   2.282   4.697
 5390TIP3   OH216175   5.282   5.287   0.813
 5390TIP3    H116176   5.372   5.255   0.823
 5390TIP3    H216177   5.281   5.329   0.727
 5391TIP3   OH216178   0.425   5.393   3.982
 5391TIP3    H116179   0.453   5.411   3.893
 5391TIP3    H216180   0.434   5.298   3.991
 5392TIP3   OH216181   3.557   5.042   5.104
 5392TIP3    H116182   3.526   5.070   5.018
 5392TIP3    H216183   3.632   5.099   5.122
 5393TIP3   OH216184   6.122   0.089   3.059
 5393TIP3    H116185   6.115   0.170   3.009
 5393TIP3    H216186   6.117   0.117   3.151
 5394TIP3   OH216187   3.181   4.194   5.162
 5394TIP3    H116188   3.222   4.113   5.192
 5394TIP3    H216189   3.104   4.166   5.113
 5395TIP3   OH216190   5.803   3.545   4.634
 5395TIP3    H116191   5.800   3.638   4.657
 5395TIP3    H216192   5.820   3.501   4.717
 5396TIP3   OH216193   3.774   5.295   0.397
 5396TIP3    H116194   3.749   5.386   0.412
 5396TIP3    H216195   3.718   5.266   0.325
 5397TIP3   OH216196   1.790   5.292   0.409
 5397TIP3    H116197   1.839   5.372   0.390
 5397TIP3    H216198   1.738   5.277   0.330
 5398TIP3   OH216199   0.073   2.824   3.548
 5398TIP3    H116200   0.029   2.896   3.503
 5398TIP3    H216201   0.068   2.751   3.486
 5399TIP3   OH216202   2.280   5.166   3.646
 5399TIP3    H116203   2.207   5.222   3.674
 5399TIP3    H216204   2.303   5.200   3.559
 5400TIP3   OH216205   2.351   2.916   0.821
 5400TIP3    H116206   2.368   2.910   0.915
 5400TIP3    H216207   2.434   2.892   0.780
 5401TIP3   OH216208   0.607   1.174   4.521
 5401TIP3    H116209   0.617   1.200   4.613
 5401TIP3    H216210   0.610   1.078   4.522
 5402TIP3   OH216211   0.368   5.293   5.088
 5402TIP3    H116212   0.425   5.350   5.140
 5402TIP3    H216213   0.319   5.242   5.152
 5403TIP3   OH216214   2.033   5.006   1.427
 5403TIP3    H116215   1.959   4.975   1.374
 5403TIP3    H216216   2.110   4.969   1.383
 5404TIP3   OH216217   5.199   2.586   3.833
 5404TIP3    H116218   5.104   2.599   3.827
 5404TIP3    H216219   5.229   2.657   3.890
 5405TIP3   OH216220   2.992   1.070   3.609
 5405TIP3    H116221   2.947   1.151   3.630
 5405TIP3    H216222   3.068   1.097   3.557
 5406TIP3   OH216223   2.785   4.559   2.859
 5406TIP3    H116224   2.724   4.523   2.924
 5406TIP3    H216225   2.729   4.608   2.798
 5407TIP3   OH216226   0.752   2.238   4.767
 5407TIP3    H116227   0.797   2.322   4.758
 5407TIP3    H216228   0.744   2.206   4.677
 5408TIP3   OH216229   5.458   0.869   4.442
 5408TIP3    H116230   5.518   0.881   4.367
 5408TIP3    H216231   5.500   0.917   4.513
 5409TIP3   OH216232   5.730   1.941   0.567
 5409TIP3    H116233   5.659   2.000   0.595
 5409TIP3    H216234   5.799   1.999   0.535
 5410TIP3   OH216235   5.735   5.729   4.476
 5410TIP3    H116236   5.742   5.676   4.555
 5410TIP3    H216237   5.825   5.742   4.448
 5411TIP3   OH216238   2.459   2.964   4.743
 5411TIP3    H116239   2.453   2.977   4.838
 5411TIP3    H216240   2.527   2.898   4.732
 5412TIP3   OH216241   5.691   2.930   4.435
 5412TIP3    H116242   5.721   2.840   4.424
 5412TIP3    H216243   5.695   2.968   4.347
 5413TIP3   OH216244   5.212   2.389   1.362
 5413TIP3    H116245   5.283   2.376   1.425
 5413TIP3    H216246   5.214   2.483   1.344
 5414TIP3   OH216247   1.726   2.208   3.310
 5414TIP3    H116248   1.736   2.303   3.311
 5414TIP3    H216249   1.741   2.183   3.219
 5415TIP3   OH216250   2.026   1.715   1.025
 5415TIP3    H116251   1.990   1.798   0.994
 5415TIP3    H216252   2.095   1.693   0.962
 5416TIP3   OH216253   4.044   5.527   3.967
 5416TIP3    H116254   4.095   5.522   4.047
 5416TIP3    H216255   4.031   5.621   3.953
 5417TIP3   OH216256   0.239   3.346   1.468
 5417TIP3    H116257   0.294   3.270   1.450
 5417TIP3    H216258   0.179   3.317   1.537
 5418TIP3   OH216259   3.375   3.399   3.043
 5418TIP3    H116260   3.424   3.454   3.103
 5418TIP3    H216261   3.433   3.387   2.968
 5419TIP3   OH216262   6.245   3.564   3.747
 5419TIP3    H116263   6.309   3.517   3.801
 5419TIP3    H216264   6.161   3.550   3.792
 5420TIP3   OH216265   5.388   4.875   0.577
 5420TIP3    H116266   5.319   4.886   0.642
 5420TIP3    H216267   5.447   4.809   0.614
 5421TIP3   OH216268   2.426   4.195   0.905
 5421TIP3    H116269   2.481   4.266   0.870
 5421TIP3    H216270   2.365   4.175   0.834
 5422TIP3   OH216271   1.694   2.400   4.015
 5422TIP3    H116272   1.696   2.454   3.936
 5422TIP3    H216273   1.625   2.439   4.070
 5423TIP3   OH216274   0.874   0.309   1.413
 5423TIP3    H116275   0.915   0.299   1.327
 5423TIP3    H216276   0.915   0.242   1.467
 5424TIP3   OH216277   3.242   0.636   5.141
 5424TIP3    H116278   3.333   0.664   5.143
 5424TIP3    H216279   3.214   0.650   5.050
 5425TIP3   OH216280   0.953   4.147   2.801
 5425TIP3    H116281   0.896   4.220   2.826
 5425TIP3    H216282   0.962   4.095   2.881
 5426TIP3   OH216283   3.973   5.431   0.129
 5426TIP3    H116284   4.065   5.458   0.130
 5426TIP3    H216285   3.930   5.490   0.191
 5427TIP3   OH216286   5.975   4.115   0.259
 5427TIP3    H116287   5.947   4.205   0.276
 5427TIP3    H216288   5.944   4.065   0.334
 5428TIP3   OH216289   1.536   0.738   0.558
 5428TIP3    H116290   1.559   0.645   0.552
 5428TIP3    H216291   1.548   0.759   0.651
 5429TIP3   OH216292   3.755   3.439   1.940
 5429TIP3    H116293   3.702   3.367   1.974
 5429TIP3    H216294   3.842   3.422   1.975
 5430TIP3   OH216295   2.051   0.021   0.062
 5430TIP3    H116296   2.116   0.083   0.027
 5430TIP3    H216297   1.967   0.066   0.051
 5431TIP3   OH216298   5.237   3.663   2.646
 5431TIP3    H116299   5.181   3.679   2.722
 5431TIP3    H216300   5.177   3.668   2.571
 5432TIP3   OH216301   4.422   5.618   1.137
 5432TIP3    H116302   4.437   5.686   1.203
 5432TIP3    H216303   4.457   5.655   1.056
 5433TIP3   OH216304   1.091   0.330   1.859
 5433TIP3    H116305   1.129   0.281   1.931
 5433TIP3    H216306   1.100   0.272   1.783
 5434TIP3   OH216307   5.890   1.451   0.094
 5434TIP3    H116308   5.822   1.446   0.026
 5434TIP3    H216309   5.869   1.530   0.144
 5435TIP3   OH216310   3.356   4.006   0.533
 5435TIP3    H116311   3.418   3.934   0.540
 5435TIP3    H216312   3.363   4.052   0.616
 5436TIP3   OH216313   1.438   4.824   2.723
 5436TIP3    H116314   1.519   4.848   2.768
 5436TIP3    H216315   1.444   4.867   2.638
 5437TIP3   OH216316   0.331   3.999   3.842
 5437TIP3    H116317   0.391   3.930   3.869
 5437TIP3    H216318   0.264   3.954   3.791
 5438TIP3   OH216319   3.728   3.748   0.713
 5438TIP3    H116320   3.723   3.663   0.756
 5438TIP3    H216321   3.709   3.811   0.782
 5439TIP3   OH216322   4.593   1.250   3.828
 5439TIP3    H116323   4.592   1.297   3.745
 5439TIP3    H216324   4.547   1.168   3.811
 5440TIP3   OH216325   3.991   2.635   3.354
 5440TIP3    H116326   3.932   2.562   3.375
 5440TIP3    H216327   3.966   2.705   3.415
 5441TIP3   OH216328   3.990   1.789   2.276
 5441TIP3    H116329   4.028   1.805   2.363
 5441TIP3    H216330   3.947   1.704   2.284
 5442TIP3   OH216331   0.759   4.556   0.994
 5442TIP3    H116332   0.777   4.479   1.048
 5442TIP3    H216333   0.793   4.532   0.907
 5443TIP3   OH216334   3.978   3.287   3.077
 5443TIP3    H116335   3.992   3.262   3.169
 5443TIP3    H216336   3.922   3.218   3.042
 5444TIP3   OH216337   5.402   5.295   5.062
 5444TIP3    H116338   5.408   5.343   5.144
 5444TIP3    H216339   5.373   5.359   4.998
 5445TIP3   OH216340   5.124   4.812   3.252
 5445TIP3    H116341   5.080   4.762   3.184
 5445TIP3    H216342   5.084   4.782   3.333
 5446TIP3   OH216343   5.041   5.782   1.871
 5446TIP3    H116344   5.118   5.744   1.913
 5446TIP3    H216345   4.967   5.743   1.917
 5447TIP3   OH216346   2.783   1.515   3.972
 5447TIP3    H116347   2.787   1.569   4.050
 5447TIP3    H216348   2.875   1.498   3.950
 5448TIP3   OH216349   3.167   1.502   4.164
 5448TIP3    H116350   3.243   1.459   4.125
 5448TIP3    H216351   3.200   1.588   4.192
 5449TIP3   OH216352   3.521   5.345   1.656
 5449TIP3    H116353   3.539   5.251   1.643
 5449TIP3    H216354   3.473   5.349   1.738
 5450TIP3   OH216355   0.848   3.626   3.266
 5450TIP3    H116356   0.833   3.628   3.361
 5450TIP3    H216357   0.833   3.716   3.237
 5451TIP3   OH216358   4.484   4.153   4.885
 5451TIP3    H116359   4.403   4.135   4.932
 5451TIP3    H216360   4.517   4.066   4.861
 5452TIP3   OH216361   4.114   1.161   2.214
 5452TIP3    H116362   4.048   1.225   2.188
 5452TIP3    H216363   4.086   1.132   2.302
 5453TIP3   OH216364   4.000   3.003   0.365
 5453TIP3    H116365   4.089   3.037   0.363
 5453TIP3    H216366   3.952   3.065   0.420
 5454TIP3   OH216367   3.268   2.138   4.758
 5454TIP3    H116368   3.175   2.129   4.741
 5454TIP3    H216369   3.310   2.124   4.673
 5455TIP3   OH216370   1.844   5.182   2.379
 5455TIP3    H116371   1.913   5.191   2.313
 5455TIP3    H216372   1.793   5.107   2.350
 5456TIP3   OH216373   5.648   4.173   0.569
 5456TIP3    H116374   5.684   4.211   0.649
 5456TIP3    H216375   5.627   4.083   0.592
 5457TIP3   OH216376   1.149   0.918   1.742
 5457TIP3    H116377   1.173   0.849   1.680
 5457TIP3    H216378   1.188   0.890   1.825
 5458TIP3   OH216379   4.206   5.152   3.122
 5458TIP3    H116380   4.218   5.073   3.070
 5458TIP3    H216381   4.289   5.199   3.113
 5459TIP3   OH216382   0.123   4.112   2.180
 5459TIP3    H116383   0.167   4.146   2.102
 5459TIP3    H216384   0.110   4.019   2.161
 5460TIP3   OH216385   3.770   1.391   2.652
 5460TIP3    H116386   3.689   1.418   2.608
 5460TIP3    H216387   3.755   1.299   2.674
 5461TIP3   OH216388   1.732   3.069   4.862
 5461TIP3    H116389   1.724   2.976   4.841
 5461TIP3    H216390   1.817   3.076   4.905
 5462TIP3   OH216391   1.701   5.482   4.271
 5462TIP3    H116392   1.646   5.551   4.309
 5462TIP3    H216393   1.770   5.530   4.224
 5463TIP3   OH216394   3.802   2.755   3.555
 5463TIP3    H116395   3.844   2.677   3.591
 5463TIP3    H216396   3.720   2.724   3.518
 5464TIP3   OH216397   2.436   5.336   0.443
 5464TIP3    H116398   2.517   5.385   0.430
 5464TIP3    H216399   2.464   5.253   0.481
 5465TIP3   OH216400   3.246   2.411   4.533
 5465TIP3    H116401   3.261   2.471   4.460
 5465TIP3    H216402   3.161   2.372   4.515
 5466TIP3   OH216403   1.998   5.619   5.122
 5466TIP3    H116404   2.008   5.551   5.055
 5466TIP3    H216405   1.979   5.698   5.072
 5467TIP3   OH216406   0.464   6.005   2.880
 5467TIP3    H116407   0.473   5.910   2.882
 5467TIP3    H216408   0.543   6.038   2.921
 5468TIP3   OH216409   4.116   0.971   4.045
 5468TIP3    H116410   4.044   0.953   3.984
 5468TIP3    H216411   4.096   0.918   4.122
 5469TIP3   OH216412   4.341   1.540   3.022
 5469TIP3    H116413   4.398   1.524   2.946
 5469TIP3    H216414   4.344   1.458   3.071
 5470TIP3   OH216415   0.326   4.773   0.229
 5470TIP3    H116416   0.357   4.844   0.172
 5470TIP3    H216417   0.230   4.779   0.223
 5471TIP3   OH216418   0.353   5.721   4.205
 5471TIP3    H116419   0.339   5.807   4.244
 5471TIP3    H216420   0.365   5.739   4.112
 5472TIP3   OH216421   3.702   3.454   3.020
 5472TIP3    H116422   3.644   3.463   2.944
 5472TIP3    H216423   3.781   3.502   2.995
 5473TIP3   OH216424   4.807   3.969   2.988
 5473TIP3    H116425   4.754   3.947   3.064
 5473TIP3    H216426   4.750   3.953   2.913
 5474TIP3   OH216427   6.159   3.936   3.167
 5474TIP3    H116428   6.232   3.971   3.115
 5474TIP3    H216429   6.185   3.952   3.257
 5475TIP3   OH216430   3.956   1.181   0.995
 5475TIP3    H116431   4.012   1.257   0.975
 5475TIP3    H216432   4.001   1.107   0.954
 5476TIP3   OH216433   2.278   4.895   4.587
 5476TIP3    H116434   2.278   4.853   4.501
 5476TIP3    H216435   2.234   4.833   4.645
 5477TIP3   OH216436   1.443   3.789   4.309
 5477TIP3    H116437   1.398   3.709   4.335
 5477TIP3    H216438   1.535   3.765   4.303
 5478TIP3   OH216439   2.557   4.709   0.730
 5478TIP3    H116440   2.529   4.645   0.796
 5478TIP3    H216441   2.517   4.791   0.758
 5479TIP3   OH216442   6.191   2.672   4.807
 5479TIP3    H116443   6.247   2.616   4.862
 5479TIP3    H216444   6.241   2.685   4.727
 5480TIP3   OH216445   2.182   3.758   2.296
 5480TIP3    H116446   2.252   3.811   2.335
 5480TIP3    H216447   2.209   3.667   2.311
 5481TIP3   OH216448   2.536   4.527   3.392
 5481TIP3    H116449   2.596   4.596   3.419
 5481TIP3    H216450   2.541   4.462   3.462
 5482TIP3   OH216451   0.556   2.139   1.262
 5482TIP3    H116452   0.485   2.107   1.207
 5482TIP3    H216453   0.635   2.097   1.228
 5483TIP3   OH216454   4.594   3.424   0.713
 5483TIP3    H116455   4.552   3.502   0.749
 5483TIP3    H216456   4.651   3.458   0.644
 5484TIP3   OH216457   1.536   5.165   2.060
 5484TIP3    H116458   1.579   5.098   2.007
 5484TIP3    H216459   1.492   5.222   1.997
 5485TIP3   OH216460   1.497   0.723   4.896
 5485TIP3    H116461   1.561   0.652   4.888
 5485TIP3    H216462   1.424   0.695   4.841
 5486TIP3   OH216463   4.222   2.315   3.933
 5486TIP3    H116464   4.218   2.219   3.929
 5486TIP3    H216465   4.313   2.336   3.910
 5487TIP3   OH216466   3.536   4.427   3.367
 5487TIP3    H116467   3.487   4.475   3.300
 5487TIP3    H216468   3.507   4.336   3.356
 5488TIP3   OH216469   0.125   2.754   3.876
 5488TIP3    H116470   0.168   2.729   3.794
 5488TIP3    H216471   0.063   2.683   3.893
 5489TIP3   OH216472   5.842   3.387   2.424
 5489TIP3    H116473   5.772   3.395   2.359
 5489TIP3    H216474   5.795   3.380   2.508
 5490TIP3   OH216475   1.856   0.747   1.614
 5490TIP3    H116476   1.850   0.830   1.567
 5490TIP3    H216477   1.938   0.753   1.663
 5491TIP3   OH216478   2.916   5.981   0.148
 5491TIP3    H116479   2.960   6.033   0.216
 5491TIP3    H216480   2.987   5.955   0.089
 5492TIP3   OH216481   1.940   0.021   2.262
 5492TIP3    H116482   1.932   0.004   2.356
 5492TIP3    H216483   2.032   0.000   2.242
 5493TIP3   OH216484   0.776   5.577   3.339
 5493TIP3    H116485   0.720   5.629   3.282
 5493TIP3    H216486   0.739   5.489   3.337
 5494TIP3   OH216487   0.813   5.738   4.784
 5494TIP3    H116488   0.731   5.785   4.774
 5494TIP3    H216489   0.876   5.805   4.811
 5495TIP3   OH216490   1.011   0.582   1.390
 5495TIP3    H116491   0.921   0.548   1.391
 5495TIP3    H216492   1.055   0.537   1.462
 5496TIP3   OH216493   0.328   3.016   0.938
 5496TIP3    H116494   0.354   3.012   0.846
 5496TIP3    H216495   0.343   2.928   0.971
 5497TIP3   OH216496   1.953   5.905   1.265
 5497TIP3    H116497   1.902   5.839   1.311
 5497TIP3    H216498   1.890   5.947   1.206
 5498TIP3   OH216499   2.373   2.373   5.140
 5498TIP3    H116500   2.428   2.368   5.062
 5498TIP3    H216501   2.291   2.331   5.115
 5499TIP3   OH216502   4.709   2.949   2.515
 5499TIP3    H116503   4.744   2.861   2.526
 5499TIP3    H216504   4.639   2.939   2.451
 5500TIP3   OH216505   4.525   2.570   1.854
 5500TIP3    H116506   4.532   2.507   1.782
 5500TIP3    H216507   4.614   2.604   1.866
 5501TIP3   OH216508   5.586   5.152   1.483
 5501TIP3    H116509   5.654   5.191   1.429
 5501TIP3    H216510   5.506   5.197   1.456
 5502TIP3   OH216511   5.957   2.638   5.130
 5502TIP3    H116512   5.920   2.714   5.086
 5502TIP3    H216513   6.034   2.673   5.176
 5503TIP3   OH216514   2.807   1.966   4.594
 5503TIP3    H116515   2.819   1.971   4.500
 5503TIP3    H216516   2.807   1.872   4.613
 5504TIP3   OH216517   0.625   3.155   3.680
 5504TIP3    H116518   0.600   3.065   3.661
 5504TIP3    H216519   0.657   3.189   3.597
 5505TIP3   OH216520   0.452   0.039   4.874
 5505TIP3    H116521   0.510  -0.017   4.925
 5505TIP3    H216522   0.385  -0.020   4.840
 5506TIP3   OH216523   4.729   4.107   0.113
 5506TIP3    H116524   4.653   4.050   0.100
 5506TIP3    H216525   4.702   4.192   0.079
 5507TIP3   OH216526   5.290   5.332   4.603
 5507TIP3    H116527   5.374   5.374   4.622
 5507TIP3    H216528   5.283   5.262   4.668
 5508TIP3   OH216529   1.401   3.831   1.399
 5508TIP3    H116530   1.453   3.911   1.408
 5508TIP3    H216531   1.314   3.861   1.372
 5509TIP3   OH216532   3.394   0.254   3.460
 5509TIP3    H116533   3.478   0.214   3.439
 5509TIP3    H216534   3.417   0.343   3.488
 5510TIP3   OH216535   5.275   3.943   2.341
 5510TIP3    H116536   5.337   3.955   2.412
 5510TIP3    H216537   5.197   3.992   2.368
 5511TIP3   OH216538   0.195   1.147   1.501
 5511TIP3    H116539   0.219   1.085   1.569
 5511TIP3    H216540   0.163   1.223   1.549
 5512TIP3   OH216541   6.298   4.550   1.535
 5512TIP3    H116542   6.263   4.537   1.447
 5512TIP3    H216543   6.329   4.640   1.536
 5513TIP3   OH216544   2.304   5.001   0.576
 5513TIP3    H116545   2.238   5.063   0.544
 5513TIP3    H216546   2.316   4.939   0.504
 5514TIP3   OH216547   6.289   0.158   1.932
 5514TIP3    H116548   6.315   0.142   1.841
 5514TIP3    H216549   6.245   0.078   1.959
 5515TIP3   OH216550   5.921   0.207   3.776
 5515TIP3    H116551   5.880   0.257   3.706
 5515TIP3    H216552   5.998   0.259   3.801
 5516TIP3   OH216553   3.610   3.012   3.490
 5516TIP3    H116554   3.580   3.101   3.474
 5516TIP3    H216555   3.599   2.999   3.584
 5517TIP3   OH216556   5.816   5.926   3.558
 5517TIP3    H116557   5.732   5.972   3.569
 5517TIP3    H216558   5.873   5.992   3.518
 5518TIP3   OH216559   6.040   3.937   0.730
 5518TIP3    H116560   6.045   4.032   0.743
 5518TIP3    H216561   6.129   3.911   0.706
 5519TIP3   OH216562   5.390   5.586   4.032
 5519TIP3    H116563   5.458   5.554   3.972
 5519TIP3    H216564   5.424   5.669   4.065
 5520TIP3   OH216565   1.685   2.155   2.531
 5520TIP3    H116566   1.610   2.148   2.590
 5520TIP3    H216567   1.761   2.146   2.587
 5521TIP3   OH216568   5.134   4.134   3.380
 5521TIP3    H116569   5.118   4.199   3.311
 5521TIP3    H216570   5.102   4.176   3.460
 5522TIP3   OH216571   2.176   2.260   3.712
 5522TIP3    H116572   2.262   2.245   3.750
 5522TIP3    H216573   2.143   2.337   3.759
 5523TIP3   OH216574   4.798   5.261   1.547
 5523TIP3    H116575   4.755   5.176   1.537
 5523TIP3    H216576   4.861   5.264   1.475
 5524TIP3   OH216577   4.050   2.249   2.034
 5524TIP3    H116578   4.004   2.179   2.079
 5524TIP3    H216579   4.139   2.215   2.021
 5525TIP3   OH216580   5.351   5.636   4.644
 5525TIP3    H116581   5.398   5.623   4.562
 5525TIP3    H216582   5.274   5.688   4.620
 5526TIP3   OH216583   0.981   1.609   4.174
 5526TIP3    H116584   0.993   1.567   4.089
 5526TIP3    H216585   1.028   1.554   4.235
 5527TIP3   OH216586   4.878   2.954   1.041
 5527TIP3    H116587   4.903   3.045   1.058
 5527TIP3    H216588   4.806   2.937   1.101
 5528TIP3   OH216589   1.803   4.531   0.161
 5528TIP3    H116590   1.869   4.494   0.219
 5528TIP3    H216591   1.793   4.467   0.091
 5529TIP3   OH216592   4.297   3.178   4.517
 5529TIP3    H116593   4.354   3.245   4.556
 5529TIP3    H216594   4.212   3.191   4.559
 5530TIP3   OH216595   4.489   1.442   1.322
 5530TIP3    H116596   4.404   1.481   1.302
 5530TIP3    H216597   4.469   1.369   1.381
 5531TIP3   OH216598   2.500   4.121   4.059
 5531TIP3    H116599   2.451   4.161   4.131
 5531TIP3    H216600   2.437   4.063   4.017
 5532TIP3   OH216601   5.525   3.439   5.135
 5532TIP3    H116602   5.558   3.444   5.225
 5532TIP3    H216603   5.431   3.452   5.143
 5533TIP3   OH216604   0.698   1.882   1.537
 5533TIP3    H116605   0.634   1.918   1.598
 5533TIP3    H216606   0.776   1.937   1.548
 5534TIP3   OH216607   5.528   5.097   3.437
 5534TIP3    H116608   5.458   5.035   3.419
 5534TIP3    H216609   5.499   5.145   3.515
 5535TIP3   OH216610   4.343   2.829   0.202
 5535TIP3    H116611   4.383   2.744   0.220
 5535TIP3    H216612   4.395   2.891   0.254
 5536TIP3   OH216613   2.854   1.641   3.684
 5536TIP3    H116614   2.781   1.673   3.737
 5536TIP3    H216615   2.929   1.693   3.713
 5537TIP3   OH216616   2.190   3.093   3.760
 5537TIP3    H116617   2.109   3.144   3.755
 5537TIP3    H216618   2.216   3.099   3.853
 5538TIP3   OH216619   1.451   5.074   2.887
 5538TIP3    H116620   1.539   5.070   2.922
 5538TIP3    H216621   1.409   4.993   2.917
 5539TIP3   OH216622   4.163   1.747   2.484
 5539TIP3    H116623   4.143   1.833   2.522
 5539TIP3    H216624   4.255   1.732   2.505
 5540TIP3   OH216625   2.163   5.689   3.683
 5540TIP3    H116626   2.254   5.718   3.673
 5540TIP3    H216627   2.155   5.615   3.622
 5541TIP3   OH216628   2.998   4.883   4.597
 5541TIP3    H116629   3.050   4.949   4.642
 5541TIP3    H216630   2.935   4.932   4.545
 5542TIP3   OH216631   3.710   5.548   5.065
 5542TIP3    H116632   3.802   5.544   5.091
 5542TIP3    H216633   3.664   5.501   5.135
 5543TIP3   OH216634   6.087   0.423   2.657
 5543TIP3    H116635   6.033   0.499   2.635
 5543TIP3    H216636   6.046   0.350   2.611
 5544TIP3   OH216637   1.476   3.516   3.331
 5544TIP3    H116638   1.466   3.456   3.257
 5544TIP3    H216639   1.537   3.583   3.301
 5545TIP3   OH216640   1.571   4.011   4.847
 5545TIP3    H116641   1.608   3.984   4.931
 5545TIP3    H216642   1.476   4.004   4.859
 5546TIP3   OH216643   1.798   2.149   3.917
 5546TIP3    H116644   1.775   2.223   3.973
 5546TIP3    H216645   1.849   2.091   3.973
 5547TIP3   OH216646   2.878   3.137   3.173
 5547TIP3    H116647   2.947   3.072   3.163
 5547TIP3    H216648   2.820   3.101   3.240
 5548TIP3   OH216649   5.861   4.945   5.061
 5548TIP3    H116650   5.776   4.967   5.100
 5548TIP3    H216651   5.859   4.850   5.050
 5549TIP3   OH216652   4.181   2.080   3.819
 5549TIP3    H116653   4.088   2.057   3.818
 5549TIP3    H216654   4.215   2.050   3.735
 5550TIP3   OH216655   0.138   1.638   2.673
 5550TIP3    H116656   0.166   1.589   2.751
 5550TIP3    H216657   0.048   1.664   2.693
 5551TIP3   OH216658   0.402   1.504   1.115
 5551TIP3    H116659   0.491   1.536   1.127
 5551TIP3    H216660   0.408   1.409   1.123
 5552TIP3   OH216661   2.304   0.601   0.133
 5552TIP3    H116662   2.376   0.540   0.148
 5552TIP3    H216663   2.337   0.686   0.162
 5553TIP3   OH216664   3.042   2.829   1.263
 5553TIP3    H116665   3.087   2.777   1.329
 5553TIP3    H216666   2.952   2.794   1.262
 5554TIP3   OH216667   5.116   2.382   1.104
 5554TIP3    H116668   5.144   2.471   1.082
 5554TIP3    H216669   5.162   2.362   1.185
 5555TIP3   OH216670   6.203   2.905   4.002
 5555TIP3    H116671   6.274   2.954   3.963
 5555TIP3    H216672   6.138   2.897   3.932
 5556TIP3   OH216673   1.597   1.854   0.866
 5556TIP3    H116674   1.617   1.947   0.857
 5556TIP3    H216675   1.529   1.838   0.800
 5557TIP3   OH216676   2.259   2.018   5.053
 5557TIP3    H116677   2.223   1.943   5.006
 5557TIP3    H216678   2.269   2.086   4.986
 5558TIP3   OH216679   5.433   4.436   2.823
 5558TIP3    H116680   5.341   4.413   2.836
 5558TIP3    H216681   5.477   4.353   2.804
 5559TIP3   OH216682   6.074   2.780   1.001
 5559TIP3    H116683   6.100   2.697   0.961
 5559TIP3    H216684   5.982   2.767   1.027
 5560TIP3   OH216685   5.299   0.354   0.322
 5560TIP3    H116686   5.261   0.364   0.234
 5560TIP3    H216687   5.393   0.347   0.306
 5561TIP3   OH216688   4.351   5.814   3.065
 5561TIP3    H116689   4.352   5.869   2.987
 5561TIP3    H216690   4.380   5.871   3.136
 5562TIP3   OH216691   5.674   1.227   1.893
 5562TIP3    H116692   5.734   1.301   1.887
 5562TIP3    H216693   5.720   1.163   1.948
 5563TIP3   OH216694   5.853   2.221   0.757
 5563TIP3    H116695   5.825   2.312   0.767
 5563TIP3    H216696   5.846   2.203   0.664
 5564TIP3   OH216697   1.763   5.559   1.779
 5564TIP3    H116698   1.817   5.636   1.761
 5564TIP3    H216699   1.676   5.595   1.799
 5565TIP3   OH216700   1.392   5.613   1.608
 5565TIP3    H116701   1.433   5.540   1.562
 5565TIP3    H216702   1.300   5.587   1.618
 5566TIP3   OH216703   1.351   5.860   2.413
 5566TIP3    H116704   1.309   5.945   2.426
 5566TIP3    H216705   1.287   5.808   2.364
 5567TIP3   OH216706   5.548   0.130   2.046
 5567TIP3    H116707   5.604   0.204   2.024
 5567TIP3    H216708   5.490   0.120   1.971
 5568TIP3   OH216709   2.959   0.216   0.080
 5568TIP3    H116710   2.904   0.167   0.141
 5568TIP3    H216711   2.910   0.297   0.062
 5569TIP3   OH216712   2.478   2.285   4.897
 5569TIP3    H116713   2.392   2.273   4.856
 5569TIP3    H216714   2.530   2.212   4.864
 5570TIP3   OH216715   4.429   4.112   2.930
 5570TIP3    H116716   4.464   4.148   3.012
 5570TIP3    H216717   4.339   4.143   2.927
 5571TIP3   OH216718   5.594   5.036   0.250
 5571TIP3    H116719   5.661   5.072   0.308
 5571TIP3    H216720   5.607   4.942   0.254
 5572TIP3   OH216721   5.260   0.511   3.247
 5572TIP3    H116722   5.302   0.425   3.242
 5572TIP3    H216723   5.283   0.544   3.333
 5573TIP3   OH216724   4.419   3.574   1.069
 5573TIP3    H116725   4.347   3.606   1.015
 5573TIP3    H216726   4.411   3.623   1.151
 5574TIP3   OH216727   1.476   2.744   2.556
 5574TIP3    H116728   1.492   2.831   2.518
 5574TIP3    H216729   1.516   2.683   2.494
 5575TIP3   OH216730   3.125   1.163   2.480
 5575TIP3    H116731   3.056   1.131   2.538
 5575TIP3    H216732   3.120   1.259   2.488
 5576TIP3   OH216733   0.253   0.075   1.451
 5576TIP3    H116734   0.282   0.086   1.541
 5576TIP3    H216735   0.319   0.122   1.399
 5577TIP3   OH216736   6.275   4.354   0.608
 5577TIP3    H116737   6.340   4.350   0.538
 5577TIP3    H216738   6.293   4.437   0.653
 5578TIP3   OH216739   5.966   1.785   1.827
 5578TIP3    H116740   5.928   1.729   1.760
 5578TIP3    H216741   6.041   1.827   1.784
 5579TIP3   OH216742   2.995   4.768   0.792
 5579TIP3    H116743   2.957   4.757   0.705
 5579TIP3    H216744   2.941   4.714   0.850
 5580TIP3   OH216745   0.115   4.861   4.941
 5580TIP3    H116746   0.198   4.833   4.977
 5580TIP3    H216747   0.070   4.905   5.013
 5581TIP3   OH216748   6.189   3.003   4.496
 5581TIP3    H116749   6.190   2.923   4.443
 5581TIP3    H216750   6.141   2.978   4.575
 5582TIP3   OH216751   4.589   2.285   4.283
 5582TIP3    H116752   4.565   2.206   4.331
 5582TIP3    H216753   4.512   2.341   4.290
 5583TIP3   OH216754   2.821   3.026   2.717
 5583TIP3    H116755   2.848   3.069   2.798
 5583TIP3    H216756   2.851   3.085   2.647
 5584TIP3   OH216757   5.317   1.238   0.314
 5584TIP3    H116758   5.373   1.309   0.281
 5584TIP3    H216759   5.377   1.180   0.360
 5585TIP3   OH216760   5.959   5.737   4.005
 5585TIP3    H116761   5.889   5.714   4.066
 5585TIP3    H216762   5.917   5.739   3.919
 5586TIP3   OH216763   1.035   1.843   2.274
 5586TIP3    H116764   0.995   1.858   2.188
 5586TIP3    H216765   1.066   1.929   2.301
 5587TIP3   OH216766   4.559   0.378   1.659
 5587TIP3    H116767   4.482   0.343   1.615
 5587TIP3    H216768   4.569   0.467   1.623
 5588TIP3   OH216769   6.109   0.501   0.169
 5588TIP3    H116770   6.044   0.459   0.113
 5588TIP3    H216771   6.086   0.473   0.258
 5589TIP3   OH216772   3.642   2.869   1.009
 5589TIP3    H116773   3.618   2.943   1.065
 5589TIP3    H216774   3.724   2.837   1.046
 5590TIP3   OH216775   3.244   5.342   2.878
 5590TIP3    H116776   3.325   5.377   2.841
 5590TIP3    H216777   3.258   5.343   2.973
 5591TIP3   OH216778   4.131   0.109   5.193
 5591TIP3    H116779   4.111   0.136   5.104
 5591TIP3    H216780   4.132   0.190   5.244
 5592TIP3   OH216781   4.908   1.246   3.572
 5592TIP3    H116782   4.818   1.277   3.577
 5592TIP3    H216783   4.902   1.152   3.587
 5593TIP3   OH216784   2.703   5.805   4.509
 5593TIP3    H116785   2.649   5.807   4.587
 5593TIP3    H216786   2.776   5.748   4.532
 5594TIP3   OH216787   0.557   4.401   2.007
 5594TIP3    H116788   0.557   4.481   2.060
 5594TIP3    H216789   0.631   4.350   2.041
 5595TIP3   OH216790   1.083   1.263   4.877
 5595TIP3    H116791   1.112   1.221   4.958
 5595TIP3    H216792   1.080   1.192   4.813
 5596TIP3   OH216793   0.287   4.902   4.062
 5596TIP3    H116794   0.213   4.958   4.041
 5596TIP3    H216795   0.254   4.813   4.048
 5597TIP3   OH216796   0.069   1.635   1.784
 5597TIP3    H116797   0.127   1.711   1.788
 5597TIP3    H216798   0.089   1.586   1.864
 5598TIP3   OH216799   5.958   5.559   2.784
 5598TIP3    H116800   6.047   5.565   2.748
 5598TIP3    H216801   5.965   5.595   2.873
 5599TIP3   OH216802   3.120   5.755   0.801
 5599TIP3    H116803   3.068   5.808   0.862
 5599TIP3    H216804   3.078   5.669   0.803
 5600TIP3   OH216805   1.245   3.161   0.702
 5600TIP3    H116806   1.168   3.109   0.724
 5600TIP3    H216807   1.210   3.238   0.656
 5601TIP3   OH216808   1.778   1.369   1.678
 5601TIP3    H116809   1.740   1.293   1.723
 5601TIP3    H216810   1.702   1.425   1.660
 5602TIP3   OH216811   3.726   3.760   0.068
 5602TIP3    H116812   3.725   3.664   0.064
 5602TIP3    H216813   3.775   3.787  -0.009
 5603TIP3   OH216814   3.487   4.912   0.702
 5603TIP3    H116815   3.442   4.919   0.786
 5603TIP3    H216816   3.579   4.900   0.725
 5604TIP3   OH216817   0.212   0.617   4.438
 5604TIP3    H116818   0.272   0.650   4.371
 5604TIP3    H216819   0.146   0.686   4.446
 5605TIP3   OH216820   3.835   4.238   2.385
 5605TIP3    H116821   3.921   4.276   2.401
 5605TIP3    H216822   3.796   4.294   2.318
 5606TIP3   OH216823   4.138   2.441   0.637
 5606TIP3    H116824   4.222   2.396   0.626
 5606TIP3    H216825   4.135   2.464   0.730
 5607TIP3   OH216826   6.278   4.741   0.412
 5607TIP3    H116827   6.331   4.813   0.447
 5607TIP3    H216828   6.187   4.768   0.430
 5608TIP3   OH216829   3.139   1.289   1.681
 5608TIP3    H116830   3.055   1.330   1.698
 5608TIP3    H216831   3.133   1.203   1.724
 5609TIP3   OH216832   5.249   0.469   1.890
 5609TIP3    H116833   5.295   0.509   1.963
 5609TIP3    H216834   5.317   0.422   1.841
 5610TIP3   OH216835   5.842   4.940   3.605
 5610TIP3    H116836   5.770   4.965   3.547
 5610TIP3    H216837   5.821   4.852   3.634
 5611TIP3   OH216838   3.357   4.517   1.572
 5611TIP3    H116839   3.387   4.605   1.551
 5611TIP3    H216840   3.363   4.512   1.668
 5612TIP3   OH216841   3.610   5.400   1.299
 5612TIP3    H116842   3.654   5.356   1.372
 5612TIP3    H216843   3.519   5.373   1.307
 5613TIP3   OH216844   1.810   1.906   3.275
 5613TIP3    H116845   1.716   1.900   3.258
 5613TIP3    H216846   1.844   1.821   3.245
 5614TIP3   OH216847   0.173   1.178   4.909
 5614TIP3    H116848   0.151   1.090   4.880
 5614TIP3    H216849   0.088   1.222   4.918
 5615TIP3   OH216850   5.164   4.698   1.066
 5615TIP3    H116851   5.159   4.777   1.120
 5615TIP3    H216852   5.082   4.697   1.017
 5616TIP3   OH216853   3.171   2.446   1.997
 5616TIP3    H116854   3.131   2.363   1.975
 5616TIP3    H216855   3.123   2.476   2.075
 5617TIP3   OH216856   5.395   4.759   1.609
 5617TIP3    H116857   5.324   4.738   1.548
 5617TIP3    H216858   5.380   4.703   1.685
 5618TIP3   OH216859   2.218   3.178   4.731
 5618TIP3    H116860   2.127   3.157   4.754
 5618TIP3    H216861   2.259   3.093   4.716
 5619TIP3   OH216862   5.948   0.861   1.266
 5619TIP3    H116863   5.972   0.792   1.204
 5619TIP3    H216864   6.032   0.889   1.304
 5620TIP3   OH216865   3.652   1.449   4.055
 5620TIP3    H116866   3.684   1.535   4.029
 5620TIP3    H216867   3.657   1.449   4.150
 5621TIP3   OH216868   1.132   2.179   4.136
 5621TIP3    H116869   1.119   2.086   4.114
 5621TIP3    H216870   1.090   2.190   4.221
 5622TIP3   OH216871   3.914   2.098   2.258
 5622TIP3    H116872   3.825   2.110   2.225
 5622TIP3    H216873   3.908   2.027   2.321
 5623TIP3   OH216874   2.279   0.201   3.518
 5623TIP3    H116875   2.215   0.267   3.544
 5623TIP3    H216876   2.230   0.118   3.521
 5624TIP3   OH216877   0.387   4.822   4.999
 5624TIP3    H116878   0.411   4.857   5.085
 5624TIP3    H216879   0.422   4.733   4.998
 5625TIP3   OH216880   1.947   4.393   2.630
 5625TIP3    H116881   1.924   4.484   2.610
 5625TIP3    H216882   2.004   4.366   2.557
 5626TIP3   OH216883   3.108   3.789   3.966
 5626TIP3    H116884   3.152   3.812   3.885
 5626TIP3    H216885   3.166   3.726   4.009
 5627TIP3   OH216886   3.597   1.580   3.271
 5627TIP3    H116887   3.517   1.587   3.323
 5627TIP3    H216888   3.600   1.488   3.243
 5628TIP3   OH216889   2.960   1.440   0.301
 5628TIP3    H116890   2.967   1.492   0.221
 5628TIP3    H216891   2.938   1.352   0.271
 5629TIP3   OH216892   4.067   1.969   0.476
 5629TIP3    H116893   4.099   1.883   0.451
 5629TIP3    H216894   4.062   2.018   0.393
 5630TIP3   OH216895   5.358   1.509   2.853
 5630TIP3    H116896   5.383   1.590   2.897
 5630TIP3    H216897   5.302   1.464   2.917
 5631TIP3   OH216898   5.778   5.426   3.361
 5631TIP3    H116899   5.730   5.482   3.422
 5631TIP3    H216900   5.711   5.368   3.324
 5632TIP3   OH216901   0.961   3.274   1.116
 5632TIP3    H116902   1.008   3.193   1.134
 5632TIP3    H216903   0.934   3.266   1.024
 5633TIP3   OH216904   2.061   0.251   4.716
 5633TIP3    H116905   1.967   0.257   4.703
 5633TIP3    H216906   2.098   0.318   4.660
 5634TIP3   OH216907   6.255   0.364   4.165
 5634TIP3    H116908   6.283   0.277   4.195
 5634TIP3    H216909   6.161   0.364   4.179
 5635TIP3   OH216910   1.060   3.661   4.210
 5635TIP3    H116911   0.985   3.648   4.152
 5635TIP3    H216912   1.118   3.587   4.192
 5636TIP3   OH216913   4.754   5.577   1.430
 5636TIP3    H116914   4.676   5.572   1.486
 5636TIP3    H216915   4.746   5.662   1.387
 5637TIP3   OH216916   0.193   2.556   4.220
 5637TIP3    H116917   0.209   2.618   4.291
 5637TIP3    H216918   0.097   2.546   4.218
 5638TIP3   OH216919   1.485   2.121   1.431
 5638TIP3    H116920   1.545   2.112   1.505
 5638TIP3    H216921   1.531   2.180   1.371
 5639TIP3   OH216922   3.494   1.928   0.279
 5639TIP3    H116923   3.581   1.892   0.297
 5639TIP3    H216924   3.453   1.936   0.365
 5640TIP3   OH216925   5.470   2.257   4.364
 5640TIP3    H116926   5.556   2.229   4.334
 5640TIP3    H216927   5.425   2.285   4.284
 5641TIP3   OH216928   2.788   2.784   1.807
 5641TIP3    H116929   2.855   2.780   1.876
 5641TIP3    H216930   2.734   2.860   1.830
 5642TIP3   OH216931   2.342   4.029   4.588
 5642TIP3    H116932   2.422   3.984   4.562
 5642TIP3    H216933   2.346   4.032   4.684
 5643TIP3   OH216934   2.899   3.955   4.010
 5643TIP3    H116935   2.983   3.910   4.016
 5643TIP3    H216936   2.921   4.048   4.001
 5644TIP3   OH216937   4.657   0.507   2.705
 5644TIP3    H116938   4.565   0.484   2.693
 5644TIP3    H216939   4.655   0.597   2.738
 5645TIP3   OH216940   0.033   0.284   2.930
 5645TIP3    H116941  -0.044   0.327   2.966
 5645TIP3    H216942   0.107   0.322   2.978
 5646TIP3   OH216943   5.548   5.781   4.786
 5646TIP3    H116944   5.482   5.731   4.737
 5646TIP3    H216945   5.622   5.721   4.796
 5647TIP3   OH216946   5.484   0.564   4.171
 5647TIP3    H116947   5.521   0.632   4.227
 5647TIP3    H216948   5.465   0.492   4.231
 5648TIP3   OH216949   1.526   3.383   4.544
 5648TIP3    H116950   1.541   3.473   4.575
 5648TIP3    H216951   1.535   3.329   4.622
 5649TIP3   OH216952   4.450   0.172   2.942
 5649TIP3    H116953   4.390   0.119   2.889
 5649TIP3    H216954   4.418   0.261   2.933
 5650TIP3   OH216955   1.610   0.099   4.840
 5650TIP3    H116956   1.547   0.138   4.779
 5650TIP3    H216957   1.584   0.007   4.845
 5651TIP3   OH216958   3.510   4.323   2.011
 5651TIP3    H116959   3.489   4.236   1.977
 5651TIP3    H216960   3.472   4.325   2.098
 5652TIP3   OH216961   2.473   2.557   0.711
 5652TIP3    H116962   2.449   2.643   0.675
 5652TIP3    H216963   2.527   2.517   0.643
 5653TIP3   OH216964   1.928   0.989   3.967
 5653TIP3    H116965   1.915   1.022   3.878
 5653TIP3    H216966   2.023   0.987   3.978
 5654TIP3   OH216967   1.837   0.633   3.573
 5654TIP3    H116968   1.781   0.701   3.534
 5654TIP3    H216969   1.926   0.667   3.564
 5655TIP3   OH216970   1.947   1.212   1.369
 5655TIP3    H116971   2.028   1.250   1.404
 5655TIP3    H216972   1.880   1.277   1.388
 5656TIP3   OH216973   4.063   4.126   1.165
 5656TIP3    H116974   4.133   4.190   1.170
 5656TIP3    H216975   3.984   4.178   1.145
 5657TIP3   OH216976   2.531   5.832   2.023
 5657TIP3    H116977   2.587   5.787   1.960
 5657TIP3    H216978   2.576   5.915   2.040
 5658TIP3   OH216979   3.275   5.013   5.196
 5658TIP3    H116980   3.192   5.041   5.234
 5658TIP3    H216981   3.286   5.070   5.120
 5659TIP3   OH216982   4.332   5.564   0.465
 5659TIP3    H116983   4.272   5.490   0.457
 5659TIP3    H216984   4.345   5.574   0.559
 5660TIP3   OH216985   1.964   2.081   3.682
 5660TIP3    H116986   2.025   2.152   3.701
 5660TIP3    H216987   1.880   2.112   3.716
 5661TIP3   OH216988   0.027   5.409   3.983
 5661TIP3    H116989   0.098   5.464   3.949
 5661TIP3    H216990  -0.018   5.377   3.906
 5662TIP3   OH216991   3.877   3.474   1.481
 5662TIP3    H116992   3.838   3.513   1.560
 5662TIP3    H216993   3.841   3.525   1.409
 5663TIP3   OH216994   5.023   0.279   1.115
 5663TIP3    H116995   5.106   0.295   1.071
 5663TIP3    H216996   5.030   0.326   1.198
 5664TIP3   OH216997   3.151   3.762   2.103
 5664TIP3    H116998   3.088   3.833   2.116
 5664TIP3    H216999   3.097   3.684   2.088
 5665TIP3   OH217000   5.918   3.447   3.481
 5665TIP3    H117001   6.005   3.420   3.453
 5665TIP3    H217002   5.885   3.373   3.532
 5666TIP3   OH217003   4.488   2.910   4.142
 5666TIP3    H117004   4.464   2.924   4.234
 5666TIP3    H217005   4.421   2.955   4.092
 5667TIP3   OH217006   0.089   0.207   0.266
 5667TIP3    H117007   0.128   0.291   0.242
 5667TIP3    H217008   0.159   0.159   0.308
 5668TIP3   OH217009   4.875   5.304   0.530
 5668TIP3    H117010   4.955   5.342   0.568
 5668TIP3    H217011   4.806   5.367   0.552
 5669TIP3   OH217012   2.673   5.668   4.236
 5669TIP3    H117013   2.605   5.701   4.177
 5669TIP3    H217014   2.682   5.735   4.303
 5670TIP3   OH217015   3.876   2.512   4.707
 5670TIP3    H117016   3.919   2.459   4.640
 5670TIP3    H217017   3.882   2.602   4.675
 5671TIP3   OH217018   3.087   2.472   3.097
 5671TIP3    H117019   3.080   2.382   3.065
 5671TIP3    H217020   2.999   2.493   3.129
 5672TIP3   OH217021   0.947   0.634   3.058
 5672TIP3    H117022   0.882   0.704   3.049
 5672TIP3    H217023   0.996   0.636   2.976
 5673TIP3   OH217024   6.035   1.971   4.776
 5673TIP3    H117025   6.107   1.910   4.761
 5673TIP3    H217026   6.016   2.008   4.690
 5674TIP3   OH217027   4.860   2.012   4.391
 5674TIP3    H117028   4.920   2.074   4.433
 5674TIP3    H217029   4.916   1.960   4.333
 5675TIP3   OH217030   6.190   4.812   4.515
 5675TIP3    H117031   6.132   4.881   4.546
 5675TIP3    H217032   6.242   4.788   4.591
 5676TIP3   OH217033   0.688   3.674   2.924
 5676TIP3    H117034   0.758   3.609   2.926
 5676TIP3    H217035   0.710   3.736   2.993
 5677TIP3   OH217036   2.795   5.211   3.840
 5677TIP3    H117037   2.771   5.119   3.855
 5677TIP3    H217038   2.723   5.245   3.787
 5678TIP3   OH217039   1.860   3.703   3.989
 5678TIP3    H117040   1.840   3.795   3.970
 5678TIP3    H217041   1.795   3.654   3.938
 5679TIP3   OH217042   5.812   3.898   1.510
 5679TIP3    H117043   5.760   3.898   1.591
 5679TIP3    H217044   5.885   3.839   1.529
 5680TIP3   OH217045   2.416   5.112   4.517
 5680TIP3    H117046   2.368   5.033   4.543
 5680TIP3    H217047   2.423   5.105   4.422
 5681TIP3   OH217048   1.229   3.612   4.579
 5681TIP3    H117049   1.271   3.600   4.494
 5681TIP3    H217050   1.225   3.524   4.617
 5682TIP3   OH217051   3.404   1.400   1.771
 5682TIP3    H117052   3.315   1.374   1.748
 5682TIP3    H217053   3.415   1.486   1.731
 5683TIP3   OH217054   1.642   0.948   1.109
 5683TIP3    H117055   1.686   1.032   1.098
 5683TIP3    H217056   1.673   0.914   1.193
 5684TIP3   OH217057   0.246   0.633   5.042
 5684TIP3    H117058   0.239   0.621   4.947
 5684TIP3    H217059   0.160   0.664   5.069
 5685TIP3   OH217060   2.674   0.630   3.240
 5685TIP3    H117061   2.583   0.659   3.233
 5685TIP3    H217062   2.675   0.543   3.199
 5686TIP3   OH217063   6.002   1.175   3.638
 5686TIP3    H117064   6.013   1.224   3.556
 5686TIP3    H217065   5.940   1.105   3.616
 5687TIP3   OH217066   3.218   5.398   0.126
 5687TIP3    H117067   3.195   5.470   0.068
 5687TIP3    H217068   3.179   5.421   0.210
 5688TIP3   OH217069   1.860   3.640   1.709
 5688TIP3    H117070   1.874   3.618   1.801
 5688TIP3    H217071   1.886   3.562   1.661
 5689TIP3   OH217072   3.610   2.793   3.327
 5689TIP3    H117073   3.539   2.835   3.279
 5689TIP3    H217074   3.643   2.861   3.386
 5690TIP3   OH217075   1.989   1.413   4.362
 5690TIP3    H117076   1.955   1.337   4.316
 5690TIP3    H217077   2.078   1.388   4.388
 5691TIP3   OH217078   1.362   0.318   0.001
 5691TIP3    H117079   1.303   0.375  -0.049
 5691TIP3    H217080   1.384   0.369   0.079
 5692TIP3   OH217081   0.479   5.438   4.532
 5692TIP3    H117082   0.468   5.470   4.443
 5692TIP3    H217083   0.419   5.363   4.539
 5693TIP3   OH217084   0.556   2.878   4.248
 5693TIP3    H117085   0.602   2.802   4.213
 5693TIP3    H217086   0.482   2.890   4.189
 5694TIP3   OH217087   4.416   4.096   3.377
 5694TIP3    H117088   4.476   4.030   3.413
 5694TIP3    H217089   4.345   4.101   3.441
 5695TIP3   OH217090   4.596   1.792   1.847
 5695TIP3    H117091   4.589   1.824   1.937
 5695TIP3    H217092   4.537   1.849   1.797
 5696TIP3   OH217093   5.324   4.192   2.160
 5696TIP3    H117094   5.390   4.125   2.180
 5696TIP3    H217095   5.319   4.244   2.240
 5697TIP3   OH217096   0.826   5.853   2.020
 5697TIP3    H117097   0.828   5.797   2.098
 5697TIP3    H217098   0.841   5.941   2.054
 5698TIP3   OH217099   3.271   3.547   0.248
 5698TIP3    H117100   3.202   3.611   0.262
 5698TIP3    H217101   3.339   3.594   0.201
 5699TIP3   OH217102   2.633   2.865   0.769
 5699TIP3    H117103   2.651   2.809   0.844
 5699TIP3    H217104   2.654   2.954   0.799
 5700TIP3   OH217105   4.460   0.473   3.174
 5700TIP3    H117106   4.463   0.521   3.091
 5700TIP3    H217107   4.549   0.479   3.208
 5701TIP3   OH217108   3.813   3.075   1.211
 5701TIP3    H117109   3.899   3.096   1.175
 5701TIP3    H217110   3.804   3.135   1.286
 5702TIP3   OH217111   5.283   2.600   2.250
 5702TIP3    H117112   5.295   2.652   2.170
 5702TIP3    H217113   5.221   2.531   2.225
 5703TIP3   OH217114   1.103   5.358   2.957
 5703TIP3    H117115   1.109   5.348   2.862
 5703TIP3    H217116   1.074   5.448   2.970
 5704TIP3   OH217117   0.556   3.734   1.287
 5704TIP3    H117118   0.591   3.690   1.364
 5704TIP3    H217119   0.605   3.697   1.214
 5705TIP3   OH217120   0.460   0.663   5.194
 5705TIP3    H117121   0.471   0.757   5.208
 5705TIP3    H217122   0.374   0.654   5.152
 5706TIP3   OH217123   1.288   1.201   2.960
 5706TIP3    H117124   1.309   1.178   3.051
 5706TIP3    H217125   1.307   1.294   2.954
 5707TIP3   OH217126   5.959   4.978   2.127
 5707TIP3    H117127   5.895   4.907   2.115
 5707TIP3    H217128   6.043   4.939   2.102
 5708TIP3   OH217129   6.225   1.640   0.689
 5708TIP3    H117130   6.225   1.695   0.611
 5708TIP3    H217131   6.206   1.699   0.761
 5709TIP3   OH217132   2.173   1.940   0.808
 5709TIP3    H117133   2.078   1.934   0.819
 5709TIP3    H217134   2.192   2.033   0.822
 5710TIP3   OH217135   3.054   0.523   4.412
 5710TIP3    H117136   2.967   0.496   4.383
 5710TIP3    H217137   3.039   0.568   4.494
 5711TIP3   OH217138   4.880   3.188   3.756
 5711TIP3    H117139   4.961   3.235   3.774
 5711TIP3    H217140   4.894   3.147   3.670
 5712TIP3   OH217141   0.114   2.294   0.068
 5712TIP3    H117142   0.159   2.263  -0.011
 5712TIP3    H217143   0.022   2.274   0.052
 5713TIP3   OH217144   2.475   2.276   4.389
 5713TIP3    H117145   2.474   2.261   4.484
 5713TIP3    H217146   2.567   2.287   4.367
 5714TIP3   OH217147   1.114   4.294   3.664
 5714TIP3    H117148   1.142   4.268   3.576
 5714TIP3    H217149   1.071   4.215   3.699
 5715TIP3   OH217150   5.845   1.679   0.661
 5715TIP3    H117151   5.791   1.753   0.635
 5715TIP3    H217152   5.925   1.687   0.609
 5716TIP3   OH217153   0.266   5.847   1.238
 5716TIP3    H117154   0.330   5.777   1.250
 5716TIP3    H217155   0.319   5.923   1.212
 5717TIP3   OH217156   0.801   1.080   3.549
 5717TIP3    H117157   0.853   1.112   3.623
 5717TIP3    H217158   0.862   1.080   3.476
 5718TIP3   OH217159   0.924   3.010   2.593
 5718TIP3    H117160   0.853   2.958   2.557
 5718TIP3    H217161   0.881   3.080   2.642
 5719TIP3   OH217162   0.231   0.295   2.549
 5719TIP3    H117163   0.135   0.295   2.556
 5719TIP3    H217164   0.261   0.332   2.632
 5720TIP3   OH217165   1.706   0.912   3.761
 5720TIP3    H117166   1.737   0.840   3.816
 5720TIP3    H217167   1.732   0.888   3.672
 5721TIP3   OH217168   2.390   1.469   0.039
 5721TIP3    H117169   2.393   1.565   0.035
 5721TIP3    H217170   2.396   1.441  -0.052
 5722TIP3   OH217171   1.859   2.136   3.081
 5722TIP3    H117172   1.950   2.123   3.055
 5722TIP3    H217173   1.844   2.072   3.150
 5723TIP3   OH217174   4.181   0.832   0.565
 5723TIP3    H117175   4.228   0.890   0.505
 5723TIP3    H217176   4.245   0.767   0.591
 5724TIP3   OH217177   1.512   3.173   4.741
 5724TIP3    H117178   1.595   3.140   4.777
 5724TIP3    H217179   1.487   3.108   4.675
 5725TIP3   OH217180   5.161   3.760   5.129
 5725TIP3    H117181   5.157   3.811   5.210
 5725TIP3    H217182   5.230   3.695   5.144
 5726TIP3   OH217183   2.953   0.031   0.760
 5726TIP3    H117184   2.961  -0.053   0.716
 5726TIP3    H217185   2.948   0.095   0.689
 5727TIP3   OH217186   5.080   3.705   2.090
 5727TIP3    H117187   5.097   3.792   2.127
 5727TIP3    H217188   5.128   3.645   2.147
 5728TIP3   OH217189   6.012   0.486   3.658
 5728TIP3    H117190   6.068   0.525   3.591
 5728TIP3    H217191   5.976   0.560   3.707
 5729TIP3   OH217192   0.775   0.936   0.106
 5729TIP3    H117193   0.839   0.875   0.142
 5729TIP3    H217194   0.695   0.885   0.095
 5730TIP3   OH217195   1.359   1.063   0.789
 5730TIP3    H117196   1.405   0.993   0.835
 5730TIP3    H217197   1.428   1.109   0.740
 5731TIP3   OH217198   2.925   4.104   5.083
 5731TIP3    H117199   2.847   4.160   5.074
 5731TIP3    H217200   2.909   4.054   5.163
 5732TIP3   OH217201   6.200   3.450   0.869
 5732TIP3    H117202   6.122   3.401   0.896
 5732TIP3    H217203   6.270   3.384   0.866
 5733TIP3   OH217204   0.799   0.964   4.174
 5733TIP3    H117205   0.800   1.032   4.106
 5733TIP3    H217206   0.726   0.907   4.149
 5734TIP3   OH217207   4.030   1.065   0.138
 5734TIP3    H117208   4.046   1.038   0.228
 5734TIP3    H217209   4.106   1.033   0.089
 5735TIP3   OH217210   4.873   4.700   0.468
 5735TIP3    H117211   4.943   4.655   0.514
 5735TIP3    H217212   4.894   4.687   0.375
 5736TIP3   OH217213   4.678   3.691   4.960
 5736TIP3    H117214   4.725   3.702   5.043
 5736TIP3    H217215   4.717   3.614   4.920
 5737TIP3   OH217216   2.589   2.441   3.027
 5737TIP3    H117217   2.668   2.427   3.080
 5737TIP3    H217218   2.578   2.361   2.977
 5738TIP3   OH217219   6.208   4.784   3.864
 5738TIP3    H117220   6.167   4.790   3.778
 5738TIP3    H217221   6.142   4.822   3.924
 5739TIP3   OH217222   1.659   2.946   3.431
 5739TIP3    H117223   1.716   2.876   3.464
 5739TIP3    H217224   1.654   3.009   3.503
 5740TIP3   OH217225   1.614   0.266   0.369
 5740TIP3    H117226   1.582   0.184   0.331
 5740TIP3    H217227   1.707   0.250   0.384
 5741TIP3   OH217228   5.767   4.583   4.669
 5741TIP3    H117229   5.723   4.552   4.748
 5741TIP3    H217230   5.766   4.679   4.677
 5742TIP3   OH217231   4.084   0.101   2.410
 5742TIP3    H117232   4.003   0.065   2.447
 5742TIP3    H217233   4.078   0.081   2.317
 5743TIP3   OH217234   0.895   3.823   3.857
 5743TIP3    H117235   0.901   3.918   3.845
 5743TIP3    H217236   0.935   3.787   3.778
 5744TIP3   OH217237   0.159   4.447   4.510
 5744TIP3    H117238   0.220   4.379   4.538
 5744TIP3    H217239   0.204   4.493   4.439
 5745TIP3   OH217240   0.689   1.887   2.105
 5745TIP3    H117241   0.712   1.808   2.152
 5745TIP3    H217242   0.660   1.857   2.019
 5746TIP3   OH217243   4.114   5.016   3.886
 5746TIP3    H117244   4.125   4.946   3.822
 5746TIP3    H217245   4.090   5.092   3.833
 5747TIP3   OH217246   1.536   0.052   0.235
 5747TIP3    H117247   1.569  -0.030   0.273
 5747TIP3    H217248   1.471   0.023   0.171
 5748TIP3   OH217249   2.941   0.955   1.675
 5748TIP3    H117250   2.894   0.955   1.758
 5748TIP3    H217251   3.031   0.978   1.698
 5749TIP3   OH217252   0.549   1.343   1.885
 5749TIP3    H117253   0.593   1.402   1.823
 5749TIP3    H217254   0.619   1.286   1.917
 5750TIP3   OH217255   3.479   4.919   3.096
 5750TIP3    H117256   3.458   4.874   3.014
 5750TIP3    H217257   3.399   4.915   3.147
 5751TIP3   OH217258   5.542   1.061   0.907
 5751TIP3    H117259   5.588   1.119   0.847
 5751TIP3    H217260   5.594   1.061   0.987
 5752TIP3   OH217261   0.997   0.227   4.543
 5752TIP3    H117262   1.082   0.189   4.565
 5752TIP3    H217263   0.934   0.175   4.592
 5753TIP3   OH217264   0.825   2.001   4.317
 5753TIP3    H117265   0.913   1.968   4.335
 5753TIP3    H217266   0.768   1.926   4.330
 5754TIP3   OH217267   3.985   0.717   0.312
 5754TIP3    H117268   4.001   0.798   0.359
 5754TIP3    H217269   3.956   0.745   0.225
 5755TIP3   OH217270   2.203   5.966   1.877
 5755TIP3    H117271   2.122   6.013   1.858
 5755TIP3    H217272   2.202   5.890   1.819
 5756TIP3   OH217273   3.301   2.961   2.477
 5756TIP3    H117274   3.349   2.906   2.538
 5756TIP3    H217275   3.272   3.035   2.529
 5757TIP3   OH217276   0.677   3.187   1.686
 5757TIP3    H117277   0.582   3.180   1.684
 5757TIP3    H217278   0.707   3.131   1.615
 5758TIP3   OH217279   2.418   3.519   5.109
 5758TIP3    H117280   2.375   3.479   5.034
 5758TIP3    H217281   2.401   3.612   5.099
 5759TIP3   OH217282   2.001   5.410   2.686
 5759TIP3    H117283   2.006   5.327   2.734
 5759TIP3    H217284   2.036   5.390   2.600
 5760TIP3   OH217285   5.719   5.850   2.947
 5760TIP3    H117286   5.805   5.892   2.942
 5760TIP3    H217287   5.737   5.757   2.930
 5761TIP3   OH217288   3.935   4.986   3.590
 5761TIP3    H117289   3.993   4.965   3.517
 5761TIP3    H217290   3.975   5.063   3.631
 5762TIP3   OH217291   3.646   4.901   4.735
 5762TIP3    H117292   3.689   4.956   4.801
 5762TIP3    H217293   3.621   4.822   4.783
 5763TIP3   OH217294   2.351   2.966   4.262
 5763TIP3    H117295   2.296   3.025   4.313
 5763TIP3    H217296   2.417   2.934   4.324
 5764TIP3   OH217297   5.225   3.665   2.356
 5764TIP3    H117298   5.310   3.622   2.346
 5764TIP3    H217299   5.246   3.759   2.356
 5765TIP3   OH217300   2.496   1.805   1.449
 5765TIP3    H117301   2.490   1.899   1.465
 5765TIP3    H217302   2.538   1.797   1.364
 5766TIP3   OH217303   4.942   3.134   3.245
 5766TIP3    H117304   4.999   3.202   3.211
 5766TIP3    H217305   4.886   3.179   3.308
 5767TIP3   OH217306   2.188   3.748   1.502
 5767TIP3    H117307   2.223   3.660   1.516
 5767TIP3    H217308   2.182   3.758   1.407
 5768TIP3   OH217309   1.308   2.247   0.578
 5768TIP3    H117310   1.390   2.229   0.533
 5768TIP3    H217311   1.332   2.305   0.650
 5769TIP3   OH217312   5.200   0.921   1.575
 5769TIP3    H117313   5.165   0.997   1.622
 5769TIP3    H217314   5.123   0.879   1.538
 5770TIP3   OH217315   4.392   2.959   1.463
 5770TIP3    H117316   4.414   3.006   1.544
 5770TIP3    H217317   4.391   2.867   1.488
 5771TIP3   OH217318   2.278   5.366   2.309
 5771TIP3    H117319   2.370   5.353   2.331
 5771TIP3    H217320   2.274   5.455   2.273
 5772TIP3   OH217321   3.188   3.087   1.909
 5772TIP3    H117322   3.225   3.147   1.844
 5772TIP3    H217323   3.200   3.000   1.871
 5773TIP3   OH217324   1.341   2.165   3.592
 5773TIP3    H117325   1.246   2.176   3.597
 5773TIP3    H217326   1.355   2.123   3.507
 5774TIP3   OH217327   1.665   0.050   2.857
 5774TIP3    H117328   1.657   0.129   2.910
 5774TIP3    H217329   1.587   0.051   2.801
 5775TIP3   OH217330   0.589   1.188   5.192
 5775TIP3    H117331   0.682   1.191   5.170
 5775TIP3    H217332   0.549   1.258   5.139
 5776TIP3   OH217333   0.134   4.799   3.838
 5776TIP3    H117334   0.039   4.789   3.841
 5776TIP3    H217335   0.148   4.882   3.791
 5777TIP3   OH217336   2.948   3.885   2.396
 5777TIP3    H117337   2.966   3.798   2.431
 5777TIP3    H217338   2.870   3.914   2.443
 5778TIP3   OH217339   4.896   5.039   3.471
 5778TIP3    H117340   4.826   5.033   3.537
 5778TIP3    H217341   4.967   4.985   3.507
 5779TIP3   OH217342   4.571   0.035   1.730
 5779TIP3    H117343   4.496   0.000   1.777
 5779TIP3    H217344   4.639   0.045   1.798
 5780TIP3   OH217345   4.415   3.127   0.176
 5780TIP3    H117346   4.350   3.114   0.245
 5780TIP3    H217347   4.389   3.208   0.134
 5781TIP3   OH217348   5.925   5.740   4.893
 5781TIP3    H117349   5.994   5.764   4.831
 5781TIP3    H217350   5.962   5.760   4.979
 5782TIP3   OH217351   5.625   3.136   3.146
 5782TIP3    H117352   5.620   3.117   3.240
 5782TIP3    H217353   5.534   3.147   3.119
 5783TIP3   OH217354   3.016   0.559   2.496
 5783TIP3    H117355   3.083   0.519   2.442
 5783TIP3    H217356   2.944   0.496   2.497
 5784TIP3   OH217357   2.628   1.699   1.913
 5784TIP3    H117358   2.607   1.646   1.837
 5784TIP3    H217359   2.687   1.767   1.880
 5785TIP3   OH217360   0.593   2.972   1.078
 5785TIP3    H117361   0.523   2.914   1.107
 5785TIP3    H217362   0.619   2.938   0.993
 5786TIP3   OH217363   1.829   5.837   0.956
 5786TIP3    H117364   1.866   5.749   0.958
 5786TIP3    H217365   1.798   5.848   0.866
 5787TIP3   OH217366   2.574   1.478   0.733
 5787TIP3    H117367   2.660   1.449   0.703
 5787TIP3    H217368   2.555   1.421   0.808
 5788TIP3   OH217369   1.693   5.483   2.529
 5788TIP3    H117370   1.662   5.512   2.443
 5788TIP3    H217371   1.733   5.398   2.513
 5789TIP3   OH217372   0.064   5.112   2.854
 5789TIP3    H117373  -0.010   5.124   2.794
 5789TIP3    H217374   0.045   5.031   2.900
 5790TIP3   OH217375   4.820   1.824   5.111
 5790TIP3    H117376   4.828   1.833   5.206
 5790TIP3    H217377   4.888   1.881   5.075
 5791TIP3   OH217378   0.576   4.825   3.916
 5791TIP3    H117379   0.560   4.750   3.859
 5791TIP3    H217380   0.669   4.846   3.904
 5792TIP3   OH217381   0.222   2.094   0.465
 5792TIP3    H117382   0.262   2.009   0.483
 5792TIP3    H217383   0.147   2.074   0.409
 5793TIP3   OH217384   1.088   4.388   4.528
 5793TIP3    H117385   1.050   4.305   4.501
 5793TIP3    H217386   1.088   4.385   4.623
 5794TIP3   OH217387   3.533   1.510   3.788
 5794TIP3    H117388   3.585   1.534   3.712
 5794TIP3    H217389   3.597   1.495   3.858
 5795TIP3   OH217390   3.671   1.271   3.037
 5795TIP3    H117391   3.661   1.302   2.947
 5795TIP3    H217392   3.742   1.207   3.032
 5796TIP3   OH217393   1.294   4.378   2.599
 5796TIP3    H117394   1.376   4.415   2.633
 5796TIP3    H217395   1.235   4.378   2.674
 5797TIP3   OH217396   3.341   3.240   0.353
 5797TIP3    H117397   3.311   3.300   0.285
 5797TIP3    H217398   3.279   3.253   0.425
 5798TIP3   OH217399   1.033   6.013   4.569
 5798TIP3    H117400   1.082   5.932   4.560
 5798TIP3    H217401   0.986   6.022   4.486
 5799TIP3   OH217402   0.250   3.252   1.079
 5799TIP3    H117403   0.286   3.164   1.062
 5799TIP3    H217404   0.174   3.236   1.135
 5800TIP3   OH217405   2.406   1.874   0.998
 5800TIP3    H117406   2.351   1.820   1.056
 5800TIP3    H217407   2.349   1.896   0.925
 5801TIP3   OH217408   5.421   4.927   2.863
 5801TIP3    H117409   5.384   4.903   2.778
 5801TIP3    H217410   5.345   4.941   2.919
 5802TIP3   OH217411   4.424   0.361   0.745
 5802TIP3    H117412   4.369   0.347   0.667
 5802TIP3    H217413   4.394   0.296   0.808
 5803TIP3   OH217414   0.737   0.528   0.784
 5803TIP3    H117415   0.823   0.531   0.827
 5803TIP3    H217416   0.695   0.610   0.811
 5804TIP3   OH217417   4.503   3.673   0.765
 5804TIP3    H117418   4.503   3.767   0.745
 5804TIP3    H217419   4.411   3.650   0.771
 5805TIP3   OH217420   1.185   1.087   5.100
 5805TIP3    H117421   1.130   1.085   5.178
 5805TIP3    H217422   1.214   0.996   5.089
 5806TIP3   OH217423   3.217   3.336   4.192
 5806TIP3    H117424   3.234   3.242   4.194
 5806TIP3    H217425   3.275   3.370   4.124
 5807TIP3   OH217426   5.317   2.118   2.289
 5807TIP3    H117427   5.406   2.091   2.310
 5807TIP3    H217428   5.264   2.038   2.299
 5808TIP3   OH217429   3.738   3.034   0.707
 5808TIP3    H117430   3.763   2.944   0.686
 5808TIP3    H217431   3.802   3.089   0.662
 5809TIP3   OH217432   5.848   2.351   1.911
 5809TIP3    H117433   5.828   2.418   1.977
 5809TIP3    H217434   5.777   2.288   1.919
 5810TIP3   OH217435   5.280   2.193   0.445
 5810TIP3    H117436   5.195   2.185   0.401
 5810TIP3    H217437   5.260   2.187   0.538
 5811TIP3   OH217438   5.097   5.338   1.998
 5811TIP3    H117439   5.088   5.258   1.946
 5811TIP3    H217440   5.145   5.398   1.942
 5812TIP3   OH217441   2.545   1.299   1.583
 5812TIP3    H117442   2.634   1.264   1.594
 5812TIP3    H217443   2.513   1.256   1.504
 5813TIP3   OH217444   2.359   3.225   1.619
 5813TIP3    H117445   2.437   3.174   1.598
 5813TIP3    H217446   2.295   3.160   1.649
 5814TIP3   OH217447   2.236   4.469   0.288
 5814TIP3    H117448   2.291   4.398   0.321
 5814TIP3    H217449   2.291   4.517   0.226
 5815TIP3   OH217450   4.592   1.215   2.983
 5815TIP3    H117451   4.572   1.152   2.914
 5815TIP3    H217452   4.685   1.236   2.970
 5816TIP3   OH217453   2.737   0.418   2.957
 5816TIP3    H117454   2.757   0.342   2.903
 5816TIP3    H217455   2.745   0.386   3.047
 5817TIP3   OH217456   1.486   0.387   1.935
 5817TIP3    H117457   1.520   0.312   1.887
 5817TIP3    H217458   1.497   0.461   1.876
 5818TIP3   OH217459   0.246   0.901   0.458
 5818TIP3    H117460   0.165   0.889   0.507
 5818TIP3    H217461   0.261   0.996   0.458
 5819TIP3   OH217462   5.375   3.976   0.321
 5819TIP3    H117463   5.346   3.974   0.412
 5819TIP3    H217464   5.323   3.909   0.277
 5820TIP3   OH217465   3.717   0.590   2.600
 5820TIP3    H117466   3.628   0.566   2.625
 5820TIP3    H217467   3.711   0.682   2.575
 5821TIP3   OH217468   6.087   1.575   1.622
 5821TIP3    H117469   6.147   1.647   1.644
 5821TIP3    H217470   6.034   1.563   1.700
 5822TIP3   OH217471   4.843   0.004   3.755
 5822TIP3    H117472   4.816   0.089   3.789
 5822TIP3    H217473   4.846  -0.053   3.832
 5823TIP3   OH217474   0.313   0.104   3.499
 5823TIP3    H117475   0.257   0.099   3.577
 5823TIP3    H217476   0.372   0.177   3.516
 5824TIP3   OH217477   4.697   2.009   3.848
 5824TIP3    H117478   4.605   1.990   3.831
 5824TIP3    H217479   4.728   1.934   3.899
 5825TIP3   OH217480   0.992   3.337   3.369
 5825TIP3    H117481   1.007   3.375   3.282
 5825TIP3    H217482   1.039   3.395   3.429
 5826TIP3   OH217483   1.139   4.182   0.397
 5826TIP3    H117484   1.097   4.154   0.315
 5826TIP3    H217485   1.209   4.118   0.411
 5827TIP3   OH217486   5.382   2.736   3.499
 5827TIP3    H117487   5.350   2.822   3.525
 5827TIP3    H217488   5.317   2.675   3.533
 5828TIP3   OH217489   0.622   4.984   2.920
 5828TIP3    H117490   0.563   4.969   2.993
 5828TIP3    H217491   0.583   5.058   2.872
 5829TIP3   OH217492   5.678   4.784   3.902
 5829TIP3    H117493   5.709   4.700   3.936
 5829TIP3    H217494   5.684   4.775   3.807
 5830TIP3   OH217495   4.351   4.457   3.077
 5830TIP3    H117496   4.313   4.522   3.136
 5830TIP3    H217497   4.441   4.447   3.106
 5831TIP3   OH217498   5.975   2.476   4.708
 5831TIP3    H117499   6.054   2.434   4.742
 5831TIP3    H217500   5.981   2.567   4.738
 5832TIP3   OH217501   1.761   4.280   4.364
 5832TIP3    H117502   1.799   4.231   4.437
 5832TIP3    H217503   1.827   4.275   4.295
 5833TIP3   OH217504   6.233   1.363   4.877
 5833TIP3    H117505   6.139   1.374   4.859
 5833TIP3    H217506   6.236   1.305   4.953
 5834TIP3   OH217507   3.612   0.869   4.706
 5834TIP3    H117508   3.535   0.925   4.719
 5834TIP3    H217509   3.685   0.920   4.738
 5835TIP3   OH217510   2.074   0.342   3.637
 5835TIP3    H117511   2.062   0.304   3.724
 5835TIP3    H217512   1.986   0.351   3.602
 5836TIP3   OH217513   4.139   0.062   3.129
 5836TIP3    H117514   4.182   0.001   3.070
 5836TIP3    H217515   4.199   0.135   3.137
 5837TIP3   OH217516   1.259   0.838   0.563
 5837TIP3    H117517   1.224   0.921   0.594
 5837TIP3    H217518   1.348   0.834   0.599
 5838TIP3   OH217519   0.832   0.715   4.338
 5838TIP3    H117520   0.748   0.689   4.301
 5838TIP3    H217521   0.851   0.800   4.298
 5839TIP3   OH217522   2.487   4.203   2.148
 5839TIP3    H117523   2.513   4.288   2.185
 5839TIP3    H217524   2.547   4.140   2.188
 5840TIP3   OH217525   0.723   1.662   2.247
 5840TIP3    H117526   0.754   1.653   2.338
 5840TIP3    H217527   0.762   1.587   2.201
 5841TIP3   OH217528   2.033   0.995   4.237
 5841TIP3    H117529   2.005   1.061   4.174
 5841TIP3    H217530   2.012   0.911   4.196
 5842TIP3   OH217531   3.693   2.795   4.025
 5842TIP3    H117532   3.740   2.712   4.013
 5842TIP3    H217533   3.610   2.783   3.978
 5843TIP3   OH217534   3.505   3.432   4.899
 5843TIP3    H117535   3.575   3.424   4.964
 5843TIP3    H217536   3.495   3.526   4.886
 5844TIP3   OH217537   2.269   0.230   1.192
 5844TIP3    H117538   2.326   0.306   1.205
 5844TIP3    H217539   2.323   0.169   1.141
 5845TIP3   OH217540   1.542   3.270   1.602
 5845TIP3    H117541   1.568   3.239   1.689
 5845TIP3    H217542   1.620   3.311   1.567
 5846TIP3   OH217543   1.516   5.646   1.216
 5846TIP3    H117544   1.551   5.734   1.221
 5846TIP3    H217545   1.436   5.654   1.164
 5847TIP3   OH217546   2.385   3.643   2.491
 5847TIP3    H117547   2.334   3.574   2.533
 5847TIP3    H217548   2.353   3.724   2.532
 5848TIP3   OH217549   6.127   3.254   4.440
 5848TIP3    H117550   6.171   3.173   4.464
 5848TIP3    H217551   6.034   3.233   4.446
 5849TIP3   OH217552   4.682   5.924   3.107
 5849TIP3    H117553   4.718   5.864   3.042
 5849TIP3    H217554   4.744   5.921   3.180
 5850TIP3   OH217555   0.067   4.560   4.947
 5850TIP3    H117556   0.128   4.625   4.913
 5850TIP3    H217557   0.035   4.514   4.869
 5851TIP3   OH217558   2.048   5.945   3.665
 5851TIP3    H117559   2.061   5.851   3.651
 5851TIP3    H217560   2.092   5.987   3.591
 5852TIP3   OH217561   4.255   1.714   3.651
 5852TIP3    H117562   4.183   1.717   3.713
 5852TIP3    H217563   4.223   1.661   3.579
 5853TIP3   OH217564   3.762   4.603   0.823
 5853TIP3    H117565   3.780   4.666   0.893
 5853TIP3    H217566   3.685   4.554   0.854
 5854TIP3   OH217567   2.411   5.283   3.422
 5854TIP3    H117568   2.465   5.334   3.362
 5854TIP3    H217569   2.347   5.239   3.366
 5855TIP3   OH217570   5.445   2.347   1.499
 5855TIP3    H117571   5.488   2.394   1.571
 5855TIP3    H217572   5.429   2.259   1.532
 5856TIP3   OH217573   0.548   3.540   3.256
 5856TIP3    H117574   0.516   3.483   3.326
 5856TIP3    H217575   0.636   3.566   3.284
 5857TIP3   OH217576   1.946   2.772   1.612
 5857TIP3    H117577   1.919   2.782   1.521
 5857TIP3    H217578   2.027   2.720   1.607
 5858TIP3   OH217579   4.399   2.925   0.578
 5858TIP3    H117580   4.405   2.834   0.547
 5858TIP3    H217581   4.380   2.917   0.671
 5859TIP3   OH217582   3.399   4.352   0.942
 5859TIP3    H117583   3.455   4.286   0.984
 5859TIP3    H217584   3.379   4.415   1.012
 5860TIP3   OH217585   6.280   0.404   2.273
 5860TIP3    H117586   6.294   0.498   2.260
 5860TIP3    H217587   6.266   0.394   2.367
 5861TIP3   OH217588   3.834   3.707   2.666
 5861TIP3    H117589   3.905   3.771   2.667
 5861TIP3    H217590   3.863   3.640   2.604
 5862TIP3   OH217591   1.119   5.967   0.646
 5862TIP3    H117592   1.075   5.983   0.729
 5862TIP3    H217593   1.067   6.013   0.581
 5863TIP3   OH217594   4.396   1.508   1.912
 5863TIP3    H117595   4.336   1.477   1.979
 5863TIP3    H217596   4.468   1.444   1.913
 5864TIP3   OH217597   3.223   3.627   2.535
 5864TIP3    H117598   3.202   3.670   2.618
 5864TIP3    H217599   3.138   3.605   2.497
 5865TIP3   OH217600   5.183   5.429   3.410
 5865TIP3    H117601   5.191   5.335   3.399
 5865TIP3    H217602   5.273   5.459   3.423
 5866TIP3   OH217603   2.243   4.159   3.857
 5866TIP3    H117604   2.261   4.224   3.925
 5866TIP3    H217605   2.257   4.075   3.901
 5867TIP3   OH217606   3.444   4.060   1.971
 5867TIP3    H117607   3.470   3.992   2.033
 5867TIP3    H217608   3.419   4.012   1.892
 5868TIP3   OH217609   3.572   3.028   4.119
 5868TIP3    H117610   3.553   2.991   4.205
 5868TIP3    H217611   3.628   2.963   4.077
 5869TIP3   OH217612   1.995   5.818   0.406
 5869TIP3    H117613   2.048   5.855   0.335
 5869TIP3    H217614   2.052   5.822   0.483
 5870TIP3   OH217615   4.952   0.315   4.689
 5870TIP3    H117616   4.996   0.268   4.760
 5870TIP3    H217617   4.863   0.330   4.721
 5871TIP3   OH217618   3.015   3.714   3.387
 5871TIP3    H117619   3.000   3.666   3.306
 5871TIP3    H217620   3.105   3.746   3.380
 5872TIP3   OH217621   0.257   0.330   0.919
 5872TIP3    H117622   0.243   0.301   1.009
 5872TIP3    H217623   0.295   0.255   0.874
 5873TIP3   OH217624   5.842   3.970   4.243
 5873TIP3    H117625   5.866   3.928   4.326
 5873TIP3    H217626   5.752   3.998   4.256
 5874TIP3   OH217627   1.763   1.834   4.251
 5874TIP3    H117628   1.695   1.884   4.296
 5874TIP3    H217629   1.807   1.898   4.195
 5875TIP3   OH217630   2.603   1.114   3.473
 5875TIP3    H117631   2.679   1.106   3.415
 5875TIP3    H217632   2.574   1.205   3.462
 5876TIP3   OH217633   0.134   3.531   5.029
 5876TIP3    H117634   0.204   3.523   4.963
 5876TIP3    H217635   0.149   3.616   5.069
 5877TIP3   OH217636   4.658   3.875   1.179
 5877TIP3    H117637   4.678   3.885   1.272
 5877TIP3    H217638   4.660   3.781   1.163
 5878TIP3   OH217639   2.456   1.207   4.159
 5878TIP3    H117640   2.475   1.213   4.066
 5878TIP3    H217641   2.428   1.296   4.183
 5879TIP3   OH217642   2.564   3.905   2.114
 5879TIP3    H117643   2.537   3.906   2.206
 5879TIP3    H217644   2.589   3.814   2.097
 5880TIP3   OH217645   3.856   0.900   2.182
 5880TIP3    H117646   3.839   0.956   2.106
 5880TIP3    H217647   3.917   0.833   2.149
 5881TIP3   OH217648   4.142   0.276   1.170
 5881TIP3    H117649   4.188   0.306   1.091
 5881TIP3    H217650   4.156   0.347   1.233
 5882TIP3   OH217651   4.141   2.453   2.688
 5882TIP3    H117652   4.070   2.389   2.691
 5882TIP3    H217653   4.206   2.413   2.629
 5883TIP3   OH217654   2.109   2.758   1.289
 5883TIP3    H117655   2.150   2.717   1.366
 5883TIP3    H217656   2.031   2.801   1.324
 5884TIP3   OH217657   3.198   2.841   1.855
 5884TIP3    H117658   3.135   2.775   1.884
 5884TIP3    H217659   3.282   2.809   1.888
 5885TIP3   OH217660   0.253   2.713   4.426
 5885TIP3    H117661   0.270   2.806   4.414
 5885TIP3    H217662   0.339   2.674   4.439
 5886TIP3   OH217663   5.301   1.756   2.019
 5886TIP3    H117664   5.297   1.685   1.955
 5886TIP3    H217665   5.296   1.836   1.967
 5887TIP3   OH217666   3.425   0.826   4.439
 5887TIP3    H117667   3.464   0.899   4.390
 5887TIP3    H217668   3.484   0.813   4.513
 5888TIP3   OH217669   5.607   2.483   0.933
 5888TIP3    H117670   5.683   2.537   0.955
 5888TIP3    H217671   5.554   2.484   1.013
 5889TIP3   OH217672   5.452   4.979   2.243
 5889TIP3    H117673   5.367   5.020   2.261
 5889TIP3    H217674   5.513   5.053   2.236
 5890TIP3   OH217675   3.216   4.926   3.725
 5890TIP3    H117676   3.241   4.855   3.784
 5890TIP3    H217677   3.121   4.933   3.735
 5891TIP3   OH217678   2.930   0.361   0.467
 5891TIP3    H117679   2.868   0.303   0.422
 5891TIP3    H217680   2.954   0.425   0.400
 5892TIP3   OH217681   1.701   2.137   0.832
 5892TIP3    H117682   1.617   2.142   0.877
 5892TIP3    H217683   1.732   2.228   0.830
 5893TIP3   OH217684   0.284   1.491   4.634
 5893TIP3    H117685   0.251   1.410   4.673
 5893TIP3    H217686   0.215   1.518   4.573
 5894TIP3   OH217687   5.036   5.627   3.298
 5894TIP3    H117688   5.081   5.635   3.214
 5894TIP3    H217689   5.068   5.545   3.335
 5895TIP3   OH217690   2.943   4.256   4.543
 5895TIP3    H117691   2.933   4.179   4.488
 5895TIP3    H217692   3.035   4.256   4.569
 5896TIP3   OH217693   1.750   0.999   0.513
 5896TIP3    H117694   1.801   1.077   0.534
 5896TIP3    H217695   1.660   1.024   0.531
 5897TIP3   OH217696   5.644   4.228   1.720
 5897TIP3    H117697   5.555   4.201   1.740
 5897TIP3    H217698   5.697   4.150   1.741
 5898TIP3   OH217699   1.050   2.139   1.011
 5898TIP3    H117700   1.130   2.114   0.967
 5898TIP3    H217701   0.980   2.109   0.953
 5899TIP3   OH217702   2.187   1.784   1.608
 5899TIP3    H117703   2.199   1.738   1.691
 5899TIP3    H217704   2.197   1.717   1.541
 5900TIP3   OH217705   3.048   3.670   0.357
 5900TIP3    H117706   3.089   3.743   0.402
 5900TIP3    H217707   2.968   3.707   0.320
 5901TIP3   OH217708   5.281   1.432   3.278
 5901TIP3    H117709   5.286   1.386   3.362
 5901TIP3    H217710   5.294   1.363   3.213
 5902TIP3   OH217711   2.285   2.034   3.889
 5902TIP3    H117712   2.269   2.088   3.967
 5902TIP3    H217713   2.344   2.086   3.835
 5903TIP3   OH217714   0.133   3.205   3.251
 5903TIP3    H117715   0.225   3.226   3.243
 5903TIP3    H217716   0.112   3.222   3.343
 5904TIP3   OH217717   5.463   3.851   4.362
 5904TIP3    H117718   5.482   3.944   4.373
 5904TIP3    H217719   5.470   3.813   4.449
 5905TIP3   OH217720   5.810   3.753   3.994
 5905TIP3    H117721   5.745   3.784   3.930
 5905TIP3    H217722   5.759   3.738   4.074
 5906TIP3   OH217723   4.297   1.669   3.296
 5906TIP3    H117724   4.264   1.619   3.371
 5906TIP3    H217725   4.328   1.602   3.235
 5907TIP3   OH217726   6.241   3.070   0.588
 5907TIP3    H117727   6.193   3.142   0.629
 5907TIP3    H217728   6.297   3.036   0.657
 5908TIP3   OH217729   0.802   5.825   0.299
 5908TIP3    H117730   0.774   5.899   0.246
 5908TIP3    H217731   0.891   5.806   0.268
 5909TIP3   OH217732   3.496   5.381   0.252
 5909TIP3    H117733   3.570   5.433   0.283
 5909TIP3    H217734   3.431   5.386   0.323
 5910TIP3   OH217735   0.474   0.516   3.335
 5910TIP3    H117736   0.501   0.603   3.364
 5910TIP3    H217737   0.540   0.492   3.269
 5911TIP3   OH217738   0.583   5.128   0.598
 5911TIP3    H117739   0.552   5.053   0.547
 5911TIP3    H217740   0.587   5.200   0.535
 5912TIP3   OH217741   5.481   2.056   5.067
 5912TIP3    H117742   5.539   2.008   5.008
 5912TIP3    H217743   5.474   2.143   5.029
 5913TIP3   OH217744   0.285   3.039   4.133
 5913TIP3    H117745   0.348   3.105   4.162
 5913TIP3    H217746   0.245   3.006   4.213
 5914TIP3   OH217747   6.306   4.506   4.681
 5914TIP3    H117748   6.365   4.476   4.612
 5914TIP3    H217749   6.236   4.552   4.635
 5915TIP3   OH217750   2.164   4.771   1.654
 5915TIP3    H117751   2.115   4.853   1.646
 5915TIP3    H217752   2.249   4.798   1.690
 5916TIP3   OH217753   1.914   4.597   0.778
 5916TIP3    H117754   1.871   4.681   0.762
 5916TIP3    H217755   1.897   4.546   0.699
 5917TIP3   OH217756   2.487   0.223   2.718
 5917TIP3    H117757   2.578   0.242   2.695
 5917TIP3    H217758   2.493   0.175   2.801
 5918TIP3   OH217759   1.811   3.746   4.825
 5918TIP3    H117760   1.830   3.654   4.806
 5918TIP3    H217761   1.782   3.746   4.916
 5919TIP3   OH217762   3.579   3.922   4.760
 5919TIP3    H117763   3.559   3.953   4.848
 5919TIP3    H217764   3.581   4.001   4.707
 5920TIP3   OH217765   1.979   4.624   4.960
 5920TIP3    H117766   1.887   4.619   4.934
 5920TIP3    H217767   1.978   4.612   5.055
 5921TIP3   OH217768   6.312   4.421   2.999
 5921TIP3    H117769   6.335   4.498   3.050
 5921TIP3    H217770   6.257   4.369   3.057
 5922TIP3   OH217771   3.684   1.546   4.911
 5922TIP3    H117772   3.646   1.485   4.974
 5922TIP3    H217773   3.766   1.575   4.951
 5923TIP3   OH217774   2.586   5.944   4.044
 5923TIP3    H117775   2.553   5.855   4.028
 5923TIP3    H217776   2.537   5.975   4.120
 5924TIP3   OH217777   2.370   2.598   4.037
 5924TIP3    H117778   2.422   2.635   4.108
 5924TIP3    H217779   2.369   2.504   4.054
 5925TIP3   OH217780   0.445   2.456   1.125
 5925TIP3    H117781   0.447   2.394   1.198
 5925TIP3    H217782   0.358   2.444   1.086
 5926TIP3   OH217783   5.586   1.747   0.435
 5926TIP3    H117784   5.617   1.807   0.502
 5926TIP3    H217785   5.552   1.803   0.366
 5927TIP3   OH217786   4.099   0.716   4.215
 5927TIP3    H117787   4.094   0.666   4.133
 5927TIP3    H217788   4.193   0.726   4.230
 5928TIP3   OH217789   4.185   5.718   2.777
 5928TIP3    H117790   4.238   5.748   2.851
 5928TIP3    H217791   4.216   5.770   2.703
 5929TIP3   OH217792   1.439   2.655   2.824
 5929TIP3    H117793   1.468   2.742   2.851
 5929TIP3    H217794   1.428   2.662   2.729
 5930TIP3   OH217795   3.130   1.630   3.242
 5930TIP3    H117796   3.147   1.678   3.323
 5930TIP3    H217797   3.090   1.694   3.184
 5931TIP3   OH217798   5.482   4.436   4.644
 5931TIP3    H117799   5.576   4.455   4.651
 5931TIP3    H217800   5.469   4.361   4.701
 5932TIP3   OH217801   0.171   1.575   3.715
 5932TIP3    H117802   0.227   1.607   3.644
 5932TIP3    H217803   0.211   1.610   3.795
 5933TIP3   OH217804   4.750   5.562   0.400
 5933TIP3    H117805   4.690   5.534   0.469
 5933TIP3    H217806   4.707   5.536   0.319
 5934TIP3   OH217807   4.374   5.202   4.328
 5934TIP3    H117808   4.388   5.292   4.356
 5934TIP3    H217809   4.298   5.207   4.270
 5935TIP3   OH217810   5.218   5.419   4.142
 5935TIP3    H117811   5.303   5.454   4.117
 5935TIP3    H217812   5.181   5.484   4.202
 5936TIP3   OH217813   2.987   3.448   3.653
 5936TIP3    H117814   2.933   3.411   3.723
 5936TIP3    H217815   2.994   3.377   3.589
 5937TIP3   OH217816   2.847   5.362   3.548
 5937TIP3    H117817   2.782   5.292   3.551
 5937TIP3    H217818   2.827   5.410   3.468
 5938TIP3   OH217819   2.288   3.383   4.893
 5938TIP3    H117820   2.245   3.461   4.858
 5938TIP3    H217821   2.283   3.319   4.821
 5939TIP3   OH217822   5.871   3.162   4.488
 5939TIP3    H117823   5.789   3.191   4.528
 5939TIP3    H217824   5.845   3.088   4.433
 5940TIP3   OH217825   5.387   5.005   4.124
 5940TIP3    H117826   5.386   5.003   4.220
 5940TIP3    H217827   5.381   4.913   4.099
 5941TIP3   OH217828   0.623   4.194   2.712
 5941TIP3    H117829   0.702   4.246   2.694
 5941TIP3    H217830   0.635   4.163   2.802
 5942TIP3   OH217831   3.948   0.615   1.082
 5942TIP3    H117832   3.987   0.555   1.146
 5942TIP3    H217833   4.020   0.637   1.023
 5943TIP3   OH217834   0.516   0.791   3.624
 5943TIP3    H117835   0.496   0.882   3.600
 5943TIP3    H217836   0.446   0.766   3.685
 5944TIP3   OH217837   3.847   3.777   3.127
 5944TIP3    H117838   3.805   3.761   3.212
 5944TIP3    H217839   3.828   3.869   3.108
 5945TIP3   OH217840   3.033   1.424   2.612
 5945TIP3    H117841   3.011   1.417   2.705
 5945TIP3    H217842   2.958   1.386   2.566
 5946TIP3   OH217843   2.538   5.248   1.655
 5946TIP3    H117844   2.467   5.213   1.709
 5946TIP3    H217845   2.608   5.269   1.717
 5947TIP3   OH217846   2.508   2.614   4.284
 5947TIP3    H117847   2.570   2.565   4.336
 5947TIP3    H217848   2.504   2.700   4.325
 5948TIP3   OH217849   5.514   3.731   4.954
 5948TIP3    H117850   5.477   3.643   4.963
 5948TIP3    H217851   5.567   3.743   5.033
 5949TIP3   OH217852   5.101   2.103   4.508
 5949TIP3    H117853   5.124   2.138   4.594
 5949TIP3    H217854   5.180   2.058   4.478
 5950TIP3   OH217855   4.218   4.652   2.491
 5950TIP3    H117856   4.204   4.584   2.557
 5950TIP3    H217857   4.186   4.732   2.532
 5951TIP3   OH217858   1.500   2.434   1.209
 5951TIP3    H117859   1.419   2.478   1.234
 5951TIP3    H217860   1.509   2.450   1.115
 5952TIP3   OH217861   1.547   1.832   3.171
 5952TIP3    H117862   1.567   1.756   3.116
 5952TIP3    H217863   1.459   1.815   3.204
 5953TIP3   OH217864   1.924   4.597   3.052
 5953TIP3    H117865   1.992   4.665   3.058
 5953TIP3    H217866   1.949   4.546   2.975
 5954TIP3   OH217867   3.986   1.519   5.011
 5954TIP3    H117868   3.979   1.494   5.103
 5954TIP3    H217869   4.079   1.539   4.998
 5955TIP3   OH217870   5.653   0.921   0.151
 5955TIP3    H117871   5.686   0.832   0.168
 5955TIP3    H217872   5.715   0.957   0.087
 5956TIP3   OH217873   2.736   1.049   1.509
 5956TIP3    H117874   2.689   1.008   1.436
 5956TIP3    H217875   2.816   0.998   1.518
 5957TIP3   OH217876   4.461   4.238   4.454
 5957TIP3    H117877   4.423   4.155   4.486
 5957TIP3    H217878   4.556   4.225   4.464
 5958TIP3   OH217879   5.241   1.210   4.525
 5958TIP3    H117880   5.204   1.128   4.557
 5958TIP3    H217881   5.167   1.271   4.526
 5959TIP3   OH217882   2.787   0.855   4.652
 5959TIP3    H117883   2.699   0.891   4.641
 5959TIP3    H217884   2.831   0.917   4.712
 5960TIP3   OH217885   0.767   2.127   4.078
 5960TIP3    H117886   0.779   2.107   4.171
 5960TIP3    H217887   0.786   2.045   4.033
 5961TIP3   OH217888   5.246   0.610   3.523
 5961TIP3    H117889   5.180   0.602   3.591
 5961TIP3    H217890   5.278   0.521   3.510
 5962TIP3   OH217891   1.752   5.262   4.406
 5962TIP3    H117892   1.805   5.207   4.348
 5962TIP3    H217893   1.766   5.351   4.374
 5963TIP3   OH217894   3.958   1.060   2.449
 5963TIP3    H117895   3.931   0.969   2.451
 5963TIP3    H217896   3.879   1.108   2.425
 5964TIP3   OH217897   3.174   5.987   3.252
 5964TIP3    H117898   3.251   5.975   3.197
 5964TIP3    H217899   3.192   5.935   3.330
 5965TIP3   OH217900   2.092   5.342   1.929
 5965TIP3    H117901   2.048   5.347   1.843
 5965TIP3    H217902   2.107   5.434   1.953
 5966TIP3   OH217903   3.846   2.665   3.106
 5966TIP3    H117904   3.906   2.635   3.174
 5966TIP3    H217905   3.789   2.728   3.151
 5967TIP3   OH217906   4.418   2.668   0.533
 5967TIP3    H117907   4.376   2.604   0.476
 5967TIP3    H217908   4.474   2.616   0.590
 5968TIP3   OH217909   2.850   2.523   3.252
 5968TIP3    H117910   2.799   2.585   3.304
 5968TIP3    H217911   2.818   2.437   3.279
 5969TIP3   OH217912   5.086   4.862   3.560
 5969TIP3    H117913   5.141   4.867   3.638
 5969TIP3    H217914   5.040   4.778   3.569
 5970TIP3   OH217915   5.986   5.794   4.386
 5970TIP3    H117916   6.045   5.806   4.461
 5970TIP3    H217917   6.038   5.744   4.323
 5971TIP3   OH217918   5.216   1.220   4.130
 5971TIP3    H117919   5.171   1.146   4.172
 5971TIP3    H217920   5.224   1.195   4.038
 5972TIP3   OH217921   5.194   5.346   2.574
 5972TIP3    H117922   5.236   5.277   2.522
 5972TIP3    H217923   5.253   5.421   2.565
 5973TIP3   OH217924   0.900   4.816   5.058
 5973TIP3    H117925   0.911   4.900   5.012
 5973TIP3    H217926   0.848   4.763   4.998
 5974TIP3   OH217927   1.411   5.956   5.009
 5974TIP3    H117928   1.461   5.890   4.961
 5974TIP3    H217929   1.453   6.039   4.988
 5975TIP3   OH217930   0.130   1.897   1.288
 5975TIP3    H117931   0.054   1.854   1.327
 5975TIP3    H217932   0.096   1.980   1.255
 5976TIP3   OH217933   3.784   5.610   2.506
 5976TIP3    H117934   3.738   5.640   2.427
 5976TIP3    H217935   3.825   5.528   2.480
 5977TIP3   OH217936   4.853   3.682   5.149
 5977TIP3    H117937   4.872   3.701   5.241
 5977TIP3    H217938   4.938   3.655   5.112
 5978TIP3   OH217939   2.943   3.216   4.432
 5978TIP3    H117940   3.029   3.178   4.447
 5978TIP3    H217941   2.959   3.311   4.431
 5979TIP3   OH217942   5.912   0.548   4.768
 5979TIP3    H117943   5.948   0.612   4.706
 5979TIP3    H217944   5.927   0.463   4.725
 5980TIP3   OH217945   5.237   0.438   3.944
 5980TIP3    H117946   5.142   0.428   3.954
 5980TIP3    H217947   5.267   0.352   3.916
 5981TIP3   OH217948   2.609   2.650   0.343
 5981TIP3    H117949   2.665   2.698   0.404
 5981TIP3    H217950   2.660   2.573   0.319
 5982TIP3   OH217951   2.231   5.479   0.106
 5982TIP3    H117952   2.316   5.512   0.133
 5982TIP3    H217953   2.175   5.489   0.183
 5983TIP3   OH217954   4.005   4.091   0.183
 5983TIP3    H117955   3.941   4.063   0.117
 5983TIP3    H217956   3.954   4.145   0.244
 5984TIP3   OH217957   3.779   0.221   1.165
 5984TIP3    H117958   3.694   0.265   1.167
 5984TIP3    H217959   3.809   0.232   1.074
 5985TIP3   OH217960   0.853   1.531   2.443
 5985TIP3    H117961   0.943   1.546   2.415
 5985TIP3    H217962   0.861   1.469   2.516
 5986TIP3   OH217963   2.476   0.321   0.519
 5986TIP3    H117964   2.452   0.232   0.492
 5986TIP3    H217965   2.497   0.366   0.437
 5987TIP3   OH217966   1.842   1.678   3.821
 5987TIP3    H117967   1.788   1.754   3.799
 5987TIP3    H217968   1.925   1.715   3.850
 5988TIP3   OH217969   5.039   1.860   2.320
 5988TIP3    H117970   5.060   1.952   2.336
 5988TIP3    H217971   5.051   1.817   2.405
 5989TIP3   OH217972   3.468   2.479   4.768
 5989TIP3    H117973   3.516   2.417   4.823
 5989TIP3    H217974   3.387   2.433   4.746
 5990TIP3   OH217975   5.047   2.321   2.691
 5990TIP3    H117976   5.051   2.257   2.762
 5990TIP3    H217977   5.088   2.400   2.726
 5991TIP3   OH217978   3.186   0.708   2.028
 5991TIP3    H117979   3.279   0.683   2.028
 5991TIP3    H217980   3.180   0.777   2.094
 5992TIP3   OH217981   1.350   3.512   1.503
 5992TIP3    H117982   1.275   3.569   1.519
 5992TIP3    H217983   1.426   3.570   1.509
 5993TIP3   OH217984   4.205   2.799   4.938
 5993TIP3    H117985   4.132   2.860   4.942
 5993TIP3    H217986   4.214   2.766   5.028
 5994TIP3   OH217987   4.455   5.681   3.554
 5994TIP3    H117988   4.511   5.697   3.630
 5994TIP3    H217989   4.425   5.591   3.564
 5995TIP3   OH217990   4.755   4.566   4.007
 5995TIP3    H117991   4.794   4.532   4.087
 5995TIP3    H217992   4.711   4.647   4.034
 5996TIP3   OH217993   2.087   3.497   2.530
 5996TIP3    H117994   2.100   3.402   2.533
 5996TIP3    H217995   2.068   3.516   2.438
 5997TIP3   OH217996   5.638   1.993   3.356
 5997TIP3    H117997   5.675   1.954   3.436
 5997TIP3    H217998   5.660   2.086   3.363
 5998TIP3   OH217999   5.629   0.607   4.846
 5998TIP3    H118000   5.699   0.552   4.881
 5998TIP3    H218001   5.667   0.648   4.768
 5999TIP3   OH218002   0.907   4.085   1.547
 5999TIP3    H118003   0.839   4.131   1.597
 5999TIP3    H218004   0.858   4.031   1.485
 6000TIP3   OH218005   4.655   5.859   2.214
 6000TIP3    H118006   4.625   5.788   2.271
 6000TIP3    H218007   4.684   5.928   2.275
 6001TIP3   OH218008   4.520   3.994   1.961
 6001TIP3    H118009   4.438   4.041   1.944
 6001TIP3    H218010   4.574   4.057   2.010
 6002TIP3   OH218011   2.031   2.561   4.004
 6002TIP3    H118012   2.063   2.643   4.043
 6002TIP3    H218013   1.958   2.588   3.948
 6003TIP3   OH218014   1.778   4.598   3.511
 6003TIP3    H118015   1.808   4.614   3.601
 6003TIP3    H218016   1.859   4.586   3.462
 6004TIP3   OH218017   1.562   3.219   0.351
 6004TIP3    H118018   1.557   3.199   0.258
 6004TIP3    H218019   1.637   3.278   0.359
 6005TIP3   OH218020   3.353   1.390   4.884
 6005TIP3    H118021   3.379   1.385   4.791
 6005TIP3    H218022   3.404   1.320   4.926
 6006TIP3   OH218023   1.110   2.338   1.532
 6006TIP3    H118024   1.111   2.291   1.449
 6006TIP3    H218025   1.186   2.397   1.528
 6007TIP3   OH218026   2.042   4.596   1.912
 6007TIP3    H118027   1.966   4.540   1.927
 6007TIP3    H218028   2.014   4.657   1.844
 6008TIP3   OH218029   5.183   5.252   0.250
 6008TIP3    H118030   5.097   5.218   0.225
 6008TIP3    H218031   5.243   5.178   0.240
 6009TIP3   OH218032   2.970   0.722   3.363
 6009TIP3    H118033   3.038   0.655   3.361
 6009TIP3    H218034   2.894   0.680   3.324
 6010TIP3   OH218035   4.357   1.875   1.023
 6010TIP3    H118036   4.398   1.873   1.109
 6010TIP3    H218037   4.276   1.924   1.036
 6011TIP3   OH218038   4.066   3.601   3.761
 6011TIP3    H118039   4.126   3.557   3.822
 6011TIP3    H218040   4.107   3.591   3.675
 6012TIP3   OH218041   0.025   0.870   1.524
 6012TIP3    H118042   0.078   0.802   1.483
 6012TIP3    H218043   0.076   0.899   1.600
 6013TIP3   OH218044   1.486   4.867   3.087
 6013TIP3    H118045   1.498   4.773   3.076
 6013TIP3    H218046   1.571   4.898   3.119
 6014TIP3   OH218047   3.180   3.459   1.206
 6014TIP3    H118048   3.127   3.402   1.261
 6014TIP3    H218049   3.129   3.540   1.200
 6015TIP3   OH218050   4.247   4.734   3.961
 6015TIP3    H118051   4.242   4.764   3.870
 6015TIP3    H218052   4.167   4.769   4.002
 6016TIP3   OH218053   0.777   3.845   3.141
 6016TIP3    H118054   0.821   3.926   3.112
 6016TIP3    H218055   0.705   3.876   3.196
 6017TIP3   OH218056   3.777   4.614   2.094
 6017TIP3    H118057   3.835   4.688   2.114
 6017TIP3    H218058   3.708   4.652   2.041
 6018TIP3   OH218059   0.294   5.218   2.165
 6018TIP3    H118060   0.355   5.247   2.098
 6018TIP3    H218061   0.250   5.298   2.193
 6019TIP3   OH218062   1.722   3.271   3.211
 6019TIP3    H118063   1.755   3.259   3.300
 6019TIP3    H218064   1.629   3.247   3.217
 6020TIP3   OH218065   1.397   0.397   1.500
 6020TIP3    H118066   1.445   0.315   1.486
 6020TIP3    H218067   1.463   0.465   1.489
 6021TIP3   OH218068   3.845   0.391   4.777
 6021TIP3    H118069   3.879   0.391   4.866
 6021TIP3    H218070   3.772   0.453   4.779
 6022TIP3   OH218071   5.931   5.298   4.668
 6022TIP3    H118072   5.987   5.341   4.603
 6022TIP3    H218073   5.972   5.319   4.752
 6023TIP3   OH218074   5.213   2.378   3.292
 6023TIP3    H118075   5.138   2.436   3.280
 6023TIP3    H218076   5.264   2.418   3.362
 6024TIP3   OH218077   3.033   3.976   4.627
 6024TIP3    H118078   3.073   3.895   4.657
 6024TIP3    H218079   3.006   3.957   4.537
 6025TIP3   OH218080   4.765   3.357   2.794
 6025TIP3    H118081   4.731   3.435   2.837
 6025TIP3    H218082   4.762   3.288   2.861
 6026TIP3   OH218083   5.181   4.074   3.066
 6026TIP3    H118084   5.220   4.141   3.122
 6026TIP3    H218085   5.094   4.107   3.047
 6027TIP3   OH218086   5.577   1.711   1.799
 6027TIP3    H118087   5.519   1.657   1.745
 6027TIP3    H218088   5.657   1.659   1.806
 6028TIP3   OH218089   2.363   1.444   4.272
 6028TIP3    H118090   2.295   1.410   4.330
 6028TIP3    H218091   2.404   1.515   4.320
 6029TIP3   OH218092   5.571   5.179   2.468
 6029TIP3    H118093   5.663   5.159   2.451
 6029TIP3    H218094   5.571   5.222   2.554
 6030TIP3   OH218095   0.031   1.452   1.262
 6030TIP3    H118096   0.051   1.533   1.216
 6030TIP3    H218097   0.043   1.473   1.355
 6031TIP3   OH218098   2.058   0.780   4.548
 6031TIP3    H118099   2.125   0.824   4.496
 6031TIP3    H218100   2.101   0.699   4.578
 6032TIP3   OH218101   2.659   3.383   0.129
 6032TIP3    H118102   2.715   3.307   0.119
 6032TIP3    H218103   2.638   3.409   0.039
 6033TIP3   OH218104   5.150   0.791   0.312
 6033TIP3    H118105   5.091   0.856   0.275
 6033TIP3    H218106   5.237   0.829   0.301
 6034TIP3   OH218107   5.826   0.512   4.452
 6034TIP3    H118108   5.862   0.441   4.506
 6034TIP3    H218109   5.793   0.576   4.515
 6035TIP3   OH218110   0.196   2.424   1.692
 6035TIP3    H118111   0.240   2.345   1.722
 6035TIP3    H218112   0.185   2.411   1.598
 6036TIP3   OH218113   4.908   0.696   4.921
 6036TIP3    H118114   4.900   0.682   4.827
 6036TIP3    H218115   4.820   0.719   4.950
 6037TIP3   OH218116   3.728   0.899   2.842
 6037TIP3    H118117   3.661   0.857   2.897
 6037TIP3    H218118   3.767   0.965   2.899
 6038TIP3   OH218119   3.733   3.180   2.060
 6038TIP3    H118120   3.675   3.132   2.119
 6038TIP3    H218121   3.727   3.133   1.977
 6039TIP3   OH218122   3.216   1.412   1.194
 6039TIP3    H118123   3.231   1.365   1.276
 6039TIP3    H218124   3.154   1.357   1.146
 6040TIP3   OH218125   4.094   3.669   2.261
 6040TIP3    H118126   4.087   3.727   2.185
 6040TIP3    H218127   4.187   3.645   2.264
 6041TIP3   OH218128   4.519   2.108   1.250
 6041TIP3    H118129   4.614   2.103   1.259
 6041TIP3    H218130   4.499   2.201   1.262
 6042TIP3   OH218131   3.911   0.193   3.544
 6042TIP3    H118132   3.907   0.145   3.627
 6042TIP3    H218133   3.921   0.124   3.478
 6043TIP3   OH218134   2.726   3.664   4.682
 6043TIP3    H118135   2.663   3.737   4.685
 6043TIP3    H218136   2.680   3.594   4.636
 6044TIP3   OH218137   4.234   2.805   2.634
 6044TIP3    H118138   4.186   2.776   2.711
 6044TIP3    H218139   4.272   2.889   2.659
 6045TIP3   OH218140   2.252   4.750   1.066
 6045TIP3    H118141   2.224   4.674   1.015
 6045TIP3    H218142   2.305   4.802   1.005
 6046TIP3   OH218143   2.681   3.460   0.485
 6046TIP3    H118144   2.669   3.369   0.457
 6046TIP3    H218145   2.767   3.460   0.528
 6047TIP3   OH218146   0.609   0.964   3.142
 6047TIP3    H118147   0.515   0.945   3.143
 6047TIP3    H218148   0.623   1.019   3.219
 6048TIP3   OH218149   6.145   0.331   1.339
 6048TIP3    H118150   6.239   0.342   1.325
 6048TIP3    H218151   6.118   0.266   1.273
 6049TIP3   OH218152   5.053   1.164   0.333
 6049TIP3    H118153   5.010   1.234   0.383
 6049TIP3    H218154   5.143   1.193   0.323
 6050TIP3   OH218155   1.559   3.022   2.556
 6050TIP3    H118156   1.503   3.060   2.624
 6050TIP3    H218157   1.648   3.035   2.588
 6051TIP3   OH218158   4.450   5.719   4.236
 6051TIP3    H118159   4.504   5.728   4.315
 6051TIP3    H218160   4.462   5.802   4.190
 6052TIP3   OH218161   5.251   5.624   4.342
 6052TIP3    H118162   5.345   5.627   4.361
 6052TIP3    H218163   5.226   5.716   4.328
 6053TIP3   OH218164   5.449   1.619   1.544
 6053TIP3    H118165   5.511   1.680   1.505
 6053TIP3    H218166   5.370   1.672   1.559
 6054TIP3   OH218167   4.464   3.942   0.739
 6054TIP3    H118168   4.389   3.984   0.780
 6054TIP3    H218169   4.540   3.976   0.786
 6055TIP3   OH218170   0.121   1.395   4.091
 6055TIP3    H118171   0.188   1.411   4.158
 6055TIP3    H218172   0.059   1.468   4.102
 6056TIP3   OH218173   2.494   3.447   2.877
 6056TIP3    H118174   2.400   3.446   2.865
 6056TIP3    H218175   2.523   3.530   2.838
 6057TIP3   OH218176   5.130   0.387   4.511
 6057TIP3    H118177   5.179   0.307   4.528
 6057TIP3    H218178   5.044   0.371   4.551
 6058TIP3   OH218179   5.427   5.814   1.252
 6058TIP3    H118180   5.378   5.880   1.203
 6058TIP3    H218181   5.366   5.784   1.319
 6059TIP3   OH218182   3.426   4.519   0.282
 6059TIP3    H118183   3.341   4.526   0.324
 6059TIP3    H218184   3.476   4.595   0.314
 6060TIP3   OH218185   2.128   1.943   0.131
 6060TIP3    H118186   2.098   1.853   0.116
 6060TIP3    H218187   2.049   1.992   0.152
 6061TIP3   OH218188   5.093   4.390   2.873
 6061TIP3    H118189   5.010   4.354   2.905
 6061TIP3    H218190   5.125   4.324   2.811
 6062TIP3   OH218191   3.700   1.081   1.451
 6062TIP3    H118192   3.629   1.143   1.466
 6062TIP3    H218193   3.742   1.110   1.370
 6063TIP3   OH218194   5.438   4.266   0.978
 6063TIP3    H118195   5.426   4.230   1.065
 6063TIP3    H218196   5.412   4.195   0.919
 6064TIP3   OH218197   3.652   3.824   2.493
 6064TIP3    H118198   3.697   3.776   2.563
 6064TIP3    H218199   3.723   3.858   2.439
 6065TIP3   OH218200   4.903   3.667   2.658
 6065TIP3    H118201   4.811   3.686   2.676
 6065TIP3    H218202   4.946   3.753   2.659
 6066TIP3   OH218203   5.975   4.619   0.536
 6066TIP3    H118204   5.992   4.648   0.625
 6066TIP3    H218205   5.998   4.694   0.481
 6067TIP3   OH218206   0.061   0.883   3.794
 6067TIP3    H118207   0.052   0.938   3.716
 6067TIP3    H218208  -0.020   0.831   3.796
 6068TIP3   OH218209   2.537   0.381   2.328
 6068TIP3    H118210   2.579   0.295   2.330
 6068TIP3    H218211   2.446   0.363   2.309
 6069TIP3   OH218212   0.120   4.445   0.446
 6069TIP3    H118213   0.194   4.385   0.446
 6069TIP3    H218214   0.100   4.461   0.354
 6070TIP3   OH218215   3.904   0.425   5.060
 6070TIP3    H118216   3.915   0.519   5.047
 6070TIP3    H218217   3.973   0.400   5.121
 6071TIP3   OH218218   0.834  -0.031   4.339
 6071TIP3    H118219   0.804   0.059   4.352
 6071TIP3    H218220   0.905  -0.024   4.275
 6072TIP3   OH218221   4.245   0.145   4.450
 6072TIP3    H118222   4.175   0.183   4.503
 6072TIP3    H218223   4.203   0.120   4.368
 6073TIP3   OH218224   2.618   1.784   0.264
 6073TIP3    H118225   2.690   1.767   0.204
 6073TIP3    H218226   2.540   1.785   0.209
 6074TIP3   OH218227   0.522   1.669   0.448
 6074TIP3    H118228   0.597   1.722   0.474
 6074TIP3    H218229   0.548   1.579   0.467
 6075TIP3   OH218230   3.068   0.338   4.851
 6075TIP3    H118231   3.114   0.347   4.768
 6075TIP3    H218232   2.995   0.279   4.832
 6076TIP3   OH218233   0.846   2.284   1.578
 6076TIP3    H118234   0.940   2.298   1.571
 6076TIP3    H218235   0.809   2.332   1.504
 6077TIP3   OH218236   2.484   5.954   3.022
 6077TIP3    H118237   2.454   5.983   3.108
 6077TIP3    H218238   2.439   6.011   2.960
 6078TIP3   OH218239   0.903   1.292   1.441
 6078TIP3    H118240   0.850   1.332   1.510
 6078TIP3    H218241   0.959   1.230   1.487
 6079TIP3   OH218242   3.712   5.600   4.668
 6079TIP3    H118243   3.759   5.534   4.617
 6079TIP3    H218244   3.760   5.681   4.654
 6080TIP3   OH218245   4.238   5.646   1.619
 6080TIP3    H118246   4.223   5.564   1.572
 6080TIP3    H218247   4.280   5.620   1.701
 6081TIP3   OH218248   3.398   3.091   4.880
 6081TIP3    H118249   3.349   3.166   4.847
 6081TIP3    H218250   3.484   3.098   4.837
 6082TIP3   OH218251   4.232   4.050   0.788
 6082TIP3    H118252   4.191   3.993   0.853
 6082TIP3    H218253   4.164   4.062   0.721
 6083TIP3   OH218254   3.280   4.401   2.553
 6083TIP3    H118255   3.205   4.341   2.559
 6083TIP3    H218256   3.351   4.353   2.595
 6084TIP3   OH218257   2.035   2.274   0.101
 6084TIP3    H118258   1.957   2.283   0.156
 6084TIP3    H218259   2.108   2.292   0.159
 6085TIP3   OH218260   0.623   4.157   2.420
 6085TIP3    H118261   0.533   4.148   2.388
 6085TIP3    H218262   0.614   4.175   2.513
 6086TIP3   OH218263   5.908   2.922   3.207
 6086TIP3    H118264   5.900   2.874   3.125
 6086TIP3    H218265   5.836   2.889   3.261
 6087TIP3   OH218266   6.033   3.662   4.293
 6087TIP3    H118267   6.103   3.638   4.354
 6087TIP3    H218268   6.010   3.751   4.317
 6088TIP3   OH218269   2.470   4.394   2.843
 6088TIP3    H118270   2.428   4.427   2.923
 6088TIP3    H218271   2.397   4.361   2.790
 6089TIP3   OH218272   4.742   1.617   2.757
 6089TIP3    H118273   4.658   1.571   2.754
 6089TIP3    H218274   4.804   1.552   2.790
 6090TIP3   OH218275   2.336   5.459   1.034
 6090TIP3    H118276   2.421   5.440   1.073
 6090TIP3    H218277   2.302   5.533   1.085
 6091TIP3   OH218278   5.874   0.724   4.232
 6091TIP3    H118279   5.871   0.660   4.303
 6091TIP3    H218280   5.967   0.735   4.213
 6092TIP3   OH218281   0.176   2.275   3.454
 6092TIP3    H118282   0.231   2.200   3.433
 6092TIP3    H218283   0.101   2.269   3.394
 6093TIP3   OH218284   6.240   2.239   2.421
 6093TIP3    H118285   6.295   2.168   2.388
 6093TIP3    H218286   6.301   2.311   2.438
 6094TIP3   OH218287   3.464   0.062   1.175
 6094TIP3    H118288   3.440   0.086   1.086
 6094TIP3    H218289   3.505  -0.024   1.167
 6095TIP3   OH218290   6.247   3.110   2.297
 6095TIP3    H118291   6.267   3.088   2.206
 6095TIP3    H218292   6.152   3.118   2.299
 6096TIP3   OH218293   1.193   0.476   2.650
 6096TIP3    H118294   1.187   0.524   2.567
 6096TIP3    H218295   1.113   0.424   2.654
 6097TIP3   OH218296   2.288   4.848   3.596
 6097TIP3    H118297   2.290   4.927   3.542
 6097TIP3    H218298   2.380   4.832   3.619
 6098TIP3   OH218299   5.457   2.691   2.432
 6098TIP3    H118300   5.473   2.623   2.498
 6098TIP3    H218301   5.400   2.650   2.368
 6099TIP3   OH218302   4.042   5.378   4.331
 6099TIP3    H118303   4.085   5.322   4.266
 6099TIP3    H218304   4.114   5.415   4.381
 6100TIP3   OH218305   4.907   5.194   1.042
 6100TIP3    H118306   4.891   5.251   1.116
 6100TIP3    H218307   4.853   5.117   1.058
 6101TIP3   OH218308   1.895   2.787   3.460
 6101TIP3    H118309   1.883   2.707   3.408
 6101TIP3    H218310   1.950   2.843   3.405
 6102TIP3   OH218311   3.382   5.673   3.749
 6102TIP3    H118312   3.468   5.707   3.726
 6102TIP3    H218313   3.362   5.608   3.681
 6103TIP3   OH218314   1.358   5.188   3.488
 6103TIP3    H118315   1.301   5.264   3.503
 6103TIP3    H218316   1.436   5.224   3.448
 6104TIP3   OH218317   3.499   2.442   1.068
 6104TIP3    H118318   3.587   2.455   1.102
 6104TIP3    H218319   3.468   2.363   1.113
 6105TIP3   OH218320   3.272   0.739   1.405
 6105TIP3    H118321   3.232   0.803   1.346
 6105TIP3    H218322   3.362   0.771   1.417
 6106TIP3   OH218323   2.215   1.530   0.814
 6106TIP3    H118324   2.268   1.605   0.787
 6106TIP3    H218325   2.219   1.470   0.740
 6107TIP3   OH218326   4.390   0.539   4.051
 6107TIP3    H118327   4.459   0.482   4.084
 6107TIP3    H218328   4.366   0.594   4.125
 6108TIP3   OH218329   0.377   0.427   2.768
 6108TIP3    H118330   0.312   0.451   2.833
 6108TIP3    H218331   0.416   0.510   2.740
 6109TIP3   OH218332   1.829   5.038   5.051
 6109TIP3    H118333   1.822   4.976   4.978
 6109TIP3    H218334   1.751   5.024   5.104
 6110TIP3   OH218335   5.405   1.188   3.219
 6110TIP3    H118336   5.447   1.124   3.161
 6110TIP3    H218337   5.372   1.137   3.292
 6111TIP3   OH218338   5.709   3.046   3.872
 6111TIP3    H118339   5.684   3.004   3.789
 6111TIP3    H218340   5.797   3.081   3.855
 6112TIP3   OH218341   5.678   3.566   3.444
 6112TIP3    H118342   5.772   3.549   3.444
 6112TIP3    H218343   5.647   3.527   3.363
 6113TIP3   OH218344   2.964   4.830   0.158
 6113TIP3    H118345   2.968   4.737   0.136
 6113TIP3    H218346   2.871   4.849   0.164
 6114TIP3   OH218347   0.646   1.165   0.924
 6114TIP3    H118348   0.629   1.183   0.831
 6114TIP3    H218349   0.734   1.129   0.926
 6115TIP3   OH218350   0.513   4.513   0.051
 6115TIP3    H118351   0.515   4.425   0.014
 6115TIP3    H218352   0.582   4.560   0.004
 6116TIP3   OH218353   1.821   0.494   4.727
 6116TIP3    H118354   1.909   0.482   4.763
 6116TIP3    H218355   1.817   0.587   4.703
 6117TIP3   OH218356   3.171   4.152   2.805
 6117TIP3    H118357   3.140   4.236   2.837
 6117TIP3    H218358   3.105   4.124   2.741
 6118TIP3   OH218359   1.270   1.837   1.545
 6118TIP3    H118360   1.280   1.899   1.472
 6118TIP3    H218361   1.239   1.891   1.618
 6119TIP3   OH218362   2.851   2.273   2.952
 6119TIP3    H118363   2.940   2.243   2.938
 6119TIP3    H218364   2.803   2.245   2.874
 6120TIP3   OH218365   5.454   4.063   2.488
 6120TIP3    H118366   5.500   4.092   2.409
 6120TIP3    H218367   5.520   4.064   2.556
 6121TIP3   OH218368   3.513   1.029   3.125
 6121TIP3    H118369   3.572   1.104   3.119
 6121TIP3    H218370   3.443   1.048   3.063
 6122TIP3   OH218371   3.205   2.601   1.010
 6122TIP3    H118372   3.226   2.540   0.940
 6122TIP3    H218373   3.239   2.560   1.089
 6123TIP3   OH218374   2.495   3.251   3.706
 6123TIP3    H118375   2.412   3.237   3.752
 6123TIP3    H218376   2.484   3.206   3.623
 6124TIP3   OH218377   2.697   4.301   4.396
 6124TIP3    H118378   2.783   4.281   4.432
 6124TIP3    H218379   2.713   4.371   4.333
 6125TIP3   OH218380   3.867   3.371   3.905
 6125TIP3    H118381   3.917   3.421   3.970
 6125TIP3    H218382   3.931   3.311   3.867
 6126TIP3   OH218383   1.338   4.758   0.609
 6126TIP3    H118384   1.397   4.831   0.589
 6126TIP3    H218385   1.345   4.747   0.704
 6127TIP3   OH218386   2.738   0.078   4.244
 6127TIP3    H118387   2.693   0.083   4.329
 6127TIP3    H218388   2.668   0.077   4.180
 6128TIP3   OH218389   3.453   2.422   1.681
 6128TIP3    H118390   3.367   2.391   1.709
 6128TIP3    H218391   3.435   2.479   1.606
 6129TIP3   OH218392   5.000   4.354   2.178
 6129TIP3    H118393   4.991   4.261   2.200
 6129TIP3    H218394   5.084   4.379   2.216
 6130TIP3   OH218395   2.828   2.753   0.562
 6130TIP3    H118396   2.768   2.812   0.607
 6130TIP3    H218397   2.902   2.743   0.622
 6131TIP3   OH218398   4.355   0.799   4.520
 6131TIP3    H118399   4.407   0.798   4.600
 6131TIP3    H218400   4.273   0.841   4.545
 6132TIP3   OH218401   2.669   1.088   2.799
 6132TIP3    H118402   2.695   1.161   2.742
 6132TIP3    H218403   2.667   1.012   2.741
 6133TIP3   OH218404   2.207   3.453   0.522
 6133TIP3    H118405   2.226   3.513   0.450
 6133TIP3    H218406   2.223   3.366   0.486
 6134TIP3   OH218407   5.688   5.869   1.235
 6134TIP3    H118408   5.672   5.956   1.200
 6134TIP3    H218409   5.602   5.839   1.264
 6135TIP3   OH218410   3.165   0.150   2.927
 6135TIP3    H118411   3.094   0.151   2.863
 6135TIP3    H218412   3.236   0.105   2.883
 6136TIP3   OH218413   4.481   4.424   1.426
 6136TIP3    H118414   4.413   4.392   1.486
 6136TIP3    H218415   4.521   4.498   1.473
 6137TIP3   OH218416   1.007   1.402   5.138
 6137TIP3    H118417   1.061   1.436   5.067
 6137TIP3    H218418   1.010   1.471   5.205
 6138TIP3   OH218419   2.357   5.623   2.241
 6138TIP3    H118420   2.329   5.707   2.205
 6138TIP3    H218421   2.442   5.606   2.200
 6139TIP3   OH218422   2.107   4.530   3.665
 6139TIP3    H118423   2.043   4.460   3.673
 6139TIP3    H218424   2.057   4.611   3.675
 6140TIP3   OH218425   4.184   3.948   2.885
 6140TIP3    H118426   4.126   3.996   2.944
 6140TIP3    H218427   4.271   3.957   2.923
 6141TIP3   OH218428   3.543   5.073   1.698
 6141TIP3    H118429   3.481   5.007   1.668
 6141TIP3    H218430   3.543   5.065   1.793
 6142TIP3   OH218431   2.896   2.416   3.602
 6142TIP3    H118432   2.970   2.420   3.542
 6142TIP3    H218433   2.914   2.339   3.657
 6143TIP3   OH218434   3.295   4.970   2.412
 6143TIP3    H118435   3.256   4.927   2.487
 6143TIP3    H218436   3.368   5.020   2.448
 6144TIP3   OH218437   0.059   0.391   4.439
 6144TIP3    H118438   0.121   0.454   4.477
 6144TIP3    H218439   0.020   0.438   4.366
 6145TIP3   OH218440   5.191   2.752   4.598
 6145TIP3    H118441   5.210   2.831   4.547
 6145TIP3    H218442   5.264   2.694   4.581
 6146TIP3   OH218443   6.051   0.479   0.466
 6146TIP3    H118444   6.011   0.558   0.501
 6146TIP3    H218445   6.049   0.416   0.538
 6147TIP3   OH218446   0.796   4.406   2.656
 6147TIP3    H118447   0.767   4.421   2.566
 6147TIP3    H218448   0.839   4.488   2.681
 6148TIP3   OH218449   0.936   0.173   0.622
 6148TIP3    H118450   0.898   0.222   0.550
 6148TIP3    H218451   0.933   0.081   0.593
 6149TIP3   OH218452   1.127   3.915   2.037
 6149TIP3    H118453   1.143   3.929   1.944
 6149TIP3    H218454   1.165   3.992   2.080
 6150TIP3   OH218455   1.502   0.449   2.692
 6150TIP3    H118456   1.475   0.540   2.683
 6150TIP3    H218457   1.427   0.405   2.733
 6151TIP3   OH218458   3.572   3.026   4.423
 6151TIP3    H118459   3.667   3.022   4.440
 6151TIP3    H218460   3.533   2.980   4.497
 6152TIP3   OH218461   4.396   2.603   4.095
 6152TIP3    H118462   4.437   2.558   4.021
 6152TIP3    H218463   4.460   2.669   4.121
 6153TIP3   OH218464   4.097   3.644   1.294
 6153TIP3    H118465   4.067   3.654   1.204
 6153TIP3    H218466   4.101   3.550   1.308
 6154TIP3   OH218467   3.817   2.104   2.829
 6154TIP3    H118468   3.764   2.084   2.906
 6154TIP3    H218469   3.862   2.185   2.852
 6155TIP3   OH218470   1.820   1.739   1.592
 6155TIP3    H118471   1.879   1.814   1.598
 6155TIP3    H218472   1.876   1.667   1.563
 6156TIP3   OH218473   4.372   3.006   2.722
 6156TIP3    H118474   4.328   3.070   2.779
 6156TIP3    H218475   4.465   3.016   2.742
 6157TIP3   OH218476   1.109   0.653   3.835
 6157TIP3    H118477   1.085   0.738   3.798
 6157TIP3    H218478   1.135   0.600   3.760
 6158TIP3   OH218479   1.516   4.378   3.484
 6158TIP3    H118480   1.492   4.303   3.539
 6158TIP3    H218481   1.600   4.408   3.519
 6159TIP3   OH218482   5.036   0.821   2.078
 6159TIP3    H118483   5.132   0.818   2.067
 6159TIP3    H218484   5.004   0.753   2.019
 6160TIP3   OH218485   1.002   3.799   5.167
 6160TIP3    H118486   0.960   3.713   5.165
 6160TIP3    H218487   0.997   3.830   5.076
 6161TIP3   OH218488   2.739   2.052   4.871
 6161TIP3    H118489   2.682   2.015   4.938
 6161TIP3    H218490   2.825   2.013   4.888
 6162TIP3   OH218491   0.002   2.081   4.331
 6162TIP3    H118492  -0.003   2.149   4.263
 6162TIP3    H218493   0.082   2.032   4.310
 6163TIP3   OH218494   4.134   3.566   3.134
 6163TIP3    H118495   4.113   3.656   3.157
 6163TIP3    H218496   4.100   3.514   3.206
 6164TIP3   OH218497   3.053   3.526   3.146
 6164TIP3    H118498   3.089   3.465   3.081
 6164TIP3    H218499   3.120   3.595   3.152
 6165TIP3   OH218500   3.392   5.801   3.990
 6165TIP3    H118501   3.415   5.889   3.958
 6165TIP3    H218502   3.408   5.743   3.915
 6166TIP3   OH218503   3.466   5.059   1.282
 6166TIP3    H118504   3.379   5.032   1.312
 6166TIP3    H218505   3.450   5.135   1.227
 6167TIP3   OH218506   0.366   1.930   1.619
 6167TIP3    H118507   0.423   1.870   1.570
 6167TIP3    H218508   0.396   2.017   1.595
 6168TIP3   OH218509   5.153   4.395   0.961
 6168TIP3    H118510   5.184   4.304   0.953
 6168TIP3    H218511   5.228   4.441   0.998
 6169TIP3   OH218512   1.098   5.434   0.914
 6169TIP3    H118513   1.015   5.443   0.867
 6169TIP3    H218514   1.145   5.367   0.865
 6170TIP3   OH218515   2.776   5.089   4.165
 6170TIP3    H118516   2.726   5.080   4.246
 6170TIP3    H218517   2.767   5.182   4.141
 6171TIP3   OH218518   3.667   3.557   3.524
 6171TIP3    H118519   3.689   3.523   3.611
 6171TIP3    H218520   3.690   3.486   3.464
 6172TIP3   OH218521   1.163   1.415   3.580
 6172TIP3    H118522   1.124   1.500   3.599
 6172TIP3    H218523   1.258   1.432   3.579
 6173TIP3   OH218524   0.315   4.850   3.405
 6173TIP3    H118525   0.269   4.845   3.321
 6173TIP3    H218526   0.400   4.808   3.388
 6174TIP3   OH218527   2.211   2.119   2.287
 6174TIP3    H118528   2.129   2.123   2.335
 6174TIP3    H218529   2.266   2.060   2.339
 6175TIP3   OH218530   0.170   2.264   0.790
 6175TIP3    H118531   0.266   2.263   0.798
 6175TIP3    H218532   0.143   2.347   0.829
 6176TIP3   OH218533   3.507   3.800   2.123
 6176TIP3    H118534   3.452   3.743   2.070
 6176TIP3    H218535   3.477   3.785   2.213
 6177TIP3   OH218536   0.252   5.624   0.955
 6177TIP3    H118537   0.274   5.533   0.938
 6177TIP3    H218538   0.336   5.665   0.976
 6178TIP3   OH218539   1.381   2.466   1.567
 6178TIP3    H118540   1.363   2.559   1.580
 6178TIP3    H218541   1.471   2.464   1.534
 6179TIP3   OH218542   0.290   0.311   0.490
 6179TIP3    H118543   0.336   0.296   0.407
 6179TIP3    H218544   0.290   0.225   0.533
 6180TIP3   OH218545   1.583   4.147   1.362
 6180TIP3    H118546   1.605   4.072   1.417
 6180TIP3    H218547   1.502   4.182   1.400
 6181TIP3   OH218548   4.390   0.415   2.641
 6181TIP3    H118549   4.363   0.363   2.566
 6181TIP3    H218550   4.341   0.378   2.715
 6182TIP3   OH218551   1.663   4.479   3.264
 6182TIP3    H118552   1.585   4.454   3.314
 6182TIP3    H218553   1.701   4.551   3.315
 6183TIP3   OH218554   5.617   1.395   4.179
 6183TIP3    H118555   5.644   1.317   4.131
 6183TIP3    H218556   5.544   1.365   4.234
 6184TIP3   OH218557   5.528   1.166   1.452
 6184TIP3    H118558   5.585   1.243   1.456
 6184TIP3    H218559   5.524   1.135   1.543
 6185TIP3   OH218560   1.217   3.186   2.425
 6185TIP3    H118561   1.242   3.223   2.510
 6185TIP3    H218562   1.203   3.093   2.442
 6186TIP3   OH218563   2.695   0.045   1.402
 6186TIP3    H118564   2.656   0.088   1.478
 6186TIP3    H218565   2.762  -0.013   1.438
 6187TIP3   OH218566   0.257   1.373   4.339
 6187TIP3    H118567   0.230   1.308   4.405
 6187TIP3    H218568   0.345   1.400   4.367
 6188TIP3   OH218569   5.864   5.577   0.407
 6188TIP3    H118570   5.878   5.668   0.378
 6188TIP3    H218571   5.853   5.584   0.502
 6189TIP3   OH218572   4.686   2.589   0.963
 6189TIP3    H118573   4.745   2.637   0.904
 6189TIP3    H218574   4.665   2.509   0.915
 6190TIP3   OH218575   0.433   0.057   4.499
 6190TIP3    H118576   0.393   0.008   4.570
 6190TIP3    H218577   0.388   0.142   4.500
 6191TIP3   OH218578   0.113   2.868   2.357
 6191TIP3    H118579   0.096   2.775   2.340
 6191TIP3    H218580   0.027   2.910   2.347
 6192TIP3   OH218581   1.866   1.009   2.252
 6192TIP3    H118582   1.945   0.973   2.212
 6192TIP3    H218583   1.866   1.101   2.226
 6193TIP3   OH218584   6.073   5.944   3.355
 6193TIP3    H118585   6.115   5.865   3.391
 6193TIP3    H218586   6.049   5.919   3.266
 6194TIP3   OH218587   1.239   5.880   3.146
 6194TIP3    H118588   1.331   5.898   3.129
 6194TIP3    H218589   1.206   5.843   3.064
 6195TIP3   OH218590   3.481   2.285   2.488
 6195TIP3    H118591   3.450   2.321   2.571
 6195TIP3    H218592   3.435   2.336   2.421
 6196TIP3   OH218593   2.953   0.927   0.122
 6196TIP3    H118594   2.863   0.957   0.135
 6196TIP3    H218595   2.994   0.938   0.208
 6197TIP3   OH218596   2.185   5.929   2.908
 6197TIP3    H118597   2.149   5.891   2.828
 6197TIP3    H218598   2.259   5.873   2.930
 6198TIP3   OH218599   4.187   5.944   2.337
 6198TIP3    H118600   4.154   5.890   2.265
 6198TIP3    H218601   4.210   6.027   2.296
 6199TIP3   OH218602   0.970   2.219   2.004
 6199TIP3    H118603   1.038   2.248   1.943
 6199TIP3    H218604   0.909   2.292   2.007
 6200TIP3   OH218605   3.278   2.565   3.686
 6200TIP3    H118606   3.299   2.552   3.593
 6200TIP3    H218607   3.363   2.557   3.730
 6201TIP3   OH218608   0.073   1.233   2.836
 6201TIP3    H118609   0.011   1.232   2.763
 6201TIP3    H218610   0.157   1.211   2.796
 6202TIP3   OH218611   4.453   1.224   3.508
 6202TIP3    H118612   4.362   1.232   3.539
 6202TIP3    H218613   4.461   1.132   3.482
 6203TIP3   OH218614   3.776   1.095   0.609
 6203TIP3    H118615   3.718   1.100   0.685
 6203TIP3    H218616   3.768   1.181   0.567
 6204TIP3   OH218617   5.324   3.989   2.843
 6204TIP3    H118618   5.363   3.903   2.860
 6204TIP3    H218619   5.290   4.017   2.928
 6205TIP3   OH218620   5.482   4.159   1.231
 6205TIP3    H118621   5.458   4.108   1.308
 6205TIP3    H218622   5.576   4.145   1.221
 6206TIP3   OH218623   2.069   3.825   2.572
 6206TIP3    H118624   2.025   3.783   2.646
 6206TIP3    H218625   2.069   3.759   2.503
 6207TIP3   OH218626   6.119   2.505   1.995
 6207TIP3    H118627   6.101   2.552   2.076
 6207TIP3    H218628   6.104   2.413   2.016
 6208TIP3   OH218629   0.767   4.433   0.490
 6208TIP3    H118630   0.798   4.384   0.413
 6208TIP3    H218631   0.792   4.524   0.470
 6209TIP3   OH218632   5.579   3.689   0.514
 6209TIP3    H118633   5.624   3.740   0.448
 6209TIP3    H218634   5.511   3.641   0.465
 6210TIP3   OH218635   3.551   3.961   1.546
 6210TIP3    H118636   3.609   4.038   1.545
 6210TIP3    H218637   3.551   3.932   1.637
 6211TIP3   OH218638   5.776   0.989   1.473
 6211TIP3    H118639   5.807   0.920   1.415
 6211TIP3    H218640   5.786   0.952   1.561
 6212TIP3   OH218641   1.691   0.687   4.303
 6212TIP3    H118642   1.774   0.688   4.254
 6212TIP3    H218643   1.644   0.764   4.272
 6213TIP3   OH218644   2.092   2.217   0.849
 6213TIP3    H118645   2.093   2.313   0.851
 6213TIP3    H218646   2.043   2.195   0.770
 6214TIP3   OH218647   0.733   3.218   3.435
 6214TIP3    H118648   0.699   3.173   3.357
 6214TIP3    H218649   0.775   3.297   3.400
 6215TIP3   OH218650   3.850   3.030   4.527
 6215TIP3    H118651   3.904   3.103   4.558
 6215TIP3    H218652   3.855   3.035   4.431
 6216TIP3   OH218653   2.165   5.877   4.222
 6216TIP3    H118654   2.125   5.964   4.219
 6216TIP3    H218655   2.151   5.842   4.134
 6217TIP3   OH218656   1.077   5.547   2.557
 6217TIP3    H118657   0.981   5.551   2.549
 6217TIP3    H218658   1.094   5.460   2.594
 6218TIP3   OH218659   2.411   0.775   1.240
 6218TIP3    H118660   2.324   0.815   1.236
 6218TIP3    H218661   2.434   0.757   1.149
 6219TIP3   OH218662   4.940   1.231   3.084
 6219TIP3    H118663   4.937   1.264   3.174
 6219TIP3    H218664   5.010   1.166   3.085
 6220TIP3   OH218665   0.081   1.800   3.348
 6220TIP3    H118666   0.023   1.847   3.288
 6220TIP3    H218667   0.114   1.867   3.407
 6221TIP3   OH218668   3.376   1.055   4.654
 6221TIP3    H118669   3.281   1.053   4.659
 6221TIP3    H218670   3.395   1.087   4.566
 6222TIP3   OH218671   1.824   0.612   0.614
 6222TIP3    H118672   1.816   0.692   0.667
 6222TIP3    H218673   1.794   0.542   0.672
 6223TIP3   OH218674   4.986   0.064   2.698
 6223TIP3    H118675   5.041   0.140   2.678
 6223TIP3    H218676   4.898   0.101   2.710
 6224TIP3   OH218677   2.297   5.348   0.782
 6224TIP3    H118678   2.311   5.390   0.867
 6224TIP3    H218679   2.230   5.281   0.800
 6225TIP3   OH218680   2.020   3.089   3.494
 6225TIP3    H118681   2.012   3.179   3.462
 6225TIP3    H218682   2.105   3.086   3.537
 6226TIP3   OH218683   2.297   0.237   0.240
 6226TIP3    H118684   2.273   0.221   0.149
 6226TIP3    H218685   2.380   0.284   0.234
 6227TIP3   OH218686   4.827   3.080   3.009
 6227TIP3    H118687   4.897   3.026   2.974
 6227TIP3    H218688   4.855   3.100   3.099
 6228TIP3   OH218689   4.920   3.395   2.266
 6228TIP3    H118690   4.983   3.349   2.322
 6228TIP3    H218691   4.922   3.485   2.297
 6229TIP3   OH218692   0.377   3.610   3.876
 6229TIP3    H118693   0.382   3.515   3.884
 6229TIP3    H218694   0.354   3.641   3.964
 6230TIP3   OH218695   4.312   4.956   0.873
 6230TIP3    H118696   4.325   4.861   0.872
 6230TIP3    H218697   4.334   4.984   0.784
 6231TIP3   OH218698   0.213   5.533   0.231
 6231TIP3    H118699   0.184   5.450   0.194
 6231TIP3    H218700   0.308   5.533   0.217
 6232TIP3   OH218701   1.600   0.426   3.224
 6232TIP3    H118702   1.552   0.504   3.196
 6232TIP3    H218703   1.551   0.393   3.300
 6233TIP3   OH218704   1.443   2.755   2.175
 6233TIP3    H118705   1.475   2.787   2.090
 6233TIP3    H218706   1.471   2.821   2.238
 6234TIP3   OH218707   3.711   5.042   2.463
 6234TIP3    H118708   3.676   4.955   2.442
 6234TIP3    H218709   3.649   5.103   2.425
 6235TIP3   OH218710   1.257   0.570   1.916
 6235TIP3    H118711   1.218   0.615   1.990
 6235TIP3    H218712   1.202   0.493   1.902
 6236TIP3   OH218713   2.779   0.924   0.447
 6236TIP3    H118714   2.874   0.936   0.448
 6236TIP3    H218715   2.767   0.829   0.458
 6237TIP3   OH218716   5.100   4.072   0.966
 6237TIP3    H118717   5.123   4.110   1.050
 6237TIP3    H218718   5.061   3.987   0.987
 6238TIP3   OH218719   3.945   5.927   2.482
 6238TIP3    H118720   3.900   5.848   2.450
 6238TIP3    H218721   4.026   5.931   2.431
 6239TIP3   OH218722   2.227   5.710   1.786
 6239TIP3    H118723   2.199   5.693   1.695
 6239TIP3    H218724   2.317   5.741   1.777
 6240TIP3   OH218725   2.223   1.996   4.658
 6240TIP3    H118726   2.286   1.960   4.720
 6240TIP3    H218727   2.191   2.076   4.699
 6241TIP3   OH218728   1.941   2.408   0.602
 6241TIP3    H118729   1.874   2.442   0.542
 6241TIP3    H218730   2.023   2.447   0.570
 6242TIP3   OH218731   4.063   0.233   0.801
 6242TIP3    H118732   4.061   0.178   0.723
 6242TIP3    H218733   4.132   0.195   0.856
 6243TIP3   OH218734   0.829   0.877   5.119
 6243TIP3    H118735   0.910   0.847   5.160
 6243TIP3    H218736   0.844   0.970   5.100
 6244TIP3   OH218737   5.377   2.107   3.407
 6244TIP3    H118738   5.423   2.166   3.348
 6244TIP3    H218739   5.440   2.039   3.428
 6245TIP3   OH218740   1.824   2.228   5.030
 6245TIP3    H118741   1.774   2.179   5.095
 6245TIP3    H218742   1.767   2.234   4.954
 6246TIP3   OH218743   1.041   5.264   4.138
 6246TIP3    H118744   1.113   5.202   4.143
 6246TIP3    H218745   1.075   5.337   4.086
 6247TIP3   OH218746   0.891   0.401   4.368
 6247TIP3    H118747   0.821   0.458   4.399
 6247TIP3    H218748   0.897   0.332   4.435
 6248TIP3   OH218749   4.136   0.506   4.720
 6248TIP3    H118750   4.156   0.547   4.804
 6248TIP3    H218751   4.059   0.553   4.688
 6249TIP3   OH218752   2.455   2.218   2.903
 6249TIP3    H118753   2.401   2.206   2.824
 6249TIP3    H218754   2.509   2.139   2.906
 6250TIP3   OH218755   3.292   0.901   4.072
 6250TIP3    H118756   3.251   0.979   4.109
 6250TIP3    H218757   3.261   0.829   4.128
 6251TIP3   OH218758   6.228   3.391   0.068
 6251TIP3    H118759   6.180   3.419   0.145
 6251TIP3    H218760   6.319   3.384   0.097
 6252TIP3   OH218761   2.801   3.677   0.215
 6252TIP3    H118762   2.747   3.727   0.276
 6252TIP3    H218763   2.738   3.633   0.157
 6253TIP3   OH218764   0.851   1.399   0.088
 6253TIP3    H118765   0.914   1.329   0.070
 6253TIP3    H218766   0.813   1.375   0.172
 6254TIP3   OH218767   1.289   1.018   4.780
 6254TIP3    H118768   1.242   0.958   4.722
 6254TIP3    H218769   1.290   0.973   4.865
 6255TIP3   OH218770   4.538   1.019   4.420
 6255TIP3    H118771   4.562   0.927   4.426
 6255TIP3    H218772   4.494   1.027   4.335
 6256TIP3   OH218773   0.551   5.293   0.357
 6256TIP3    H118774   0.641   5.313   0.331
 6256TIP3    H218775   0.497   5.350   0.303
 6257TIP3   OH218776   1.596   2.999   3.166
 6257TIP3    H118777   1.502   3.011   3.157
 6257TIP3    H218778   1.610   2.987   3.260
 6258TIP3   OH218779   6.169   1.929   2.513
 6258TIP3    H118780   6.168   2.017   2.552
 6258TIP3    H218781   6.090   1.887   2.549
 6259TIP3   OH218782   0.860   1.527   0.493
 6259TIP3    H118783   0.848   1.584   0.417
 6259TIP3    H218784   0.848   1.585   0.569
 6260TIP3   OH218785   5.103   4.841   0.267
 6260TIP3    H118786   5.189   4.871   0.236
 6260TIP3    H218787   5.084   4.899   0.341
 6261TIP3   OH218788   3.787   1.929   1.543
 6261TIP3    H118789   3.721   1.867   1.511
 6261TIP3    H218790   3.777   2.005   1.485
 6262TIP3   OH218791   3.815   5.186   0.102
 6262TIP3    H118792   3.864   5.262   0.131
 6262TIP3    H218793   3.869   5.111   0.128
 6263TIP3   OH218794   4.589   3.116   3.705
 6263TIP3    H118795   4.665   3.061   3.685
 6263TIP3    H218796   4.611   3.202   3.669
 6264TIP3   OH218797   0.469   5.378   1.156
 6264TIP3    H118798   0.513   5.293   1.156
 6264TIP3    H218799   0.385   5.361   1.115
 6265TIP3   OH218800   3.203   4.865   1.583
 6265TIP3    H118801   3.144   4.790   1.575
 6265TIP3    H218802   3.217   4.894   1.493
 6266TIP3   OH218803   4.983   3.752   3.959
 6266TIP3    H118804   4.945   3.792   4.037
 6266TIP3    H218805   4.968   3.658   3.970
 6267TIP3   OH218806   0.876   4.258   3.293
 6267TIP3    H118807   0.858   4.345   3.259
 6267TIP3    H218808   0.819   4.250   3.370
 6268TIP3   OH218809   2.625   5.614   3.816
 6268TIP3    H118810   2.672   5.620   3.733
 6268TIP3    H218811   2.678   5.554   3.870
 6269TIP3   OH218812   2.384   2.846   2.601
 6269TIP3    H118813   2.462   2.826   2.652
 6269TIP3    H218814   2.380   2.777   2.535
 6270TIP3   OH218815   3.503   5.854   4.341
 6270TIP3    H118816   3.526   5.770   4.381
 6270TIP3    H218817   3.514   5.839   4.247
 6271TIP3   OH218818   5.283   1.462   1.333
 6271TIP3    H118819   5.348   1.522   1.297
 6271TIP3    H218820   5.283   1.481   1.427
 6272TIP3   OH218821   4.267   1.340   2.812
 6272TIP3    H118822   4.238   1.430   2.796
 6272TIP3    H218823   4.209   1.286   2.758
 6273TIP3   OH218824   4.435   5.533   4.031
 6273TIP3    H118825   4.438   5.596   4.104
 6273TIP3    H218826   4.467   5.452   4.069
 6274TIP3   OH218827   4.374   2.258   2.627
 6274TIP3    H118828   4.444   2.280   2.689
 6274TIP3    H218829   4.314   2.203   2.677
 6275TIP3   OH218830   4.579   2.919   5.074
 6275TIP3    H118831   4.560   2.973   4.997
 6275TIP3    H218832   4.497   2.876   5.094
 6276TIP3   OH218833   6.078   2.467   0.862
 6276TIP3    H118834   6.078   2.382   0.906
 6276TIP3    H218835   6.100   2.448   0.771
 6277TIP3   OH218836   3.875   0.960   1.911
 6277TIP3    H118837   3.942   1.024   1.886
 6277TIP3    H218838   3.908   0.876   1.878
 6278TIP3   OH218839   1.822   4.935   1.266
 6278TIP3    H118840   1.843   4.877   1.193
 6278TIP3    H218841   1.727   4.928   1.276
 6279TIP3   OH218842   6.178   3.664   0.319
 6279TIP3    H118843   6.096   3.615   0.315
 6279TIP3    H218844   6.237   3.609   0.370
 6280TIP3   OH218845   5.286   2.983   3.958
 6280TIP3    H118846   5.311   3.049   3.892
 6280TIP3    H218847   5.233   2.920   3.909
 6281TIP3   OH218848   2.719   1.097   1.196
 6281TIP3    H118849   2.759   1.183   1.208
 6281TIP3    H218850   2.781   1.047   1.143
 6282TIP3   OH218851   2.269   0.370   4.440
 6282TIP3    H118852   2.318   0.304   4.490
 6282TIP3    H218853   2.318   0.451   4.452
 6283TIP3   OH218854   3.481   4.703   2.869
 6283TIP3    H118855   3.492   4.656   2.787
 6283TIP3    H218856   3.391   4.683   2.897
 6284TIP3   OH218857   0.616   0.164   2.298
 6284TIP3    H118858   0.638   0.253   2.327
 6284TIP3    H218859   0.523   0.167   2.278
 6285TIP3   OH218860   4.748   4.245   5.174
 6285TIP3    H118861   4.752   4.200   5.090
 6285TIP3    H218862   4.723   4.177   5.237
 6286TIP3   OH218863   4.149   4.909   2.956
 6286TIP3    H118864   4.064   4.869   2.977
 6286TIP3    H218865   4.205   4.888   3.030
 6287TIP3   OH218866   5.698   0.152   4.735
 6287TIP3    H118867   5.633   0.222   4.732
 6287TIP3    H218868   5.656   0.079   4.691
 6288TIP3   OH218869   5.465   4.124   4.380
 6288TIP3    H118870   5.399   4.142   4.446
 6288TIP3    H218871   5.465   4.201   4.323
 6289TIP3   OH218872   6.211   3.134   2.641
 6289TIP3    H118873   6.129   3.125   2.593
 6289TIP3    H218874   6.195   3.088   2.724
 6290TIP3   OH218875   3.354   4.021   4.128
 6290TIP3    H118876   3.373   3.974   4.047
 6290TIP3    H218877   3.406   3.976   4.195
 6291TIP3   OH218878   5.412   4.574   1.277
 6291TIP3    H118879   5.356   4.514   1.229
 6291TIP3    H218880   5.360   4.600   1.353
 6292TIP3   OH218881   4.021   1.683   3.798
 6292TIP3    H118882   4.036   1.589   3.808
 6292TIP3    H218883   3.971   1.707   3.876
 6293TIP3   OH218884   4.785   0.184   4.463
 6293TIP3    H118885   4.761   0.268   4.503
 6293TIP3    H218886   4.838   0.140   4.530
 6294TIP3   OH218887   3.223   4.899   3.201
 6294TIP3    H118888   3.224   4.806   3.220
 6294TIP3    H218889   3.207   4.941   3.286
 6295TIP3   OH218890   5.866   4.435   1.226
 6295TIP3    H118891   5.957   4.420   1.249
 6295TIP3    H218892   5.834   4.496   1.292
 6296TIP3   OH218893   5.701   5.980   3.900
 6296TIP3    H118894   5.762   6.047   3.870
 6296TIP3    H218895   5.708   5.911   3.833
 6297TIP3   OH218896   6.033   0.172   4.898
 6297TIP3    H118897   6.011   0.263   4.918
 6297TIP3    H218898   5.975   0.121   4.955
 6298TIP3   OH218899   4.832   3.849   4.667
 6298TIP3    H118900   4.885   3.883   4.596
 6298TIP3    H218901   4.895   3.811   4.729
 6299TIP3   OH218902   2.338   3.943   3.403
 6299TIP3    H118903   2.264   3.912   3.455
 6299TIP3    H218904   2.382   4.006   3.459
 6300TIP3   OH218905   3.976   4.079   3.042
 6300TIP3    H118906   3.979   4.166   3.083
 6300TIP3    H218907   3.883   4.058   3.037
 6301TIP3   OH218908   3.171   5.629   4.026
 6301TIP3    H118909   3.198   5.544   4.062
 6301TIP3    H218910   3.252   5.668   3.993
 6302TIP3   OH218911   0.896   0.482   0.558
 6302TIP3    H118912   0.847   0.483   0.640
 6302TIP3    H218913   0.930   0.571   0.548
 6303TIP3   OH218914   0.561   3.829   3.926
 6303TIP3    H118915   0.625   3.856   3.860
 6303TIP3    H218916   0.588   3.741   3.951
 6304TIP3   OH218917   4.332   0.279   0.026
 6304TIP3    H118918   4.308   0.358  -0.023
 6304TIP3    H218919   4.421   0.259  -0.002
 6305TIP3   OH218920   3.832   1.012   4.808
 6305TIP3    H118921   3.833   1.090   4.864
 6305TIP3    H218922   3.919   1.011   4.768
 6306TIP3   OH218923   2.415   3.525   3.961
 6306TIP3    H118924   2.350   3.488   3.901
 6306TIP3    H218925   2.377   3.609   3.987
 6307TIP3   OH218926   5.860   0.193   1.198
 6307TIP3    H118927   5.828   0.103   1.202
 6307TIP3    H218928   5.953   0.185   1.175
 6308TIP3   OH218929   2.583   0.141   4.021
 6308TIP3    H118930   2.499   0.181   4.046
 6308TIP3    H218931   2.574   0.123   3.927
 6309TIP3   OH218932   0.175   5.603   3.846
 6309TIP3    H118933   0.126   5.680   3.876
 6309TIP3    H218934   0.267   5.630   3.847
 6310TIP3   OH218935   5.334   0.398   2.349
 6310TIP3    H118936   5.373   0.447   2.421
 6310TIP3    H218937   5.330   0.308   2.380
 6311TIP3   OH218938   3.890   1.497   1.266
 6311TIP3    H118939   3.926   1.580   1.296
 6311TIP3    H218940   3.823   1.474   1.330
 6312TIP3   OH218941   2.666   1.481   4.538
 6312TIP3    H118942   2.647   1.460   4.447
 6312TIP3    H218943   2.669   1.395   4.582
 6313TIP3   OH218944   4.697   1.009   2.246
 6313TIP3    H118945   4.690   0.962   2.162
 6313TIP3    H218946   4.769   1.071   2.232
 6314TIP3   OH218947   0.800   3.900   1.787
 6314TIP3    H118948   0.707   3.900   1.766
 6314TIP3    H218949   0.831   3.985   1.756
 6315TIP3   OH218950   1.706   5.082   0.595
 6315TIP3    H118951   1.690   5.049   0.506
 6315TIP3    H218952   1.724   5.175   0.584
 6316TIP3   OH218953   0.406   5.001   3.127
 6316TIP3    H118954   0.378   5.090   3.107
 6316TIP3    H218955   0.324   4.952   3.138
 6317TIP3   OH218956   2.560   1.029   3.070
 6317TIP3    H118957   2.596   1.031   2.981
 6317TIP3    H218958   2.504   1.106   3.075
 6318TIP3   OH218959   4.994   3.912   4.430
 6318TIP3    H118960   5.003   4.005   4.407
 6318TIP3    H218961   5.071   3.893   4.484
 6319TIP3   OH218962   3.316   4.399   4.262
 6319TIP3    H118963   3.354   4.419   4.347
 6319TIP3    H218964   3.235   4.353   4.282
 6320TIP3   OH218965   2.937   0.831   3.826
 6320TIP3    H118966   2.857   0.832   3.878
 6320TIP3    H218967   2.987   0.757   3.861
 6321TIP3   OH218968   5.644   4.476   1.994
 6321TIP3    H118969   5.591   4.501   1.918
 6321TIP3    H218970   5.673   4.560   2.031
 6322TIP3   OH218971   6.119   1.714   1.145
 6322TIP3    H118972   6.105   1.726   1.239
 6322TIP3    H218973   6.143   1.622   1.136
 6323TIP3   OH218974   3.942   5.911   0.401
 6323TIP3    H118975   3.856   5.922   0.443
 6323TIP3    H218976   4.004   5.915   0.474
 6324TIP3   OH218977   0.161   3.038   0.698
 6324TIP3    H118978   0.172   2.999   0.785
 6324TIP3    H218979   0.152   2.963   0.640
 6325TIP3   OH218980   2.971   0.808   4.273
 6325TIP3    H118981   3.060   0.775   4.291
 6325TIP3    H218982   2.958   0.790   4.180
 6326TIP3   OH218983   1.381   5.396   2.505
 6326TIP3    H118984   1.307   5.411   2.447
 6326TIP3    H218985   1.454   5.377   2.447
 6327TIP3   OH218986   3.261   3.221   1.676
 6327TIP3    H118987   3.330   3.288   1.670
 6327TIP3    H218988   3.253   3.188   1.586
 6328TIP3   OH218989   1.097   3.658   0.432
 6328TIP3    H118990   1.031   3.593   0.409
 6328TIP3    H218991   1.114   3.705   0.350
 6329TIP3   OH218992   2.264   5.848   0.672
 6329TIP3    H118993   2.324   5.845   0.598
 6329TIP3    H218994   2.294   5.779   0.731
 6330TIP3   OH218995   2.680   4.166   2.368
 6330TIP3    H118996   2.719   4.151   2.455
 6330TIP3    H218997   2.613   4.098   2.360
 6331TIP3   OH218998   4.925   1.927   4.136
 6331TIP3    H118999   4.847   1.888   4.097
 6331TIP3    H219000   4.918   2.020   4.116
 6332TIP3   OH219001   4.919   2.433   0.056
 6332TIP3    H119002   5.003   2.403   0.021
 6332TIP3    H219003   4.884   2.492  -0.010
 6333TIP3   OH219004   6.285   4.347   2.021
 6333TIP3    H119005   6.221   4.315   2.084
 6333TIP3    H219006   6.338   4.270   2.000
 6334TIP3   OH219007   4.846   0.617   1.635
 6334TIP3    H119008   4.912   0.549   1.627
 6334TIP3    H219009   4.883   0.680   1.697
 6335TIP3   OH219010   5.437   0.441   2.622
 6335TIP3    H119011   5.361   0.428   2.679
 6335TIP3    H219012   5.493   0.366   2.640
 6336TIP3   OH219013   0.525   3.545   4.374
 6336TIP3    H119014   0.618   3.566   4.387
 6336TIP3    H219015   0.480   3.629   4.380
 6337TIP3   OH219016   1.794   3.867   1.337
 6337TIP3    H119017   1.739   3.888   1.412
 6337TIP3    H219018   1.738   3.884   1.261
 6338TIP3   OH219019   0.300   5.379   3.419
 6338TIP3    H119020   0.275   5.336   3.501
 6338TIP3    H219021   0.364   5.445   3.445
 6339TIP3   OH219022   0.632   1.280   3.714
 6339TIP3    H119023   0.589   1.365   3.705
 6339TIP3    H219024   0.704   1.282   3.651
 6340TIP3   OH219025   4.304   0.593   0.365
 6340TIP3    H119026   4.262   0.630   0.442
 6340TIP3    H219027   4.397   0.593   0.387
 6341TIP3   OH219028   5.486   1.166   2.102
 6341TIP3    H119029   5.559   1.188   2.045
 6341TIP3    H219030   5.515   1.089   2.151
 6342TIP3   OH219031   1.297   5.673   3.303
 6342TIP3    H119032   1.282   5.739   3.236
 6342TIP3    H219033   1.211   5.635   3.319
 6343TIP3   OH219034   4.993   4.052   1.536
 6343TIP3    H119035   5.008   3.966   1.577
 6343TIP3    H219036   5.053   4.052   1.461
 6344TIP3   OH219037   3.833   5.834   3.648
 6344TIP3    H119038   3.848   5.746   3.683
 6344TIP3    H219039   3.868   5.831   3.560
 6345TIP3   OH219040   2.397   5.251   4.009
 6345TIP3    H119041   2.329   5.201   4.054
 6345TIP3    H219042   2.353   5.332   3.983
 6346TIP3   OH219043   3.496   0.448   3.780
 6346TIP3    H119044   3.407   0.475   3.801
 6346TIP3    H219045   3.512   0.481   3.692
 6347TIP3   OH219046   1.197   2.755   4.264
 6347TIP3    H119047   1.191   2.664   4.237
 6347TIP3    H219048   1.274   2.789   4.218
 6348TIP3   OH219049   0.015   1.852   4.009
 6348TIP3    H119050   0.078   1.820   4.074
 6348TIP3    H219051   0.066   1.911   3.954
 6349TIP3   OH219052   5.331   4.065   3.723
 6349TIP3    H119053   5.284   4.118   3.659
 6349TIP3    H219054   5.276   3.987   3.734
 6350TIP3   OH219055   6.310   0.384   4.683
 6350TIP3    H119056   6.297   0.301   4.729
 6350TIP3    H219057   6.303   0.362   4.590
 6351TIP3   OH219058   4.732   5.456   3.810
 6351TIP3    H119059   4.695   5.542   3.790
 6351TIP3    H219060   4.757   5.462   3.903
 6352TIP3   OH219061   3.227   0.734   2.750
 6352TIP3    H119062   3.139   0.759   2.723
 6352TIP3    H219063   3.214   0.668   2.817
 6353TIP3   OH219064   1.324   3.993   0.274
 6353TIP3    H119065   1.386   4.049   0.320
 6353TIP3    H219066   1.289   4.048   0.204
 6354TIP3   OH219067   6.076   0.436   2.065
 6354TIP3    H119068   6.134   0.414   2.139
 6354TIP3    H219069   6.022   0.507   2.098
 6355TIP3   OH219070   4.639   3.047   3.351
 6355TIP3    H119071   4.552   3.057   3.390
 6355TIP3    H219072   4.694   3.110   3.398
 6356TIP3   OH219073   1.832   2.806   0.056
 6356TIP3    H119074   1.842   2.899   0.038
 6356TIP3    H219075   1.752   2.800   0.108
 6357TIP3   OH219076   0.084   1.690   1.042
 6357TIP3    H119077   0.133   1.748   1.100
 6357TIP3    H219078   0.113   1.713   0.954
 6358TIP3   OH219079   5.344   2.954   0.612
 6358TIP3    H119080   5.343   2.886   0.545
 6358TIP3    H219081   5.258   2.947   0.656
 6359TIP3   OH219082   5.961   4.812   3.033
 6359TIP3    H119083   5.952   4.717   3.023
 6359TIP3    H219084   6.038   4.834   2.982
 6360TIP3   OH219085   1.181   4.561   4.357
 6360TIP3    H119086   1.144   4.513   4.431
 6360TIP3    H219087   1.230   4.633   4.397
 6361TIP3   OH219088   4.197   4.350   1.056
 6361TIP3    H119089   4.147   4.430   1.074
 6361TIP3    H219090   4.173   4.326   0.966
 6362TIP3   OH219091   2.759   1.641   4.960
 6362TIP3    H119092   2.770   1.688   5.042
 6362TIP3    H219093   2.771   1.549   4.983
 6363TIP3   OH219094   4.820   0.550   0.531
 6363TIP3    H119095   4.866   0.474   0.494
 6363TIP3    H219096   4.889   0.607   0.563
 6364TIP3   OH219097   1.236   5.762   1.212
 6364TIP3    H119098   1.199   5.785   1.126
 6364TIP3    H219099   1.193   5.680   1.236
 6365TIP3   OH219100   0.689   0.693   3.449
 6365TIP3    H119101   0.622   0.720   3.512
 6365TIP3    H219102   0.772   0.720   3.489
 6366TIP3   OH219103   4.704   5.173   2.987
 6366TIP3    H119104   4.726   5.177   2.894
 6366TIP3    H219105   4.627   5.230   2.996
 6367TIP3   OH219106   1.231   5.385   2.142
 6367TIP3    H119107   1.167   5.336   2.194
 6367TIP3    H219108   1.263   5.453   2.201
 6368TIP3   OH219109   0.331   1.189   2.749
 6368TIP3    H119110   0.372   1.273   2.766
 6368TIP3    H219111   0.344   1.174   2.655
 6369TIP3   OH219112   2.006   4.531   1.573
 6369TIP3    H119113   2.081   4.575   1.613
 6369TIP3    H219114   1.930   4.577   1.608
 6370TIP3   OH219115   6.314   0.998   1.950
 6370TIP3    H119116   6.394   0.965   1.991
 6370TIP3    H219117   6.315   1.092   1.969
 6371TIP3   OH219118   0.123   4.510   0.969
 6371TIP3    H119119   0.131   4.440   0.904
 6371TIP3    H219120   0.039   4.552   0.949
 6372TIP3   OH219121   2.326   4.514   4.449
 6372TIP3    H119122   2.255   4.466   4.492
 6372TIP3    H219123   2.390   4.529   4.519
 6373TIP3   OH219124   3.929   5.263   3.985
 6373TIP3    H119125   3.861   5.255   3.918
 6373TIP3    H219126   3.959   5.354   3.979
 6374TIP3   OH219127   0.922   2.164   0.115
 6374TIP3    H119128   0.921   2.182   0.209
 6374TIP3    H219129   0.850   2.217   0.080
 6375TIP3   OH219130   3.226   4.833   1.060
 6375TIP3    H119131   3.263   4.905   1.009
 6375TIP3    H219132   3.143   4.866   1.093
 6376TIP3   OH219133   4.401   3.307   0.588
 6376TIP3    H119134   4.346   3.381   0.564
 6376TIP3    H219135   4.482   3.346   0.620
 6377TIP3   OH219136   3.560   2.629   0.874
 6377TIP3    H119137   3.585   2.717   0.902
 6377TIP3    H219138   3.541   2.582   0.955
 6378TIP3   OH219139   5.210   4.875   0.787
 6378TIP3    H119140   5.247   4.868   0.875
 6378TIP3    H219141   5.144   4.944   0.794
 6379TIP3   OH219142   3.660   1.648   1.671
 6379TIP3    H119143   3.565   1.647   1.658
 6379TIP3    H219144   3.675   1.719   1.733
 6380TIP3   OH219145   2.286   3.332   4.531
 6380TIP3    H119146   2.242   3.280   4.598
 6380TIP3    H219147   2.379   3.313   4.544
 6381TIP3   OH219148   4.331   0.237   3.213
 6381TIP3    H119149   4.378   0.316   3.185
 6381TIP3    H219150   4.399   0.174   3.234
 6382TIP3   OH219151   2.477   4.225   1.361
 6382TIP3    H119152   2.545   4.193   1.421
 6382TIP3    H219153   2.454   4.149   1.307
 6383TIP3   OH219154   1.650   2.123   3.558
 6383TIP3    H119155   1.588   2.052   3.539
 6383TIP3    H219156   1.668   2.162   3.472
 6384TIP3   OH219157   6.249   3.202   3.814
 6384TIP3    H119158   6.320   3.145   3.845
 6384TIP3    H219159   6.214   3.156   3.738
 6385TIP3   OH219160   4.785   0.398   0.120
 6385TIP3    H119161   4.784   0.308   0.088
 6385TIP3    H219162   4.773   0.390   0.214
 6386TIP3   OH219163   1.654   4.746   0.445
 6386TIP3    H119164   1.618   4.828   0.476
 6386TIP3    H219165   1.743   4.767   0.417
 6387TIP3   OH219166   4.561   3.559   0.105
 6387TIP3    H119167   4.510   3.590   0.180
 6387TIP3    H219168   4.587   3.640   0.060
 6388TIP3   OH219169   3.131   0.518   2.908
 6388TIP3    H119170   3.187   0.455   2.951
 6388TIP3    H219171   3.062   0.538   2.972
 6389TIP3   OH219172   0.907   3.894   4.926
 6389TIP3    H119173   0.900   3.921   4.835
 6389TIP3    H219174   0.887   3.973   4.977
 6390TIP3   OH219175   4.840   0.984   3.929
 6390TIP3    H119176   4.885   0.913   3.975
 6390TIP3    H219177   4.894   1.001   3.852
 6391TIP3   OH219178   0.494   1.678   1.650
 6391TIP3    H119179   0.572   1.623   1.660
 6391TIP3    H219180   0.430   1.621   1.608
 6392TIP3   OH219181   4.339   3.731   4.658
 6392TIP3    H119182   4.386   3.648   4.659
 6392TIP3    H219183   4.250   3.708   4.686
 6393TIP3   OH219184   4.973   4.749   4.006
 6393TIP3    H119185   4.907   4.682   4.027
 6393TIP3    H219186   4.922   4.820   3.966
 6394TIP3   OH219187   5.968   0.187   1.904
 6394TIP3    H119188   6.057   0.209   1.931
 6394TIP3    H219189   5.975   0.172   1.810
 6395TIP3   OH219190   5.186   1.593   4.670
 6395TIP3    H119191   5.203   1.510   4.714
 6395TIP3    H219192   5.207   1.576   4.578
 6396TIP3   OH219193   6.142   3.238   4.732
 6396TIP3    H119194   6.056   3.230   4.773
 6396TIP3    H219195   6.131   3.196   4.646
 6397TIP3   OH219196   3.315   1.045   2.303
 6397TIP3    H119197   3.272   1.061   2.387
 6397TIP3    H219198   3.394   0.996   2.325
 6398TIP3   OH219199   5.660   1.593   2.289
 6398TIP3    H119200   5.584   1.535   2.292
 6398TIP3    H219201   5.698   1.578   2.203
 6399TIP3   OH219202   2.141   3.599   3.393
 6399TIP3    H119203   2.169   3.556   3.312
 6399TIP3    H219204   2.222   3.623   3.438
 6400TIP3   OH219205   4.887   2.214   0.980
 6400TIP3    H119206   4.961   2.258   1.022
 6400TIP3    H219207   4.922   2.131   0.949
 6401TIP3   OH219208   5.274   1.857   3.865
 6401TIP3    H119209   5.240   1.783   3.915
 6401TIP3    H219210   5.344   1.819   3.811
 6402TIP3   OH219211   4.469   0.922   1.943
 6402TIP3    H119212   4.472   0.841   1.995
 6402TIP3    H219213   4.412   0.980   1.993
 6403TIP3   OH219214   1.257   2.227   2.386
 6403TIP3    H119215   1.306   2.301   2.349
 6403TIP3    H219216   1.294   2.217   2.474
 6404TIP3   OH219217   2.538   3.518   0.762
 6404TIP3    H119218   2.499   3.482   0.683
 6404TIP3    H219219   2.509   3.609   0.765
 6405TIP3   OH219220   4.519   1.266   2.175
 6405TIP3    H119221   4.563   1.192   2.216
 6405TIP3    H219222   4.448   1.228   2.124
 6406TIP3   OH219223   4.328   2.573   4.757
 6406TIP3    H119224   4.280   2.586   4.839
 6406TIP3    H219225   4.336   2.478   4.748
 6407TIP3   OH219226   5.963   4.632   0.829
 6407TIP3    H119227   5.935   4.714   0.787
 6407TIP3    H219228   5.910   4.627   0.909
 6408TIP3   OH219229   3.644   4.280   4.602
 6408TIP3    H119230   3.645   4.289   4.697
 6408TIP3    H219231   3.697   4.202   4.585
 6409TIP3   OH219232   6.334   2.493   1.451
 6409TIP3    H119233   6.262   2.528   1.398
 6409TIP3    H219234   6.301   2.495   1.541
 6410TIP3   OH219235   5.504   4.829   1.961
 6410TIP3    H119236   5.535   4.856   2.048
 6410TIP3    H219237   5.424   4.880   1.948
 6411TIP3   OH219238   1.597   2.619   2.335
 6411TIP3    H119239   1.532   2.642   2.268
 6411TIP3    H219240   1.619   2.528   2.317
 6412TIP3   OH219241   4.478   3.614   3.937
 6412TIP3    H119242   4.542   3.544   3.947
 6412TIP3    H219243   4.395   3.575   3.965
 6413TIP3   OH219244   5.245   2.998   2.322
 6413TIP3    H119245   5.205   3.056   2.257
 6413TIP3    H219246   5.323   3.046   2.351
 6414TIP3   OH219247   3.728   3.376   4.604
 6414TIP3    H119248   3.735   3.450   4.664
 6414TIP3    H219249   3.814   3.334   4.608
 6415TIP3   OH219250   5.856   5.728   3.750
 6415TIP3    H119251   5.786   5.674   3.714
 6415TIP3    H219252   5.877   5.791   3.681
 6416TIP3   OH219253   4.686   1.252   0.592
 6416TIP3    H119254   4.646   1.219   0.673
 6416TIP3    H219255   4.737   1.178   0.559
 6417TIP3   OH219256   0.037   0.002   2.868
 6417TIP3    H119257   0.031  -0.013   2.774
 6417TIP3    H219258   0.034   0.098   2.878
 6418TIP3   OH219259   6.053   4.992   1.116
 6418TIP3    H119260   5.970   4.970   1.073
 6418TIP3    H219261   6.094   5.055   1.056
 6419TIP3   OH219262   3.790   4.875   1.746
 6419TIP3    H119263   3.797   4.970   1.754
 6419TIP3    H219264   3.756   4.846   1.831
 6420TIP3   OH219265   0.132   3.644   1.815
 6420TIP3    H119266   0.218   3.647   1.858
 6420TIP3    H219267   0.141   3.702   1.739
 6421TIP3   OH219268   0.991   3.759   3.569
 6421TIP3    H119269   0.960   3.829   3.512
 6421TIP3    H219270   1.086   3.772   3.573
 6422TIP3   OH219271   2.982   3.548   4.766
 6422TIP3    H119272   3.032   3.574   4.689
 6422TIP3    H219273   2.892   3.575   4.747
 6423TIP3   OH219274   2.491   1.207   2.402
 6423TIP3    H119275   2.451   1.121   2.420
 6423TIP3    H219276   2.501   1.209   2.307
 6424TIP3   OH219277   0.293   1.459   3.141
 6424TIP3    H119278   0.367   1.512   3.170
 6424TIP3    H219279   0.240   1.446   3.221
 6425TIP3   OH219280   1.029   5.189  -0.023
 6425TIP3    H119281   1.043   5.202   0.070
 6425TIP3    H219282   1.084   5.113  -0.045
 6426TIP3   OH219283   2.670   5.752   3.001
 6426TIP3    H119284   2.613   5.828   3.014
 6426TIP3    H219285   2.757   5.789   2.988
 6427TIP3   OH219286   4.340   1.051   4.215
 6427TIP3    H119287   4.247   1.030   4.206
 6427TIP3    H219288   4.376   1.037   4.128
 6428TIP3   OH219289   4.090   2.224   3.445
 6428TIP3    H119290   4.034   2.158   3.404
 6428TIP3    H219291   4.113   2.284   3.374
 6429TIP3   OH219292   4.672   0.306   4.794
 6429TIP3    H119293   4.699   0.297   4.886
 6429TIP3    H219294   4.651   0.217   4.766
 6430TIP3   OH219295   0.679   1.597   5.114
 6430TIP3    H119296   0.638   1.662   5.055
 6430TIP3    H219297   0.772   1.616   5.108
 6431TIP3   OH219298   3.234   4.702   1.287
 6431TIP3    H119299   3.149   4.684   1.326
 6431TIP3    H219300   3.215   4.750   1.207
 6432TIP3   OH219301   0.888   3.637   2.287
 6432TIP3    H119302   0.875   3.684   2.205
 6432TIP3    H219303   0.800   3.614   2.316
 6433TIP3   OH219304   2.874   4.991   3.382
 6433TIP3    H119305   2.914   4.926   3.440
 6433TIP3    H219306   2.943   5.056   3.368
 6434TIP3   OH219307   1.388   0.924   4.505
 6434TIP3    H119308   1.442   1.000   4.526
 6434TIP3    H219309   1.451   0.854   4.487
 6435TIP3   OH219310   2.991   2.329   1.339
 6435TIP3    H119311   2.917   2.292   1.292
 6435TIP3    H219312   3.031   2.253   1.383
 6436TIP3   OH219313   6.290   0.126   1.641
 6436TIP3    H119314   6.363   0.159   1.589
 6436TIP3    H219315   6.268   0.043   1.601
 6437TIP3   OH219316   5.576   1.389   0.444
 6437TIP3    H119317   5.536   1.475   0.431
 6437TIP3    H219318   5.614   1.393   0.532
 6438TIP3   OH219319   5.098   0.283   0.121
 6438TIP3    H119320   5.031   0.342   0.156
 6438TIP3    H219321   5.094   0.206   0.178
 6439TIP3   OH219322   0.497   3.767   3.623
 6439TIP3    H119323   0.514   3.692   3.679
 6439TIP3    H219324   0.401   3.773   3.619
 6440TIP3   OH219325   4.760   5.957   1.709
 6440TIP3    H119326   4.742   5.993   1.796
 6440TIP3    H219327   4.723   5.868   1.712
 6441TIP3   OH219328   3.093   3.438   2.117
 6441TIP3    H119329   3.064   3.349   2.095
 6441TIP3    H219330   3.071   3.490   2.040
 6442TIP3   OH219331   5.646   1.908   0.901
 6442TIP3    H119332   5.586   1.915   0.976
 6442TIP3    H219333   5.590   1.880   0.829
 6443TIP3   OH219334   3.792   2.234   3.172
 6443TIP3    H119335   3.722   2.187   3.128
 6443TIP3    H219336   3.823   2.172   3.239
 6444TIP3   OH219337   2.430   3.213   0.188
 6444TIP3    H119338   2.512   3.219   0.236
 6444TIP3    H219339   2.441   3.273   0.114
 6445TIP3   OH219340   5.047   5.189   3.289
 6445TIP3    H119341   4.978   5.149   3.342
 6445TIP3    H219342   5.001   5.250   3.231
 6446TIP3   OH219343   1.308   3.175   4.183
 6446TIP3    H119344   1.309   3.086   4.148
 6446TIP3    H219345   1.376   3.176   4.250
 6447TIP3   OH219346   1.112   0.898   3.743
 6447TIP3    H119347   1.090   0.963   3.809
 6447TIP3    H219348   1.207   0.900   3.738
 6448TIP3   OH219349   2.789   2.788   1.506
 6448TIP3    H119350   2.842   2.786   1.586
 6448TIP3    H219351   2.721   2.722   1.520
 6449TIP3   OH219352   4.774   0.863   0.763
 6449TIP3    H119353   4.707   0.920   0.801
 6449TIP3    H219354   4.855   0.890   0.806
 6450TIP3   OH219355   5.233   3.375   4.762
 6450TIP3    H119356   5.194   3.324   4.691
 6450TIP3    H219357   5.228   3.318   4.838
 6451TIP3   OH219358   0.150   4.246   3.570
 6451TIP3    H119359   0.126   4.268   3.480
 6451TIP3    H219360   0.096   4.170   3.591
 6452TIP3   OH219361   4.685   5.383   0.120
 6452TIP3    H119362   4.609   5.393   0.064
 6452TIP3    H219363   4.653   5.334   0.196
 6453TIP3   OH219364   4.932   5.340   3.086
 6453TIP3    H119365   4.846   5.316   3.050
 6453TIP3    H219366   4.990   5.341   3.009
 6454TIP3   OH219367   1.374   4.020   2.849
 6454TIP3    H119368   1.360   4.112   2.870
 6454TIP3    H219369   1.398   3.980   2.932
 6455TIP3   OH219370   5.015   0.950   4.295
 6455TIP3    H119371   4.970   1.014   4.350
 6455TIP3    H219372   5.058   0.891   4.356
 6456TIP3   OH219373   6.014   5.528   4.277
 6456TIP3    H119374   5.925   5.493   4.274
 6456TIP3    H219375   6.048   5.514   4.189
 6457TIP3   OH219376   0.540   3.358   2.193
 6457TIP3    H119377   0.448   3.384   2.198
 6457TIP3    H219378   0.552   3.324   2.105
 6458TIP3   OH219379   2.879   3.604   4.087
 6458TIP3    H119380   2.814   3.675   4.090
 6458TIP3    H219381   2.963   3.649   4.092
 6459TIP3   OH219382   0.543   1.377   1.413
 6459TIP3    H119383   0.605   1.420   1.471
 6459TIP3    H219384   0.460   1.421   1.429
 6460TIP3   OH219385   6.223   4.825   4.830
 6460TIP3    H119386   6.308   4.859   4.855
 6460TIP3    H219387   6.226   4.732   4.852
 6461TIP3   OH219388   4.901   2.118   0.101
 6461TIP3    H119389   4.887   2.212   0.098
 6461TIP3    H219390   4.887   2.089   0.011
 6462TIP3   OH219391   0.868   0.382   2.063
 6462TIP3    H119392   0.785   0.342   2.037
 6462TIP3    H219393   0.931   0.351   1.998
 6463TIP3   OH219394   0.373   5.002   0.070
 6463TIP3    H119395   0.435   5.046   0.012
 6463TIP3    H219396   0.305   4.968   0.012
 6464TIP3   OH219397   2.059   2.752   4.466
 6464TIP3    H119398   2.107   2.730   4.386
 6464TIP3    H219399   1.996   2.819   4.438
 6465TIP3   OH219400   3.606   1.102   3.509
 6465TIP3    H119401   3.634   1.168   3.445
 6465TIP3    H219402   3.665   1.114   3.583
 6466TIP3   OH219403   5.059   3.128   0.288
 6466TIP3    H119404   5.016   3.136   0.373
 6466TIP3    H219405   5.044   3.212   0.245
 6467TIP3   OH219406   1.175   3.177   1.486
 6467TIP3    H119407   1.125   3.097   1.503
 6467TIP3    H219408   1.110   3.247   1.489
 6468TIP3   OH219409   4.190   5.026   0.347
 6468TIP3    H119410   4.097   5.022   0.323
 6468TIP3    H219411   4.201   4.959   0.414
 6469TIP3   OH219412   1.080   0.667   4.991
 6469TIP3    H119413   1.003   0.616   5.016
 6469TIP3    H219414   1.060   0.700   4.904
 6470TIP3   OH219415   5.038   5.346   3.911
 6470TIP3    H119416   5.064   5.387   3.993
 6470TIP3    H219417   5.020   5.420   3.852
 6471TIP3   OH219418   1.800   5.844   0.233
 6471TIP3    H119419   1.848   5.858   0.315
 6471TIP3    H219420   1.869   5.840   0.166
 6472TIP3   OH219421   0.170   3.745   1.552
 6472TIP3    H119422   0.158   3.735   1.457
 6472TIP3    H219423   0.169   3.840   1.566
 6473TIP3   OH219424   0.809   2.954   1.269
 6473TIP3    H119425   0.736   3.004   1.233
 6473TIP3    H219426   0.774   2.865   1.279
 6474TIP3   OH219427   1.043   1.937   2.560
 6474TIP3    H119428   1.086   1.886   2.629
 6474TIP3    H219429   1.047   1.880   2.483
 6475TIP3   OH219430   2.203   1.663   4.618
 6475TIP3    H119431   2.284   1.655   4.566
 6475TIP3    H219432   2.232   1.696   4.703
 6476TIP3   OH219433   4.471   0.932   3.439
 6476TIP3    H119434   4.429   0.959   3.357
 6476TIP3    H219435   4.544   0.876   3.412
 6477TIP3   OH219436   6.366   2.893   4.242
 6477TIP3    H119437   6.313   2.887   4.162
 6477TIP3    H219438   6.356   2.807   4.283
 6478TIP3   OH219439   1.036   2.239   3.537
 6478TIP3    H119440   1.013   2.226   3.629
 6478TIP3    H219441   0.963   2.288   3.500
 6479TIP3   OH219442   2.776   1.047   3.273
 6479TIP3    H119443   2.709   1.024   3.209
 6479TIP3    H219444   2.858   1.021   3.232
 6480TIP3   OH219445   1.360   1.266   4.203
 6480TIP3    H119446   1.380   1.172   4.210
 6480TIP3    H219447   1.426   1.299   4.142
 6481TIP3   OH219448   0.297   1.055   2.358
 6481TIP3    H119449   0.203   1.071   2.349
 6481TIP3    H219450   0.328   1.129   2.411
 6482TIP3   OH219451   3.028   0.948   1.414
 6482TIP3    H119452   3.016   0.945   1.509
 6482TIP3    H219453   2.996   0.863   1.384
 6483TIP3   OH219454   0.095   5.363   4.726
 6483TIP3    H119455   0.154   5.406   4.788
 6483TIP3    H219456   0.150   5.342   4.651
 6484TIP3   OH219457   4.934   5.107   4.036
 6484TIP3    H119458   4.969   5.164   3.968
 6484TIP3    H219459   4.884   5.041   3.989
 6485TIP3   OH219460   4.947   4.100   4.115
 6485TIP3    H119461   4.902   4.017   4.129
 6485TIP3    H219462   4.934   4.119   4.022
 6486TIP3   OH219463   6.149   5.516   4.738
 6486TIP3    H119464   6.193   5.500   4.654
 6486TIP3    H219465   6.182   5.446   4.795
 6487TIP3   OH219466   3.703   0.795   0.851
 6487TIP3    H119467   3.687   0.701   0.854
 6487TIP3    H219468   3.778   0.806   0.793
 6488TIP3   OH219469   5.708   3.363   1.978
 6488TIP3    H119470   5.640   3.295   1.980
 6488TIP3    H219471   5.660   3.443   1.957
 6489TIP3   OH219472   4.431   1.689   2.605
 6489TIP3    H119473   4.358   1.662   2.661
 6489TIP3    H219474   4.473   1.608   2.578
 6490TIP3   OH219475   4.204   2.486   2.985
 6490TIP3    H119476   4.198   2.491   2.890
 6490TIP3    H219477   4.283   2.536   3.007
 6491TIP3   OH219478   2.125   1.382   2.520
 6491TIP3    H119479   2.096   1.291   2.513
 6491TIP3    H219480   2.063   1.422   2.580
 6492TIP3   OH219481   3.489   3.890   2.961
 6492TIP3    H119482   3.403   3.920   2.988
 6492TIP3    H219483   3.475   3.799   2.934
 6493TIP3   OH219484   4.563   5.357   3.379
 6493TIP3    H119485   4.495   5.379   3.443
 6493TIP3    H219486   4.631   5.422   3.394
 6494TIP3   OH219487   1.165   2.102   4.625
 6494TIP3    H119488   1.077   2.136   4.611
 6494TIP3    H219489   1.201   2.090   4.537
 6495TIP3   OH219490   4.994   3.911   0.483
 6495TIP3    H119491   4.965   3.985   0.536
 6495TIP3    H219492   5.018   3.950   0.399
 6496TIP3   OH219493   0.202   1.551   3.397
 6496TIP3    H119494   0.186   1.636   3.356
 6496TIP3    H219495   0.149   1.552   3.477
 6497TIP3   OH219496   5.456   1.623   1.229
 6497TIP3    H119497   5.439   1.697   1.287
 6497TIP3    H219498   5.551   1.609   1.236
 6498TIP3   OH219499   3.338   3.129   1.409
 6498TIP3    H119500   3.388   3.080   1.344
 6498TIP3    H219501   3.247   3.117   1.382
 6499TIP3   OH219502   2.348   0.978   3.734
 6499TIP3    H119503   2.318   1.013   3.651
 6499TIP3    H219504   2.440   1.004   3.740
 6500TIP3   OH219505   2.309   4.131   0.665
 6500TIP3    H119506   2.385   4.137   0.608
 6500TIP3    H219507   2.250   4.070   0.621
 6501TIP3   OH219508   0.104   4.896   1.241
 6501TIP3    H119509   0.163   4.827   1.212
 6501TIP3    H219510   0.088   4.948   1.162
 6502TIP3   OH219511   5.454   0.586   0.963
 6502TIP3    H119512   5.488   0.659   1.015
 6502TIP3    H219513   5.447   0.621   0.875
 6503TIP3   OH219514   3.526   0.277   3.163
 6503TIP3    H119515   3.477   0.298   3.243
 6503TIP3    H219516   3.618   0.280   3.191
 6504TIP3   OH219517   4.747   1.041   1.593
 6504TIP3    H119518   4.792   1.085   1.520
 6504TIP3    H219519   4.738   1.109   1.660
 6505TIP3   OH219520   3.529   5.265   0.650
 6505TIP3    H119521   3.582   5.274   0.729
 6505TIP3    H219522   3.443   5.239   0.683
 6506TIP3   OH219523   5.123   3.339   2.430
 6506TIP3    H119524   5.168   3.254   2.430
 6506TIP3    H219525   5.101   3.354   2.522
 6507TIP3   OH219526   2.969   2.743   2.005
 6507TIP3    H119527   2.974   2.812   2.072
 6507TIP3    H219528   2.953   2.663   2.055
 6508TIP3   OH219529   6.123   5.831   3.707
 6508TIP3    H119530   6.072   5.762   3.749
 6508TIP3    H219531   6.071   5.911   3.721
 6509TIP3   OH219532   1.221   1.891   0.508
 6509TIP3    H119533   1.204   1.949   0.433
 6509TIP3    H219534   1.316   1.893   0.520
 6510TIP3   OH219535   4.224   0.797   0.131
 6510TIP3    H119536   4.260   0.860   0.194
 6510TIP3    H219537   4.217   0.716   0.181
 6511TIP3   OH219538   3.110   5.608   0.432
 6511TIP3    H119539   3.088   5.626   0.340
 6511TIP3    H219540   3.026   5.606   0.477
 6512TIP3   OH219541   3.416   1.394   4.596
 6512TIP3    H119542   3.489   1.335   4.579
 6512TIP3    H219543   3.428   1.466   4.534
 6513TIP3   OH219544   4.565   2.658   0.184
 6513TIP3    H119545   4.624   2.721   0.142
 6513TIP3    H219546   4.517   2.618   0.111
 6514TIP3   OH219547   5.660   5.203   2.749
 6514TIP3    H119548   5.654   5.127   2.807
 6514TIP3    H219549   5.586   5.258   2.774
 6515TIP3   OH219550   4.961   1.478   1.940
 6515TIP3    H119551   4.967   1.557   1.994
 6515TIP3    H219552   5.049   1.468   1.904
 6516TIP3   OH219553   3.550   2.618   0.585
 6516TIP3    H119554   3.534   2.589   0.675
 6516TIP3    H219555   3.629   2.672   0.592
 6517TIP3   OH219556   5.265   5.812   2.271
 6517TIP3    H119557   5.187   5.865   2.286
 6517TIP3    H219558   5.336   5.876   2.265
 6518TIP3   OH219559   0.493   2.419   5.156
 6518TIP3    H119560   0.575   2.386   5.194
 6518TIP3    H219561   0.510   2.422   5.062
 6519TIP3   OH219562   0.291   0.593   1.781
 6519TIP3    H119563   0.201   0.619   1.801
 6519TIP3    H219564   0.319   0.656   1.715
 6520TIP3   OH219565   2.930   4.707   3.256
 6520TIP3    H119566   2.985   4.648   3.205
 6520TIP3    H219567   2.989   4.744   3.321
 6521TIP3   OH219568   1.486   1.783   0.609
 6521TIP3    H119569   1.489   1.696   0.649
 6521TIP3    H219570   1.505   1.768   0.517
 6522TIP3   OH219571   3.488   3.692   1.520
 6522TIP3    H119572   3.569   3.665   1.476
 6522TIP3    H219573   3.505   3.783   1.546
 6523TIP3   OH219574   5.092   3.387   3.742
 6523TIP3    H119575   5.086   3.440   3.663
 6523TIP3    H219576   5.158   3.431   3.795
 6524TIP3   OH219577   2.156   1.107   1.033
 6524TIP3    H119578   2.182   1.189   1.075
 6524TIP3    H219579   2.238   1.069   1.001
 6525TIP3   OH219580   2.323   3.919   3.967
 6525TIP3    H119581   2.251   3.858   3.952
 6525TIP3    H219582   2.368   3.885   4.044
 6526TIP3   OH219583   0.826   1.398   4.391
 6526TIP3    H119584   0.908   1.349   4.384
 6526TIP3    H219585   0.758   1.337   4.363
 6527TIP3   OH219586   1.666   4.969   1.909
 6527TIP3    H119587   1.755   4.989   1.937
 6527TIP3    H219588   1.665   4.991   1.816
 6528TIP3   OH219589   5.624   1.404   1.526
 6528TIP3    H119590   5.586   1.490   1.509
 6528TIP3    H219591   5.669   1.414   1.610
 6529TIP3   OH219592   3.199   0.890   1.190
 6529TIP3    H119593   3.122   0.919   1.240
 6529TIP3    H219594   3.261   0.961   1.199
 6530TIP3   OH219595   5.623   3.711   1.857
 6530TIP3    H119596   5.555   3.676   1.916
 6530TIP3    H219597   5.611   3.661   1.776
 6531TIP3   OH219598   0.006   1.126   4.057
 6531TIP3    H119599  -0.038   1.120   3.972
 6531TIP3    H219600   0.038   1.216   4.062
 6532TIP3   OH219601   2.662   5.155   3.509
 6532TIP3    H119602   2.569   5.173   3.497
 6532TIP3    H219603   2.679   5.078   3.455
 6533TIP3   OH219604   0.429   1.669   2.264
 6533TIP3    H119605   0.414   1.575   2.254
 6533TIP3    H219606   0.500   1.676   2.327
 6534TIP3   OH219607   0.632   2.624   1.020
 6534TIP3    H119608   0.634   2.687   1.092
 6534TIP3    H219609   0.581   2.550   1.054
 6535TIP3   OH219610   5.280   5.685   2.803
 6535TIP3    H119611   5.342   5.751   2.772
 6535TIP3    H219612   5.234   5.656   2.724
 6536TIP3   OH219613   3.958   4.775   4.057
 6536TIP3    H119614   3.884   4.780   4.118
 6536TIP3    H219615   3.927   4.715   3.988
 6537TIP3   OH219616   4.946   2.229   4.089
 6537TIP3    H119617   4.904   2.304   4.048
 6537TIP3    H219618   5.034   2.227   4.051
 6538TIP3   OH219619   2.377   1.233   3.118
 6538TIP3    H119620   2.309   1.227   3.184
 6538TIP3    H219621   2.400   1.326   3.114
 6539TIP3   OH219622   6.193   4.609   1.245
 6539TIP3    H119623   6.208   4.515   1.243
 6539TIP3    H219624   6.278   4.647   1.220
 6540TIP3   OH219625   1.746   3.702   4.235
 6540TIP3    H119626   1.805   3.735   4.303
 6540TIP3    H219627   1.798   3.705   4.155
 6541TIP3   OH219628   4.744   5.856   0.419
 6541TIP3    H119629   4.838   5.850   0.438
 6541TIP3    H219630   4.715   5.765   0.412
 6542TIP3   OH219631   1.795   3.451   2.657
 6542TIP3    H119632   1.869   3.429   2.600
 6542TIP3    H219633   1.761   3.533   2.621
 6543TIP3   OH219634   3.402   2.844   3.187
 6543TIP3    H119635   3.377   2.755   3.162
 6543TIP3    H219636   3.378   2.898   3.112
 6544TIP3   OH219637   1.008   2.731   2.367
 6544TIP3    H119638   1.075   2.799   2.374
 6544TIP3    H219639   0.934   2.764   2.418
 6545TIP3   OH219640   0.936   3.617   4.700
 6545TIP3    H119641   1.016   3.640   4.746
 6545TIP3    H219642   0.954   3.639   4.608
 6546TIP3   OH219643   6.217   1.449   1.019
 6546TIP3    H119644   6.271   1.527   1.013
 6546TIP3    H219645   6.191   1.430   0.929
 6547TIP3   OH219646   5.028   2.203   2.953
 6547TIP3    H119647   4.985   2.118   2.943
 6547TIP3    H219648   5.017   2.225   3.045
 6548TIP3   OH219649   6.318   2.019   0.949
 6548TIP3    H119650   6.272   1.941   0.917
 6548TIP3    H219651   6.357   2.058   0.870
 6549TIP3   OH219652   1.673   5.023   0.310
 6549TIP3    H119653   1.657   5.106   0.265
 6549TIP3    H219654   1.736   4.978   0.255
 6550TIP3   OH219655   0.655   0.681   5.011
 6550TIP3    H119656   0.728   0.713   5.064
 6550TIP3    H219657   0.580   0.681   5.071
 6551TIP3   OH219658   3.663   5.763   4.912
 6551TIP3    H119659   3.640   5.709   4.837
 6551TIP3    H219660   3.688   5.700   4.980
 6552TIP3   OH219661   0.140   4.738   2.479
 6552TIP3    H119662   0.053   4.762   2.511
 6552TIP3    H219663   0.142   4.643   2.482
 6553TIP3   OH219664   2.009   0.608   4.882
 6553TIP3    H119665   2.008   0.585   4.975
 6553TIP3    H219666   2.090   0.658   4.871
 6554TIP3   OH219667   3.821   4.179   2.771
 6554TIP3    H119668   3.775   4.237   2.711
 6554TIP3    H219669   3.764   4.102   2.777
 6555TIP3   OH219670   6.274   0.128   4.781
 6555TIP3    H119671   6.190   0.129   4.827
 6555TIP3    H219672   6.328   0.067   4.831
 6556TIP3   OH219673   5.197   5.134   4.789
 6556TIP3    H119674   5.200   5.044   4.822
 6556TIP3    H219675   5.105   5.160   4.798
 6557TIP3   OH219676   3.428   4.032   4.953
 6557TIP3    H119677   3.334   4.026   4.938
 6557TIP3    H219678   3.437   4.033   5.048
 6558TIP3   OH219679   1.915   0.759   4.119
 6558TIP3    H119680   1.883   0.830   4.063
 6558TIP3    H219681   1.957   0.698   4.059
 6559TIP3   OH219682   1.975   4.852   3.589
 6559TIP3    H119683   2.070   4.853   3.590
 6559TIP3    H219684   1.950   4.807   3.670
 6560TIP3   OH219685   0.882   2.709   1.740
 6560TIP3    H119686   0.938   2.673   1.809
 6560TIP3    H219687   0.875   2.802   1.760
 6561TIP3   OH219688   4.825   0.086   1.268
 6561TIP3    H119689   4.788   0.170   1.294
 6561TIP3    H219690   4.752   0.041   1.224
 6562TIP3   OH219691   0.689   5.237   2.437
 6562TIP3    H119692   0.627   5.170   2.410
 6562TIP3    H219693   0.772   5.191   2.447
 6563TIP3   OH219694   2.618   1.577   2.829
 6563TIP3    H119695   2.629   1.500   2.885
 6563TIP3    H219696   2.528   1.572   2.799
 6564TIP3   OH219697   3.686   0.099   1.814
 6564TIP3    H119698   3.599   0.084   1.777
 6564TIP3    H219699   3.743   0.108   1.737
 6565TIP3   OH219700   5.890   0.928   3.430
 6565TIP3    H119701   5.799   0.916   3.402
 6565TIP3    H219702   5.942   0.906   3.352
 6566TIP3   OH219703   5.113   1.890   0.119
 6566TIP3    H119704   5.132   1.871   0.028
 6566TIP3    H219705   5.113   1.986   0.125
 6567TIP3   OH219706   3.236   5.969   4.165
 6567TIP3    H119707   3.269   5.886   4.129
 6567TIP3    H219708   3.217   5.950   4.256
 6568TIP3   OH219709   2.329   4.213   3.570
 6568TIP3    H119710   2.298   4.170   3.650
 6568TIP3    H219711   2.422   4.191   3.566
 6569TIP3   OH219712   5.816   0.326   3.226
 6569TIP3    H119713   5.774   0.373   3.154
 6569TIP3    H219714   5.813   0.234   3.200
 6570TIP3   OH219715   5.756   3.884   0.347
 6570TIP3    H119716   5.790   3.960   0.394
 6570TIP3    H219717   5.789   3.893   0.258
 6571TIP3   OH219718   0.794   2.361   1.279
 6571TIP3    H119719   0.748   2.316   1.209
 6571TIP3    H219720   0.751   2.447   1.285
 6572TIP3   OH219721   4.050   0.713   2.054
 6572TIP3    H119722   4.065   0.626   2.091
 6572TIP3    H219723   4.032   0.696   1.961
 6573TIP3   OH219724   2.163   0.879   1.251
 6573TIP3    H119725   2.080   0.831   1.251
 6573TIP3    H219726   2.140   0.968   1.226
 6574TIP3   OH219727   2.140   2.081   1.888
 6574TIP3    H119728   2.158   2.097   1.795
 6574TIP3    H219729   2.049   2.111   1.900
 6575TIP3   OH219730   0.494   1.066   3.532
 6575TIP3    H119731   0.575   1.070   3.584
 6575TIP3    H219732   0.515   1.110   3.450
 6576TIP3   OH219733   0.436   3.887   2.574
 6576TIP3    H119734   0.352   3.927   2.552
 6576TIP3    H219735   0.445   3.899   2.669
 6577TIP3   OH219736   0.049   3.061   1.217
 6577TIP3    H119737   0.047   2.967   1.200
 6577TIP3    H219738   0.023   3.070   1.308
 6578TIP3   OH219739   1.484   0.823   2.019
 6578TIP3    H119740   1.441   0.905   1.994
 6578TIP3    H219741   1.500   0.832   2.113
 6579TIP3   OH219742   1.248   1.031   3.491
 6579TIP3    H119743   1.331   1.072   3.517
 6579TIP3    H219744   1.207   1.007   3.574
 6580TIP3   OH219745   4.017   4.079   4.217
 6580TIP3    H119746   3.939   4.131   4.195
 6580TIP3    H219747   4.071   4.138   4.269
 6581TIP3   OH219748   1.073   0.380   3.403
 6581TIP3    H119749   1.003   0.437   3.370
 6581TIP3    H219750   1.082   0.313   3.335
 6582TIP3   OH219751   3.137   5.454   2.434
 6582TIP3    H119752   3.165   5.545   2.438
 6582TIP3    H219753   3.146   5.430   2.342
 6583TIP3   OH219754   4.491   4.924   2.125
 6583TIP3    H119755   4.479   4.982   2.049
 6583TIP3    H219756   4.580   4.890   2.114
 6584TIP3   OH219757   3.504   5.416   3.726
 6584TIP3    H119758   3.564   5.443   3.656
 6584TIP3    H219759   3.480   5.326   3.703
 6585TIP3   OH219760   3.126   1.072   5.007
 6585TIP3    H119761   3.216   1.064   5.039
 6585TIP3    H219762   3.098   1.158   5.037
 6586TIP3   OH219763   1.423   5.059   2.475
 6586TIP3    H119764   1.502   5.006   2.487
 6586TIP3    H219765   1.456   5.141   2.438
 6587TIP3   OH219766   4.783   2.065   1.302
 6587TIP3    H119767   4.869   2.103   1.286
 6587TIP3    H219768   4.764   2.086   1.393
 6588TIP3   OH219769   1.960   5.049   2.591
 6588TIP3    H119770   1.925   5.067   2.504
 6588TIP3    H219771   2.018   5.123   2.609
 6589TIP3   OH219772   4.506   5.099   3.378
 6589TIP3    H119773   4.538   5.065   3.295
 6589TIP3    H219774   4.536   5.190   3.379
 6590TIP3   OH219775   1.396   4.281   3.975
 6590TIP3    H119776   1.396   4.319   3.887
 6590TIP3    H219777   1.339   4.338   4.026
 6591TIP3   OH219778   2.148   1.344   0.105
 6591TIP3    H119779   2.193   1.274   0.058
 6591TIP3    H219780   2.211   1.415   0.108
 6592TIP3   OH219781   6.261   1.580   4.037
 6592TIP3    H119782   6.185   1.568   4.094
 6592TIP3    H219783   6.276   1.675   4.036
 6593TIP3   OH219784   4.391   1.762   4.056
 6593TIP3    H119785   4.386   1.720   3.969
 6593TIP3    H219786   4.442   1.841   4.041
 6594TIP3   OH219787   1.188   3.613   1.913
 6594TIP3    H119788   1.159   3.530   1.950
 6594TIP3    H219789   1.112   3.671   1.919
 6595TIP3   OH219790   3.912   4.700   5.083
 6595TIP3    H119791   3.925   4.605   5.074
 6595TIP3    H219792   3.996   4.732   5.114
 6596TIP3   OH219793   0.423   0.373   1.960
 6596TIP3    H119794   0.332   0.355   1.983
 6596TIP3    H219795   0.418   0.423   1.879
 6597TIP3   OH219796   1.997   3.965   0.860
 6597TIP3    H119797   2.008   4.040   0.918
 6597TIP3    H219798   1.913   3.980   0.816
 6598TIP3   OH219799   1.625   4.439   3.880
 6598TIP3    H119800   1.619   4.348   3.909
 6598TIP3    H219801   1.534   4.465   3.866
 6599TIP3   OH219802   1.778   4.204   4.999
 6599TIP3    H119803   1.855   4.259   5.006
 6599TIP3    H219804   1.768   4.165   5.086
 6600TIP3   OH219805   3.133   5.770   5.128
 6600TIP3    H119806   3.149   5.864   5.120
 6600TIP3    H219807   3.221   5.731   5.129
 6601TIP3   OH219808   1.072   5.636   0.550
 6601TIP3    H119809   1.151   5.689   0.562
 6601TIP3    H219810   1.084   5.594   0.464
 6602TIP3   OH219811   6.136   1.534   0.030
 6602TIP3    H119812   6.048   1.496   0.034
 6602TIP3    H219813   6.193   1.464   0.063
 6603TIP3   OH219814   0.476   2.422   0.262
 6603TIP3    H119815   0.566   2.395   0.242
 6603TIP3    H219816   0.451   2.368   0.337
 6604TIP3   OH219817   3.925   1.844   0.210
 6604TIP3    H119818   3.929   1.937   0.186
 6604TIP3    H219819   3.997   1.803   0.162
 6605TIP3   OH219820   3.034   2.685   2.492
 6605TIP3    H119821   2.975   2.611   2.504
 6605TIP3    H219822   2.977   2.761   2.484
 6606TIP3   OH219823   0.656   3.898   3.476
 6606TIP3    H119824   0.606   3.867   3.401
 6606TIP3    H219825   0.625   3.846   3.550
 6607TIP3   OH219826   0.177   3.434   4.262
 6607TIP3    H119827   0.113   3.496   4.297
 6607TIP3    H219828   0.142   3.348   4.284
 6608TIP3   OH219829   4.144   3.053   1.374
 6608TIP3    H119830   4.140   3.137   1.419
 6608TIP3    H219831   4.233   3.022   1.390
 6609TIP3   OH219832   4.602   3.985   2.770
 6609TIP3    H119833   4.655   4.055   2.732
 6609TIP3    H219834   4.536   4.030   2.822
 6610TIP3   OH219835   4.618   0.233   0.970
 6610TIP3    H119836   4.651   0.310   1.017
 6610TIP3    H219837   4.596   0.265   0.883
 6611TIP3   OH219838   1.408   0.782   0.309
 6611TIP3    H119839   1.336   0.773   0.371
 6611TIP3    H219840   1.487   0.772   0.362
 6612TIP3   OH219841   4.374   1.623   4.289
 6612TIP3    H119842   4.398   1.682   4.218
 6612TIP3    H219843   4.295   1.579   4.258
 6613TIP3   OH219844   1.173   2.344   1.814
 6613TIP3    H119845   1.147   2.321   1.724
 6613TIP3    H219846   1.268   2.335   1.814
 6614TIP3   OH219847   3.076   5.370   4.297
 6614TIP3    H119848   3.016   5.432   4.337
 6614TIP3    H219849   3.154   5.373   4.352
 6615TIP3   OH219850   2.088   2.586   5.093
 6615TIP3    H119851   2.067   2.605   5.185
 6615TIP3    H219852   2.008   2.609   5.045
 6616TIP3   OH219853   0.135   0.841   1.220
 6616TIP3    H119854   0.158   0.832   1.127
 6616TIP3    H219855   0.192   0.779   1.265
 6617TIP3   OH219856   0.189   5.350   3.732
 6617TIP3    H119857   0.282   5.361   3.753
 6617TIP3    H219858   0.156   5.439   3.725
 6618TIP3   OH219859   5.031   5.265   1.388
 6618TIP3    H119860   5.058   5.324   1.459
 6618TIP3    H219861   5.106   5.265   1.328
 6619TIP3   OH219862   0.958   4.764   0.896
 6619TIP3    H119863   0.864   4.771   0.877
 6619TIP3    H219864   0.980   4.673   0.876
 6620TIP3   OH219865   6.152   1.528   3.509
 6620TIP3    H119866   6.188   1.492   3.590
 6620TIP3    H219867   6.139   1.453   3.452
 6621TIP3   OH219868   4.956   2.854   3.279
 6621TIP3    H119869   4.916   2.939   3.262
 6621TIP3    H219870   4.888   2.790   3.257
 6622TIP3   OH219871   0.435   5.572   5.113
 6622TIP3    H119872   0.451   5.662   5.084
 6622TIP3    H219873   0.380   5.534   5.044
 6623TIP3   OH219874   4.376   1.353   3.211
 6623TIP3    H119875   4.329   1.281   3.169
 6623TIP3    H219876   4.448   1.310   3.258
 6624TIP3   OH219877   2.384   0.961   3.432
 6624TIP3    H119878   2.299   1.004   3.446
 6624TIP3    H219879   2.447   1.032   3.434
 6625TIP3   OH219880   5.322   5.204   2.391
 6625TIP3    H119881   5.410   5.179   2.420
 6625TIP3    H219882   5.334   5.285   2.341
 6626TIP3   OH219883   2.214   1.510   3.359
 6626TIP3    H119884   2.135   1.500   3.306
 6626TIP3    H219885   2.283   1.533   3.296
 6627TIP3   OH219886   1.557   3.149   0.088
 6627TIP3    H119887   1.606   3.074   0.052
 6627TIP3    H219888   1.475   3.150   0.039
 6628TIP3   OH219889   2.197   0.942   3.971
 6628TIP3    H119890   2.236   0.956   3.885
 6628TIP3    H219891   2.265   0.896   4.020
 6629TIP3   OH219892   2.197   2.540   0.110
 6629TIP3    H119893   2.279   2.540   0.062
 6629TIP3    H219894   2.198   2.458   0.160
 6630TIP3   OH219895   2.619   1.029   3.761
 6630TIP3    H119896   2.666   1.084   3.698
 6630TIP3    H219897   2.618   1.080   3.842
 6631TIP3   OH219898   0.709   1.085   1.570
 6631TIP3    H119899   0.718   1.151   1.501
 6631TIP3    H219900   0.627   1.108   1.614
 6632TIP3   OH219901   5.708   4.470   2.925
 6632TIP3    H119902   5.634   4.514   2.884
 6632TIP3    H219903   5.672   4.427   3.002
 6633TIP3   OH219904   5.336   3.094   0.973
 6633TIP3    H119905   5.387   3.147   0.911
 6633TIP3    H219906   5.251   3.139   0.978
 6634TIP3   OH219907   3.654   4.488   2.308
 6634TIP3    H119908   3.682   4.514   2.221
 6634TIP3    H219909   3.582   4.427   2.293
 6635TIP3   OH219910   2.701   4.637   0.487
 6635TIP3    H119911   2.663   4.555   0.455
 6635TIP3    H219912   2.672   4.643   0.578
 6636TIP3   OH219913   4.441   0.341   4.407
 6636TIP3    H119914   4.388   0.263   4.425
 6636TIP3    H219915   4.380   0.414   4.420
 6637TIP3   OH219916   0.404   5.743   3.913
 6637TIP3    H119917   0.498   5.728   3.921
 6637TIP3    H219918   0.397   5.833   3.881
 6638TIP3   OH219919   3.213   4.600   3.765
 6638TIP3    H119920   3.193   4.648   3.845
 6638TIP3    H219921   3.227   4.510   3.793
 6639TIP3   OH219922   3.016   4.567   1.069
 6639TIP3    H119923   3.060   4.528   0.994
 6639TIP3    H219924   2.943   4.616   1.032
 6640TIP3   OH219925   5.728   4.039   1.281
 6640TIP3    H119926   5.769   4.117   1.319
 6640TIP3    H219927   5.741   3.971   1.347
   6.35361   5.99024   5.18770   0.00000   0.00000  -2.11787   0.00000  -2.11787  -2.99512
