Title t= 192.00000 step= 96000
44469
    1GLY      N    1   5.688   5.632   3.814
    1GLY    HT1    2   5.781   5.604   3.850
    1GLY    HT2    3   5.617   5.567   3.854
    1GLY    HT3    4   5.665   5.723   3.859
    1GLY     CA    5   5.687   5.635   3.663
    1GLY    HA1    6   5.668   5.536   3.626
    1GLY    HA2    7   5.781   5.677   3.631
    1GLY      C    8   5.574   5.725   3.605
    1GLY      O    9   5.475   5.763   3.671
    2PRO      N   10   5.582   5.763   3.475
    2PRO     CD   11   5.671   5.686   3.384
    2PRO    HD1   12   5.650   5.577   3.383
    2PRO    HD2   13   5.777   5.705   3.414
    2PRO     CA   14   5.522   5.882   3.423
    2PRO     HA   15   5.544   5.963   3.490
    2PRO     CB   16   5.590   5.894   3.289
    2PRO    HB1   17   5.686   5.948   3.303
    2PRO    HB2   18   5.522   5.937   3.212
    2PRO     CG   19   5.632   5.752   3.250
    2PRO    HG1   20   5.555   5.694   3.194
    2PRO    HG2   21   5.712   5.747   3.173
    2PRO      C   22   5.371   5.879   3.408
    2PRO      O   23   5.318   5.991   3.378
    3GLY      N   24   5.303   5.767   3.445
    3GLY     HN   25   5.360   5.687   3.463
    3GLY     CA   26   5.157   5.754   3.447
    3GLY    HA1   27   5.135   5.649   3.439
    3GLY    HA2   28   5.117   5.814   3.367
    3GLY      C   29   5.094   5.801   3.572
    3GLY      O   30   4.970   5.835   3.574
    4ASN      N   31   5.173   5.820   3.685
    4ASN     HN   32   5.270   5.801   3.687
    4ASN     CA   33   5.127   5.863   3.813
    4ASN     HA   34   5.021   5.879   3.805
    4ASN     CB   35   5.162   5.753   3.917
    4ASN    HB1   36   5.082   5.756   3.995
    4ASN    HB2   37   5.264   5.753   3.960
    4ASN     CG   38   5.151   5.614   3.849
    4ASN    OD1   39   5.249   5.549   3.803
    4ASN    ND2   40   5.031   5.555   3.846
    4ASN   HD21   41   5.014   5.465   3.806
    4ASN   HD22   42   4.957   5.622   3.849
    4ASN      C   43   5.195   5.990   3.866
    4ASN      O   44   5.305   6.023   3.821
    5PRO      N   45   5.144   6.060   3.965
    5PRO     CD   46   5.009   6.046   4.021
    5PRO    HD1   47   5.011   5.967   4.098
    5PRO    HD2   48   4.938   6.010   3.943
    5PRO     CA   49   5.212   6.165   4.026
    5PRO     HA   50   5.227   6.234   3.945
    5PRO     CB   51   5.121   6.220   4.143
    5PRO    HB1   52   5.131   6.330   4.155
    5PRO    HB2   53   5.140   6.157   4.233
    5PRO     CG   54   4.987   6.185   4.077
    5PRO    HG1   55   4.920   6.181   4.166
    5PRO    HG2   56   4.963   6.261   3.999
    5PRO      C   57   5.361   6.144   4.083
    5PRO      O   58   5.391   6.052   4.155
    6GLY      N   59   5.449   6.236   4.049
    6GLY     HN   60   5.429   6.292   3.969
    6GLY     CA   61   5.586   6.221   4.088
    6GLY    HA1   62   5.642   6.300   4.040
    6GLY    HA2   63   5.626   6.126   4.055
    6GLY      C   64   5.614   6.248   4.234
    6GLY      O   65   5.529   6.296   4.311
    7PRO      N   66   5.735   6.218   4.278
    7PRO     CD   67   5.834   6.141   4.201
    7PRO    HD1   68   5.863   6.210   4.119
    7PRO    HD2   69   5.804   6.044   4.157
    7PRO     CA   70   5.803   6.286   4.398
    7PRO     HA   71   5.770   6.246   4.493
    7PRO     CB   72   5.955   6.258   4.376
    7PRO    HB1   73   6.022   6.263   4.465
    7PRO    HB2   74   5.994   6.335   4.307
    7PRO     CG   75   5.956   6.131   4.291
    7PRO    HG1   76   6.054   6.112   4.241
    7PRO    HG2   77   5.941   6.043   4.357
    7PRO      C   78   5.767   6.435   4.401
    7PRO      O   79   5.809   6.512   4.318
    8GLY      N   80   5.706   6.485   4.512
    8GLY     HN   81   5.692   6.419   4.585
    8GLY     CA   82   5.664   6.620   4.531
    8GLY    HA1   83   5.614   6.654   4.441
    8GLY    HA2   84   5.753   6.678   4.552
    8GLY      C   85   5.577   6.642   4.649
    8GLY      O   86   5.560   6.552   4.734
    9ASN      N   87   5.521   6.760   4.649
    9ASN     HN   88   5.547   6.824   4.577
    9ASN     CA   89   5.424   6.794   4.745
    9ASN     HA   90   5.449   6.762   4.844
    9ASN     CB   91   5.410   6.950   4.763
    9ASN    HB1   92   5.311   6.955   4.812
    9ASN    HB2   93   5.400   6.997   4.663
    9ASN     CG   94   5.530   7.015   4.829
    9ASN    OD1   95   5.587   7.106   4.768
    9ASN    ND2   96   5.563   6.963   4.951
    9ASN   HD21   97   5.647   7.002   4.991
    9ASN   HD22   98   5.498   6.912   5.007
    9ASN      C   99   5.293   6.718   4.706
    9ASN      O  100   5.264   6.688   4.589
   10PRO      N  101   5.204   6.697   4.803
   10PRO     CD  102   5.218   6.697   4.946
   10PRO    HD1  103   5.200   6.800   4.982
   10PRO    HD2  104   5.315   6.668   4.990
   10PRO     CA  105   5.074   6.651   4.766
   10PRO     HA  106   5.087   6.555   4.718
   10PRO     CB  107   4.994   6.635   4.894
   10PRO    HB1  108   4.923   6.550   4.889
   10PRO    HB2  109   4.943   6.728   4.927
   10PRO     CG  110   5.108   6.601   4.989
   10PRO    HG1  111   5.081   6.610   5.097
   10PRO    HG2  112   5.137   6.495   4.971
   10PRO      C  113   4.992   6.733   4.671
   10PRO      O  114   4.998   6.858   4.690
   11GLY      N  115   4.923   6.670   4.571
   11GLY     HN  116   4.951   6.576   4.549
   11GLY     CA  117   4.833   6.742   4.476
   11GLY    HA1  118   4.776   6.680   4.408
   11GLY    HA2  119   4.900   6.804   4.419
   11GLY      C  120   4.727   6.825   4.545
   11GLY      O  121   4.712   6.819   4.666
   12PRO      N  122   4.646   6.905   4.477
   12PRO     CD  123   4.680   6.940   4.338
   12PRO    HD1  124   4.681   6.856   4.264
   12PRO    HD2  125   4.784   6.979   4.346
   12PRO     CA  126   4.561   7.008   4.539
   12PRO     HA  127   4.595   7.033   4.638
   12PRO     CB  128   4.562   7.122   4.445
   12PRO    HB1  129   4.649   7.181   4.480
   12PRO    HB2  130   4.471   7.186   4.450
   12PRO     CG  131   4.581   7.048   4.303
   12PRO    HG1  132   4.485   7.014   4.260
   12PRO    HG2  133   4.625   7.106   4.220
   12PRO      C  134   4.418   6.944   4.546
   12PRO      O  135   4.333   7.007   4.611
   13GLY      N  136   4.385   6.832   4.478
   13GLY     HN  137   4.460   6.774   4.447
   13GLY     CA  138   4.253   6.779   4.441
   13GLY    HA1  139   4.181   6.841   4.494
   13GLY    HA2  140   4.251   6.675   4.468
   13GLY      C  141   4.223   6.810   4.297
   13GLY      O  142   4.301   6.867   4.221
   14ASN      N  143   4.099   6.779   4.262
   14ASN     HN  144   4.040   6.728   4.324
   14ASN     CA  145   4.045   6.789   4.128
   14ASN     HA  146   4.097   6.866   4.073
   14ASN     CB  147   4.060   6.645   4.058
   14ASN    HB1  148   3.978   6.613   3.990
   14ASN    HB2  149   4.065   6.572   4.142
   14ASN     CG  150   4.191   6.651   3.985
   14ASN    OD1  151   4.225   6.757   3.928
   14ASN    ND2  152   4.257   6.536   3.970
   14ASN   HD21  153   4.349   6.540   3.931
   14ASN   HD22  154   4.212   6.450   3.993
   14ASN      C  155   3.902   6.824   4.147
   14ASN      O  156   3.845   6.776   4.246
   15PRO      N  157   3.839   6.912   4.060
   15PRO     CD  158   3.911   6.987   3.955
   15PRO    HD1  159   3.992   6.926   3.909
   15PRO    HD2  160   3.959   7.074   4.007
   15PRO     CA  161   3.695   6.926   4.049
   15PRO     HA  162   3.644   6.937   4.144
   15PRO     CB  163   3.676   7.046   3.952
   15PRO    HB1  164   3.660   7.143   4.005
   15PRO    HB2  165   3.590   7.043   3.882
   15PRO     CG  166   3.800   7.038   3.861
   15PRO    HG1  167   3.791   6.954   3.788
   15PRO    HG2  168   3.817   7.134   3.809
   15PRO      C  169   3.634   6.800   3.992
   15PRO    OT1  170   3.521   6.816   3.926
   15PRO    OT2  171   3.688   6.684   4.008
   16LIT    LIT  172   2.261   5.632   3.017
   17LIT    LIT  173   2.562   7.118   0.564
   18LIT    LIT  174   5.384   2.587   6.404
   19LIT    LIT  175   1.695   6.168   4.746
   20LIT    LIT  176   1.715   2.247   2.968
   21LIT    LIT  177   0.771   6.585   6.280
   22LIT    LIT  178   6.424   7.179   3.300
   23LIT    LIT  179   2.882   1.695   4.659
   24LIT    LIT  180   2.928   5.923   2.869
   25LIT    LIT  181   8.138   6.215   4.224
   26LIT    LIT  182   7.020   7.000   1.048
   27LIT    LIT  183   2.538   4.671   0.925
   28LIT    LIT  184   8.068   4.046   5.255
   29LIT    LIT  185   0.196   4.197   6.353
   30LIT    LIT  186   4.272   1.715   3.556
   31LIT    LIT  187   7.764   2.062   1.153
   32LIT    LIT  188   7.056   0.875   3.646
   33LIT    LIT  189   8.296   5.195   2.823
   34LIT    LIT  190   1.847   0.666   2.776
   35LIT    LIT  191   6.413   4.734   3.817
   36LIT    LIT  192   6.160   4.613   0.206
   37LIT    LIT  193   2.943   1.774   5.948
   38LIT    LIT  194   1.777   4.012   3.126
   39LIT    LIT  195   4.550   5.983   5.560
   40LIT    LIT  196   1.222   5.319   0.905
   41LIT    LIT  197   1.545   5.124   5.508
   42LIT    LIT  198   1.874   2.576   5.446
   43LIT    LIT  199   3.500   6.620   3.972
   44LIT    LIT  200   4.411   4.483   3.676
   45LIT    LIT  201   1.700   3.665   4.639
   46LIT    LIT  202   5.252   4.667   6.778
   47LIT    LIT  203   6.729   3.755   5.094
   48LIT    LIT  204   7.138   0.955   0.880
   49LIT    LIT  205   1.184   1.846   4.525
   50LIT    LIT  206   5.309   4.471   1.728
   51LIT    LIT  207   4.257   1.175   2.101
   52LIT    LIT  208   5.824   3.018   2.659
   53LIT    LIT  209   2.026   0.187   1.158
   54LIT    LIT  210   4.818   7.039   1.327
   55LIT    LIT  211   1.567   4.068   1.279
   56LIT    LIT  212   3.657   7.099   6.519
   57LIT    LIT  213   6.340   3.961   4.177
   58CLA    CLA  214   3.436   2.850   2.718
   59CLA    CLA  215   2.974   7.574   0.827
   60CLA    CLA  216   0.275   1.121   4.440
   61CLA    CLA  217   5.257   1.852   3.750
   62CLA    CLA  218   5.757   6.660   0.259
   63CLA    CLA  219   7.488   7.382   3.008
   64CLA    CLA  220   1.281   5.807   5.539
   65CLA    CLA  221   4.771   2.610   5.748
   66CLA    CLA  222   3.570   0.035   0.540
   67CLA    CLA  223   6.214   3.633   2.559
   68CLA    CLA  224   1.222   6.332   1.487
   69CLA    CLA  225   5.663   5.024   4.743
   70CLA    CLA  226   5.813   0.260   4.411
   71CLA    CLA  227   7.541   4.534   4.774
   72CLA    CLA  228   6.220   4.623   1.881
   73CLA    CLA  229   0.261   4.163   2.145
   74CLA    CLA  230   2.700   4.500   5.388
   75CLA    CLA  231   2.334   3.622   5.192
   76CLA    CLA  232   3.787   2.343   4.001
   77CLA    CLA  233   5.257   4.515   6.145
   78CLA    CLA  234   5.350   7.001   5.727
   79CLA    CLA  235   2.754   5.921   3.325
   80CLA    CLA  236   0.890   4.777   3.749
   81CLA    CLA  237   7.445   6.998   6.674
   82CLA    CLA  238   7.644   2.723   3.855
   83CLA    CLA  239   4.214   6.521   1.042
   84CLA    CLA  240   2.752   5.447   3.470
   85CLA    CLA  241   2.188   5.969   6.455
   86CLA    CLA  242   6.493   0.862   3.259
   87CLA    CLA  243   6.366   1.159   1.744
   88CLA    CLA  244   3.544   6.299   5.795
   89CLA    CLA  245   7.188   5.181   1.255
   90CLA    CLA  246   0.300   6.408   6.589
   91CLA    CLA  247   2.658   0.723   2.858
   92CLA    CLA  248   0.228   4.100   6.564
   93CLA    CLA  249   4.365   2.469   4.783
   94CLA    CLA  250   3.972   4.606   3.734
   95CLA    CLA  251   2.730   1.834   6.378
   96CLA    CLA  252   1.613   4.398   5.905
   97CLA    CLA  253   4.651   1.023   6.639
   98CLA    CLA  254   8.272   4.346   5.529
   99CLA    CLA  255   7.808   4.206   0.204
  100TIP3   OH2  256   1.682   6.696   6.227
  100TIP3    H1  257   1.667   6.613   6.271
  100TIP3    H2  258   1.595   6.732   6.212
  101TIP3   OH2  259   7.878   5.734   2.581
  101TIP3    H1  260   7.842   5.645   2.581
  101TIP3    H2  261   7.823   5.782   2.643
  102TIP3   OH2  262   5.605   0.081   2.331
  102TIP3    H1  263   5.609   0.163   2.380
  102TIP3    H2  264   5.677   0.086   2.268
  103TIP3   OH2  265   1.399   2.135   6.075
  103TIP3    H1  266   1.379   2.043   6.062
  103TIP3    H2  267   1.389   2.174   5.988
  104TIP3   OH2  268   5.075   0.189   6.677
  104TIP3    H1  269   5.066   0.211   6.769
  104TIP3    H2  270   5.138   0.118   6.675
  105TIP3   OH2  271   0.227   6.154   0.961
  105TIP3    H1  272   0.149   6.168   0.907
  105TIP3    H2  273   0.286   6.226   0.937
  106TIP3   OH2  274   3.519   4.697   3.681
  106TIP3    H1  275   3.460   4.672   3.610
  106TIP3    H2  276   3.582   4.625   3.687
  107TIP3   OH2  277   1.848   2.456   2.125
  107TIP3    H1  278   1.782   2.388   2.135
  107TIP3    H2  279   1.931   2.412   2.146
  108TIP3   OH2  280   2.123   3.136   0.701
  108TIP3    H1  281   2.181   3.060   0.710
  108TIP3    H2  282   2.075   3.140   0.784
  109TIP3   OH2  283   4.693   5.088   4.273
  109TIP3    H1  284   4.674   5.157   4.335
  109TIP3    H2  285   4.771   5.044   4.309
  110TIP3   OH2  286   3.541   0.905   0.251
  110TIP3    H1  287   3.455   0.871   0.276
  110TIP3    H2  288   3.531   1.001   0.254
  111TIP3   OH2  289   7.400  -0.014   5.377
  111TIP3    H1  290   7.361   0.074   5.372
  111TIP3    H2  291   7.383  -0.052   5.291
  112TIP3   OH2  292   4.821   0.581   6.125
  112TIP3    H1  293   4.753   0.514   6.129
  112TIP3    H2  294   4.777   0.662   6.151
  113TIP3   OH2  295   7.456   3.957   6.703
  113TIP3    H1  296   7.465   3.931   6.794
  113TIP3    H2  297   7.499   4.043   6.698
  114TIP3   OH2  298   5.480   2.942   0.640
  114TIP3    H1  299   5.536   2.874   0.678
  114TIP3    H2  300   5.441   2.985   0.717
  115TIP3   OH2  301   5.339   3.923   3.753
  115TIP3    H1  302   5.286   3.846   3.773
  115TIP3    H2  303   5.310   3.989   3.817
  116TIP3   OH2  304   7.802   2.199   3.551
  116TIP3    H1  305   7.709   2.193   3.528
  116TIP3    H2  306   7.848   2.163   3.476
  117TIP3   OH2  307   4.799   4.200   4.053
  117TIP3    H1  308   4.803   4.208   4.148
  117TIP3    H2  309   4.720   4.148   4.036
  118TIP3   OH2  310   7.975   1.626   1.171
  118TIP3    H1  311   8.039   1.587   1.231
  118TIP3    H2  312   8.015   1.710   1.146
  119TIP3   OH2  313   4.263   6.237   6.682
  119TIP3    H1  314   4.323   6.283   6.740
  119TIP3    H2  315   4.261   6.290   6.602
  120TIP3   OH2  316   6.429   7.677   3.900
  120TIP3    H1  317   6.486   7.721   3.836
  120TIP3    H2  318   6.489   7.624   3.953
  121TIP3   OH2  319   2.104   5.767   4.766
  121TIP3    H1  320   2.079   5.859   4.762
  121TIP3    H2  321   2.163   5.754   4.692
  122TIP3   OH2  322   7.889   2.761   0.693
  122TIP3    H1  323   7.932   2.742   0.777
  122TIP3    H2  324   7.811   2.811   0.716
  123TIP3   OH2  325   1.002   7.701   3.218
  123TIP3    H1  326   0.980   7.676   3.128
  123TIP3    H2  327   0.930   7.666   3.271
  124TIP3   OH2  328   0.543   5.803   2.303
  124TIP3    H1  329   0.590   5.883   2.279
  124TIP3    H2  330   0.507   5.770   2.220
  125TIP3   OH2  331   5.660   6.744   0.761
  125TIP3    H1  332   5.635   6.815   0.820
  125TIP3    H2  333   5.592   6.678   0.772
  126TIP3   OH2  334   6.840   7.097   3.180
  126TIP3    H1  335   6.854   7.105   3.274
  126TIP3    H2  336   6.903   7.157   3.141
  127TIP3   OH2  337   2.105   0.469   4.645
  127TIP3    H1  338   2.047   0.426   4.582
  127TIP3    H2  339   2.186   0.417   4.642
  128TIP3   OH2  340   1.212   2.819   5.841
  128TIP3    H1  341   1.221   2.739   5.892
  128TIP3    H2  342   1.289   2.871   5.863
  129TIP3   OH2  343   5.456   6.314   0.416
  129TIP3    H1  344   5.383   6.357   0.371
  129TIP3    H2  345   5.462   6.227   0.377
  130TIP3   OH2  346   1.295   0.547   1.420
  130TIP3    H1  347   1.246   0.563   1.501
  130TIP3    H2  348   1.257   0.608   1.357
  131TIP3   OH2  349   3.085   0.815   5.621
  131TIP3    H1  350   3.043   0.767   5.550
  131TIP3    H2  351   3.103   0.901   5.584
  132TIP3   OH2  352   0.808   6.973   1.017
  132TIP3    H1  353   0.877   6.911   1.039
  132TIP3    H2  354   0.779   6.948   0.930
  133TIP3   OH2  355   0.940   1.762   1.888
  133TIP3    H1  356   0.926   1.695   1.821
  133TIP3    H2  357   0.992   1.718   1.955
  134TIP3   OH2  358   2.727   1.439   4.015
  134TIP3    H1  359   2.704   1.382   4.089
  134TIP3    H2  360   2.658   1.422   3.950
  135TIP3   OH2  361   4.782   2.730   2.989
  135TIP3    H1  362   4.775   2.826   2.987
  135TIP3    H2  363   4.794   2.705   2.897
  136TIP3   OH2  364   2.643   3.284   5.868
  136TIP3    H1  365   2.707   3.224   5.908
  136TIP3    H2  366   2.576   3.226   5.831
  137TIP3   OH2  367   2.051   6.476   2.725
  137TIP3    H1  368   2.042   6.385   2.695
  137TIP3    H2  369   2.145   6.491   2.728
  138TIP3   OH2  370   3.290   4.466   1.537
  138TIP3    H1  371   3.321   4.387   1.581
  138TIP3    H2  372   3.213   4.437   1.487
  139TIP3   OH2  373   5.077   0.673   3.767
  139TIP3    H1  374   5.172   0.662   3.780
  139TIP3    H2  375   5.038   0.603   3.819
  140TIP3   OH2  376   8.062   3.647   4.496
  140TIP3    H1  377   8.032   3.597   4.420
  140TIP3    H2  378   8.045   3.738   4.473
  141TIP3   OH2  379   6.652   2.234   3.227
  141TIP3    H1  380   6.595   2.170   3.270
  141TIP3    H2  381   6.722   2.182   3.187
  142TIP3   OH2  382   5.976   7.355   6.500
  142TIP3    H1  383   6.030   7.310   6.565
  142TIP3    H2  384   6.018   7.440   6.488
  143TIP3   OH2  385   3.881   2.783   0.021
  143TIP3    H1  386   3.914   2.841   0.089
  143TIP3    H2  387   3.792   2.760   0.049
  144TIP3   OH2  388   3.975   5.805   1.413
  144TIP3    H1  389   3.977   5.749   1.336
  144TIP3    H2  390   3.999   5.748   1.486
  145TIP3   OH2  391   5.504   1.382   4.843
  145TIP3    H1  392   5.529   1.363   4.933
  145TIP3    H2  393   5.565   1.331   4.790
  146TIP3   OH2  394   2.136   4.559   5.091
  146TIP3    H1  395   2.183   4.502   5.151
  146TIP3    H2  396   2.205   4.599   5.037
  147TIP3   OH2  397   1.391   6.111   6.580
  147TIP3    H1  398   1.359   6.175   6.517
  147TIP3    H2  399   1.395   6.028   6.531
  148TIP3   OH2  400   2.906   7.292   0.708
  148TIP3    H1  401   2.924   7.371   0.759
  148TIP3    H2  402   2.990   7.268   0.670
  149TIP3   OH2  403   2.127   1.252   5.232
  149TIP3    H1  404   2.119   1.195   5.156
  149TIP3    H2  405   2.046   1.304   5.232
  150TIP3   OH2  406   3.108   7.813   1.754
  150TIP3    H1  407   3.134   7.756   1.681
  150TIP3    H2  408   3.014   7.828   1.740
  151TIP3   OH2  409   4.788   5.043   2.743
  151TIP3    H1  410   4.864   5.015   2.794
  151TIP3    H2  411   4.817   5.123   2.699
  152TIP3   OH2  412   5.976   0.291   1.833
  152TIP3    H1  413   6.031   0.368   1.850
  152TIP3    H2  414   6.029   0.217   1.862
  153TIP3   OH2  415   1.127   3.333   0.142
  153TIP3    H1  416   1.144   3.256   0.196
  153TIP3    H2  417   1.136   3.407   0.201
  154TIP3   OH2  418   6.858   7.002   5.846
  154TIP3    H1  419   6.845   7.058   5.922
  154TIP3    H2  420   6.943   7.029   5.810
  155TIP3   OH2  421   0.885   5.412   3.728
  155TIP3    H1  422   0.885   5.361   3.647
  155TIP3    H2  423   0.811   5.379   3.778
  156TIP3   OH2  424   7.121   7.234   2.609
  156TIP3    H1  425   7.185   7.265   2.673
  156TIP3    H2  426   7.143   7.280   2.529
  157TIP3   OH2  427   7.089   2.760   3.226
  157TIP3    H1  428   7.034   2.807   3.163
  157TIP3    H2  429   7.099   2.822   3.299
  158TIP3   OH2  430   7.760   1.614   5.913
  158TIP3    H1  431   7.848   1.597   5.877
  158TIP3    H2  432   7.767   1.587   6.005
  159TIP3   OH2  433   0.805   1.997   3.420
  159TIP3    H1  434   0.897   1.970   3.430
  159TIP3    H2  435   0.801   2.036   3.333
  160TIP3   OH2  436   5.722   4.462   0.116
  160TIP3    H1  437   5.718   4.433   0.024
  160TIP3    H2  438   5.631   4.485   0.137
  161TIP3   OH2  439   3.745   3.961   3.946
  161TIP3    H1  440   3.794   4.021   3.889
  161TIP3    H2  441   3.768   3.989   4.034
  162TIP3   OH2  442   0.358   4.711   4.285
  162TIP3    H1  443   0.293   4.647   4.256
  162TIP3    H2  444   0.307   4.778   4.329
  163TIP3   OH2  445   3.962   2.500   5.885
  163TIP3    H1  446   3.879   2.546   5.873
  163TIP3    H2  447   3.997   2.492   5.796
  164TIP3   OH2  448   6.742   6.954   6.175
  164TIP3    H1  449   6.806   6.882   6.184
  164TIP3    H2  450   6.794   7.033   6.187
  165TIP3   OH2  451   3.269   4.800   4.727
  165TIP3    H1  452   3.208   4.873   4.733
  165TIP3    H2  453   3.299   4.787   4.817
  166TIP3   OH2  454   7.969   3.763   5.056
  166TIP3    H1  455   8.052   3.727   5.086
  166TIP3    H2  456   7.909   3.688   5.058
  167TIP3   OH2  457   5.669   2.794   1.331
  167TIP3    H1  458   5.682   2.723   1.269
  167TIP3    H2  459   5.757   2.828   1.348
  168TIP3   OH2  460   6.408   1.217   1.442
  168TIP3    H1  461   6.427   1.130   1.406
  168TIP3    H2  462   6.399   1.203   1.536
  169TIP3   OH2  463   4.291   5.703   1.361
  169TIP3    H1  464   4.275   5.626   1.307
  169TIP3    H2  465   4.315   5.771   1.299
  170TIP3   OH2  466   6.468   4.426   0.193
  170TIP3    H1  467   6.492   4.354   0.252
  170TIP3    H2  468   6.481   4.505   0.244
  171TIP3   OH2  469   0.411   3.773   3.076
  171TIP3    H1  470   0.373   3.698   3.030
  171TIP3    H2  471   0.499   3.781   3.039
  172TIP3   OH2  472   3.081   2.410   2.940
  172TIP3    H1  473   3.110   2.497   2.911
  172TIP3    H2  474   3.018   2.428   3.010
  173TIP3   OH2  475   8.079   2.882   2.752
  173TIP3    H1  476   8.083   2.976   2.767
  173TIP3    H2  477   8.027   2.848   2.825
  174TIP3   OH2  478   7.985   4.823   3.407
  174TIP3    H1  479   8.057   4.885   3.397
  174TIP3    H2  480   8.003   4.778   3.490
  175TIP3   OH2  481   1.003   2.669   1.415
  175TIP3    H1  482   0.959   2.645   1.496
  175TIP3    H2  483   1.069   2.732   1.441
  176TIP3   OH2  484   1.657   0.217   5.458
  176TIP3    H1  485   1.610   0.264   5.389
  176TIP3    H2  486   1.739   0.266   5.470
  177TIP3   OH2  487   2.738   1.519   6.421
  177TIP3    H1  488   2.728   1.500   6.328
  177TIP3    H2  489   2.740   1.615   6.426
  178TIP3   OH2  490   2.113   2.817   4.500
  178TIP3    H1  491   2.039   2.844   4.445
  178TIP3    H2  492   2.157   2.749   4.449
  179TIP3   OH2  493   1.567   5.127   3.586
  179TIP3    H1  494   1.607   5.054   3.538
  179TIP3    H2  495   1.639   5.165   3.636
  180TIP3   OH2  496   2.169   4.678   0.425
  180TIP3    H1  497   2.210   4.599   0.461
  180TIP3    H2  498   2.195   4.748   0.485
  181TIP3   OH2  499   0.087   7.410   3.876
  181TIP3    H1  500   0.134   7.393   3.958
  181TIP3    H2  501   0.133   7.358   3.811
  182TIP3   OH2  502   6.117   2.988   6.721
  182TIP3    H1  503   6.160   3.045   6.785
  182TIP3    H2  504   6.186   2.966   6.658
  183TIP3   OH2  505   0.300   1.019   3.155
  183TIP3    H1  506   0.346   1.071   3.220
  183TIP3    H2  507   0.366   0.957   3.124
  184TIP3   OH2  508   2.624   5.641   3.262
  184TIP3    H1  509   2.683   5.712   3.287
  184TIP3    H2  510   2.642   5.571   3.325
  185TIP3   OH2  511   0.669   3.437   2.167
  185TIP3    H1  512   0.663   3.436   2.072
  185TIP3    H2  513   0.578   3.435   2.197
  186TIP3   OH2  514   0.067   2.670   6.461
  186TIP3    H1  515  -0.028   2.667   6.468
  186TIP3    H2  516   0.092   2.583   6.430
  187TIP3   OH2  517   3.662   7.579   1.495
  187TIP3    H1  518   3.705   7.583   1.409
  187TIP3    H2  519   3.617   7.663   1.502
  188TIP3   OH2  520   7.228   3.650   3.879
  188TIP3    H1  521   7.164   3.580   3.892
  188TIP3    H2  522   7.216   3.707   3.955
  189TIP3   OH2  523   5.494   4.399   3.660
  189TIP3    H1  524   5.496   4.344   3.582
  189TIP3    H2  525   5.458   4.344   3.728
  190TIP3   OH2  526   5.045   7.791   0.627
  190TIP3    H1  527   5.066   7.865   0.570
  190TIP3    H2  528   5.080   7.715   0.582
  191TIP3   OH2  529   8.170   0.348   1.102
  191TIP3    H1  530   8.161   0.296   1.023
  191TIP3    H2  531   8.197   0.285   1.169
  192TIP3   OH2  532   1.944   2.029   1.554
  192TIP3    H1  533   1.914   2.120   1.546
  192TIP3    H2  534   1.864   1.977   1.559
  193TIP3   OH2  535   5.085   3.957   3.378
  193TIP3    H1  536   5.141   3.937   3.302
  193TIP3    H2  537   5.018   4.016   3.343
  194TIP3   OH2  538   4.123   3.234   0.464
  194TIP3    H1  539   4.134   3.315   0.415
  194TIP3    H2  540   4.210   3.216   0.500
  195TIP3   OH2  541   3.839   0.785   5.547
  195TIP3    H1  542   3.764   0.836   5.516
  195TIP3    H2  543   3.818   0.765   5.638
  196TIP3   OH2  544   0.799   7.611   4.421
  196TIP3    H1  545   0.862   7.540   4.431
  196TIP3    H2  546   0.765   7.625   4.509
  197TIP3   OH2  547   0.714   6.922   0.755
  197TIP3    H1  548   0.798   6.924   0.709
  197TIP3    H2  549   0.689   6.829   0.755
  198TIP3   OH2  550   4.672   4.602   4.151
  198TIP3    H1  551   4.695   4.574   4.239
  198TIP3    H2  552   4.738   4.561   4.095
  199TIP3   OH2  553   7.981   1.550   4.590
  199TIP3    H1  554   8.044   1.616   4.616
  199TIP3    H2  555   7.976   1.557   4.495
  200TIP3   OH2  556   4.787   2.860   1.778
  200TIP3    H1  557   4.797   2.802   1.702
  200TIP3    H2  558   4.846   2.823   1.844
  201TIP3   OH2  559   4.388   3.273   5.147
  201TIP3    H1  560   4.467   3.242   5.192
  201TIP3    H2  561   4.321   3.274   5.215
  202TIP3   OH2  562   5.165   3.945   1.380
  202TIP3    H1  563   5.121   3.945   1.295
  202TIP3    H2  564   5.245   3.995   1.365
  203TIP3   OH2  565   1.772   2.771   4.469
  203TIP3    H1  566   1.809   2.684   4.482
  203TIP3    H2  567   1.678   2.760   4.481
  204TIP3   OH2  568   3.304   0.492   3.379
  204TIP3    H1  569   3.275   0.564   3.436
  204TIP3    H2  570   3.356   0.436   3.436
  205TIP3   OH2  571   5.392   4.279   4.346
  205TIP3    H1  572   5.422   4.231   4.269
  205TIP3    H2  573   5.297   4.281   4.337
  206TIP3   OH2  574   5.460   0.248   4.620
  206TIP3    H1  575   5.469   0.343   4.617
  206TIP3    H2  576   5.402   0.227   4.547
  207TIP3   OH2  577   7.585   2.847   5.164
  207TIP3    H1  578   7.630   2.822   5.083
  207TIP3    H2  579   7.571   2.941   5.156
  208TIP3   OH2  580   2.319   1.454   0.148
  208TIP3    H1  581   2.279   1.391   0.089
  208TIP3    H2  582   2.265   1.533   0.140
  209TIP3   OH2  583   6.319   3.024   6.542
  209TIP3    H1  584   6.323   2.947   6.485
  209TIP3    H2  585   6.359   3.094   6.491
  210TIP3   OH2  586   1.975   3.556   5.788
  210TIP3    H1  587   2.005   3.634   5.835
  210TIP3    H2  588   1.999   3.483   5.844
  211TIP3   OH2  589   2.416   0.771   5.450
  211TIP3    H1  590   2.480   0.775   5.378
  211TIP3    H2  591   2.367   0.691   5.434
  212TIP3   OH2  592   2.852   0.522   2.979
  212TIP3    H1  593   2.789   0.450   2.983
  212TIP3    H2  594   2.799   0.598   2.954
  213TIP3   OH2  595   4.297   0.572   2.374
  213TIP3    H1  596   4.337   0.658   2.366
  213TIP3    H2  597   4.233   0.581   2.445
  214TIP3   OH2  598   6.415   0.041   0.153
  214TIP3    H1  599   6.387  -0.049   0.170
  214TIP3    H2  600   6.508   0.033   0.130
  215TIP3   OH2  601   3.882   2.010   0.993
  215TIP3    H1  602   3.918   1.930   0.955
  215TIP3    H2  603   3.955   2.071   0.996
  216TIP3   OH2  604   7.771   0.609   2.726
  216TIP3    H1  605   7.795   0.660   2.649
  216TIP3    H2  606   7.849   0.557   2.745
  217TIP3   OH2  607   1.162   6.415   5.970
  217TIP3    H1  608   1.148   6.469   6.048
  217TIP3    H2  609   1.117   6.333   5.989
  218TIP3   OH2  610   3.606   0.781   1.990
  218TIP3    H1  611   3.587   0.874   1.981
  218TIP3    H2  612   3.700   0.774   1.974
  219TIP3   OH2  613   4.018   2.085   5.149
  219TIP3    H1  614   4.041   2.148   5.217
  219TIP3    H2  615   3.923   2.072   5.160
  220TIP3   OH2  616   4.738   3.207   5.841
  220TIP3    H1  617   4.674   3.137   5.831
  220TIP3    H2  618   4.779   3.191   5.926
  221TIP3   OH2  619   3.602   0.231   0.997
  221TIP3    H1  620   3.539   0.181   0.946
  221TIP3    H2  621   3.655   0.165   1.042
  222TIP3   OH2  622   3.683   2.603   4.681
  222TIP3    H1  623   3.670   2.599   4.586
  222TIP3    H2  624   3.750   2.536   4.698
  223TIP3   OH2  625   1.357   0.642   4.503
  223TIP3    H1  626   1.388   0.556   4.530
  223TIP3    H2  627   1.369   0.697   4.580
  224TIP3   OH2  628   0.766   1.919   5.287
  224TIP3    H1  629   0.765   1.834   5.331
  224TIP3    H2  630   0.857   1.929   5.257
  225TIP3   OH2  631   3.803   1.956   1.394
  225TIP3    H1  632   3.735   1.934   1.330
  225TIP3    H2  633   3.760   1.945   1.479
  226TIP3   OH2  634   1.001   7.206   0.786
  226TIP3    H1  635   1.007   7.120   0.827
  226TIP3    H2  636   0.919   7.203   0.736
  227TIP3   OH2  637   3.385   0.303   2.284
  227TIP3    H1  638   3.401   0.392   2.316
  227TIP3    H2  639   3.343   0.258   2.358
  228TIP3   OH2  640   7.174   1.868   6.200
  228TIP3    H1  641   7.205   1.947   6.155
  228TIP3    H2  642   7.122   1.822   6.135
  229TIP3   OH2  643   4.713   2.783   5.227
  229TIP3    H1  644   4.671   2.735   5.299
  229TIP3    H2  645   4.650   2.779   5.155
  230TIP3   OH2  646   1.722   4.868   5.699
  230TIP3    H1  647   1.759   4.865   5.787
  230TIP3    H2  648   1.778   4.810   5.648
  231TIP3   OH2  649   6.332   0.661   5.736
  231TIP3    H1  650   6.336   0.574   5.776
  231TIP3    H2  651   6.423   0.690   5.733
  232TIP3   OH2  652   1.685   5.036   4.014
  232TIP3    H1  653   1.662   5.109   4.071
  232TIP3    H2  654   1.760   4.994   4.058
  233TIP3   OH2  655   7.501   6.586   0.137
  233TIP3    H1  656   7.406   6.573   0.141
  233TIP3    H2  657   7.529   6.586   0.228
  234TIP3   OH2  658   4.265   3.265   2.828
  234TIP3    H1  659   4.260   3.349   2.872
  234TIP3    H2  660   4.252   3.200   2.897
  235TIP3   OH2  661   5.013   3.891   6.413
  235TIP3    H1  662   4.987   3.800   6.398
  235TIP3    H2  663   5.000   3.934   6.328
  236TIP3   OH2  664   0.731   5.669   3.856
  236TIP3    H1  665   0.737   5.751   3.806
  236TIP3    H2  666   0.804   5.616   3.823
  237TIP3   OH2  667   1.261   7.370   0.354
  237TIP3    H1  668   1.311   7.367   0.435
  237TIP3    H2  669   1.321   7.406   0.289
  238TIP3   OH2  670   7.091   7.499   1.705
  238TIP3    H1  671   7.063   7.408   1.711
  238TIP3    H2  672   7.137   7.504   1.621
  239TIP3   OH2  673   5.663   6.441   1.464
  239TIP3    H1  674   5.597   6.380   1.431
  239TIP3    H2  675   5.613   6.505   1.514
  240TIP3   OH2  676   3.209   3.632   1.581
  240TIP3    H1  677   3.263   3.690   1.635
  240TIP3    H2  678   3.268   3.602   1.512
  241TIP3   OH2  679   2.356   7.168   5.028
  241TIP3    H1  680   2.340   7.074   5.037
  241TIP3    H2  681   2.327   7.188   4.939
  242TIP3   OH2  682   0.284   4.489   2.157
  242TIP3    H1  683   0.267   4.395   2.165
  242TIP3    H2  684   0.278   4.522   2.246
  243TIP3   OH2  685   5.589   5.404   0.620
  243TIP3    H1  686   5.526   5.456   0.671
  243TIP3    H2  687   5.659   5.385   0.682
  244TIP3   OH2  688   5.195   4.431   2.682
  244TIP3    H1  689   5.275   4.422   2.631
  244TIP3    H2  690   5.198   4.521   2.716
  245TIP3   OH2  691   2.150   4.157   2.733
  245TIP3    H1  692   2.058   4.133   2.723
  245TIP3    H2  693   2.195   4.075   2.751
  246TIP3   OH2  694   4.463   3.486   6.645
  246TIP3    H1  695   4.508   3.561   6.607
  246TIP3    H2  696   4.480   3.493   6.739
  247TIP3   OH2  697   2.779   3.151   2.108
  247TIP3    H1  698   2.860   3.150   2.158
  247TIP3    H2  699   2.790   3.221   2.045
  248TIP3   OH2  700   7.420   4.317   5.327
  248TIP3    H1  701   7.391   4.300   5.238
  248TIP3    H2  702   7.436   4.230   5.365
  249TIP3   OH2  703   0.484   4.249   0.129
  249TIP3    H1  704   0.430   4.276   0.054
  249TIP3    H2  705   0.428   4.190   0.179
  250TIP3   OH2  706   3.392   4.484   1.036
  250TIP3    H1  707   3.462   4.546   1.056
  250TIP3    H2  708   3.436   4.399   1.033
  251TIP3   OH2  709   2.978   3.665   1.418
  251TIP3    H1  710   2.967   3.760   1.420
  251TIP3    H2  711   3.060   3.650   1.466
  252TIP3   OH2  712   8.169   5.911   6.546
  252TIP3    H1  713   8.160   5.818   6.565
  252TIP3    H2  714   8.091   5.951   6.585
  253TIP3   OH2  715   0.476   3.327   1.629
  253TIP3    H1  716   0.471   3.420   1.652
  253TIP3    H2  717   0.518   3.326   1.543
  254TIP3   OH2  718   1.192   6.673   4.279
  254TIP3    H1  719   1.124   6.728   4.317
  254TIP3    H2  720   1.275   6.712   4.309
  255TIP3   OH2  721   5.507   7.210   1.534
  255TIP3    H1  722   5.453   7.133   1.518
  255TIP3    H2  723   5.565   7.215   1.457
  256TIP3   OH2  724   6.453   0.427   1.288
  256TIP3    H1  725   6.372   0.465   1.254
  256TIP3    H2  726   6.446   0.434   1.383
  257TIP3   OH2  727   2.708   2.100   0.366
  257TIP3    H1  728   2.695   2.013   0.405
  257TIP3    H2  729   2.620   2.127   0.340
  258TIP3   OH2  730   8.312   4.690   4.436
  258TIP3    H1  731   8.309   4.645   4.520
  258TIP3    H2  732   8.234   4.745   4.434
  259TIP3   OH2  733   4.930   1.504   5.200
  259TIP3    H1  734   4.984   1.517   5.123
  259TIP3    H2  735   4.920   1.591   5.239
  260TIP3   OH2  736   6.297   4.713   4.270
  260TIP3    H1  737   6.307   4.791   4.324
  260TIP3    H2  738   6.203   4.708   4.252
  261TIP3   OH2  739   5.169   6.428   1.259
  261TIP3    H1  740   5.237   6.391   1.316
  261TIP3    H2  741   5.109   6.355   1.243
  262TIP3   OH2  742   4.561   6.566   0.027
  262TIP3    H1  743   4.640   6.519   0.053
  262TIP3    H2  744   4.490   6.503   0.042
  263TIP3   OH2  745   1.074   6.871   4.421
  263TIP3    H1  746   1.005   6.936   4.406
  263TIP3    H2  747   1.143   6.920   4.466
  264TIP3   OH2  748   3.816   0.991   3.268
  264TIP3    H1  749   3.798   0.963   3.178
  264TIP3    H2  750   3.807   1.086   3.267
  265TIP3   OH2  751   1.017   5.106   1.284
  265TIP3    H1  752   1.013   5.012   1.268
  265TIP3    H2  753   1.010   5.114   1.379
  266TIP3   OH2  754   6.014   7.577   4.841
  266TIP3    H1  755   6.081   7.639   4.871
  266TIP3    H2  756   5.938   7.632   4.822
  267TIP3   OH2  757   0.327   1.981   5.025
  267TIP3    H1  758   0.358   1.918   5.090
  267TIP3    H2  759   0.356   2.066   5.059
  268TIP3   OH2  760   6.083   0.147   2.943
  268TIP3    H1  761   6.091   0.242   2.930
  268TIP3    H2  762   6.171   0.119   2.967
  269TIP3   OH2  763   4.889   4.159   6.247
  269TIP3    H1  764   4.878   4.211   6.327
  269TIP3    H2  765   4.876   4.223   6.176
  270TIP3   OH2  766   1.226   5.753   0.937
  270TIP3    H1  767   1.137   5.787   0.928
  270TIP3    H2  768   1.245   5.760   1.030
  271TIP3   OH2  769   4.724   5.919   2.159
  271TIP3    H1  770   4.817   5.944   2.152
  271TIP3    H2  771   4.720   5.832   2.120
  272TIP3   OH2  772   7.733   4.524   0.792
  272TIP3    H1  773   7.723   4.541   0.885
  272TIP3    H2  774   7.809   4.576   0.766
  273TIP3   OH2  775   1.061   0.510   1.590
  273TIP3    H1  776   1.017   0.568   1.528
  273TIP3    H2  777   1.044   0.550   1.676
  274TIP3   OH2  778   4.682   6.917   3.550
  274TIP3    H1  779   4.696   6.983   3.482
  274TIP3    H2  780   4.740   6.845   3.526
  275TIP3   OH2  781   1.493   0.549   1.989
  275TIP3    H1  782   1.565   0.527   1.930
  275TIP3    H2  783   1.518   0.509   2.073
  276TIP3   OH2  784   7.286   7.247   6.510
  276TIP3    H1  785   7.324   7.177   6.564
  276TIP3    H2  786   7.334   7.242   6.427
  277TIP3   OH2  787   4.362   3.312   4.401
  277TIP3    H1  788   4.327   3.276   4.482
  277TIP3    H2  789   4.452   3.281   4.398
  278TIP3   OH2  790   0.048   5.624   1.420
  278TIP3    H1  791   0.023   5.686   1.351
  278TIP3    H2  792  -0.030   5.616   1.475
  279TIP3   OH2  793   1.407   5.278   2.900
  279TIP3    H1  794   1.397   5.210   2.966
  279TIP3    H2  795   1.336   5.340   2.918
  280TIP3   OH2  796   6.654   3.379   3.671
  280TIP3    H1  797   6.736   3.371   3.622
  280TIP3    H2  798   6.587   3.348   3.610
  281TIP3   OH2  799   1.672   2.853   2.385
  281TIP3    H1  800   1.726   2.777   2.360
  281TIP3    H2  801   1.621   2.873   2.307
  282TIP3   OH2  802   7.079   2.926   2.494
  282TIP3    H1  803   7.059   2.907   2.586
  282TIP3    H2  804   7.041   2.853   2.446
  283TIP3   OH2  805   2.269   6.889   6.569
  283TIP3    H1  806   2.361   6.897   6.547
  283TIP3    H2  807   2.241   6.807   6.528
  284TIP3   OH2  808   3.490   4.874   1.279
  284TIP3    H1  809   3.442   4.943   1.325
  284TIP3    H2  810   3.477   4.796   1.333
  285TIP3   OH2  811   5.672   0.283   1.429
  285TIP3    H1  812   5.652   0.191   1.418
  285TIP3    H2  813   5.766   0.286   1.444
  286TIP3   OH2  814   4.871   0.981   6.017
  286TIP3    H1  815   4.922   0.938   6.086
  286TIP3    H2  816   4.867   0.916   5.946
  287TIP3   OH2  817   5.351   0.955   6.607
  287TIP3    H1  818   5.320   0.972   6.695
  287TIP3    H2  819   5.307   1.020   6.553
  288TIP3   OH2  820   6.528   1.924   5.182
  288TIP3    H1  821   6.594   1.962   5.240
  288TIP3    H2  822   6.467   1.996   5.165
  289TIP3   OH2  823   3.580   5.201   6.168
  289TIP3    H1  824   3.562   5.235   6.256
  289TIP3    H2  825   3.632   5.122   6.183
  290TIP3   OH2  826   6.101   7.579   1.617
  290TIP3    H1  827   6.147   7.662   1.623
  290TIP3    H2  828   6.058   7.569   1.703
  291TIP3   OH2  829   3.570   2.695   2.963
  291TIP3    H1  830   3.546   2.770   2.908
  291TIP3    H2  831   3.535   2.619   2.917
  292TIP3   OH2  832   6.563   2.607   5.321
  292TIP3    H1  833   6.559   2.567   5.408
  292TIP3    H2  834   6.646   2.655   5.320
  293TIP3   OH2  835   1.930   2.090   3.286
  293TIP3    H1  836   1.991   2.062   3.218
  293TIP3    H2  837   1.854   2.032   3.275
  294TIP3   OH2  838   2.536   7.376   2.271
  294TIP3    H1  839   2.451   7.359   2.312
  294TIP3    H2  840   2.529   7.465   2.237
  295TIP3   OH2  841   0.048   3.345   3.129
  295TIP3    H1  842  -0.041   3.352   3.164
  295TIP3    H2  843   0.066   3.430   3.091
  296TIP3   OH2  844   1.441   2.484   5.388
  296TIP3    H1  845   1.350   2.454   5.379
  296TIP3    H2  846   1.434   2.574   5.419
  297TIP3   OH2  847   2.990   5.268   4.181
  297TIP3    H1  848   3.008   5.330   4.111
  297TIP3    H2  849   3.043   5.300   4.255
  298TIP3   OH2  850   3.836   5.992   6.370
  298TIP3    H1  851   3.833   6.041   6.452
  298TIP3    H2  852   3.747   5.998   6.335
  299TIP3   OH2  853   0.263   5.949   0.332
  299TIP3    H1  854   0.319   5.893   0.386
  299TIP3    H2  855   0.220   6.007   0.394
  300TIP3   OH2  856   5.978   1.125   1.524
  300TIP3    H1  857   5.926   1.130   1.604
  300TIP3    H2  858   6.044   1.058   1.543
  301TIP3   OH2  859   0.358   6.447   1.723
  301TIP3    H1  860   0.279   6.394   1.719
  301TIP3    H2  861   0.389   6.438   1.814
  302TIP3   OH2  862   0.975   6.008   0.194
  302TIP3    H1  863   1.042   5.943   0.171
  302TIP3    H2  864   0.921   5.964   0.259
  303TIP3   OH2  865   1.857   7.151   0.429
  303TIP3    H1  866   1.938   7.104   0.447
  303TIP3    H2  867   1.860   7.228   0.485
  304TIP3   OH2  868   4.760   4.975   5.017
  304TIP3    H1  869   4.752   5.063   4.981
  304TIP3    H2  870   4.854   4.964   5.034
  305TIP3   OH2  871   7.726   1.574   1.011
  305TIP3    H1  872   7.815   1.574   1.047
  305TIP3    H2  873   7.721   1.495   0.957
  306TIP3   OH2  874   0.445   1.538   1.177
  306TIP3    H1  875   0.381   1.555   1.246
  306TIP3    H2  876   0.393   1.507   1.103
  307TIP3   OH2  877   3.985   6.916   0.987
  307TIP3    H1  878   3.946   6.864   1.057
  307TIP3    H2  879   3.914   6.975   0.959
  308TIP3   OH2  880   6.781   3.797   2.191
  308TIP3    H1  881   6.808   3.780   2.101
  308TIP3    H2  882   6.760   3.710   2.227
  309TIP3   OH2  883   4.601   4.744   1.099
  309TIP3    H1  884   4.660   4.709   1.032
  309TIP3    H2  885   4.638   4.714   1.182
  310TIP3   OH2  886   2.179   2.951   5.026
  310TIP3    H1  887   2.127   2.916   5.098
  310TIP3    H2  888   2.267   2.914   5.040
  311TIP3   OH2  889   7.529   2.872   1.496
  311TIP3    H1  890   7.553   2.787   1.535
  311TIP3    H2  891   7.461   2.906   1.555
  312TIP3   OH2  892   1.461   7.436   2.022
  312TIP3    H1  893   1.515   7.358   2.014
  312TIP3    H2  894   1.385   7.407   2.073
  313TIP3   OH2  895   1.113   3.845   0.062
  313TIP3    H1  896   1.107   3.931   0.104
  313TIP3    H2  897   1.063   3.854  -0.019
  314TIP3   OH2  898   1.388   1.821   0.216
  314TIP3    H1  899   1.456   1.804   0.282
  314TIP3    H2  900   1.313   1.852   0.268
  315TIP3   OH2  901   7.382   0.834   3.228
  315TIP3    H1  902   7.339   0.810   3.146
  315TIP3    H2  903   7.383   0.753   3.279
  316TIP3   OH2  904   6.430   5.280   5.556
  316TIP3    H1  905   6.407   5.187   5.545
  316TIP3    H2  906   6.380   5.309   5.631
  317TIP3   OH2  907   2.063   3.904   4.466
  317TIP3    H1  908   2.056   3.889   4.561
  317TIP3    H2  909   1.973   3.919   4.438
  318TIP3   OH2  910   2.789   6.141   5.503
  318TIP3    H1  911   2.786   6.164   5.410
  318TIP3    H2  912   2.861   6.194   5.538
  319TIP3   OH2  913   3.324   0.087   2.554
  319TIP3    H1  914   3.351   0.067   2.465
  319TIP3    H2  915   3.228   0.083   2.552
  320TIP3   OH2  916   1.115   1.147   0.614
  320TIP3    H1  917   1.093   1.236   0.644
  320TIP3    H2  918   1.184   1.160   0.549
  321TIP3   OH2  919   5.137   2.002   5.243
  321TIP3    H1  920   5.185   1.971   5.166
  321TIP3    H2  921   5.093   2.082   5.213
  322TIP3   OH2  922   0.494   6.913   1.139
  322TIP3    H1  923   0.465   6.978   1.203
  322TIP3    H2  924   0.588   6.928   1.130
  323TIP3   OH2  925   4.121   5.143   4.984
  323TIP3    H1  926   4.130   5.052   5.013
  323TIP3    H2  927   4.171   5.193   5.048
  324TIP3   OH2  928   7.576   2.609   6.206
  324TIP3    H1  929   7.512   2.647   6.266
  324TIP3    H2  930   7.583   2.517   6.233
  325TIP3   OH2  931   2.228   3.222   4.112
  325TIP3    H1  932   2.190   3.139   4.140
  325TIP3    H2  933   2.320   3.217   4.140
  326TIP3   OH2  934   2.747   5.317   2.488
  326TIP3    H1  935   2.760   5.401   2.443
  326TIP3    H2  936   2.797   5.325   2.569
  327TIP3   OH2  937   0.099   3.217   4.784
  327TIP3    H1  938   0.108   3.149   4.717
  327TIP3    H2  939   0.176   3.272   4.774
  328TIP3   OH2  940   2.529   2.780   5.053
  328TIP3    H1  941   2.459   2.726   5.017
  328TIP3    H2  942   2.586   2.799   4.978
  329TIP3   OH2  943   7.374   7.859   6.642
  329TIP3    H1  944   7.354   7.808   6.563
  329TIP3    H2  945   7.416   7.796   6.701
  330TIP3   OH2  946   6.653   1.254   5.639
  330TIP3    H1  947   6.580   1.313   5.658
  330TIP3    H2  948   6.704   1.299   5.572
  331TIP3   OH2  949   5.203   6.919   6.350
  331TIP3    H1  950   5.121   6.871   6.338
  331TIP3    H2  951   5.197   6.955   6.438
  332TIP3   OH2  952   6.900   4.061   0.692
  332TIP3    H1  953   6.888   4.081   0.785
  332TIP3    H2  954   6.908   3.965   0.689
  333TIP3   OH2  955   3.679   3.264   6.512
  333TIP3    H1  956   3.725   3.256   6.428
  333TIP3    H2  957   3.740   3.226   6.576
  334TIP3   OH2  958   6.971   0.239   5.295
  334TIP3    H1  959   6.961   0.306   5.227
  334TIP3    H2  960   7.066   0.229   5.305
  335TIP3   OH2  961   6.435   3.347   6.008
  335TIP3    H1  962   6.413   3.339   5.916
  335TIP3    H2  963   6.386   3.424   6.038
  336TIP3   OH2  964   2.904   7.260   6.236
  336TIP3    H1  965   2.913   7.169   6.265
  336TIP3    H2  966   2.909   7.255   6.140
  337TIP3   OH2  967   5.411   4.849   5.802
  337TIP3    H1  968   5.423   4.805   5.718
  337TIP3    H2  969   5.460   4.930   5.794
  338TIP3   OH2  970   0.197   7.759   2.349
  338TIP3    H1  971   0.235   7.690   2.295
  338TIP3    H2  972   0.105   7.734   2.359
  339TIP3   OH2  973   1.025   7.573   2.946
  339TIP3    H1  974   1.069   7.489   2.958
  339TIP3    H2  975   0.935   7.550   2.923
  340TIP3   OH2  976   7.863   2.120   4.475
  340TIP3    H1  977   7.781   2.130   4.428
  340TIP3    H2  978   7.879   2.025   4.476
  341TIP3   OH2  979   0.731   6.322   4.568
  341TIP3    H1  980   0.709   6.288   4.481
  341TIP3    H2  981   0.763   6.246   4.617
  342TIP3   OH2  982   1.469   7.718   1.882
  342TIP3    H1  983   1.538   7.654   1.897
  342TIP3    H2  984   1.396   7.688   1.936
  343TIP3   OH2  985   7.941   5.091   6.110
  343TIP3    H1  986   7.892   5.017   6.145
  343TIP3    H2  987   8.031   5.060   6.105
  344TIP3   OH2  988   6.689   5.609   3.411
  344TIP3    H1  989   6.742   5.587   3.487
  344TIP3    H2  990   6.612   5.553   3.418
  345TIP3   OH2  991   7.421   0.892   6.439
  345TIP3    H1  992   7.451   0.854   6.522
  345TIP3    H2  993   7.354   0.956   6.464
  346TIP3   OH2  994   0.844   2.765   1.990
  346TIP3    H1  995   0.919   2.815   1.957
  346TIP3    H2  996   0.871   2.673   1.980
  347TIP3   OH2  997   7.673   6.576   4.495
  347TIP3    H1  998   7.601   6.517   4.470
  347TIP3    H2  999   7.692   6.624   4.414
  348TIP3   OH2 1000   4.710   3.067   5.180
  348TIP3    H1 1001   4.653   3.122   5.234
  348TIP3    H2 1002   4.694   2.977   5.211
  349TIP3   OH2 1003   0.552   6.340   1.142
  349TIP3    H1 1004   0.460   6.342   1.169
  349TIP3    H2 1005   0.594   6.409   1.193
  350TIP3   OH2 1006   1.415   6.395   5.948
  350TIP3    H1 1007   1.320   6.395   5.958
  350TIP3    H2 1008   1.438   6.487   5.937
  351TIP3   OH2 1009   6.003   5.337   3.893
  351TIP3    H1 1010   6.091   5.299   3.895
  351TIP3    H2 1011   5.945   5.263   3.878
  352TIP3   OH2 1012   6.415   6.431   3.139
  352TIP3    H1 1013   6.358   6.434   3.062
  352TIP3    H2 1014   6.477   6.503   3.126
  353TIP3   OH2 1015   5.632   1.693   2.962
  353TIP3    H1 1016   5.724   1.694   2.935
  353TIP3    H2 1017   5.635   1.695   3.058
  354TIP3   OH2 1018   6.583   4.044   2.271
  354TIP3    H1 1019   6.547   4.118   2.222
  354TIP3    H2 1020   6.552   3.967   2.224
  355TIP3   OH2 1021   1.564   1.601   3.696
  355TIP3    H1 1022   1.501   1.638   3.758
  355TIP3    H2 1023   1.598   1.676   3.648
  356TIP3   OH2 1024   3.720   1.677   4.807
  356TIP3    H1 1025   3.784   1.642   4.869
  356TIP3    H2 1026   3.701   1.765   4.838
  357TIP3   OH2 1027   7.602   2.676   1.106
  357TIP3    H1 1028   7.663   2.703   1.038
  357TIP3    H2 1029   7.563   2.595   1.073
  358TIP3   OH2 1030   4.611   0.524   3.671
  358TIP3    H1 1031   4.691   0.489   3.631
  358TIP3    H2 1032   4.567   0.447   3.708
  359TIP3   OH2 1033   3.581   4.295   4.036
  359TIP3    H1 1034   3.604   4.359   4.103
  359TIP3    H2 1035   3.491   4.269   4.058
  360TIP3   OH2 1036   6.635   6.376   3.718
  360TIP3    H1 1037   6.593   6.327   3.790
  360TIP3    H2 1038   6.691   6.439   3.763
  361TIP3   OH2 1039   7.912   2.874   6.469
  361TIP3    H1 1040   7.914   2.918   6.384
  361TIP3    H2 1041   8.000   2.887   6.504
  362TIP3   OH2 1042   2.347   5.082   5.148
  362TIP3    H1 1043   2.335   4.987   5.141
  362TIP3    H2 1044   2.375   5.096   5.238
  363TIP3   OH2 1045   3.149   4.572   0.588
  363TIP3    H1 1046   3.058   4.549   0.569
  363TIP3    H2 1047   3.161   4.549   0.680
  364TIP3   OH2 1048   4.659   5.935   5.734
  364TIP3    H1 1049   4.661   6.014   5.788
  364TIP3    H2 1050   4.738   5.887   5.758
  365TIP3   OH2 1051   5.179   6.197   1.797
  365TIP3    H1 1052   5.099   6.157   1.831
  365TIP3    H2 1053   5.216   6.243   1.873
  366TIP3   OH2 1054   5.886   0.845   0.050
  366TIP3    H1 1055   5.900   0.921   0.107
  366TIP3    H2 1056   5.827   0.876  -0.019
  367TIP3   OH2 1057   1.433   3.565   5.269
  367TIP3    H1 1058   1.488   3.639   5.242
  367TIP3    H2 1059   1.466   3.541   5.356
  368TIP3   OH2 1060   7.093   4.268   3.389
  368TIP3    H1 1061   7.047   4.291   3.470
  368TIP3    H2 1062   7.185   4.283   3.409
  369TIP3   OH2 1063   1.461   3.006   1.721
  369TIP3    H1 1064   1.384   2.976   1.674
  369TIP3    H2 1065   1.431   3.083   1.770
  370TIP3   OH2 1066   1.585   2.853   3.235
  370TIP3    H1 1067   1.600   2.780   3.176
  370TIP3    H2 1068   1.654   2.845   3.301
  371TIP3   OH2 1069   2.362   5.868   4.526
  371TIP3    H1 1070   2.381   5.959   4.500
  371TIP3    H2 1071   2.447   5.834   4.555
  372TIP3   OH2 1072   5.141   5.449   5.970
  372TIP3    H1 1073   5.195   5.381   5.929
  372TIP3    H2 1074   5.078   5.400   6.023
  373TIP3   OH2 1075   6.009   2.202   1.459
  373TIP3    H1 1076   5.923   2.233   1.488
  373TIP3    H2 1077   5.991   2.117   1.419
  374TIP3   OH2 1078   7.105   1.725   0.545
  374TIP3    H1 1079   7.039   1.779   0.588
  374TIP3    H2 1080   7.171   1.710   0.613
  375TIP3   OH2 1081   2.037   6.820   1.018
  375TIP3    H1 1082   1.953   6.858   1.043
  375TIP3    H2 1083   2.041   6.736   1.065
  376TIP3   OH2 1084   5.653   3.901   0.469
  376TIP3    H1 1085   5.742   3.920   0.439
  376TIP3    H2 1086   5.598   3.965   0.425
  377TIP3   OH2 1087   1.274   3.195   1.181
  377TIP3    H1 1088   1.198   3.246   1.150
  377TIP3    H2 1089   1.333   3.192   1.107
  378TIP3   OH2 1090   6.299   5.047   5.463
  378TIP3    H1 1091   6.214   5.044   5.420
  378TIP3    H2 1092   6.321   4.956   5.480
  379TIP3   OH2 1093   5.819   3.850   3.642
  379TIP3    H1 1094   5.794   3.925   3.696
  379TIP3    H2 1095   5.737   3.801   3.631
  380TIP3   OH2 1096   1.892   2.181   4.124
  380TIP3    H1 1097   1.800   2.158   4.139
  380TIP3    H2 1098   1.889   2.253   4.060
  381TIP3   OH2 1099   3.132   1.489   1.686
  381TIP3    H1 1100   3.043   1.455   1.687
  381TIP3    H2 1101   3.121   1.584   1.682
  382TIP3   OH2 1102   6.598   6.340   0.067
  382TIP3    H1 1103   6.515   6.333   0.114
  382TIP3    H2 1104   6.576   6.321  -0.024
  383TIP3   OH2 1105   8.029   0.301   3.673
  383TIP3    H1 1106   8.121   0.328   3.679
  383TIP3    H2 1107   8.031   0.221   3.621
  384TIP3   OH2 1108   3.529   4.771   4.811
  384TIP3    H1 1109   3.576   4.848   4.844
  384TIP3    H2 1110   3.489   4.800   4.729
  385TIP3   OH2 1111   6.645   3.692   3.209
  385TIP3    H1 1112   6.613   3.750   3.140
  385TIP3    H2 1113   6.566   3.654   3.247
  386TIP3   OH2 1114   2.168   6.265   5.956
  386TIP3    H1 1115   2.116   6.309   6.022
  386TIP3    H2 1116   2.232   6.330   5.927
  387TIP3   OH2 1117   3.227   5.981   4.234
  387TIP3    H1 1118   3.241   5.897   4.190
  387TIP3    H2 1119   3.282   6.043   4.186
  388TIP3   OH2 1120   1.787   6.199   2.181
  388TIP3    H1 1121   1.828   6.284   2.166
  388TIP3    H2 1122   1.694   6.214   2.164
  389TIP3   OH2 1123   1.593   1.560   1.661
  389TIP3    H1 1124   1.622   1.603   1.742
  389TIP3    H2 1125   1.671   1.557   1.607
  390TIP3   OH2 1126   6.935   5.315   3.031
  390TIP3    H1 1127   6.919   5.322   2.937
  390TIP3    H2 1128   6.850   5.332   3.071
  391TIP3   OH2 1129   1.101   7.239   5.935
  391TIP3    H1 1130   1.190   7.214   5.960
  391TIP3    H2 1131   1.094   7.331   5.960
  392TIP3   OH2 1132   2.625   5.764   4.025
  392TIP3    H1 1133   2.633   5.859   4.021
  392TIP3    H2 1134   2.627   5.736   3.933
  393TIP3   OH2 1135   0.745   4.537   2.654
  393TIP3    H1 1136   0.805   4.612   2.661
  393TIP3    H2 1137   0.802   4.462   2.637
  394TIP3   OH2 1138   1.281   5.252   6.068
  394TIP3    H1 1139   1.300   5.186   6.001
  394TIP3    H2 1140   1.187   5.246   6.082
  395TIP3   OH2 1141   0.394   7.209   0.810
  395TIP3    H1 1142   0.472   7.225   0.862
  395TIP3    H2 1143   0.418   7.235   0.721
  396TIP3   OH2 1144   2.977   2.129   3.104
  396TIP3    H1 1145   3.028   2.202   3.139
  396TIP3    H2 1146   2.892   2.168   3.082
  397TIP3   OH2 1147   0.746   3.658   0.896
  397TIP3    H1 1148   0.706   3.684   0.979
  397TIP3    H2 1149   0.808   3.728   0.876
  398TIP3   OH2 1150   4.234   1.553   1.262
  398TIP3    H1 1151   4.175   1.489   1.302
  398TIP3    H2 1152   4.181   1.633   1.256
  399TIP3   OH2 1153   6.384   0.349   4.994
  399TIP3    H1 1154   6.440   0.277   5.022
  399TIP3    H2 1155   6.303   0.339   5.044
  400TIP3   OH2 1156   3.913   4.099   6.643
  400TIP3    H1 1157   3.841   4.066   6.590
  400TIP3    H2 1158   3.943   4.177   6.596
  401TIP3   OH2 1159   5.726   0.496   3.336
  401TIP3    H1 1160   5.817   0.525   3.346
  401TIP3    H2 1161   5.732   0.406   3.304
  402TIP3   OH2 1162   1.211   0.792   6.009
  402TIP3    H1 1163   1.239   0.809   6.099
  402TIP3    H2 1164   1.227   0.699   5.996
  403TIP3   OH2 1165   4.820   1.286   3.376
  403TIP3    H1 1166   4.741   1.235   3.361
  403TIP3    H2 1167   4.806   1.327   3.462
  404TIP3   OH2 1168   1.470   6.363   5.296
  404TIP3    H1 1169   1.486   6.300   5.366
  404TIP3    H2 1170   1.375   6.372   5.292
  405TIP3   OH2 1171   3.296   5.746   5.945
  405TIP3    H1 1172   3.224   5.790   5.900
  405TIP3    H2 1173   3.261   5.660   5.967
  406TIP3   OH2 1174   7.317   4.761   2.917
  406TIP3    H1 1175   7.234   4.762   2.870
  406TIP3    H2 1176   7.375   4.707   2.863
  407TIP3   OH2 1177   1.508   1.149   0.658
  407TIP3    H1 1178   1.451   1.215   0.619
  407TIP3    H2 1179   1.581   1.198   0.694
  408TIP3   OH2 1180   7.254   7.622   2.913
  408TIP3    H1 1181   7.312   7.577   2.975
  408TIP3    H2 1182   7.220   7.552   2.858
  409TIP3   OH2 1183   7.346   4.780   4.502
  409TIP3    H1 1184   7.349   4.864   4.547
  409TIP3    H2 1185   7.337   4.715   4.571
  410TIP3   OH2 1186   2.210   4.322   1.614
  410TIP3    H1 1187   2.161   4.390   1.661
  410TIP3    H2 1188   2.213   4.352   1.524
  411TIP3   OH2 1189   7.095   5.006   4.633
  411TIP3    H1 1190   7.139   4.964   4.706
  411TIP3    H2 1191   7.078   5.095   4.664
  412TIP3   OH2 1192   1.862   6.849   0.041
  412TIP3    H1 1193   1.841   6.934   0.081
  412TIP3    H2 1194   1.854   6.864  -0.053
  413TIP3   OH2 1195   3.722   4.341   4.721
  413TIP3    H1 1196   3.808   4.363   4.756
  413TIP3    H2 1197   3.694   4.265   4.772
  414TIP3   OH2 1198   3.583   4.087   4.804
  414TIP3    H1 1199   3.600   4.036   4.884
  414TIP3    H2 1200   3.541   4.025   4.744
  415TIP3   OH2 1201   2.843   7.706   2.678
  415TIP3    H1 1202   2.893   7.642   2.628
  415TIP3    H2 1203   2.883   7.707   2.765
  416TIP3   OH2 1204   1.055   1.416   0.680
  416TIP3    H1 1205   0.993   1.433   0.750
  416TIP3    H2 1206   1.080   1.503   0.648
  417TIP3   OH2 1207   4.151   0.365   0.967
  417TIP3    H1 1208   4.105   0.326   1.042
  417TIP3    H2 1209   4.188   0.446   1.001
  418TIP3   OH2 1210   6.869   0.668   2.261
  418TIP3    H1 1211   6.929   0.594   2.272
  418TIP3    H2 1212   6.784   0.633   2.289
  419TIP3   OH2 1213   2.869   3.041   2.750
  419TIP3    H1 1214   2.774   3.041   2.765
  419TIP3    H2 1215   2.879   3.063   2.658
  420TIP3   OH2 1216   6.833   6.016   2.292
  420TIP3    H1 1217   6.750   6.063   2.287
  420TIP3    H2 1218   6.817   5.936   2.241
  421TIP3   OH2 1219   0.598   6.666   4.118
  421TIP3    H1 1220   0.638   6.670   4.204
  421TIP3    H2 1221   0.510   6.703   4.130
  422TIP3   OH2 1222   2.615   3.526   5.736
  422TIP3    H1 1223   2.525   3.529   5.705
  422TIP3    H2 1224   2.624   3.438   5.775
  423TIP3   OH2 1225   0.297   3.792   5.950
  423TIP3    H1 1226   0.333   3.783   6.038
  423TIP3    H2 1227   0.354   3.857   5.908
  424TIP3   OH2 1228   5.582   3.650   0.371
  424TIP3    H1 1229   5.597   3.737   0.409
  424TIP3    H2 1230   5.643   3.645   0.298
  425TIP3   OH2 1231   2.803   6.034   3.743
  425TIP3    H1 1232   2.871   5.969   3.730
  425TIP3    H2 1233   2.721   5.986   3.729
  426TIP3   OH2 1234   1.690   2.233   2.093
  426TIP3    H1 1235   1.734   2.164   2.142
  426TIP3    H2 1236   1.674   2.196   2.006
  427TIP3   OH2 1237   0.954   6.626   1.746
  427TIP3    H1 1238   0.861   6.618   1.768
  427TIP3    H2 1239   0.999   6.621   1.830
  428TIP3   OH2 1240   2.445   5.042   4.382
  428TIP3    H1 1241   2.379   5.071   4.445
  428TIP3    H2 1242   2.516   5.105   4.391
  429TIP3   OH2 1243   5.729   1.969   3.524
  429TIP3    H1 1244   5.639   1.996   3.543
  429TIP3    H2 1245   5.733   1.878   3.554
  430TIP3   OH2 1246   7.984   5.976   4.977
  430TIP3    H1 1247   7.970   5.906   4.914
  430TIP3    H2 1248   8.067   5.954   5.020
  431TIP3   OH2 1249   2.753   4.189   6.668
  431TIP3    H1 1250   2.755   4.125   6.597
  431TIP3    H2 1251   2.843   4.221   6.674
  432TIP3   OH2 1252   0.333   2.929   0.411
  432TIP3    H1 1253   0.256   2.887   0.449
  432TIP3    H2 1254   0.339   2.892   0.322
  433TIP3   OH2 1255   2.323   0.560   5.808
  433TIP3    H1 1256   2.244   0.525   5.766
  433TIP3    H2 1257   2.319   0.655   5.792
  434TIP3   OH2 1258   2.863   3.179   4.194
  434TIP3    H1 1259   2.931   3.246   4.188
  434TIP3    H2 1260   2.886   3.128   4.272
  435TIP3   OH2 1261   4.090   3.665   2.687
  435TIP3    H1 1262   4.042   3.592   2.726
  435TIP3    H2 1263   4.127   3.629   2.607
  436TIP3   OH2 1264   1.835   3.598   0.841
  436TIP3    H1 1265   1.918   3.558   0.868
  436TIP3    H2 1266   1.768   3.544   0.882
  437TIP3   OH2 1267   8.236   0.817   2.917
  437TIP3    H1 1268   8.195   0.761   2.984
  437TIP3    H2 1269   8.312   0.767   2.887
  438TIP3   OH2 1270   1.296   5.210   4.864
  438TIP3    H1 1271   1.204   5.183   4.863
  438TIP3    H2 1272   1.293   5.305   4.856
  439TIP3   OH2 1273   2.861   1.841   1.962
  439TIP3    H1 1274   2.794   1.826   2.028
  439TIP3    H2 1275   2.892   1.930   1.977
  440TIP3   OH2 1276   1.545   6.650   5.914
  440TIP3    H1 1277   1.518   6.685   5.998
  440TIP3    H2 1278   1.524   6.720   5.851
  441TIP3   OH2 1279   7.415   2.339   6.529
  441TIP3    H1 1280   7.444   2.380   6.611
  441TIP3    H2 1281   7.367   2.409   6.484
  442TIP3   OH2 1282   8.180   3.996   5.098
  442TIP3    H1 1283   8.238   4.063   5.062
  442TIP3    H2 1284   8.212   3.914   5.062
  443TIP3   OH2 1285   5.552   1.177   1.020
  443TIP3    H1 1286   5.566   1.204   0.929
  443TIP3    H2 1287   5.535   1.259   1.067
  444TIP3   OH2 1288   6.369   0.450   4.640
  444TIP3    H1 1289   6.307   0.518   4.666
  444TIP3    H2 1290   6.317   0.370   4.634
  445TIP3   OH2 1291   7.002   5.894   0.731
  445TIP3    H1 1292   7.018   5.963   0.796
  445TIP3    H2 1293   7.041   5.815   0.770
  446TIP3   OH2 1294   3.671   4.523   4.455
  446TIP3    H1 1295   3.576   4.506   4.450
  446TIP3    H2 1296   3.679   4.617   4.438
  447TIP3   OH2 1297   7.784   1.885   4.708
  447TIP3    H1 1298   7.839   1.953   4.745
  447TIP3    H2 1299   7.709   1.878   4.768
  448TIP3   OH2 1300   2.134   6.575   2.233
  448TIP3    H1 1301   2.080   6.593   2.310
  448TIP3    H2 1302   2.177   6.658   2.213
  449TIP3   OH2 1303   8.177   2.972   1.474
  449TIP3    H1 1304   8.106   3.031   1.497
  449TIP3    H2 1305   8.143   2.885   1.495
  450TIP3   OH2 1306   1.266   1.800   4.107
  450TIP3    H1 1307   1.259   1.705   4.100
  450TIP3    H2 1308   1.175   1.830   4.119
  451TIP3   OH2 1309   4.187   6.689   5.488
  451TIP3    H1 1310   4.259   6.631   5.465
  451TIP3    H2 1311   4.144   6.645   5.562
  452TIP3   OH2 1312   5.939   1.693   2.699
  452TIP3    H1 1313   5.989   1.769   2.728
  452TIP3    H2 1314   5.975   1.620   2.750
  453TIP3   OH2 1315   1.722  -0.002   3.407
  453TIP3    H1 1316   1.815  -0.022   3.418
  453TIP3    H2 1317   1.720   0.090   3.381
  454TIP3   OH2 1318   7.911   5.541   0.664
  454TIP3    H1 1319   7.951   5.506   0.585
  454TIP3    H2 1320   7.835   5.485   0.680
  455TIP3   OH2 1321   2.308   1.964   0.865
  455TIP3    H1 1322   2.344   1.911   0.936
  455TIP3    H2 1323   2.239   1.910   0.827
  456TIP3   OH2 1324   0.442   6.355   0.833
  456TIP3    H1 1325   0.477   6.368   0.745
  456TIP3    H2 1326   0.388   6.433   0.849
  457TIP3   OH2 1327   0.981   5.876   0.998
  457TIP3    H1 1328   0.901   5.927   1.009
  457TIP3    H2 1329   1.025   5.881   1.083
  458TIP3   OH2 1330   5.926   5.674   1.462
  458TIP3    H1 1331   5.860   5.701   1.399
  458TIP3    H2 1332   6.009   5.679   1.414
  459TIP3   OH2 1333   3.298   3.304   3.125
  459TIP3    H1 1334   3.213   3.339   3.097
  459TIP3    H2 1335   3.338   3.271   3.044
  460TIP3   OH2 1336   2.949   6.036   0.332
  460TIP3    H1 1337   2.955   5.954   0.283
  460TIP3    H2 1338   2.991   6.017   0.416
  461TIP3   OH2 1339   6.078   7.228   3.801
  461TIP3    H1 1340   6.010   7.181   3.753
  461TIP3    H2 1341   6.038   7.311   3.826
  462TIP3   OH2 1342   5.155   1.863   6.264
  462TIP3    H1 1343   5.093   1.935   6.273
  462TIP3    H2 1344   5.123   1.796   6.325
  463TIP3   OH2 1345   3.476   5.026   0.019
  463TIP3    H1 1346   3.484   4.953   0.081
  463TIP3    H2 1347   3.519   4.995  -0.060
  464TIP3   OH2 1348   2.693   0.031   6.080
  464TIP3    H1 1349   2.612  -0.007   6.048
  464TIP3    H2 1350   2.701  -0.002   6.170
  465TIP3   OH2 1351   0.367   3.461   5.331
  465TIP3    H1 1352   0.310   3.498   5.263
  465TIP3    H2 1353   0.386   3.534   5.389
  466TIP3   OH2 1354   2.457   4.978   5.731
  466TIP3    H1 1355   2.480   5.008   5.819
  466TIP3    H2 1356   2.502   4.895   5.720
  467TIP3   OH2 1357   0.282   0.313   1.874
  467TIP3    H1 1358   0.210   0.264   1.835
  467TIP3    H2 1359   0.241   0.365   1.944
  468TIP3   OH2 1360   0.356   6.503   0.178
  468TIP3    H1 1361   0.372   6.414   0.146
  468TIP3    H2 1362   0.369   6.498   0.273
  469TIP3   OH2 1363   0.925   4.522   5.011
  469TIP3    H1 1364   0.998   4.579   5.036
  469TIP3    H2 1365   0.871   4.577   4.953
  470TIP3   OH2 1366   3.436   3.667   6.667
  470TIP3    H1 1367   3.513   3.615   6.648
  470TIP3    H2 1368   3.366   3.604   6.680
  471TIP3   OH2 1369   0.307   2.906   1.841
  471TIP3    H1 1370   0.350   2.988   1.867
  471TIP3    H2 1371   0.234   2.934   1.785
  472TIP3   OH2 1372   7.944   0.871   4.918
  472TIP3    H1 1373   7.975   0.961   4.915
  472TIP3    H2 1374   7.907   0.855   4.832
  473TIP3   OH2 1375   7.711   2.870   2.280
  473TIP3    H1 1376   7.619   2.860   2.254
  473TIP3    H2 1377   7.752   2.912   2.204
  474TIP3   OH2 1378   5.493   4.916   4.489
  474TIP3    H1 1379   5.573   4.915   4.436
  474TIP3    H2 1380   5.509   4.983   4.556
  475TIP3   OH2 1381   8.285   3.930   4.841
  475TIP3    H1 1382   8.196   3.897   4.827
  475TIP3    H2 1383   8.313   3.961   4.755
  476TIP3   OH2 1384   0.203   2.925   5.692
  476TIP3    H1 1385   0.195   3.015   5.723
  476TIP3    H2 1386   0.287   2.895   5.729
  477TIP3   OH2 1387   1.118   0.423   5.582
  477TIP3    H1 1388   1.173   0.373   5.523
  477TIP3    H2 1389   1.030   0.415   5.546
  478TIP3   OH2 1390   3.388   1.601   1.998
  478TIP3    H1 1391   3.341   1.642   1.925
  478TIP3    H2 1392   3.406   1.673   2.059
  479TIP3   OH2 1393   0.408   7.064   1.370
  479TIP3    H1 1394   0.500   7.045   1.387
  479TIP3    H2 1395   0.360   7.019   1.439
  480TIP3   OH2 1396   0.934   4.792   4.481
  480TIP3    H1 1397   0.887   4.789   4.398
  480TIP3    H2 1398   0.943   4.701   4.508
  481TIP3   OH2 1399   4.948   1.577   1.007
  481TIP3    H1 1400   5.001   1.585   0.927
  481TIP3    H2 1401   5.012   1.565   1.077
  482TIP3   OH2 1402   4.268   1.810   2.897
  482TIP3    H1 1403   4.230   1.771   2.818
  482TIP3    H2 1404   4.201   1.798   2.964
  483TIP3   OH2 1405   4.165   6.751   0.833
  483TIP3    H1 1406   4.095   6.794   0.882
  483TIP3    H2 1407   4.183   6.671   0.882
  484TIP3   OH2 1408   1.747   6.743   0.357
  484TIP3    H1 1409   1.838   6.714   0.357
  484TIP3    H2 1410   1.699   6.671   0.316
  485TIP3   OH2 1411   1.693   3.396   0.162
  485TIP3    H1 1412   1.678   3.490   0.152
  485TIP3    H2 1413   1.632   3.356   0.099
  486TIP3   OH2 1414   6.505   7.124   3.471
  486TIP3    H1 1415   6.566   7.053   3.492
  486TIP3    H2 1416   6.513   7.185   3.545
  487TIP3   OH2 1417   1.658   7.070   5.219
  487TIP3    H1 1418   1.588   7.136   5.217
  487TIP3    H2 1419   1.632   7.010   5.288
  488TIP3   OH2 1420   6.303   3.023   4.147
  488TIP3    H1 1421   6.372   3.034   4.081
  488TIP3    H2 1422   6.225   2.999   4.096
  489TIP3   OH2 1423   1.661   1.817   2.134
  489TIP3    H1 1424   1.625   1.741   2.180
  489TIP3    H2 1425   1.586   1.875   2.122
  490TIP3   OH2 1426   2.075   0.546   1.331
  490TIP3    H1 1427   2.091   0.484   1.260
  490TIP3    H2 1428   2.122   0.626   1.305
  491TIP3   OH2 1429   7.629   2.175   1.078
  491TIP3    H1 1430   7.645   2.263   1.043
  491TIP3    H2 1431   7.569   2.135   1.015
  492TIP3   OH2 1432   4.655   6.979   0.436
  492TIP3    H1 1433   4.636   7.063   0.395
  492TIP3    H2 1434   4.660   6.917   0.363
  493TIP3   OH2 1435   2.503   6.745   3.546
  493TIP3    H1 1436   2.480   6.684   3.476
  493TIP3    H2 1437   2.568   6.699   3.598
  494TIP3   OH2 1438   1.588   3.473   6.493
  494TIP3    H1 1439   1.680   3.487   6.512
  494TIP3    H2 1440   1.541   3.518   6.563
  495TIP3   OH2 1441   3.137   1.819   0.635
  495TIP3    H1 1442   3.181   1.770   0.565
  495TIP3    H2 1443   3.187   1.900   0.642
  496TIP3   OH2 1444   4.417   4.909   0.050
  496TIP3    H1 1445   4.497   4.857   0.062
  496TIP3    H2 1446   4.373   4.906   0.135
  497TIP3   OH2 1447   5.035   1.113   2.671
  497TIP3    H1 1448   5.071   1.180   2.613
  497TIP3    H2 1449   5.092   1.115   2.748
  498TIP3   OH2 1450   6.921   0.905   1.240
  498TIP3    H1 1451   6.890   0.991   1.211
  498TIP3    H2 1452   6.886   0.896   1.329
  499TIP3   OH2 1453   5.529   6.158   4.656
  499TIP3    H1 1454   5.468   6.092   4.689
  499TIP3    H2 1455   5.560   6.203   4.734
  500TIP3   OH2 1456   1.667   4.166   4.461
  500TIP3    H1 1457   1.613   4.243   4.443
  500TIP3    H2 1458   1.633   4.132   4.544
  501TIP3   OH2 1459   7.362   0.487   1.884
  501TIP3    H1 1460   7.383   0.413   1.940
  501TIP3    H2 1461   7.266   0.485   1.876
  502TIP3   OH2 1462   2.731   1.084   1.189
  502TIP3    H1 1463   2.817   1.118   1.213
  502TIP3    H2 1464   2.736   0.990   1.206
  503TIP3   OH2 1465   2.608   6.996   4.855
  503TIP3    H1 1466   2.612   6.971   4.947
  503TIP3    H2 1467   2.566   6.922   4.812
  504TIP3   OH2 1468   4.344   5.050   2.331
  504TIP3    H1 1469   4.361   5.130   2.381
  504TIP3    H2 1470   4.249   5.050   2.318
  505TIP3   OH2 1471   1.054   1.557   6.047
  505TIP3    H1 1472   1.020   1.547   5.959
  505TIP3    H2 1473   1.066   1.468   6.079
  506TIP3   OH2 1474   4.146   2.190   1.356
  506TIP3    H1 1475   4.240   2.181   1.370
  506TIP3    H2 1476   4.108   2.189   1.444
  507TIP3   OH2 1477   3.121   1.567   2.357
  507TIP3    H1 1478   3.094   1.481   2.325
  507TIP3    H2 1479   3.154   1.612   2.279
  508TIP3   OH2 1480   2.707   7.753   4.963
  508TIP3    H1 1481   2.721   7.688   5.031
  508TIP3    H2 1482   2.621   7.790   4.981
  509TIP3   OH2 1483   0.040   5.341   6.763
  509TIP3    H1 1484   0.133   5.334   6.784
  509TIP3    H2 1485   0.038   5.383   6.677
  510TIP3   OH2 1486   0.700   3.323   5.702
  510TIP3    H1 1487   0.605   3.325   5.701
  510TIP3    H2 1488   0.723   3.242   5.657
  511TIP3   OH2 1489   0.955   6.541   3.773
  511TIP3    H1 1490   0.916   6.573   3.854
  511TIP3    H2 1491   1.014   6.611   3.745
  512TIP3   OH2 1492   0.620   7.233   0.983
  512TIP3    H1 1493   0.692   7.229   1.046
  512TIP3    H2 1494   0.603   7.327   0.971
  513TIP3   OH2 1495   4.841   2.532   2.772
  513TIP3    H1 1496   4.879   2.451   2.806
  513TIP3    H2 1497   4.858   2.529   2.677
  514TIP3   OH2 1498   4.158   1.028   0.768
  514TIP3    H1 1499   4.103   0.963   0.812
  514TIP3    H2 1500   4.137   1.110   0.812
  515TIP3   OH2 1501   2.759   3.980   3.959
  515TIP3    H1 1502   2.842   4.022   3.934
  515TIP3    H2 1503   2.738   4.019   4.044
  516TIP3   OH2 1504   2.508   7.486   6.771
  516TIP3    H1 1505   2.460   7.432   6.833
  516TIP3    H2 1506   2.471   7.463   6.685
  517TIP3   OH2 1507   1.700   2.514   1.398
  517TIP3    H1 1508   1.725   2.583   1.460
  517TIP3    H2 1509   1.640   2.557   1.337
  518TIP3   OH2 1510   2.967   0.470   1.554
  518TIP3    H1 1511   2.962   0.412   1.478
  518TIP3    H2 1512   2.977   0.411   1.628
  519TIP3   OH2 1513   7.984   3.494   2.296
  519TIP3    H1 1514   7.908   3.524   2.345
  519TIP3    H2 1515   8.010   3.412   2.337
  520TIP3   OH2 1516   6.771   0.477   0.042
  520TIP3    H1 1517   6.749   0.384   0.047
  520TIP3    H2 1518   6.691   0.520   0.012
  521TIP3   OH2 1519   2.474   1.957   0.048
  521TIP3    H1 1520   2.558   1.996   0.024
  521TIP3    H2 1521   2.462   1.981   0.140
  522TIP3   OH2 1522   3.718   0.730   0.894
  522TIP3    H1 1523   3.642   0.739   0.952
  522TIP3    H2 1524   3.720   0.636   0.873
  523TIP3   OH2 1525   0.556   0.273   1.130
  523TIP3    H1 1526   0.527   0.295   1.218
  523TIP3    H2 1527   0.526   0.346   1.075
  524TIP3   OH2 1528   0.631   2.207   1.316
  524TIP3    H1 1529   0.583   2.264   1.256
  524TIP3    H2 1530   0.718   2.245   1.321
  525TIP3   OH2 1531   6.995   3.817   6.655
  525TIP3    H1 1532   7.062   3.749   6.668
  525TIP3    H2 1533   6.994   3.832   6.560
  526TIP3   OH2 1534   3.856   1.678   0.633
  526TIP3    H1 1535   3.776   1.640   0.670
  526TIP3    H2 1536   3.839   1.772   0.629
  527TIP3   OH2 1537   2.561   3.774   6.413
  527TIP3    H1 1538   2.607   3.758   6.330
  527TIP3    H2 1539   2.576   3.694   6.464
  528TIP3   OH2 1540   6.199   2.602   2.352
  528TIP3    H1 1541   6.137   2.607   2.425
  528TIP3    H2 1542   6.267   2.666   2.375
  529TIP3   OH2 1543   2.037   5.547   3.359
  529TIP3    H1 1544   2.003   5.520   3.445
  529TIP3    H2 1545   2.098   5.478   3.334
  530TIP3   OH2 1546   7.206   1.817   2.679
  530TIP3    H1 1547   7.215   1.722   2.670
  530TIP3    H2 1548   7.149   1.829   2.755
  531TIP3   OH2 1549   7.607   4.200   4.677
  531TIP3    H1 1550   7.642   4.248   4.602
  531TIP3    H2 1551   7.681   4.194   4.738
  532TIP3   OH2 1552   4.256   6.323   2.368
  532TIP3    H1 1553   4.334   6.363   2.406
  532TIP3    H2 1554   4.187   6.340   2.431
  533TIP3   OH2 1555   5.608   5.950   4.956
  533TIP3    H1 1556   5.672   5.879   4.958
  533TIP3    H2 1557   5.539   5.922   5.016
  534TIP3   OH2 1558   4.063   3.163   1.761
  534TIP3    H1 1559   3.999   3.172   1.832
  534TIP3    H2 1560   4.042   3.233   1.700
  535TIP3   OH2 1561   5.659   2.658   3.008
  535TIP3    H1 1562   5.650   2.692   3.097
  535TIP3    H2 1563   5.581   2.604   2.995
  536TIP3   OH2 1564   3.864   1.660   4.153
  536TIP3    H1 1565   3.846   1.572   4.187
  536TIP3    H2 1566   3.817   1.664   4.070
  537TIP3   OH2 1567   4.735   3.312   5.595
  537TIP3    H1 1568   4.728   3.407   5.585
  537TIP3    H2 1569   4.745   3.298   5.689
  538TIP3   OH2 1570   6.639   5.818   2.897
  538TIP3    H1 1571   6.682   5.763   2.962
  538TIP3    H2 1572   6.701   5.889   2.880
  539TIP3   OH2 1573   3.634   2.098   1.044
  539TIP3    H1 1574   3.612   2.115   0.952
  539TIP3    H2 1575   3.723   2.062   1.040
  540TIP3   OH2 1576   5.718   3.096   3.662
  540TIP3    H1 1577   5.665   3.103   3.583
  540TIP3    H2 1578   5.751   3.006   3.660
  541TIP3   OH2 1579   7.289   1.964   0.318
  541TIP3    H1 1580   7.331   1.891   0.364
  541TIP3    H2 1581   7.348   1.983   0.245
  542TIP3   OH2 1582   0.536   0.856   6.204
  542TIP3    H1 1583   0.549   0.904   6.286
  542TIP3    H2 1584   0.579   0.771   6.220
  543TIP3   OH2 1585   5.510   3.760   4.983
  543TIP3    H1 1586   5.529   3.697   5.052
  543TIP3    H2 1587   5.465   3.832   5.028
  544TIP3   OH2 1588   3.768   5.024   4.111
  544TIP3    H1 1589   3.864   5.032   4.107
  544TIP3    H2 1590   3.744   5.073   4.189
  545TIP3   OH2 1591   4.772   3.256   6.408
  545TIP3    H1 1592   4.782   3.338   6.456
  545TIP3    H2 1593   4.827   3.194   6.454
  546TIP3   OH2 1594   5.283   1.337   3.908
  546TIP3    H1 1595   5.231   1.340   3.828
  546TIP3    H2 1596   5.293   1.243   3.927
  547TIP3   OH2 1597   1.088   1.310   6.141
  547TIP3    H1 1598   1.111   1.225   6.103
  547TIP3    H2 1599   1.055   1.289   6.228
  548TIP3   OH2 1600   4.547   5.054   1.513
  548TIP3    H1 1601   4.543   5.005   1.595
  548TIP3    H2 1602   4.624   5.019   1.468
  549TIP3   OH2 1603   0.330   2.032   0.026
  549TIP3    H1 1604   0.347   2.090   0.100
  549TIP3    H2 1605   0.254   1.981   0.053
  550TIP3   OH2 1606   7.015   4.112   4.176
  550TIP3    H1 1607   6.998   4.121   4.270
  550TIP3    H2 1608   7.109   4.128   4.167
  551TIP3   OH2 1609   5.613   3.650   0.764
  551TIP3    H1 1610   5.608   3.598   0.844
  551TIP3    H2 1611   5.537   3.708   0.769
  552TIP3   OH2 1612   2.123   1.446   1.369
  552TIP3    H1 1613   2.151   1.386   1.300
  552TIP3    H2 1614   2.061   1.504   1.326
  553TIP3   OH2 1615   7.057   3.693   2.371
  553TIP3    H1 1616   7.136   3.746   2.386
  553TIP3    H2 1617   7.074   3.648   2.288
  554TIP3   OH2 1618   1.174   1.075   2.104
  554TIP3    H1 1619   1.135   0.994   2.073
  554TIP3    H2 1620   1.269   1.061   2.096
  555TIP3   OH2 1621   5.980   4.220   2.112
  555TIP3    H1 1622   5.904   4.253   2.161
  555TIP3    H2 1623   6.000   4.290   2.050
  556TIP3   OH2 1624   6.455   4.556   1.650
  556TIP3    H1 1625   6.511   4.480   1.665
  556TIP3    H2 1626   6.400   4.561   1.729
  557TIP3   OH2 1627   2.149   4.728   5.556
  557TIP3    H1 1628   2.242   4.743   5.539
  557TIP3    H2 1629   2.104   4.796   5.505
  558TIP3   OH2 1630   3.153   2.203   2.787
  558TIP3    H1 1631   3.124   2.276   2.842
  558TIP3    H2 1632   3.246   2.193   2.809
  559TIP3   OH2 1633   1.151   7.271   4.601
  559TIP3    H1 1634   1.223   7.329   4.581
  559TIP3    H2 1635   1.184   7.183   4.582
  560TIP3   OH2 1636   6.699   6.998   2.621
  560TIP3    H1 1637   6.779   7.037   2.588
  560TIP3    H2 1638   6.693   6.913   2.577
  561TIP3   OH2 1639   3.438   3.957   6.435
  561TIP3    H1 1640   3.358   3.961   6.488
  561TIP3    H2 1641   3.452   3.864   6.419
  562TIP3   OH2 1642   1.505   3.318   2.882
  562TIP3    H1 1643   1.425   3.293   2.929
  562TIP3    H2 1644   1.505   3.263   2.804
  563TIP3   OH2 1645   7.633   3.591   6.301
  563TIP3    H1 1646   7.687   3.626   6.372
  563TIP3    H2 1647   7.594   3.668   6.260
  564TIP3   OH2 1648   3.994   5.988   6.136
  564TIP3    H1 1649   3.926   5.996   6.203
  564TIP3    H2 1650   4.008   6.077   6.105
  565TIP3   OH2 1651   4.070   5.095   2.323
  565TIP3    H1 1652   4.054   5.157   2.394
  565TIP3    H2 1653   3.982   5.076   2.289
  566TIP3   OH2 1654   0.969   6.176   0.492
  566TIP3    H1 1655   1.027   6.245   0.459
  566TIP3    H2 1656   0.986   6.173   0.586
  567TIP3   OH2 1657   2.862   4.370   3.826
  567TIP3    H1 1658   2.896   4.310   3.760
  567TIP3    H2 1659   2.868   4.457   3.785
  568TIP3   OH2 1660   1.664   4.076   6.517
  568TIP3    H1 1661   1.671   3.981   6.505
  568TIP3    H2 1662   1.751   4.103   6.547
  569TIP3   OH2 1663   4.108   7.134   5.147
  569TIP3    H1 1664   4.083   7.043   5.167
  569TIP3    H2 1665   4.198   7.141   5.176
  570TIP3   OH2 1666   2.269   4.645   2.568
  570TIP3    H1 1667   2.277   4.640   2.663
  570TIP3    H2 1668   2.178   4.670   2.553
  571TIP3   OH2 1669   2.106   4.743   6.207
  571TIP3    H1 1670   2.187   4.734   6.258
  571TIP3    H2 1671   2.071   4.829   6.231
  572TIP3   OH2 1672   2.522   4.717   2.863
  572TIP3    H1 1673   2.589   4.724   2.930
  572TIP3    H2 1674   2.464   4.647   2.895
  573TIP3   OH2 1675   0.209   1.427   1.653
  573TIP3    H1 1676   0.204   1.440   1.747
  573TIP3    H2 1677   0.222   1.333   1.643
  574TIP3   OH2 1678   1.392   5.266   2.623
  574TIP3    H1 1679   1.327   5.197   2.617
  574TIP3    H2 1680   1.404   5.281   2.717
  575TIP3   OH2 1681   0.235   0.897   2.799
  575TIP3    H1 1682   0.218   0.807   2.829
  575TIP3    H2 1683   0.325   0.914   2.827
  576TIP3   OH2 1684   2.064   2.268   0.245
  576TIP3    H1 1685   2.101   2.328   0.310
  576TIP3    H2 1686   2.066   2.182   0.288
  577TIP3   OH2 1687   8.137   1.348   1.957
  577TIP3    H1 1688   8.178   1.286   2.017
  577TIP3    H2 1689   8.057   1.304   1.928
  578TIP3   OH2 1690   0.797   4.398   5.816
  578TIP3    H1 1691   0.704   4.419   5.823
  578TIP3    H2 1692   0.821   4.424   5.727
  579TIP3   OH2 1693   6.959   7.020   6.601
  579TIP3    H1 1694   6.973   7.097   6.656
  579TIP3    H2 1695   6.948   6.948   6.663
  580TIP3   OH2 1696   0.707   3.052   0.867
  580TIP3    H1 1697   0.697   3.001   0.947
  580TIP3    H2 1698   0.745   2.992   0.804
  581TIP3   OH2 1699   0.385   0.669   2.492
  581TIP3    H1 1700   0.314   0.675   2.428
  581TIP3    H2 1701   0.416   0.759   2.503
  582TIP3   OH2 1702   7.604   3.168   3.778
  582TIP3    H1 1703   7.597   3.252   3.824
  582TIP3    H2 1704   7.527   3.166   3.720
  583TIP3   OH2 1705   4.136   0.180   0.147
  583TIP3    H1 1706   4.222   0.177   0.191
  583TIP3    H2 1707   4.075   0.207   0.216
  584TIP3   OH2 1708   4.134   0.061   6.440
  584TIP3    H1 1709   4.107   0.069   6.348
  584TIP3    H2 1710   4.225   0.089   6.440
  585TIP3   OH2 1711   8.009   6.019   3.021
  585TIP3    H1 1712   8.102   6.039   3.008
  585TIP3    H2 1713   8.008   5.933   3.062
  586TIP3   OH2 1714   4.193   1.770   4.931
  586TIP3    H1 1715   4.219   1.827   5.005
  586TIP3    H2 1716   4.276   1.738   4.896
  587TIP3   OH2 1717   2.367   1.653   3.412
  587TIP3    H1 1718   2.415   1.576   3.442
  587TIP3    H2 1719   2.294   1.661   3.473
  588TIP3   OH2 1720   2.416   0.011   1.572
  588TIP3    H1 1721   2.386   0.101   1.577
  588TIP3    H2 1722   2.508   0.018   1.545
  589TIP3   OH2 1723   5.236   1.948   2.002
  589TIP3    H1 1724   5.206   1.859   1.984
  589TIP3    H2 1725   5.160   1.992   2.040
  590TIP3   OH2 1726   5.321   0.580   2.358
  590TIP3    H1 1727   5.311   0.508   2.296
  590TIP3    H2 1728   5.407   0.618   2.337
  591TIP3   OH2 1729   1.066   7.186   1.598
  591TIP3    H1 1730   1.078   7.278   1.574
  591TIP3    H2 1731   0.978   7.183   1.636
  592TIP3   OH2 1732   3.041   3.530   2.490
  592TIP3    H1 1733   2.971   3.590   2.514
  592TIP3    H2 1734   3.045   3.534   2.395
  593TIP3   OH2 1735   4.639   3.501   1.238
  593TIP3    H1 1736   4.550   3.505   1.273
  593TIP3    H2 1737   4.652   3.587   1.197
  594TIP3   OH2 1738   3.309   7.647   2.085
  594TIP3    H1 1739   3.228   7.596   2.093
  594TIP3    H2 1740   3.318   7.689   2.171
  595TIP3   OH2 1741   4.830   1.261   6.446
  595TIP3    H1 1742   4.779   1.322   6.393
  595TIP3    H2 1743   4.764   1.210   6.493
  596TIP3   OH2 1744   6.821   7.238   0.264
  596TIP3    H1 1745   6.778   7.318   0.235
  596TIP3    H2 1746   6.760   7.200   0.327
  597TIP3   OH2 1747   1.126   7.448   2.648
  597TIP3    H1 1748   1.136   7.531   2.695
  597TIP3    H2 1749   1.169   7.383   2.704
  598TIP3   OH2 1750   3.599   3.049   3.085
  598TIP3    H1 1751   3.529   3.017   3.029
  598TIP3    H2 1752   3.674   3.060   3.026
  599TIP3   OH2 1753   7.280   5.381   3.451
  599TIP3    H1 1754   7.370   5.352   3.433
  599TIP3    H2 1755   7.229   5.344   3.379
  600TIP3   OH2 1756   7.229   7.771   5.731
  600TIP3    H1 1757   7.206   7.809   5.647
  600TIP3    H2 1758   7.146   7.741   5.768
  601TIP3   OH2 1759   7.829   0.299   6.764
  601TIP3    H1 1760   7.777   0.248   6.826
  601TIP3    H2 1761   7.765   0.355   6.719
  602TIP3   OH2 1762   3.705   5.949   2.583
  602TIP3    H1 1763   3.740   5.907   2.505
  602TIP3    H2 1764   3.746   6.035   2.585
  603TIP3   OH2 1765   7.090   7.684   6.244
  603TIP3    H1 1766   7.182   7.696   6.222
  603TIP3    H2 1767   7.090   7.618   6.312
  604TIP3   OH2 1768   7.317   4.262   4.009
  604TIP3    H1 1769   7.384   4.244   3.944
  604TIP3    H2 1770   7.321   4.187   4.069
  605TIP3   OH2 1771   5.503   6.858   2.528
  605TIP3    H1 1772   5.479   6.904   2.609
  605TIP3    H2 1773   5.426   6.869   2.472
  606TIP3   OH2 1774   7.147   1.522   3.169
  606TIP3    H1 1775   7.080   1.567   3.221
  606TIP3    H2 1776   7.213   1.589   3.153
  607TIP3   OH2 1777   0.637   0.401   2.010
  607TIP3    H1 1778   0.565   0.392   1.947
  607TIP3    H2 1779   0.711   0.355   1.969
  608TIP3   OH2 1780   5.151   0.398   6.468
  608TIP3    H1 1781   5.208   0.431   6.538
  608TIP3    H2 1782   5.121   0.313   6.500
  609TIP3   OH2 1783   0.177   4.332   4.514
  609TIP3    H1 1784   0.248   4.397   4.520
  609TIP3    H2 1785   0.187   4.279   4.593
  610TIP3   OH2 1786   7.026   6.735   5.899
  610TIP3    H1 1787   7.098   6.789   5.866
  610TIP3    H2 1788   6.947   6.773   5.861
  611TIP3   OH2 1789   2.648   6.076   4.820
  611TIP3    H1 1790   2.630   6.015   4.891
  611TIP3    H2 1791   2.661   6.160   4.863
  612TIP3   OH2 1792   4.832   1.789   2.051
  612TIP3    H1 1793   4.888   1.827   1.984
  612TIP3    H2 1794   4.893   1.758   2.118
  613TIP3   OH2 1795   0.888   4.578   1.526
  613TIP3    H1 1796   0.853   4.593   1.614
  613TIP3    H2 1797   0.847   4.496   1.497
  614TIP3   OH2 1798   6.714   5.484   6.352
  614TIP3    H1 1799   6.680   5.480   6.442
  614TIP3    H2 1800   6.800   5.443   6.357
  615TIP3   OH2 1801   1.304   0.006   2.740
  615TIP3    H1 1802   1.234  -0.060   2.737
  615TIP3    H2 1803   1.286   0.056   2.819
  616TIP3   OH2 1804   3.235  -0.027   0.224
  616TIP3    H1 1805   3.326   0.001   0.235
  616TIP3    H2 1806   3.183   0.045   0.260
  617TIP3   OH2 1807   5.593   7.481   3.896
  617TIP3    H1 1808   5.606   7.450   3.806
  617TIP3    H2 1809   5.504   7.455   3.918
  618TIP3   OH2 1810   3.301   0.184   6.251
  618TIP3    H1 1811   3.243   0.242   6.299
  618TIP3    H2 1812   3.266   0.096   6.268
  619TIP3   OH2 1813   1.731   4.867   2.989
  619TIP3    H1 1814   1.663   4.881   2.924
  619TIP3    H2 1815   1.743   4.953   3.030
  620TIP3   OH2 1816   3.253   1.933   5.189
  620TIP3    H1 1817   3.206   2.014   5.172
  620TIP3    H2 1818   3.340   1.961   5.218
  621TIP3   OH2 1819   0.782   1.139   6.081
  621TIP3    H1 1820   0.717   1.153   6.012
  621TIP3    H2 1821   0.760   1.202   6.149
  622TIP3   OH2 1822   2.165   6.603   4.399
  622TIP3    H1 1823   2.086   6.623   4.449
  622TIP3    H2 1824   2.155   6.512   4.373
  623TIP3   OH2 1825   6.322   3.315   5.399
  623TIP3    H1 1826   6.231   3.337   5.379
  623TIP3    H2 1827   6.317   3.256   5.475
  624TIP3   OH2 1828   3.275   5.688   2.326
  624TIP3    H1 1829   3.298   5.780   2.340
  624TIP3    H2 1830   3.328   5.640   2.391
  625TIP3   OH2 1831   3.699   6.786   3.586
  625TIP3    H1 1832   3.762   6.751   3.649
  625TIP3    H2 1833   3.747   6.856   3.541
  626TIP3   OH2 1834   2.352   1.165   3.461
  626TIP3    H1 1835   2.349   1.220   3.383
  626TIP3    H2 1836   2.350   1.075   3.428
  627TIP3   OH2 1837   1.268   7.636   6.181
  627TIP3    H1 1838   1.294   7.584   6.105
  627TIP3    H2 1839   1.300   7.724   6.161
  628TIP3   OH2 1840   1.234   0.960   2.397
  628TIP3    H1 1841   1.208   0.880   2.442
  628TIP3    H2 1842   1.239   0.936   2.305
  629TIP3   OH2 1843   5.210   0.210   3.426
  629TIP3    H1 1844   5.209   0.286   3.483
  629TIP3    H2 1845   5.258   0.143   3.475
  630TIP3   OH2 1846   0.028   2.196   5.157
  630TIP3    H1 1847   0.104   2.200   5.099
  630TIP3    H2 1848  -0.013   2.283   5.150
  631TIP3   OH2 1849   2.340   5.263   0.120
  631TIP3    H1 1850   2.342   5.353   0.154
  631TIP3    H2 1851   2.415   5.220   0.161
  632TIP3   OH2 1852   5.658   4.921   4.284
  632TIP3    H1 1853   5.754   4.918   4.287
  632TIP3    H2 1854   5.634   4.856   4.218
  633TIP3   OH2 1855   0.309   6.826   6.435
  633TIP3    H1 1856   0.216   6.830   6.456
  633TIP3    H2 1857   0.312   6.803   6.342
  634TIP3   OH2 1858   5.707   5.463   4.470
  634TIP3    H1 1859   5.677   5.540   4.519
  634TIP3    H2 1860   5.644   5.454   4.399
  635TIP3   OH2 1861   7.473   6.676   4.754
  635TIP3    H1 1862   7.440   6.605   4.698
  635TIP3    H2 1863   7.426   6.754   4.725
  636TIP3   OH2 1864   2.468   1.907   4.904
  636TIP3    H1 1865   2.484   1.950   4.988
  636TIP3    H2 1866   2.473   1.978   4.839
  637TIP3   OH2 1867   0.598   7.062   3.089
  637TIP3    H1 1868   0.595   7.005   3.166
  637TIP3    H2 1869   0.616   7.003   3.016
  638TIP3   OH2 1870   1.908   7.775   3.034
  638TIP3    H1 1871   1.924   7.805   3.124
  638TIP3    H2 1872   1.992   7.790   2.990
  639TIP3   OH2 1873   2.759   6.367   2.402
  639TIP3    H1 1874   2.847   6.372   2.440
  639TIP3    H2 1875   2.741   6.273   2.396
  640TIP3   OH2 1876   2.968   5.140   1.621
  640TIP3    H1 1877   2.885   5.184   1.640
  640TIP3    H2 1878   2.980   5.079   1.693
  641TIP3   OH2 1879   6.755   6.675   1.820
  641TIP3    H1 1880   6.750   6.734   1.745
  641TIP3    H2 1881   6.666   6.643   1.832
  642TIP3   OH2 1882   6.902   3.064   3.789
  642TIP3    H1 1883   6.978   3.056   3.731
  642TIP3    H2 1884   6.878   2.973   3.808
  643TIP3   OH2 1885   0.210   3.571   0.211
  643TIP3    H1 1886   0.114   3.573   0.207
  643TIP3    H2 1887   0.232   3.639   0.275
  644TIP3   OH2 1888   5.645   3.834   5.894
  644TIP3    H1 1889   5.579   3.858   5.828
  644TIP3    H2 1890   5.726   3.825   5.845
  645TIP3   OH2 1891   2.097   3.756   2.432
  645TIP3    H1 1892   2.184   3.755   2.392
  645TIP3    H2 1893   2.044   3.808   2.370
  646TIP3   OH2 1894   1.050   2.496   4.417
  646TIP3    H1 1895   1.063   2.412   4.460
  646TIP3    H2 1896   1.118   2.500   4.350
  647TIP3   OH2 1897   2.159   6.651   1.334
  647TIP3    H1 1898   2.104   6.592   1.281
  647TIP3    H2 1899   2.118   6.649   1.421
  648TIP3   OH2 1900   6.431   2.221   2.937
  648TIP3    H1 1901   6.406   2.257   2.852
  648TIP3    H2 1902   6.526   2.223   2.937
  649TIP3   OH2 1903   2.924   6.336   3.891
  649TIP3    H1 1904   2.830   6.354   3.886
  649TIP3    H2 1905   2.930   6.253   3.939
  650TIP3   OH2 1906   6.935   7.210   2.863
  650TIP3    H1 1907   6.978   7.293   2.883
  650TIP3    H2 1908   6.960   7.190   2.773
  651TIP3   OH2 1909   6.033   4.188   3.188
  651TIP3    H1 1910   6.097   4.123   3.218
  651TIP3    H2 1911   6.082   4.271   3.188
  652TIP3   OH2 1912   4.835   3.648   4.802
  652TIP3    H1 1913   4.927   3.659   4.777
  652TIP3    H2 1914   4.837   3.585   4.875
  653TIP3   OH2 1915   2.158   3.545   4.070
  653TIP3    H1 1916   2.239   3.493   4.069
  653TIP3    H2 1917   2.178   3.619   4.127
  654TIP3   OH2 1918   3.866   7.103   5.297
  654TIP3    H1 1919   3.943   7.098   5.239
  654TIP3    H2 1920   3.835   7.192   5.287
  655TIP3   OH2 1921   7.062   0.987   3.801
  655TIP3    H1 1922   6.992   1.048   3.825
  655TIP3    H2 1923   7.115   0.979   3.880
  656TIP3   OH2 1924   1.920   6.128   6.389
  656TIP3    H1 1925   1.917   6.192   6.460
  656TIP3    H2 1926   2.000   6.078   6.405
  657TIP3   OH2 1927   2.847   4.566   6.638
  657TIP3    H1 1928   2.923   4.562   6.580
  657TIP3    H2 1929   2.772   4.576   6.578
  658TIP3   OH2 1930   2.403   4.714   0.193
  658TIP3    H1 1931   2.437   4.661   0.265
  658TIP3    H2 1932   2.398   4.802   0.229
  659TIP3   OH2 1933   5.667   2.753   4.480
  659TIP3    H1 1934   5.755   2.717   4.488
  659TIP3    H2 1935   5.629   2.707   4.406
  660TIP3   OH2 1936   7.849   0.877   4.662
  660TIP3    H1 1937   7.886   0.965   4.659
  660TIP3    H2 1938   7.914   0.823   4.617
  661TIP3   OH2 1939   1.248   6.038   0.585
  661TIP3    H1 1940   1.250   5.978   0.511
  661TIP3    H2 1941   1.158   6.032   0.619
  662TIP3   OH2 1942   2.549   5.650   6.285
  662TIP3    H1 1943   2.526   5.712   6.354
  662TIP3    H2 1944   2.633   5.682   6.252
  663TIP3   OH2 1945   6.777   3.267   0.795
  663TIP3    H1 1946   6.696   3.275   0.745
  663TIP3    H2 1947   6.759   3.199   0.859
  664TIP3   OH2 1948   3.900   4.290   4.315
  664TIP3    H1 1949   3.899   4.379   4.349
  664TIP3    H2 1950   3.859   4.237   4.384
  665TIP3   OH2 1951   4.298   2.775   1.385
  665TIP3    H1 1952   4.204   2.764   1.400
  665TIP3    H2 1953   4.329   2.823   1.462
  666TIP3   OH2 1954   0.072   0.092   3.834
  666TIP3    H1 1955   0.069   0.113   3.927
  666TIP3    H2 1956   0.146   0.031   3.826
  667TIP3   OH2 1957   0.804   3.137   4.878
  667TIP3    H1 1958   0.739   3.149   4.808
  667TIP3    H2 1959   0.877   3.194   4.853
  668TIP3   OH2 1960   1.761   4.108   3.309
  668TIP3    H1 1961   1.724   4.190   3.339
  668TIP3    H2 1962   1.791   4.064   3.389
  669TIP3   OH2 1963   7.204   3.123   4.006
  669TIP3    H1 1964   7.160   3.073   4.074
  669TIP3    H2 1965   7.260   3.060   3.961
  670TIP3   OH2 1966   4.721   4.211   5.352
  670TIP3    H1 1967   4.688   4.122   5.342
  670TIP3    H2 1968   4.654   4.255   5.405
  671TIP3   OH2 1969   5.533   6.427   2.452
  671TIP3    H1 1970   5.487   6.375   2.385
  671TIP3    H2 1971   5.489   6.513   2.450
  672TIP3   OH2 1972   5.587   4.529   3.157
  672TIP3    H1 1973   5.513   4.522   3.096
  672TIP3    H2 1974   5.599   4.441   3.190
  673TIP3   OH2 1975   2.790   7.318   5.956
  673TIP3    H1 1976   2.740   7.262   5.897
  673TIP3    H2 1977   2.783   7.405   5.919
  674TIP3   OH2 1978   6.453   6.757   0.234
  674TIP3    H1 1979   6.377   6.757   0.176
  674TIP3    H2 1980   6.528   6.754   0.175
  675TIP3   OH2 1981   6.072   0.026   3.885
  675TIP3    H1 1982   6.033   0.113   3.892
  675TIP3    H2 1983   6.050  -0.003   3.796
  676TIP3   OH2 1984   5.659   4.627   5.809
  676TIP3    H1 1985   5.755   4.628   5.819
  676TIP3    H2 1986   5.644   4.657   5.720
  677TIP3   OH2 1987   5.641   1.392   0.573
  677TIP3    H1 1988   5.702   1.378   0.500
  677TIP3    H2 1989   5.585   1.464   0.543
  678TIP3   OH2 1990   3.706   5.829   5.342
  678TIP3    H1 1991   3.761   5.755   5.319
  678TIP3    H2 1992   3.713   5.836   5.437
  679TIP3   OH2 1993   4.132   5.422   5.930
  679TIP3    H1 1994   4.091   5.393   6.011
  679TIP3    H2 1995   4.077   5.494   5.899
  680TIP3   OH2 1996   1.462   4.673   5.427
  680TIP3    H1 1997   1.492   4.625   5.505
  680TIP3    H2 1998   1.378   4.632   5.405
  681TIP3   OH2 1999   4.907   2.937   0.528
  681TIP3    H1 2000   4.885   2.940   0.435
  681TIP3    H2 2001   4.861   2.859   0.560
  682TIP3   OH2 2002   6.434   0.198   3.359
  682TIP3    H1 2003   6.349   0.185   3.318
  682TIP3    H2 2004   6.436   0.136   3.432
  683TIP3   OH2 2005   2.204   7.620   3.996
  683TIP3    H1 2006   2.130   7.589   4.048
  683TIP3    H2 2007   2.188   7.714   3.984
  684TIP3   OH2 2008   3.982   2.295   3.384
  684TIP3    H1 2009   3.998   2.267   3.474
  684TIP3    H2 2010   3.978   2.391   3.390
  685TIP3   OH2 2011   6.593   3.404   5.345
  685TIP3    H1 2012   6.617   3.431   5.434
  685TIP3    H2 2013   6.503   3.375   5.352
  686TIP3   OH2 2014   3.551   3.512   3.995
  686TIP3    H1 2015   3.626   3.471   4.039
  686TIP3    H2 2016   3.486   3.521   4.064
  687TIP3   OH2 2017   2.981   5.798   0.198
  687TIP3    H1 2018   2.984   5.707   0.225
  687TIP3    H2 2019   3.073   5.826   0.196
  688TIP3   OH2 2020   0.785   1.727   0.775
  688TIP3    H1 2021   0.711   1.771   0.732
  688TIP3    H2 2022   0.790   1.768   0.862
  689TIP3   OH2 2023   6.483   5.147   3.964
  689TIP3    H1 2024   6.529   5.079   4.013
  689TIP3    H2 2025   6.538   5.225   3.975
  690TIP3   OH2 2026   5.875   5.168   3.035
  690TIP3    H1 2027   5.917   5.226   2.972
  690TIP3    H2 2028   5.800   5.218   3.067
  691TIP3   OH2 2029   1.693   1.466   4.924
  691TIP3    H1 2030   1.671   1.505   4.839
  691TIP3    H2 2031   1.609   1.442   4.963
  692TIP3   OH2 2032   0.717   4.880   2.458
  692TIP3    H1 2033   0.771   4.839   2.526
  692TIP3    H2 2034   0.648   4.816   2.441
  693TIP3   OH2 2035   6.448   1.894   0.932
  693TIP3    H1 2036   6.378   1.956   0.950
  693TIP3    H2 2037   6.521   1.948   0.902
  694TIP3   OH2 2038   4.813   0.064   3.292
  694TIP3    H1 2039   4.770   0.149   3.283
  694TIP3    H2 2040   4.770   0.024   3.368
  695TIP3   OH2 2041   4.067   0.886   2.966
  695TIP3    H1 2042   4.025   0.938   2.898
  695TIP3    H2 2043   4.158   0.915   2.967
  696TIP3   OH2 2044   0.055   4.565   4.849
  696TIP3    H1 2045  -0.022   4.616   4.827
  696TIP3    H2 2046   0.036   4.477   4.816
  697TIP3   OH2 2047   2.283   0.163   4.088
  697TIP3    H1 2048   2.318   0.090   4.037
  697TIP3    H2 2049   2.336   0.164   4.168
  698TIP3   OH2 2050   5.868   0.434   5.548
  698TIP3    H1 2051   5.798   0.477   5.499
  698TIP3    H2 2052   5.875   0.347   5.509
  699TIP3   OH2 2053   5.695   7.711   4.276
  699TIP3    H1 2054   5.765   7.653   4.306
  699TIP3    H2 2055   5.633   7.713   4.350
  700TIP3   OH2 2056   5.359   0.694   2.960
  700TIP3    H1 2057   5.284   0.733   3.005
  700TIP3    H2 2058   5.359   0.735   2.874
  701TIP3   OH2 2059   2.956   5.064   2.991
  701TIP3    H1 2060   2.880   5.121   2.994
  701TIP3    H2 2061   2.931   4.994   2.931
  702TIP3   OH2 2062   6.989   7.081   6.309
  702TIP3    H1 2063   6.955   7.070   6.398
  702TIP3    H2 2064   7.069   7.029   6.308
  703TIP3   OH2 2065   7.991   4.811   4.831
  703TIP3    H1 2066   7.962   4.724   4.860
  703TIP3    H2 2067   7.965   4.815   4.739
  704TIP3   OH2 2068   4.204   1.084   0.502
  704TIP3    H1 2069   4.191   1.066   0.596
  704TIP3    H2 2070   4.293   1.118   0.497
  705TIP3   OH2 2071   4.218   1.929   6.393
  705TIP3    H1 2072   4.146   1.867   6.384
  705TIP3    H2 2073   4.235   1.959   6.304
  706TIP3   OH2 2074   4.851   2.513   6.201
  706TIP3    H1 2075   4.767   2.545   6.235
  706TIP3    H2 2076   4.862   2.427   6.242
  707TIP3   OH2 2077   7.446   0.274   2.015
  707TIP3    H1 2078   7.437   0.205   2.081
  707TIP3    H2 2079   7.421   0.231   1.933
  708TIP3   OH2 2080   6.739   4.704   6.199
  708TIP3    H1 2081   6.821   4.655   6.205
  708TIP3    H2 2082   6.689   4.658   6.131
  709TIP3   OH2 2083   1.959   4.126   3.839
  709TIP3    H1 2084   1.965   4.155   3.748
  709TIP3    H2 2085   2.004   4.041   3.840
  710TIP3   OH2 2086   1.971   3.849   1.729
  710TIP3    H1 2087   1.965   3.927   1.674
  710TIP3    H2 2088   2.052   3.861   1.778
  711TIP3   OH2 2089   5.546   1.322   5.428
  711TIP3    H1 2090   5.594   1.404   5.422
  711TIP3    H2 2091   5.502   1.325   5.513
  712TIP3   OH2 2092   5.984   2.906   4.199
  712TIP3    H1 2093   5.987   2.983   4.143
  712TIP3    H2 2094   5.977   2.941   4.288
  713TIP3   OH2 2095   7.591   3.652   4.266
  713TIP3    H1 2096   7.614   3.665   4.358
  713TIP3    H2 2097   7.672   3.672   4.219
  714TIP3   OH2 2098   4.005   5.456   6.185
  714TIP3    H1 2099   3.936   5.427   6.126
  714TIP3    H2 2100   3.961   5.519   6.243
  715TIP3   OH2 2101   0.969   5.723   4.178
  715TIP3    H1 2102   0.994   5.750   4.089
  715TIP3    H2 2103   0.920   5.641   4.165
  716TIP3   OH2 2104   6.944   6.091   0.270
  716TIP3    H1 2105   7.033   6.108   0.239
  716TIP3    H2 2106   6.952   6.014   0.326
  717TIP3   OH2 2107   7.859   4.833   4.017
  717TIP3    H1 2108   7.782   4.870   4.059
  717TIP3    H2 2109   7.832   4.745   3.991
  718TIP3   OH2 2110   6.008   2.963   3.098
  718TIP3    H1 2111   6.057   3.045   3.104
  718TIP3    H2 2112   5.942   2.969   3.167
  719TIP3   OH2 2113   7.157   3.369   3.169
  719TIP3    H1 2114   7.179   3.371   3.262
  719TIP3    H2 2115   7.085   3.432   3.159
  720TIP3   OH2 2116   1.645   0.141   0.097
  720TIP3    H1 2117   1.689   0.130   0.181
  720TIP3    H2 2118   1.552   0.150   0.119
  721TIP3   OH2 2119   6.169   1.622   0.076
  721TIP3    H1 2120   6.140   1.638  -0.014
  721TIP3    H2 2121   6.233   1.552   0.070
  722TIP3   OH2 2122   7.982   3.949   4.847
  722TIP3    H1 2123   7.977   4.031   4.896
  722TIP3    H2 2124   7.977   3.881   4.914
  723TIP3   OH2 2125   3.807   5.966   0.485
  723TIP3    H1 2126   3.740   6.000   0.424
  723TIP3    H2 2127   3.857   5.904   0.433
  724TIP3   OH2 2128   0.161   2.536   0.259
  724TIP3    H1 2129   0.203   2.564   0.340
  724TIP3    H2 2130   0.231   2.495   0.209
  725TIP3   OH2 2131   4.733   2.367   4.325
  725TIP3    H1 2132   4.674   2.396   4.396
  725TIP3    H2 2133   4.811   2.336   4.371
  726TIP3   OH2 2134   3.393   5.913   2.383
  726TIP3    H1 2135   3.394   6.008   2.378
  726TIP3    H2 2136   3.477   5.890   2.421
  727TIP3   OH2 2137   1.093   4.110   5.481
  727TIP3    H1 2138   1.069   4.182   5.423
  727TIP3    H2 2139   1.120   4.153   5.563
  728TIP3   OH2 2140   0.500   3.896   1.850
  728TIP3    H1 2141   0.447   3.975   1.855
  728TIP3    H2 2142   0.532   3.894   1.760
  729TIP3   OH2 2143   6.330   1.289   6.502
  729TIP3    H1 2144   6.261   1.233   6.539
  729TIP3    H2 2145   6.390   1.227   6.460
  730TIP3   OH2 2146   0.087   4.704   3.773
  730TIP3    H1 2147   0.094   4.612   3.750
  730TIP3    H2 2148   0.086   4.750   3.688
  731TIP3   OH2 2149   7.754   1.883   2.710
  731TIP3    H1 2150   7.849   1.872   2.712
  731TIP3    H2 2151   7.740   1.977   2.723
  732TIP3   OH2 2152   0.166   2.669   5.106
  732TIP3    H1 2153   0.215   2.685   5.025
  732TIP3    H2 2154   0.233   2.656   5.172
  733TIP3   OH2 2155   0.082   1.696   3.825
  733TIP3    H1 2156   0.005   1.642   3.811
  733TIP3    H2 2157   0.057   1.783   3.794
  734TIP3   OH2 2158   3.254   6.941   1.926
  734TIP3    H1 2159   3.209   7.016   1.966
  734TIP3    H2 2160   3.205   6.923   1.847
  735TIP3   OH2 2161   3.338   6.474   2.293
  735TIP3    H1 2162   3.298   6.467   2.207
  735TIP3    H2 2163   3.429   6.498   2.276
  736TIP3   OH2 2164   0.884   5.837   5.873
  736TIP3    H1 2165   0.975   5.849   5.845
  736TIP3    H2 2166   0.832   5.884   5.808
  737TIP3   OH2 2167   6.082   6.785   4.039
  737TIP3    H1 2168   6.033   6.833   4.106
  737TIP3    H2 2169   6.069   6.693   4.061
  738TIP3   OH2 2170   0.765   5.939   3.107
  738TIP3    H1 2171   0.723   5.990   3.038
  738TIP3    H2 2172   0.831   5.998   3.144
  739TIP3   OH2 2173   4.588   5.386   2.787
  739TIP3    H1 2174   4.529   5.333   2.841
  739TIP3    H2 2175   4.530   5.446   2.740
  740TIP3   OH2 2176   7.683   6.436   2.546
  740TIP3    H1 2177   7.599   6.468   2.513
  740TIP3    H2 2178   7.704   6.361   2.491
  741TIP3   OH2 2179   4.109   3.537   1.799
  741TIP3    H1 2180   4.037   3.481   1.772
  741TIP3    H2 2181   4.167   3.479   1.849
  742TIP3   OH2 2182   8.114   0.937   1.564
  742TIP3    H1 2183   8.118   1.032   1.580
  742TIP3    H2 2184   8.039   0.907   1.615
  743TIP3   OH2 2185   7.053   3.927   2.642
  743TIP3    H1 2186   7.034   3.994   2.707
  743TIP3    H2 2187   7.144   3.943   2.616
  744TIP3   OH2 2188   2.315   2.925   0.704
  744TIP3    H1 2189   2.266   2.878   0.638
  744TIP3    H2 2190   2.407   2.901   0.688
  745TIP3   OH2 2191   2.919   3.752   3.981
  745TIP3    H1 2192   2.852   3.819   3.968
  745TIP3    H2 2193   2.922   3.738   4.076
  746TIP3   OH2 2194   8.243   5.683   1.929
  746TIP3    H1 2195   8.328   5.717   1.902
  746TIP3    H2 2196   8.259   5.590   1.946
  747TIP3   OH2 2197   4.205   4.519   3.979
  747TIP3    H1 2198   4.274   4.574   4.016
  747TIP3    H2 2199   4.154   4.578   3.923
  748TIP3   OH2 2200   0.001   0.466   5.166
  748TIP3    H1 2201   0.021   0.403   5.235
  748TIP3    H2 2202  -0.011   0.549   5.213
  749TIP3   OH2 2203   4.626   7.741   4.135
  749TIP3    H1 2204   4.544   7.788   4.154
  749TIP3    H2 2205   4.661   7.719   4.222
  750TIP3   OH2 2206   0.636   5.184   1.702
  750TIP3    H1 2207   0.629   5.249   1.632
  750TIP3    H2 2208   0.550   5.185   1.745
  751TIP3   OH2 2209   5.710   2.603   1.102
  751TIP3    H1 2210   5.670   2.603   1.015
  751TIP3    H2 2211   5.744   2.514   1.112
  752TIP3   OH2 2212   4.835   7.410   2.318
  752TIP3    H1 2213   4.825   7.375   2.230
  752TIP3    H2 2214   4.820   7.335   2.376
  753TIP3   OH2 2215   5.464   6.174   5.726
  753TIP3    H1 2216   5.552   6.166   5.762
  753TIP3    H2 2217   5.409   6.123   5.785
  754TIP3   OH2 2218   3.333   6.152   3.918
  754TIP3    H1 2219   3.360   6.174   4.007
  754TIP3    H2 2220   3.263   6.214   3.898
  755TIP3   OH2 2221   5.700   5.463   2.731
  755TIP3    H1 2222   5.686   5.473   2.637
  755TIP3    H2 2223   5.642   5.392   2.757
  756TIP3   OH2 2224   6.170   0.120   5.443
  756TIP3    H1 2225   6.258   0.150   5.420
  756TIP3    H2 2226   6.131   0.094   5.359
  757TIP3   OH2 2227   4.247   6.457   4.305
  757TIP3    H1 2228   4.152   6.451   4.320
  757TIP3    H2 2229   4.270   6.372   4.267
  758TIP3   OH2 2230   4.828   4.254   2.044
  758TIP3    H1 2231   4.826   4.263   2.139
  758TIP3    H2 2232   4.921   4.256   2.022
  759TIP3   OH2 2233   0.150   1.534   5.684
  759TIP3    H1 2234   0.116   1.477   5.754
  759TIP3    H2 2235   0.080   1.538   5.619
  760TIP3   OH2 2236   5.278   6.978   2.020
  760TIP3    H1 2237   5.247   6.922   1.949
  760TIP3    H2 2238   5.200   7.025   2.049
  761TIP3   OH2 2239   5.090   6.915   3.288
  761TIP3    H1 2240   5.148   6.863   3.345
  761TIP3    H2 2241   5.012   6.861   3.279
  762TIP3   OH2 2242   8.063   0.789   1.305
  762TIP3    H1 2243   8.067   0.824   1.394
  762TIP3    H2 2244   8.076   0.695   1.315
  763TIP3   OH2 2245   2.820   5.950   4.661
  763TIP3    H1 2246   2.750   5.989   4.712
  763TIP3    H2 2247   2.875   5.905   4.726
  764TIP3   OH2 2248   0.829   2.554   2.696
  764TIP3    H1 2249   0.811   2.640   2.734
  764TIP3    H2 2250   0.799   2.492   2.762
  765TIP3   OH2 2251   2.329   2.665   2.825
  765TIP3    H1 2252   2.415   2.672   2.783
  765TIP3    H2 2253   2.308   2.572   2.821
  766TIP3   OH2 2254   2.344   0.077   6.096
  766TIP3    H1 2255   2.369   0.024   6.020
  766TIP3    H2 2256   2.311   0.158   6.058
  767TIP3   OH2 2257   2.631   2.867   5.426
  767TIP3    H1 2258   2.641   2.914   5.343
  767TIP3    H2 2259   2.695   2.797   5.423
  768TIP3   OH2 2260   1.616   0.821   1.371
  768TIP3    H1 2261   1.574   0.880   1.308
  768TIP3    H2 2262   1.707   0.814   1.340
  769TIP3   OH2 2263   5.152   4.208   0.318
  769TIP3    H1 2264   5.062   4.199   0.286
  769TIP3    H2 2265   5.199   4.250   0.246
  770TIP3   OH2 2266   5.087   1.067   6.719
  770TIP3    H1 2267   5.094   1.009   6.642
  770TIP3    H2 2268   5.129   1.017   6.789
  771TIP3   OH2 2269   3.145   0.678   4.623
  771TIP3    H1 2270   3.102   0.760   4.599
  771TIP3    H2 2271   3.102   0.611   4.570
  772TIP3   OH2 2272   1.205   4.936   1.792
  772TIP3    H1 2273   1.198   5.029   1.772
  772TIP3    H2 2274   1.232   4.933   1.884
  773TIP3   OH2 2275   2.055   1.792   6.253
  773TIP3    H1 2276   2.067   1.779   6.159
  773TIP3    H2 2277   2.133   1.842   6.280
  774TIP3   OH2 2278   0.275   6.393   2.216
  774TIP3    H1 2279   0.222   6.319   2.245
  774TIP3    H2 2280   0.321   6.422   2.294
  775TIP3   OH2 2281   2.881   7.145   1.525
  775TIP3    H1 2282   2.858   7.235   1.549
  775TIP3    H2 2283   2.967   7.131   1.564
  776TIP3   OH2 2284   2.299   5.896   5.665
  776TIP3    H1 2285   2.326   5.852   5.584
  776TIP3    H2 2286   2.362   5.865   5.731
  777TIP3   OH2 2287   4.673   3.589   5.906
  777TIP3    H1 2288   4.650   3.502   5.941
  777TIP3    H2 2289   4.702   3.638   5.983
  778TIP3   OH2 2290   0.558   4.533   1.111
  778TIP3    H1 2291   0.607   4.592   1.168
  778TIP3    H2 2292   0.611   4.454   1.105
  779TIP3   OH2 2293   6.532   2.369   0.812
  779TIP3    H1 2294   6.619   2.369   0.772
  779TIP3    H2 2295   6.475   2.334   0.744
  780TIP3   OH2 2296   5.901   7.542   3.611
  780TIP3    H1 2297   5.976   7.602   3.618
  780TIP3    H2 2298   5.858   7.566   3.529
  781TIP3   OH2 2299   6.539   2.915   6.077
  781TIP3    H1 2300   6.570   2.853   6.144
  781TIP3    H2 2301   6.503   2.988   6.127
  782TIP3   OH2 2302   3.559   3.955   1.844
  782TIP3    H1 2303   3.576   4.039   1.802
  782TIP3    H2 2304   3.627   3.897   1.809
  783TIP3   OH2 2305   3.273   4.731   3.803
  783TIP3    H1 2306   3.303   4.760   3.889
  783TIP3    H2 2307   3.353   4.705   3.757
  784TIP3   OH2 2308   8.252   6.214   1.285
  784TIP3    H1 2309   8.232   6.125   1.255
  784TIP3    H2 2310   8.241   6.269   1.208
  785TIP3   OH2 2311   1.741   6.001   4.851
  785TIP3    H1 2312   1.796   5.926   4.828
  785TIP3    H2 2313   1.726   5.992   4.945
  786TIP3   OH2 2314   0.828   7.423   2.654
  786TIP3    H1 2315   0.920   7.441   2.673
  786TIP3    H2 2316   0.781   7.461   2.729
  787TIP3   OH2 2317   6.700   2.799   4.348
  787TIP3    H1 2318   6.630   2.746   4.308
  787TIP3    H2 2319   6.756   2.735   4.392
  788TIP3   OH2 2320   7.168   6.628   2.827
  788TIP3    H1 2321   7.252   6.613   2.784
  788TIP3    H2 2322   7.191   6.668   2.911
  789TIP3   OH2 2323   5.617   1.466   3.622
  789TIP3    H1 2324   5.665   1.411   3.684
  789TIP3    H2 2325   5.591   1.407   3.551
  790TIP3   OH2 2326   2.015   0.162   4.063
  790TIP3    H1 2327   2.103   0.157   4.102
  790TIP3    H2 2328   2.031   0.173   3.969
  791TIP3   OH2 2329   6.710   4.611   4.481
  791TIP3    H1 2330   6.732   4.692   4.434
  791TIP3    H2 2331   6.625   4.585   4.444
  792TIP3   OH2 2332   0.448   7.332   3.790
  792TIP3    H1 2333   0.420   7.387   3.864
  792TIP3    H2 2334   0.537   7.306   3.811
  793TIP3   OH2 2335   5.822   0.936   1.751
  793TIP3    H1 2336   5.757   0.878   1.711
  793TIP3    H2 2337   5.801   1.023   1.716
  794TIP3   OH2 2338   8.154   1.866   5.562
  794TIP3    H1 2339   8.186   1.932   5.501
  794TIP3    H2 2340   8.061   1.859   5.544
  795TIP3   OH2 2341   1.462   7.315   6.532
  795TIP3    H1 2342   1.457   7.317   6.627
  795TIP3    H2 2343   1.375   7.345   6.503
  796TIP3   OH2 2344   4.196   6.241   1.772
  796TIP3    H1 2345   4.179   6.159   1.818
  796TIP3    H2 2346   4.151   6.231   1.687
  797TIP3   OH2 2347   4.085   6.723   5.920
  797TIP3    H1 2348   4.158   6.672   5.955
  797TIP3    H2 2349   4.117   6.813   5.918
  798TIP3   OH2 2350   5.403   0.556   5.336
  798TIP3    H1 2351   5.383   0.556   5.242
  798TIP3    H2 2352   5.383   0.645   5.364
  799TIP3   OH2 2353   6.934   4.440   0.504
  799TIP3    H1 2354   6.910   4.364   0.450
  799TIP3    H2 2355   6.892   4.514   0.460
  800TIP3   OH2 2356   5.191   0.251   1.560
  800TIP3    H1 2357   5.161   0.243   1.650
  800TIP3    H2 2358   5.132   0.316   1.521
  801TIP3   OH2 2359   5.772   4.679   4.022
  801TIP3    H1 2360   5.768   4.645   4.111
  801TIP3    H2 2361   5.851   4.640   3.985
  802TIP3   OH2 2362   4.516   2.948   0.186
  802TIP3    H1 2363   4.599   2.945   0.139
  802TIP3    H2 2364   4.462   3.007   0.134
  803TIP3   OH2 2365   4.074   6.242   1.032
  803TIP3    H1 2366   4.040   6.209   0.948
  803TIP3    H2 2367   4.135   6.311   1.007
  804TIP3   OH2 2368   3.013   4.112   0.054
  804TIP3    H1 2369   2.940   4.084   0.110
  804TIP3    H2 2370   2.971   4.160  -0.017
  805TIP3   OH2 2371   4.286   7.277   3.503
  805TIP3    H1 2372   4.341   7.355   3.501
  805TIP3    H2 2373   4.282   7.248   3.411
  806TIP3   OH2 2374   5.301   7.178   6.587
  806TIP3    H1 2375   5.219   7.134   6.564
  806TIP3    H2 2376   5.297   7.262   6.540
  807TIP3   OH2 2377   2.143   2.973   5.647
  807TIP3    H1 2378   2.148   3.054   5.698
  807TIP3    H2 2379   2.096   2.998   5.567
  808TIP3   OH2 2380   6.781   3.617   5.208
  808TIP3    H1 2381   6.741   3.539   5.246
  808TIP3    H2 2382   6.850   3.642   5.270
  809TIP3   OH2 2383   0.174   7.350   6.218
  809TIP3    H1 2384   0.219   7.290   6.158
  809TIP3    H2 2385   0.139   7.294   6.286
  810TIP3   OH2 2386   2.660   0.091   1.178
  810TIP3    H1 2387   2.575   0.128   1.152
  810TIP3    H2 2388   2.701   0.160   1.230
  811TIP3   OH2 2389   3.038   6.889   0.864
  811TIP3    H1 2390   3.016   6.927   0.779
  811TIP3    H2 2391   3.002   6.800   0.860
  812TIP3   OH2 2392   2.240   1.098   3.783
  812TIP3    H1 2393   2.206   1.013   3.756
  812TIP3    H2 2394   2.333   1.082   3.798
  813TIP3   OH2 2395   2.730   2.803   6.486
  813TIP3    H1 2396   2.698   2.748   6.557
  813TIP3    H2 2397   2.812   2.762   6.458
  814TIP3   OH2 2398   6.709   2.166   0.064
  814TIP3    H1 2399   6.626   2.154   0.018
  814TIP3    H2 2400   6.768   2.201  -0.003
  815TIP3   OH2 2401   3.361   0.156   1.430
  815TIP3    H1 2402   3.372   0.227   1.494
  815TIP3    H2 2403   3.329   0.200   1.351
  816TIP3   OH2 2404   4.095   7.525   6.275
  816TIP3    H1 2405   4.028   7.469   6.235
  816TIP3    H2 2406   4.171   7.516   6.219
  817TIP3   OH2 2407   3.038   6.175   6.667
  817TIP3    H1 2408   3.057   6.082   6.686
  817TIP3    H2 2409   2.949   6.188   6.699
  818TIP3   OH2 2410   6.259   4.537   2.414
  818TIP3    H1 2411   6.354   4.547   2.410
  818TIP3    H2 2412   6.246   4.448   2.446
  819TIP3   OH2 2413   4.188   5.379   3.978
  819TIP3    H1 2414   4.100   5.348   3.952
  819TIP3    H2 2415   4.193   5.360   4.072
  820TIP3   OH2 2416   2.536   1.566   6.658
  820TIP3    H1 2417   2.494   1.581   6.743
  820TIP3    H2 2418   2.546   1.471   6.653
  821TIP3   OH2 2419   5.097   4.613   3.415
  821TIP3    H1 2420   5.159   4.604   3.488
  821TIP3    H2 2421   5.115   4.536   3.360
  822TIP3   OH2 2422   0.789   2.531   5.446
  822TIP3    H1 2423   0.755   2.541   5.357
  822TIP3    H2 2424   0.807   2.621   5.474
  823TIP3   OH2 2425   1.218   2.092   2.703
  823TIP3    H1 2426   1.298   2.128   2.666
  823TIP3    H2 2427   1.149   2.121   2.644
  824TIP3   OH2 2428   4.359   5.612   6.610
  824TIP3    H1 2429   4.433   5.658   6.649
  824TIP3    H2 2430   4.395   5.527   6.583
  825TIP3   OH2 2431   2.446   5.321   3.304
  825TIP3    H1 2432   2.466   5.352   3.216
  825TIP3    H2 2433   2.519   5.351   3.358
  826TIP3   OH2 2434   2.446   6.173   4.274
  826TIP3    H1 2435   2.429   6.085   4.309
  826TIP3    H2 2436   2.538   6.170   4.247
  827TIP3   OH2 2437   0.183   7.214   1.203
  827TIP3    H1 2438   0.230   7.254   1.130
  827TIP3    H2 2439   0.251   7.167   1.252
  828TIP3   OH2 2440   2.788   5.170   5.792
  828TIP3    H1 2441   2.809   5.231   5.862
  828TIP3    H2 2442   2.723   5.111   5.830
  829TIP3   OH2 2443   4.039   5.313   1.220
  829TIP3    H1 2444   3.963   5.286   1.272
  829TIP3    H2 2445   4.093   5.234   1.216
  830TIP3   OH2 2446   7.498   2.094   5.505
  830TIP3    H1 2447   7.560   2.095   5.579
  830TIP3    H2 2448   7.527   2.021   5.451
  831TIP3   OH2 2449   6.089   7.291   1.972
  831TIP3    H1 2450   6.169   7.254   1.935
  831TIP3    H2 2451   6.094   7.273   2.065
  832TIP3   OH2 2452   0.837   2.557   2.395
  832TIP3    H1 2453   0.755   2.603   2.377
  832TIP3    H2 2454   0.829   2.528   2.486
  833TIP3   OH2 2455   2.749   5.653   4.850
  833TIP3    H1 2456   2.813   5.691   4.911
  833TIP3    H2 2457   2.794   5.577   4.813
  834TIP3   OH2 2458   4.531   5.507   5.585
  834TIP3    H1 2459   4.534   5.498   5.490
  834TIP3    H2 2460   4.450   5.555   5.602
  835TIP3   OH2 2461   2.787   5.073   0.314
  835TIP3    H1 2462   2.853   5.063   0.384
  835TIP3    H2 2463   2.835   5.053   0.234
  836TIP3   OH2 2464   4.845   7.166   2.457
  836TIP3    H1 2465   4.812   7.102   2.520
  836TIP3    H2 2466   4.911   7.119   2.406
  837TIP3   OH2 2467   3.349   2.914   0.100
  837TIP3    H1 2468   3.282   2.982   0.102
  837TIP3    H2 2469   3.302   2.834   0.078
  838TIP3   OH2 2470   8.065   7.328   2.952
  838TIP3    H1 2471   8.048   7.339   2.859
  838TIP3    H2 2472   7.979   7.313   2.992
  839TIP3   OH2 2473   5.514   0.289   6.018
  839TIP3    H1 2474   5.560   0.230   5.959
  839TIP3    H2 2475   5.583   0.338   6.062
  840TIP3   OH2 2476   4.896   1.742   4.080
  840TIP3    H1 2477   4.860   1.670   4.028
  840TIP3    H2 2478   4.821   1.774   4.131
  841TIP3   OH2 2479   6.575   5.868   2.432
  841TIP3    H1 2480   6.608   5.957   2.416
  841TIP3    H2 2481   6.548   5.836   2.346
  842TIP3   OH2 2482   2.638   3.974   2.492
  842TIP3    H1 2483   2.709   3.939   2.547
  842TIP3    H2 2484   2.602   4.046   2.544
  843TIP3   OH2 2485   4.112   5.054   4.708
  843TIP3    H1 2486   4.119   5.095   4.794
  843TIP3    H2 2487   4.185   4.992   4.705
  844TIP3   OH2 2488   6.227   6.969   3.614
  844TIP3    H1 2489   6.287   6.995   3.684
  844TIP3    H2 2490   6.283   6.959   3.537
  845TIP3   OH2 2491   0.580   1.213   1.187
  845TIP3    H1 2492   0.544   1.174   1.107
  845TIP3    H2 2493   0.629   1.142   1.228
  846TIP3   OH2 2494   0.082   1.925   4.904
  846TIP3    H1 2495   0.162   1.931   4.955
  846TIP3    H2 2496   0.062   2.015   4.879
  847TIP3   OH2 2497   1.390   7.402   4.891
  847TIP3    H1 2498   1.462   7.341   4.908
  847TIP3    H2 2499   1.320   7.372   4.949
  848TIP3   OH2 2500   3.836   0.540   6.530
  848TIP3    H1 2501   3.918   0.538   6.580
  848TIP3    H2 2502   3.862   0.518   6.441
  849TIP3   OH2 2503   5.462   7.081   3.530
  849TIP3    H1 2504   5.497   7.084   3.619
  849TIP3    H2 2505   5.526   7.127   3.477
  850TIP3   OH2 2506   1.166   2.041   0.616
  850TIP3    H1 2507   1.117   1.987   0.554
  850TIP3    H2 2508   1.102   2.061   0.685
  851TIP3   OH2 2509   5.004   4.069   4.282
  851TIP3    H1 2510   4.998   4.001   4.348
  851TIP3    H2 2511   5.003   4.022   4.199
  852TIP3   OH2 2512   2.096   2.998   6.742
  852TIP3    H1 2513   2.018   3.046   6.771
  852TIP3    H2 2514   2.134   2.963   6.823
  853TIP3   OH2 2515   6.985   6.423   2.957
  853TIP3    H1 2516   7.038   6.486   2.907
  853TIP3    H2 2517   7.043   6.348   2.970
  854TIP3   OH2 2518   1.870   7.263   2.779
  854TIP3    H1 2519   1.841   7.342   2.824
  854TIP3    H2 2520   1.922   7.216   2.844
  855TIP3   OH2 2521   0.439   3.623   2.763
  855TIP3    H1 2522   0.531   3.641   2.742
  855TIP3    H2 2523   0.425   3.532   2.737
  856TIP3   OH2 2524   3.561   6.613   2.855
  856TIP3    H1 2525   3.534   6.546   2.792
  856TIP3    H2 2526   3.596   6.563   2.930
  857TIP3   OH2 2527   6.843   0.891   6.238
  857TIP3    H1 2528   6.829   0.798   6.222
  857TIP3    H2 2529   6.815   0.905   6.329
  858TIP3   OH2 2530   6.448   0.273   3.730
  858TIP3    H1 2531   6.356   0.290   3.709
  858TIP3    H2 2532   6.452   0.277   3.826
  859TIP3   OH2 2533   5.594   6.945   5.393
  859TIP3    H1 2534   5.519   6.902   5.352
  859TIP3    H2 2535   5.646   6.976   5.319
  860TIP3   OH2 2536   2.617   1.764   0.775
  860TIP3    H1 2537   2.664   1.681   0.776
  860TIP3    H2 2538   2.672   1.823   0.826
  861TIP3   OH2 2539   2.187   4.150   5.311
  861TIP3    H1 2540   2.245   4.075   5.299
  861TIP3    H2 2541   2.111   4.130   5.258
  862TIP3   OH2 2542   1.749   0.561   4.526
  862TIP3    H1 2543   1.803   0.484   4.510
  862TIP3    H2 2544   1.731   0.559   4.620
  863TIP3   OH2 2545   7.265   1.909   4.578
  863TIP3    H1 2546   7.266   1.877   4.668
  863TIP3    H2 2547   7.172   1.922   4.559
  864TIP3   OH2 2548   5.738   1.722   6.021
  864TIP3    H1 2549   5.825   1.760   6.013
  864TIP3    H2 2550   5.711   1.705   5.930
  865TIP3   OH2 2551   6.620   0.583   4.823
  865TIP3    H1 2552   6.529   0.608   4.808
  865TIP3    H2 2553   6.654   0.562   4.736
  866TIP3   OH2 2554   2.011   4.785   3.440
  866TIP3    H1 2555   2.092   4.779   3.490
  866TIP3    H2 2556   1.985   4.694   3.424
  867TIP3   OH2 2557   4.666   6.094   3.986
  867TIP3    H1 2558   4.723   6.072   4.060
  867TIP3    H2 2559   4.608   6.020   3.977
  868TIP3   OH2 2560   5.533   2.745   2.224
  868TIP3    H1 2561   5.576   2.797   2.156
  868TIP3    H2 2562   5.567   2.781   2.306
  869TIP3   OH2 2563   3.035   6.049   2.765
  869TIP3    H1 2564   3.130   6.057   2.756
  869TIP3    H2 2565   3.001   6.131   2.730
  870TIP3   OH2 2566   4.506   0.783   0.458
  870TIP3    H1 2567   4.481   0.776   0.550
  870TIP3    H2 2568   4.425   0.805   0.412
  871TIP3   OH2 2569   6.638   3.866   4.585
  871TIP3    H1 2570   6.684   3.837   4.507
  871TIP3    H2 2571   6.584   3.791   4.611
  872TIP3   OH2 2572   3.018   0.856   6.140
  872TIP3    H1 2573   3.004   0.769   6.178
  872TIP3    H2 2574   3.028   0.840   6.047
  873TIP3   OH2 2575   1.815   5.268   6.173
  873TIP3    H1 2576   1.846   5.349   6.214
  873TIP3    H2 2577   1.720   5.278   6.169
  874TIP3   OH2 2578   3.471   4.194   5.614
  874TIP3    H1 2579   3.556   4.172   5.652
  874TIP3    H2 2580   3.469   4.290   5.612
  875TIP3   OH2 2581   4.307   3.092   3.922
  875TIP3    H1 2582   4.212   3.084   3.923
  875TIP3    H2 2583   4.325   3.174   3.967
  876TIP3   OH2 2584   3.610   3.357   2.777
  876TIP3    H1 2585   3.561   3.434   2.805
  876TIP3    H2 2586   3.655   3.385   2.697
  877TIP3   OH2 2587   6.175   0.018   0.314
  877TIP3    H1 2588   6.098   0.008   0.258
  877TIP3    H2 2589   6.244   0.045   0.254
  878TIP3   OH2 2590   5.046   7.160   3.592
  878TIP3    H1 2591   5.110   7.172   3.522
  878TIP3    H2 2592   5.048   7.066   3.612
  879TIP3   OH2 2593   6.364   6.251   5.156
  879TIP3    H1 2594   6.362   6.155   5.153
  879TIP3    H2 2595   6.304   6.274   5.227
  880TIP3   OH2 2596   5.174   5.154   4.062
  880TIP3    H1 2597   5.179   5.064   4.094
  880TIP3    H2 2598   5.082   5.166   4.040
  881TIP3   OH2 2599   5.083   2.685   2.885
  881TIP3    H1 2600   5.030   2.607   2.875
  881TIP3    H2 2601   5.169   2.660   2.849
  882TIP3   OH2 2602   0.173   7.505   5.107
  882TIP3    H1 2603   0.116   7.554   5.047
  882TIP3    H2 2604   0.123   7.502   5.189
  883TIP3   OH2 2605   5.640   1.459   6.657
  883TIP3    H1 2606   5.619   1.390   6.594
  883TIP3    H2 2607   5.729   1.486   6.634
  884TIP3   OH2 2608   0.087   7.587   6.131
  884TIP3    H1 2609   0.103   7.591   6.037
  884TIP3    H2 2610   0.127   7.504   6.159
  885TIP3   OH2 2611   6.388   4.838   4.519
  885TIP3    H1 2612   6.483   4.837   4.504
  885TIP3    H2 2613   6.378   4.821   4.613
  886TIP3   OH2 2614   5.930   6.308   4.694
  886TIP3    H1 2615   5.895   6.360   4.766
  886TIP3    H2 2616   6.020   6.340   4.683
  887TIP3   OH2 2617   0.835   0.843   3.713
  887TIP3    H1 2618   0.772   0.774   3.691
  887TIP3    H2 2619   0.806   0.875   3.799
  888TIP3   OH2 2620   8.141   3.945   2.217
  888TIP3    H1 2621   8.102   3.880   2.158
  888TIP3    H2 2622   8.235   3.941   2.198
  889TIP3   OH2 2623   6.989   3.552   3.446
  889TIP3    H1 2624   6.947   3.466   3.458
  889TIP3    H2 2625   6.924   3.604   3.399
  890TIP3   OH2 2626   4.992   4.875   4.861
  890TIP3    H1 2627   4.922   4.877   4.796
  890TIP3    H2 2628   5.058   4.817   4.824
  891TIP3   OH2 2629   2.508   5.020   2.493
  891TIP3    H1 2630   2.524   4.994   2.402
  891TIP3    H2 2631   2.464   5.105   2.485
  892TIP3   OH2 2632   3.816   7.147   1.108
  892TIP3    H1 2633   3.758   7.199   1.165
  892TIP3    H2 2634   3.764   7.071   1.083
  893TIP3   OH2 2635   7.812   6.265   1.884
  893TIP3    H1 2636   7.900   6.244   1.852
  893TIP3    H2 2637   7.807   6.223   1.970
  894TIP3   OH2 2638   6.995   5.450   4.559
  894TIP3    H1 2639   7.087   5.445   4.584
  894TIP3    H2 2640   6.966   5.536   4.590
  895TIP3   OH2 2641   5.373   3.344   4.232
  895TIP3    H1 2642   5.378   3.306   4.320
  895TIP3    H2 2643   5.280   3.340   4.209
  896TIP3   OH2 2644   1.475   7.228   6.007
  896TIP3    H1 2645   1.446   7.220   6.098
  896TIP3    H2 2646   1.570   7.216   6.010
  897TIP3   OH2 2647   4.856   0.703   3.599
  897TIP3    H1 2648   4.864   0.798   3.590
  897TIP3    H2 2649   4.910   0.683   3.676
  898TIP3   OH2 2650   4.397   7.505   3.117
  898TIP3    H1 2651   4.493   7.506   3.115
  898TIP3    H2 2652   4.372   7.597   3.126
  899TIP3   OH2 2653   2.948   4.515   6.141
  899TIP3    H1 2654   2.893   4.590   6.118
  899TIP3    H2 2655   2.970   4.528   6.234
  900TIP3   OH2 2656   0.901   3.146   3.612
  900TIP3    H1 2657   0.860   3.230   3.629
  900TIP3    H2 2658   0.936   3.154   3.523
  901TIP3   OH2 2659   7.484   7.442   1.260
  901TIP3    H1 2660   7.435   7.381   1.205
  901TIP3    H2 2661   7.428   7.520   1.264
  902TIP3   OH2 2662   1.947   4.236   5.732
  902TIP3    H1 2663   2.036   4.234   5.697
  902TIP3    H2 2664   1.932   4.329   5.754
  903TIP3   OH2 2665   5.013   3.248   1.250
  903TIP3    H1 2666   4.961   3.168   1.254
  903TIP3    H2 2667   5.102   3.218   1.230
  904TIP3   OH2 2668   0.946   0.651   4.965
  904TIP3    H1 2669   0.896   0.732   4.970
  904TIP3    H2 2670   0.992   0.656   4.881
  905TIP3   OH2 2671   2.753   2.054   5.868
  905TIP3    H1 2672   2.666   2.030   5.837
  905TIP3    H2 2673   2.749   2.040   5.963
  906TIP3   OH2 2674   3.073   7.677   5.319
  906TIP3    H1 2675   3.110   7.726   5.392
  906TIP3    H2 2676   2.981   7.703   5.316
  907TIP3   OH2 2677   8.104   6.125   3.876
  907TIP3    H1 2678   8.025   6.157   3.833
  907TIP3    H2 2679   8.080   6.038   3.909
  908TIP3   OH2 2680   7.104   0.651   6.257
  908TIP3    H1 2681   7.017   0.640   6.219
  908TIP3    H2 2682   7.155   0.692   6.187
  909TIP3   OH2 2683   7.938   4.722   5.375
  909TIP3    H1 2684   7.945   4.766   5.290
  909TIP3    H2 2685   7.871   4.771   5.422
  910TIP3   OH2 2686   3.440   6.064   5.010
  910TIP3    H1 2687   3.394   6.122   5.071
  910TIP3    H2 2688   3.454   5.984   5.060
  911TIP3   OH2 2689   1.711   4.730   5.342
  911TIP3    H1 2690   1.766   4.677   5.400
  911TIP3    H2 2691   1.621   4.713   5.372
  912TIP3   OH2 2692   0.317   0.912   4.200
  912TIP3    H1 2693   0.407   0.885   4.216
  912TIP3    H2 2694   0.297   0.973   4.271
  913TIP3   OH2 2695   3.387   7.736   4.995
  913TIP3    H1 2696   3.473   7.769   4.968
  913TIP3    H2 2697   3.407   7.670   5.061
  914TIP3   OH2 2698   4.984   6.262   0.141
  914TIP3    H1 2699   4.951   6.230   0.225
  914TIP3    H2 2700   4.940   6.208   0.076
  915TIP3   OH2 2701   7.259   5.251   6.279
  915TIP3    H1 2702   7.337   5.289   6.319
  915TIP3    H2 2703   7.269   5.270   6.185
  916TIP3   OH2 2704   3.379   4.205   4.958
  916TIP3    H1 2705   3.469   4.174   4.943
  916TIP3    H2 2706   3.369   4.279   4.897
  917TIP3   OH2 2707   6.700   1.852   1.378
  917TIP3    H1 2708   6.652   1.815   1.303
  917TIP3    H2 2709   6.685   1.790   1.449
  918TIP3   OH2 2710   4.959   7.170   4.264
  918TIP3    H1 2711   5.015   7.245   4.286
  918TIP3    H2 2712   4.891   7.206   4.208
  919TIP3   OH2 2713   6.925   7.172   6.050
  919TIP3    H1 2714   6.970   7.152   6.132
  919TIP3    H2 2715   6.918   7.267   6.049
  920TIP3   OH2 2716   4.038   2.739   4.910
  920TIP3    H1 2717   3.974   2.735   4.981
  920TIP3    H2 2718   4.110   2.682   4.939
  921TIP3   OH2 2719   6.653   6.081   0.260
  921TIP3    H1 2720   6.743   6.064   0.288
  921TIP3    H2 2721   6.603   6.084   0.342
  922TIP3   OH2 2722   1.027   5.140   3.064
  922TIP3    H1 2723   1.040   5.197   2.988
  922TIP3    H2 2724   0.997   5.199   3.133
  923TIP3   OH2 2725   5.463   3.785   2.980
  923TIP3    H1 2726   5.407   3.716   2.946
  923TIP3    H2 2727   5.527   3.738   3.034
  924TIP3   OH2 2728   0.131   3.710   2.433
  924TIP3    H1 2729   0.164   3.714   2.523
  924TIP3    H2 2730   0.183   3.775   2.386
  925TIP3   OH2 2731   5.034   6.173   1.283
  925TIP3    H1 2732   5.060   6.091   1.243
  925TIP3    H2 2733   5.036   6.156   1.377
  926TIP3   OH2 2734   0.592   1.066   4.455
  926TIP3    H1 2735   0.497   1.071   4.465
  926TIP3    H2 2736   0.613   0.973   4.470
  927TIP3   OH2 2737   4.983   7.399   5.493
  927TIP3    H1 2738   4.976   7.480   5.442
  927TIP3    H2 2739   4.929   7.415   5.570
  928TIP3   OH2 2740   4.165   1.076   6.291
  928TIP3    H1 2741   4.252   1.049   6.261
  928TIP3    H2 2742   4.181   1.115   6.377
  929TIP3   OH2 2743   3.985   6.397   4.691
  929TIP3    H1 2744   3.931   6.437   4.759
  929TIP3    H2 2745   3.932   6.324   4.658
  930TIP3   OH2 2746   5.952   2.186   2.272
  930TIP3    H1 2747   5.956   2.267   2.220
  930TIP3    H2 2748   5.981   2.213   2.359
  931TIP3   OH2 2749   6.063   6.667   4.706
  931TIP3    H1 2750   6.019   6.606   4.765
  931TIP3    H2 2751   6.067   6.749   4.755
  932TIP3   OH2 2752   3.067   1.726   4.029
  932TIP3    H1 2753   3.084   1.810   3.986
  932TIP3    H2 2754   3.103   1.736   4.117
  933TIP3   OH2 2755   1.071   1.238   6.401
  933TIP3    H1 2756   1.040   1.244   6.492
  933TIP3    H2 2757   1.117   1.154   6.397
  934TIP3   OH2 2758   2.561   6.758   6.710
  934TIP3    H1 2759   2.630   6.692   6.709
  934TIP3    H2 2760   2.578   6.813   6.634
  935TIP3   OH2 2761   5.108   1.998   0.944
  935TIP3    H1 2762   5.079   2.089   0.951
  935TIP3    H2 2763   5.146   1.991   0.857
  936TIP3   OH2 2764   2.659   0.569   5.264
  936TIP3    H1 2765   2.744   0.527   5.248
  936TIP3    H2 2766   2.677   0.663   5.258
  937TIP3   OH2 2767   0.017   6.186   6.039
  937TIP3    H1 2768  -0.068   6.165   6.078
  937TIP3    H2 2769   0.081   6.136   6.089
  938TIP3   OH2 2770   3.824   6.236   4.534
  938TIP3    H1 2771   3.754   6.301   4.526
  938TIP3    H2 2772   3.778   6.154   4.550
  939TIP3   OH2 2773   6.928   6.233   4.192
  939TIP3    H1 2774   6.973   6.177   4.255
  939TIP3    H2 2775   6.990   6.304   4.175
  940TIP3   OH2 2776   4.192   3.295   2.117
  940TIP3    H1 2777   4.126   3.321   2.182
  940TIP3    H2 2778   4.250   3.235   2.165
  941TIP3   OH2 2779   6.374   6.957   0.840
  941TIP3    H1 2780   6.469   6.948   0.834
  941TIP3    H2 2781   6.350   7.004   0.760
  942TIP3   OH2 2782   3.691   5.028   1.974
  942TIP3    H1 2783   3.782   5.035   1.948
  942TIP3    H2 2784   3.642   5.033   1.891
  943TIP3   OH2 2785   2.470   3.082   5.772
  943TIP3    H1 2786   2.386   3.079   5.818
  943TIP3    H2 2787   2.447   3.064   5.681
  944TIP3   OH2 2788   0.086   0.061   2.129
  944TIP3    H1 2789   0.072   0.001   2.203
  944TIP3    H2 2790   0.177   0.090   2.138
  945TIP3   OH2 2791   7.505   5.247   3.959
  945TIP3    H1 2792   7.557   5.177   3.998
  945TIP3    H2 2793   7.566   5.294   3.902
  946TIP3   OH2 2794   3.801   7.288   4.738
  946TIP3    H1 2795   3.843   7.275   4.823
  946TIP3    H2 2796   3.873   7.309   4.678
  947TIP3   OH2 2797   1.874   3.966   1.021
  947TIP3    H1 2798   1.844   3.911   1.093
  947TIP3    H2 2799   1.806   4.033   1.012
  948TIP3   OH2 2800   7.607   0.396   6.656
  948TIP3    H1 2801   7.538   0.386   6.590
  948TIP3    H2 2802   7.568   0.449   6.725
  949TIP3   OH2 2803   3.160   7.754   2.382
  949TIP3    H1 2804   3.108   7.673   2.383
  949TIP3    H2 2805   3.199   7.759   2.469
  950TIP3   OH2 2806   7.764   4.324   4.853
  950TIP3    H1 2807   7.690   4.382   4.865
  950TIP3    H2 2808   7.833   4.380   4.816
  951TIP3   OH2 2809   5.066   3.320   5.806
  951TIP3    H1 2810   5.161   3.320   5.795
  951TIP3    H2 2811   5.035   3.382   5.740
  952TIP3   OH2 2812   1.931   0.835   6.481
  952TIP3    H1 2813   1.868   0.762   6.485
  952TIP3    H2 2814   1.883   0.905   6.436
  953TIP3   OH2 2815   3.544   5.680   6.113
  953TIP3    H1 2816   3.490   5.733   6.171
  953TIP3    H2 2817   3.489   5.605   6.090
  954TIP3   OH2 2818   1.014   3.378   6.474
  954TIP3    H1 2819   1.084   3.370   6.539
  954TIP3    H2 2820   1.038   3.315   6.406
  955TIP3   OH2 2821   5.059   1.844   3.501
  955TIP3    H1 2822   5.126   1.874   3.562
  955TIP3    H2 2823   5.018   1.769   3.544
  956TIP3   OH2 2824   6.384   4.807   6.458
  956TIP3    H1 2825   6.380   4.788   6.552
  956TIP3    H2 2826   6.330   4.739   6.418
  957TIP3   OH2 2827   7.093   4.556   2.749
  957TIP3    H1 2828   7.163   4.535   2.687
  957TIP3    H2 2829   7.094   4.483   2.811
  958TIP3   OH2 2830   6.583   5.276   6.033
  958TIP3    H1 2831   6.674   5.286   6.063
  958TIP3    H2 2832   6.572   5.342   5.965
  959TIP3   OH2 2833   3.213   2.974   5.534
  959TIP3    H1 2834   3.144   3.015   5.585
  959TIP3    H2 2835   3.186   2.882   5.527
  960TIP3   OH2 2836   2.589   2.358   1.521
  960TIP3    H1 2837   2.674   2.354   1.477
  960TIP3    H2 2838   2.541   2.427   1.474
  961TIP3   OH2 2839   1.199   7.371   5.082
  961TIP3    H1 2840   1.135   7.349   5.150
  961TIP3    H2 2841   1.189   7.465   5.069
  962TIP3   OH2 2842   3.385   5.330   0.899
  962TIP3    H1 2843   3.469   5.359   0.863
  962TIP3    H2 2844   3.323   5.341   0.827
  963TIP3   OH2 2845   4.263   6.335   3.749
  963TIP3    H1 2846   4.325   6.262   3.754
  963TIP3    H2 2847   4.315   6.409   3.719
  964TIP3   OH2 2848   7.024   3.360   0.502
  964TIP3    H1 2849   7.053   3.361   0.410
  964TIP3    H2 2850   6.935   3.395   0.499
  965TIP3   OH2 2851   7.189   4.551   4.949
  965TIP3    H1 2852   7.134   4.628   4.931
  965TIP3    H2 2853   7.253   4.582   5.013
  966TIP3   OH2 2854   6.387   3.618   3.306
  966TIP3    H1 2855   6.307   3.632   3.256
  966TIP3    H2 2856   6.375   3.667   3.387
  967TIP3   OH2 2857   7.127   3.939   5.120
  967TIP3    H1 2858   7.127   3.844   5.113
  967TIP3    H2 2859   7.205   3.967   5.072
  968TIP3   OH2 2860   6.931   1.990   5.910
  968TIP3    H1 2861   7.001   2.055   5.913
  968TIP3    H2 2862   6.851   2.042   5.910
  969TIP3   OH2 2863   4.589   5.424   6.591
  969TIP3    H1 2864   4.527   5.405   6.521
  969TIP3    H2 2865   4.542   5.402   6.671
  970TIP3   OH2 2866   0.655   2.194   0.372
  970TIP3    H1 2867   0.705   2.161   0.297
  970TIP3    H2 2868   0.564   2.194   0.342
  971TIP3   OH2 2869   8.248   7.122   3.051
  971TIP3    H1 2870   8.201   7.199   3.019
  971TIP3    H2 2871   8.214   7.108   3.139
  972TIP3   OH2 2872   3.352   7.077   0.498
  972TIP3    H1 2873   3.261   7.092   0.522
  972TIP3    H2 2874   3.374   7.150   0.440
  973TIP3   OH2 2875   0.085   2.960   2.913
  973TIP3    H1 2876  -0.007   2.966   2.937
  973TIP3    H2 2877   0.094   3.014   2.835
  974TIP3   OH2 2878   7.955   6.174   1.598
  974TIP3    H1 2879   8.038   6.214   1.571
  974TIP3    H2 2880   7.888   6.217   1.544
  975TIP3   OH2 2881   5.951   1.118   0.932
  975TIP3    H1 2882   5.939   1.051   0.999
  975TIP3    H2 2883   5.912   1.081   0.853
  976TIP3   OH2 2884   2.815   3.118   2.476
  976TIP3    H1 2885   2.870   3.156   2.407
  976TIP3    H2 2886   2.730   3.161   2.464
  977TIP3   OH2 2887   3.145   4.784   3.077
  977TIP3    H1 2888   3.081   4.823   3.136
  977TIP3    H2 2889   3.107   4.700   3.052
  978TIP3   OH2 2890   5.683   1.145   4.050
  978TIP3    H1 2891   5.649   1.184   3.970
  978TIP3    H2 2892   5.778   1.150   4.042
  979TIP3   OH2 2893   6.959   7.711   3.194
  979TIP3    H1 2894   7.011   7.640   3.233
  979TIP3    H2 2895   7.015   7.745   3.124
  980TIP3   OH2 2896   4.645   7.261   2.902
  980TIP3    H1 2897   4.682   7.341   2.865
  980TIP3    H2 2898   4.579   7.233   2.838
  981TIP3   OH2 2899   4.743   1.346   5.054
  981TIP3    H1 2900   4.783   1.261   5.036
  981TIP3    H2 2901   4.811   1.395   5.101
  982TIP3   OH2 2902   1.994   6.623   0.061
  982TIP3    H1 2903   1.941   6.701   0.045
  982TIP3    H2 2904   1.995   6.615   0.157
  983TIP3   OH2 2905   6.445   6.005   5.390
  983TIP3    H1 2906   6.422   5.918   5.422
  983TIP3    H2 2907   6.407   6.008   5.302
  984TIP3   OH2 2908   3.738   4.218   5.211
  984TIP3    H1 2909   3.691   4.144   5.173
  984TIP3    H2 2910   3.684   4.294   5.190
  985TIP3   OH2 2911   4.109   2.337   5.270
  985TIP3    H1 2912   4.169   2.398   5.315
  985TIP3    H2 2913   4.090   2.380   5.187
  986TIP3   OH2 2914   5.284   7.452   1.549
  986TIP3    H1 2915   5.238   7.468   1.632
  986TIP3    H2 2916   5.356   7.394   1.572
  987TIP3   OH2 2917   6.842   3.218   6.189
  987TIP3    H1 2918   6.794   3.196   6.269
  987TIP3    H2 2919   6.842   3.137   6.138
  988TIP3   OH2 2920   0.237   2.243   2.280
  988TIP3    H1 2921   0.298   2.317   2.274
  988TIP3    H2 2922   0.201   2.249   2.369
  989TIP3   OH2 2923   1.813   5.672   3.578
  989TIP3    H1 2924   1.717   5.666   3.578
  989TIP3    H2 2925   1.843   5.585   3.550
  990TIP3   OH2 2926   7.923   5.572   2.964
  990TIP3    H1 2927   7.997   5.602   2.912
  990TIP3    H2 2928   7.889   5.651   3.006
  991TIP3   OH2 2929   3.895   3.051   5.620
  991TIP3    H1 2930   3.845   3.133   5.621
  991TIP3    H2 2931   3.842   2.992   5.566
  992TIP3   OH2 2932   0.224   3.807   5.239
  992TIP3    H1 2933   0.209   3.792   5.145
  992TIP3    H2 2934   0.312   3.843   5.243
  993TIP3   OH2 2935   1.886   0.227   6.247
  993TIP3    H1 2936   1.854   0.305   6.203
  993TIP3    H2 2937   1.961   0.257   6.298
  994TIP3   OH2 2938   3.425   3.723   4.660
  994TIP3    H1 2939   3.336   3.693   4.644
  994TIP3    H2 2940   3.469   3.712   4.576
  995TIP3   OH2 2941   3.791   5.295   1.335
  995TIP3    H1 2942   3.775   5.200   1.337
  995TIP3    H2 2943   3.711   5.331   1.296
  996TIP3   OH2 2944   2.944   4.130   6.002
  996TIP3    H1 2945   2.963   4.104   6.092
  996TIP3    H2 2946   2.886   4.206   6.011
  997TIP3   OH2 2947   0.060   7.811   3.385
  997TIP3    H1 2948   0.045   7.811   3.479
  997TIP3    H2 2949   0.156   7.812   3.376
  998TIP3   OH2 2950   5.972   4.833   2.704
  998TIP3    H1 2951   6.044   4.780   2.669
  998TIP3    H2 2952   5.896   4.775   2.701
  999TIP3   OH2 2953   6.749   1.102   1.203
  999TIP3    H1 2954   6.677   1.123   1.145
  999TIP3    H2 2955   6.711   1.044   1.269
 1000TIP3   OH2 2956   2.258   4.468   0.572
 1000TIP3    H1 2957   2.171   4.436   0.594
 1000TIP3    H2 2958   2.318   4.416   0.626
 1001TIP3   OH2 2959   7.762   5.947   1.657
 1001TIP3    H1 2960   7.709   6.018   1.691
 1001TIP3    H2 2961   7.839   5.990   1.619
 1002TIP3   OH2 2962   5.594   5.322   3.335
 1002TIP3    H1 2963   5.602   5.242   3.283
 1002TIP3    H2 2964   5.671   5.321   3.392
 1003TIP3   OH2 2965   3.876   3.657   0.528
 1003TIP3    H1 2966   3.883   3.562   0.527
 1003TIP3    H2 2967   3.798   3.676   0.475
 1004TIP3   OH2 2968   3.838   7.518   1.302
 1004TIP3    H1 2969   3.909   7.456   1.316
 1004TIP3    H2 2970   3.881   7.601   1.282
 1005TIP3   OH2 2971   5.566   0.475   4.479
 1005TIP3    H1 2972   5.626   0.407   4.449
 1005TIP3    H2 2973   5.582   0.482   4.573
 1006TIP3   OH2 2974   5.309   6.208   6.322
 1006TIP3    H1 2975   5.223   6.237   6.292
 1006TIP3    H2 2976   5.322   6.123   6.280
 1007TIP3   OH2 2977   7.485   6.473   4.206
 1007TIP3    H1 2978   7.494   6.448   4.298
 1007TIP3    H2 2979   7.399   6.438   4.181
 1008TIP3   OH2 2980   3.450   3.253   3.699
 1008TIP3    H1 2981   3.428   3.344   3.716
 1008TIP3    H2 2982   3.479   3.220   3.784
 1009TIP3   OH2 2983   0.774   1.745   3.106
 1009TIP3    H1 2984   0.739   1.656   3.108
 1009TIP3    H2 2985   0.698   1.802   3.095
 1010TIP3   OH2 2986   1.160   2.872   3.053
 1010TIP3    H1 2987   1.216   2.825   2.991
 1010TIP3    H2 2988   1.189   2.963   3.048
 1011TIP3   OH2 2989   2.002   7.776   2.708
 1011TIP3    H1 2990   1.948   7.854   2.725
 1011TIP3    H2 2991   2.092   7.809   2.705
 1012TIP3   OH2 2992   6.377   0.872   4.844
 1012TIP3    H1 2993   6.317   0.822   4.900
 1012TIP3    H2 2994   6.456   0.883   4.897
 1013TIP3   OH2 2995   2.696   0.265   2.979
 1013TIP3    H1 2996   2.678   0.192   3.038
 1013TIP3    H2 2997   2.743   0.226   2.906
 1014TIP3   OH2 2998   4.241   0.560   2.120
 1014TIP3    H1 2999   4.312   0.619   2.094
 1014TIP3    H2 3000   4.255   0.544   2.213
 1015TIP3   OH2 3001   8.047   1.428   6.125
 1015TIP3    H1 3002   8.053   1.524   6.129
 1015TIP3    H2 3003   8.130   1.397   6.160
 1016TIP3   OH2 3004   2.527   5.957   0.468
 1016TIP3    H1 3005   2.503   6.013   0.394
 1016TIP3    H2 3006   2.513   6.011   0.545
 1017TIP3   OH2 3007   5.013   4.725   0.156
 1017TIP3    H1 3008   5.095   4.677   0.165
 1017TIP3    H2 3009   5.025   4.778   0.077
 1018TIP3   OH2 3010   4.025   7.344   1.115
 1018TIP3    H1 3011   3.984   7.397   1.047
 1018TIP3    H2 3012   3.972   7.265   1.120
 1019TIP3   OH2 3013   4.781   6.235   3.320
 1019TIP3    H1 3014   4.851   6.301   3.320
 1019TIP3    H2 3015   4.756   6.227   3.413
 1020TIP3   OH2 3016   2.445   2.345   4.513
 1020TIP3    H1 3017   2.448   2.431   4.554
 1020TIP3    H2 3018   2.535   2.312   4.521
 1021TIP3   OH2 3019   4.445   5.484   4.093
 1021TIP3    H1 3020   4.435   5.500   3.999
 1021TIP3    H2 3021   4.452   5.388   4.100
 1022TIP3   OH2 3022   4.337   4.861   5.697
 1022TIP3    H1 3023   4.399   4.815   5.641
 1022TIP3    H2 3024   4.373   4.852   5.785
 1023TIP3   OH2 3025   4.765   0.965   3.565
 1023TIP3    H1 3026   4.709   1.041   3.548
 1023TIP3    H2 3027   4.770   0.959   3.660
 1024TIP3   OH2 3028   0.698   3.788   5.834
 1024TIP3    H1 3029   0.716   3.877   5.865
 1024TIP3    H2 3030   0.785   3.748   5.827
 1025TIP3   OH2 3031   2.824   7.150   4.864
 1025TIP3    H1 3032   2.747   7.093   4.858
 1025TIP3    H2 3033   2.823   7.201   4.783
 1026TIP3   OH2 3034   7.562   2.815   4.286
 1026TIP3    H1 3035   7.526   2.817   4.374
 1026TIP3    H2 3036   7.655   2.796   4.299
 1027TIP3   OH2 3037   0.346   7.714   1.974
 1027TIP3    H1 3038   0.411   7.784   1.980
 1027TIP3    H2 3039   0.272   7.755   1.927
 1028TIP3   OH2 3040   7.995   3.541   0.862
 1028TIP3    H1 3041   8.023   3.496   0.782
 1028TIP3    H2 3042   8.039   3.626   0.859
 1029TIP3   OH2 3043   5.022   5.021   2.879
 1029TIP3    H1 3044   5.111   4.990   2.867
 1029TIP3    H2 3045   4.993   4.978   2.960
 1030TIP3   OH2 3046   7.589   2.441   4.801
 1030TIP3    H1 3047   7.602   2.429   4.707
 1030TIP3    H2 3048   7.494   2.448   4.811
 1031TIP3   OH2 3049   7.632   5.233   4.820
 1031TIP3    H1 3050   7.675   5.261   4.901
 1031TIP3    H2 3051   7.611   5.141   4.834
 1032TIP3   OH2 3052   3.541   2.053   3.083
 1032TIP3    H1 3053   3.594   1.986   3.125
 1032TIP3    H2 3054   3.604   2.112   3.042
 1033TIP3   OH2 3055   4.236   1.089   5.045
 1033TIP3    H1 3056   4.312   1.061   4.994
 1033TIP3    H2 3057   4.272   1.127   5.125
 1034TIP3   OH2 3058   0.859   0.309   2.867
 1034TIP3    H1 3059   0.778   0.258   2.879
 1034TIP3    H2 3060   0.829   0.392   2.830
 1035TIP3   OH2 3061   2.660   1.639   4.955
 1035TIP3    H1 3062   2.570   1.639   4.989
 1035TIP3    H2 3063   2.685   1.546   4.956
 1036TIP3   OH2 3064   6.000   1.796   4.838
 1036TIP3    H1 3065   6.046   1.857   4.782
 1036TIP3    H2 3066   6.050   1.715   4.831
 1037TIP3   OH2 3067   6.284   7.326   1.618
 1037TIP3    H1 3068   6.193   7.356   1.616
 1037TIP3    H2 3069   6.327   7.384   1.680
 1038TIP3   OH2 3070  -0.020   4.397   3.370
 1038TIP3    H1 3071   0.074   4.388   3.363
 1038TIP3    H2 3072  -0.054   4.372   3.284
 1039TIP3   OH2 3073   5.362   7.333   3.902
 1039TIP3    H1 3074   5.317   7.327   3.987
 1039TIP3    H2 3075   5.313   7.275   3.844
 1040TIP3   OH2 3076   4.444   4.094   3.039
 1040TIP3    H1 3077   4.435   4.116   2.947
 1040TIP3    H2 3078   4.408   4.170   3.086
 1041TIP3   OH2 3079   3.604   3.259   5.245
 1041TIP3    H1 3080   3.547   3.187   5.272
 1041TIP3    H2 3081   3.669   3.217   5.188
 1042TIP3   OH2 3082   5.547   5.660   4.574
 1042TIP3    H1 3083   5.499   5.695   4.499
 1042TIP3    H2 3084   5.607   5.731   4.599
 1043TIP3   OH2 3085   0.671   4.613   4.816
 1043TIP3    H1 3086   0.601   4.652   4.869
 1043TIP3    H2 3087   0.685   4.675   4.744
 1044TIP3   OH2 3088   2.598   6.020   3.952
 1044TIP3    H1 3089   2.544   6.076   3.896
 1044TIP3    H2 3090   2.686   6.055   3.943
 1045TIP3   OH2 3091   7.271   5.560   4.335
 1045TIP3    H1 3092   7.327   5.521   4.268
 1045TIP3    H2 3093   7.331   5.601   4.397
 1046TIP3   OH2 3094   1.356   2.594   3.716
 1046TIP3    H1 3095   1.343   2.579   3.622
 1046TIP3    H2 3096   1.448   2.616   3.724
 1047TIP3   OH2 3097   2.040   5.690   6.005
 1047TIP3    H1 3098   2.044   5.773   6.051
 1047TIP3    H2 3099   1.988   5.708   5.927
 1048TIP3   OH2 3100   2.778   7.386   4.031
 1048TIP3    H1 3101   2.857   7.398   3.978
 1048TIP3    H2 3102   2.787   7.451   4.101
 1049TIP3   OH2 3103   3.296   0.785   1.139
 1049TIP3    H1 3104   3.242   0.803   1.216
 1049TIP3    H2 3105   3.232   0.770   1.069
 1050TIP3   OH2 3106   3.662   4.353   6.686
 1050TIP3    H1 3107   3.695   4.265   6.666
 1050TIP3    H2 3108   3.719   4.412   6.637
 1051TIP3   OH2 3109   8.034   4.375   4.671
 1051TIP3    H1 3110   8.066   4.284   4.673
 1051TIP3    H2 3111   8.096   4.420   4.613
 1052TIP3   OH2 3112   6.386   2.716   4.446
 1052TIP3    H1 3113   6.304   2.673   4.422
 1052TIP3    H2 3114   6.421   2.662   4.517
 1053TIP3   OH2 3115   5.141   2.310   6.122
 1053TIP3    H1 3116   5.069   2.292   6.182
 1053TIP3    H2 3117   5.104   2.296   6.035
 1054TIP3   OH2 3118   4.433   4.255   4.604
 1054TIP3    H1 3119   4.455   4.308   4.528
 1054TIP3    H2 3120   4.338   4.267   4.615
 1055TIP3   OH2 3121   2.173   2.594   3.541
 1055TIP3    H1 3122   2.195   2.579   3.449
 1055TIP3    H2 3123   2.258   2.606   3.583
 1056TIP3   OH2 3124   3.005   5.839   5.373
 1056TIP3    H1 3125   2.982   5.865   5.462
 1056TIP3    H2 3126   3.030   5.921   5.330
 1057TIP3   OH2 3127   5.928   0.227   0.559
 1057TIP3    H1 3128   5.898   0.162   0.622
 1057TIP3    H2 3129   5.966   0.297   0.611
 1058TIP3   OH2 3130   3.927   5.920   5.881
 1058TIP3    H1 3131   3.957   5.929   5.971
 1058TIP3    H2 3132   4.003   5.885   5.834
 1059TIP3   OH2 3133   2.263   5.226   4.129
 1059TIP3    H1 3134   2.261   5.254   4.220
 1059TIP3    H2 3135   2.211   5.146   4.127
 1060TIP3   OH2 3136   8.268   2.052   2.538
 1060TIP3    H1 3137   8.304   2.140   2.532
 1060TIP3    H2 3138   8.266   2.021   2.447
 1061TIP3   OH2 3139   5.689   0.864   5.446
 1061TIP3    H1 3140   5.719   0.904   5.527
 1061TIP3    H2 3141   5.674   0.938   5.387
 1062TIP3   OH2 3142   3.351   2.809   5.222
 1062TIP3    H1 3143   3.343   2.758   5.303
 1062TIP3    H2 3144   3.353   2.744   5.152
 1063TIP3   OH2 3145   4.917   2.503   2.497
 1063TIP3    H1 3146   4.919   2.408   2.508
 1063TIP3    H2 3147   4.999   2.534   2.535
 1064TIP3   OH2 3148   7.979   1.664   2.552
 1064TIP3    H1 3149   7.963   1.755   2.526
 1064TIP3    H2 3150   7.921   1.613   2.496
 1065TIP3   OH2 3151   8.217   0.436   0.645
 1065TIP3    H1 3152   8.219   0.519   0.692
 1065TIP3    H2 3153   8.148   0.447   0.580
 1066TIP3   OH2 3154   2.179   3.409   0.013
 1066TIP3    H1 3155   2.261   3.365  -0.008
 1066TIP3    H2 3156   2.205   3.491   0.054
 1067TIP3   OH2 3157   0.235   4.809   0.734
 1067TIP3    H1 3158   0.164   4.872   0.749
 1067TIP3    H2 3159   0.309   4.845   0.783
 1068TIP3   OH2 3160   4.615   4.156   3.745
 1068TIP3    H1 3161   4.584   4.118   3.827
 1068TIP3    H2 3162   4.683   4.218   3.771
 1069TIP3   OH2 3163   5.010   6.342   3.388
 1069TIP3    H1 3164   5.094   6.386   3.397
 1069TIP3    H2 3165   5.001   6.292   3.469
 1070TIP3   OH2 3166   6.999   3.253   2.051
 1070TIP3    H1 3167   7.006   3.177   2.109
 1070TIP3    H2 3168   6.954   3.319   2.103
 1071TIP3   OH2 3169   7.939   4.145   4.058
 1071TIP3    H1 3170   7.973   4.125   4.145
 1071TIP3    H2 3171   7.855   4.187   4.073
 1072TIP3   OH2 3172   3.266   5.221   4.596
 1072TIP3    H1 3173   3.214   5.272   4.534
 1072TIP3    H2 3174   3.356   5.229   4.565
 1073TIP3   OH2 3175   6.471   4.106   1.451
 1073TIP3    H1 3176   6.421   4.188   1.458
 1073TIP3    H2 3177   6.404   4.039   1.439
 1074TIP3   OH2 3178   2.688   0.847   1.595
 1074TIP3    H1 3179   2.666   0.939   1.576
 1074TIP3    H2 3180   2.756   0.853   1.662
 1075TIP3   OH2 3181   0.957   1.746   6.184
 1075TIP3    H1 3182   0.911   1.811   6.130
 1075TIP3    H2 3183   0.998   1.687   6.120
 1076TIP3   OH2 3184   3.156   3.281   5.272
 1076TIP3    H1 3185   3.202   3.318   5.347
 1076TIP3    H2 3186   3.224   3.271   5.205
 1077TIP3   OH2 3187   2.826   4.332   1.194
 1077TIP3    H1 3188   2.789   4.394   1.257
 1077TIP3    H2 3189   2.826   4.379   1.111
 1078TIP3   OH2 3190   2.033   3.412   2.266
 1078TIP3    H1 3191   2.016   3.506   2.257
 1078TIP3    H2 3192   2.020   3.394   2.359
 1079TIP3   OH2 3193   5.493   0.929   4.788
 1079TIP3    H1 3194   5.461   0.844   4.819
 1079TIP3    H2 3195   5.414   0.978   4.766
 1080TIP3   OH2 3196   2.725   0.043   6.395
 1080TIP3    H1 3197   2.676   0.125   6.386
 1080TIP3    H2 3198   2.726   0.026   6.489
 1081TIP3   OH2 3199   5.679   3.432   6.615
 1081TIP3    H1 3200   5.605   3.388   6.574
 1081TIP3    H2 3201   5.700   3.379   6.691
 1082TIP3   OH2 3202   2.245   5.108   5.613
 1082TIP3    H1 3203   2.225   5.068   5.529
 1082TIP3    H2 3204   2.326   5.065   5.642
 1083TIP3   OH2 3205   6.235   7.637   2.063
 1083TIP3    H1 3206   6.287   7.558   2.077
 1083TIP3    H2 3207   6.153   7.621   2.109
 1084TIP3   OH2 3208   7.752   1.737   3.201
 1084TIP3    H1 3209   7.839   1.778   3.196
 1084TIP3    H2 3210   7.706   1.767   3.123
 1085TIP3   OH2 3211   1.123   2.538   4.143
 1085TIP3    H1 3212   1.030   2.517   4.150
 1085TIP3    H2 3213   1.133   2.575   4.055
 1086TIP3   OH2 3214   2.695   7.662   1.854
 1086TIP3    H1 3215   2.666   7.641   1.765
 1086TIP3    H2 3216   2.743   7.744   1.844
 1087TIP3   OH2 3217   7.431   4.789   4.934
 1087TIP3    H1 3218   7.490   4.722   4.899
 1087TIP3    H2 3219   7.391   4.748   5.011
 1088TIP3   OH2 3220   2.878   4.608   5.136
 1088TIP3    H1 3221   2.834   4.575   5.214
 1088TIP3    H2 3222   2.827   4.573   5.063
 1089TIP3   OH2 3223   0.225   0.443   1.095
 1089TIP3    H1 3224   0.285   0.412   1.163
 1089TIP3    H2 3225   0.269   0.519   1.057
 1090TIP3   OH2 3226   0.791   1.647   2.165
 1090TIP3    H1 3227   0.871   1.661   2.116
 1090TIP3    H2 3228   0.821   1.615   2.250
 1091TIP3   OH2 3229   2.072   0.503   2.510
 1091TIP3    H1 3230   2.108   0.545   2.432
 1091TIP3    H2 3231   2.145   0.452   2.546
 1092TIP3   OH2 3232   5.124   3.614   4.733
 1092TIP3    H1 3233   5.209   3.655   4.714
 1092TIP3    H2 3234   5.109   3.634   4.826
 1093TIP3   OH2 3235   6.066   5.139   5.317
 1093TIP3    H1 3236   6.073   5.112   5.226
 1093TIP3    H2 3237   6.049   5.233   5.314
 1094TIP3   OH2 3238   7.332   7.291   1.493
 1094TIP3    H1 3239   7.294   7.268   1.578
 1094TIP3    H2 3240   7.421   7.321   1.514
 1095TIP3   OH2 3241   4.392   2.154   3.123
 1095TIP3    H1 3242   4.481   2.165   3.091
 1095TIP3    H2 3243   4.345   2.114   3.050
 1096TIP3   OH2 3244   4.988   6.280   6.387
 1096TIP3    H1 3245   5.008   6.224   6.462
 1096TIP3    H2 3246   5.014   6.228   6.311
 1097TIP3   OH2 3247   4.110   2.866   0.444
 1097TIP3    H1 3248   4.096   2.779   0.407
 1097TIP3    H2 3249   4.199   2.889   0.417
 1098TIP3   OH2 3250   6.182   3.293   4.218
 1098TIP3    H1 3251   6.211   3.202   4.204
 1098TIP3    H2 3252   6.239   3.325   4.288
 1099TIP3   OH2 3253   3.033   2.327   6.159
 1099TIP3    H1 3254   3.016   2.273   6.081
 1099TIP3    H2 3255   2.947   2.336   6.200
 1100TIP3   OH2 3256   7.500   7.082   3.005
 1100TIP3    H1 3257   7.507   7.174   3.030
 1100TIP3    H2 3258   7.502   7.034   3.088
 1101TIP3   OH2 3259   3.599   3.732   6.376
 1101TIP3    H1 3260   3.666   3.751   6.310
 1101TIP3    H2 3261   3.628   3.649   6.415
 1102TIP3   OH2 3262   4.837   5.473   2.890
 1102TIP3    H1 3263   4.755   5.449   2.846
 1102TIP3    H2 3264   4.834   5.426   2.973
 1103TIP3   OH2 3265   4.896   7.831   5.678
 1103TIP3    H1 3266   4.915   7.742   5.650
 1103TIP3    H2 3267   4.859   7.873   5.600
 1104TIP3   OH2 3268   5.706   5.844   4.683
 1104TIP3    H1 3269   5.689   5.935   4.704
 1104TIP3    H2 3270   5.733   5.805   4.766
 1105TIP3   OH2 3271   1.261   2.766   2.794
 1105TIP3    H1 3272   1.207   2.767   2.714
 1105TIP3    H2 3273   1.287   2.675   2.803
 1106TIP3   OH2 3274   1.167   3.204   3.965
 1106TIP3    H1 3275   1.146   3.295   3.983
 1106TIP3    H2 3276   1.170   3.163   4.052
 1107TIP3   OH2 3277   4.098   5.339   4.252
 1107TIP3    H1 3278   4.022   5.354   4.308
 1107TIP3    H2 3279   4.151   5.274   4.299
 1108TIP3   OH2 3280   6.128   0.160   3.499
 1108TIP3    H1 3281   6.150   0.140   3.408
 1108TIP3    H2 3282   6.104   0.076   3.537
 1109TIP3   OH2 3283   3.946   7.345   2.648
 1109TIP3    H1 3284   3.994   7.367   2.727
 1109TIP3    H2 3285   3.996   7.274   2.608
 1110TIP3   OH2 3286   8.205   6.428   4.321
 1110TIP3    H1 3287   8.139   6.468   4.378
 1110TIP3    H2 3288   8.288   6.441   4.368
 1111TIP3   OH2 3289   7.457   5.189   0.705
 1111TIP3    H1 3290   7.534   5.190   0.648
 1111TIP3    H2 3291   7.383   5.181   0.646
 1112TIP3   OH2 3292   0.689   7.382   4.613
 1112TIP3    H1 3293   0.619   7.336   4.657
 1112TIP3    H2 3294   0.699   7.464   4.662
 1113TIP3   OH2 3295   2.834   0.814   4.532
 1113TIP3    H1 3296   2.780   0.799   4.454
 1113TIP3    H2 3297   2.838   0.909   4.541
 1114TIP3   OH2 3298   1.081   1.473   5.175
 1114TIP3    H1 3299   0.988   1.452   5.181
 1114TIP3    H2 3300   1.096   1.492   5.083
 1115TIP3   OH2 3301   3.029   7.421   1.581
 1115TIP3    H1 3302   2.989   7.416   1.668
 1115TIP3    H2 3303   3.045   7.514   1.567
 1116TIP3   OH2 3304   5.269   7.261   0.432
 1116TIP3    H1 3305   5.179   7.265   0.466
 1116TIP3    H2 3306   5.273   7.177   0.386
 1117TIP3   OH2 3307   5.550   2.524   6.519
 1117TIP3    H1 3308   5.594   2.440   6.504
 1117TIP3    H2 3309   5.570   2.545   6.610
 1118TIP3   OH2 3310   5.474   2.621   2.472
 1118TIP3    H1 3311   5.518   2.657   2.550
 1118TIP3    H2 3312   5.487   2.526   2.479
 1119TIP3   OH2 3313   0.319   3.216   0.930
 1119TIP3    H1 3314   0.242   3.177   0.972
 1119TIP3    H2 3315   0.391   3.157   0.951
 1120TIP3   OH2 3316   1.365   7.472   0.119
 1120TIP3    H1 3317   1.358   7.450   0.026
 1120TIP3    H2 3318   1.350   7.566   0.122
 1121TIP3   OH2 3319   1.185   0.687   5.554
 1121TIP3    H1 3320   1.179   0.610   5.610
 1121TIP3    H2 3321   1.249   0.663   5.486
 1122TIP3   OH2 3322   2.961   0.002   3.629
 1122TIP3    H1 3323   2.957   0.091   3.663
 1122TIP3    H2 3324   2.915  -0.050   3.695
 1123TIP3   OH2 3325   6.095   3.053   5.476
 1123TIP3    H1 3326   6.035   3.128   5.485
 1123TIP3    H2 3327   6.166   3.073   5.537
 1124TIP3   OH2 3328   1.051   5.576   2.326
 1124TIP3    H1 3329   1.133   5.613   2.292
 1124TIP3    H2 3330   1.052   5.598   2.419
 1125TIP3   OH2 3331   2.185   0.212   5.153
 1125TIP3    H1 3332   2.250   0.171   5.096
 1125TIP3    H2 3333   2.161   0.292   5.107
 1126TIP3   OH2 3334   3.127   2.296   3.271
 1126TIP3    H1 3335   3.214   2.266   3.296
 1126TIP3    H2 3336   3.138   2.389   3.250
 1127TIP3   OH2 3337   2.325   0.381   2.552
 1127TIP3    H1 3338   2.388   0.385   2.480
 1127TIP3    H2 3339   2.379   0.381   2.631
 1128TIP3   OH2 3340  -0.030   3.878   6.572
 1128TIP3    H1 3341   0.023   3.836   6.504
 1128TIP3    H2 3342   0.034   3.915   6.632
 1129TIP3   OH2 3343   0.081   0.733   3.802
 1129TIP3    H1 3344  -0.002   0.716   3.757
 1129TIP3    H2 3345   0.078   0.678   3.880
 1130TIP3   OH2 3346   1.914   0.933   1.931
 1130TIP3    H1 3347   1.991   0.940   1.875
 1130TIP3    H2 3348   1.854   0.876   1.882
 1131TIP3   OH2 3349   0.558   1.515   4.579
 1131TIP3    H1 3350   0.497   1.493   4.509
 1131TIP3    H2 3351   0.590   1.603   4.557
 1132TIP3   OH2 3352   3.596   0.360   0.499
 1132TIP3    H1 3353   3.539   0.295   0.542
 1132TIP3    H2 3354   3.654   0.308   0.444
 1133TIP3   OH2 3355   5.715   6.735   3.772
 1133TIP3    H1 3356   5.644   6.715   3.834
 1133TIP3    H2 3357   5.754   6.816   3.806
 1134TIP3   OH2 3358   4.022   0.238   5.255
 1134TIP3    H1 3359   4.058   0.183   5.325
 1134TIP3    H2 3360   4.025   0.327   5.290
 1135TIP3   OH2 3361   4.617   2.448   4.999
 1135TIP3    H1 3362   4.676   2.424   4.927
 1135TIP3    H2 3363   4.543   2.489   4.955
 1136TIP3   OH2 3364   6.962   0.875   0.857
 1136TIP3    H1 3365   6.871   0.886   0.885
 1136TIP3    H2 3366   6.968   0.783   0.830
 1137TIP3   OH2 3367   4.341   0.945   6.601
 1137TIP3    H1 3368   4.314   0.912   6.687
 1137TIP3    H2 3369   4.436   0.931   6.599
 1138TIP3   OH2 3370   1.694   7.432   5.537
 1138TIP3    H1 3371   1.724   7.482   5.613
 1138TIP3    H2 3372   1.600   7.418   5.553
 1139TIP3   OH2 3373   2.701   7.031   5.910
 1139TIP3    H1 3374   2.664   7.071   5.988
 1139TIP3    H2 3375   2.630   7.030   5.846
 1140TIP3   OH2 3376   7.659   4.095   5.018
 1140TIP3    H1 3377   7.732   4.079   5.077
 1140TIP3    H2 3378   7.686   4.171   4.966
 1141TIP3   OH2 3379   2.150   6.872   2.017
 1141TIP3    H1 3380   2.173   6.949   1.965
 1141TIP3    H2 3381   2.226   6.857   2.073
 1142TIP3   OH2 3382   7.689   6.064   2.507
 1142TIP3    H1 3383   7.706   6.025   2.421
 1142TIP3    H2 3384   7.774   6.062   2.551
 1143TIP3   OH2 3385   0.524   6.898   3.284
 1143TIP3    H1 3386   0.521   6.951   3.363
 1143TIP3    H2 3387   0.436   6.904   3.247
 1144TIP3   OH2 3388   7.041   2.981   2.764
 1144TIP3    H1 3389   7.029   2.986   2.859
 1144TIP3    H2 3390   7.014   2.892   2.741
 1145TIP3   OH2 3391   4.345   1.216   1.668
 1145TIP3    H1 3392   4.336   1.157   1.593
 1145TIP3    H2 3393   4.439   1.222   1.683
 1146TIP3   OH2 3394   1.575   4.047   2.792
 1146TIP3    H1 3395   1.498   4.021   2.742
 1146TIP3    H2 3396   1.541   4.093   2.868
 1147TIP3   OH2 3397   4.616   3.454   3.329
 1147TIP3    H1 3398   4.559   3.389   3.370
 1147TIP3    H2 3399   4.559   3.528   3.309
 1148TIP3   OH2 3400   4.501   2.990   4.740
 1148TIP3    H1 3401   4.524   2.981   4.647
 1148TIP3    H2 3402   4.584   3.012   4.783
 1149TIP3   OH2 3403   6.944   3.785   0.718
 1149TIP3    H1 3404   7.034   3.785   0.685
 1149TIP3    H2 3405   6.926   3.693   0.740
 1150TIP3   OH2 3406   1.030   5.359   1.769
 1150TIP3    H1 3407   1.124   5.356   1.787
 1150TIP3    H2 3408   0.990   5.328   1.850
 1151TIP3   OH2 3409   7.796   0.725   1.746
 1151TIP3    H1 3410   7.773   0.817   1.760
 1151TIP3    H2 3411   7.746   0.700   1.668
 1152TIP3   OH2 3412   3.717   0.435   0.844
 1152TIP3    H1 3413   3.674   0.357   0.880
 1152TIP3    H2 3414   3.795   0.400   0.800
 1153TIP3   OH2 3415   6.221   3.695   6.488
 1153TIP3    H1 3416   6.148   3.748   6.519
 1153TIP3    H2 3417   6.222   3.618   6.544
 1154TIP3   OH2 3418   5.829   3.130   6.166
 1154TIP3    H1 3419   5.847   3.043   6.130
 1154TIP3    H2 3420   5.742   3.122   6.205
 1155TIP3   OH2 3421   2.663   7.406   1.476
 1155TIP3    H1 3422   2.684   7.341   1.409
 1155TIP3    H2 3423   2.578   7.379   1.510
 1156TIP3   OH2 3424   0.855   3.925   6.123
 1156TIP3    H1 3425   0.765   3.947   6.147
 1156TIP3    H2 3426   0.867   3.835   6.152
 1157TIP3   OH2 3427   7.845   2.848   4.760
 1157TIP3    H1 3428   7.884   2.763   4.738
 1157TIP3    H2 3429   7.759   2.826   4.797
 1158TIP3   OH2 3430   2.106   0.426   3.367
 1158TIP3    H1 3431   2.177   0.364   3.347
 1158TIP3    H2 3432   2.039   0.373   3.409
 1159TIP3   OH2 3433   5.306   1.223   6.495
 1159TIP3    H1 3434   5.397   1.212   6.467
 1159TIP3    H2 3435   5.312   1.262   6.583
 1160TIP3   OH2 3436   2.759   2.925   0.993
 1160TIP3    H1 3437   2.800   3.010   1.009
 1160TIP3    H2 3438   2.801   2.865   1.054
 1161TIP3   OH2 3439   1.370   0.068   3.843
 1161TIP3    H1 3440   1.363   0.160   3.868
 1161TIP3    H2 3441   1.448   0.036   3.890
 1162TIP3   OH2 3442   5.952   1.208   4.105
 1162TIP3    H1 3443   6.033   1.181   4.148
 1162TIP3    H2 3444   5.962   1.302   4.092
 1163TIP3   OH2 3445   5.418   3.040   6.728
 1163TIP3    H1 3446   5.432   3.112   6.667
 1163TIP3    H2 3447   5.358   3.075   6.794
 1164TIP3   OH2 3448   0.339   2.212   0.866
 1164TIP3    H1 3449   0.358   2.269   0.792
 1164TIP3    H2 3450   0.361   2.124   0.836
 1165TIP3   OH2 3451   4.375   1.505   1.753
 1165TIP3    H1 3452   4.401   1.520   1.844
 1165TIP3    H2 3453   4.363   1.410   1.747
 1166TIP3   OH2 3454   3.248   3.950   0.526
 1166TIP3    H1 3455   3.331   3.910   0.501
 1166TIP3    H2 3456   3.266   4.044   0.528
 1167TIP3   OH2 3457   5.765   4.257   2.928
 1167TIP3    H1 3458   5.727   4.289   3.010
 1167TIP3    H2 3459   5.716   4.177   2.909
 1168TIP3   OH2 3460   0.344   1.211   2.140
 1168TIP3    H1 3461   0.324   1.152   2.213
 1168TIP3    H2 3462   0.423   1.176   2.101
 1169TIP3   OH2 3463  -0.002   0.309   3.670
 1169TIP3    H1 3464   0.083   0.352   3.661
 1169TIP3    H2 3465   0.014   0.236   3.730
 1170TIP3   OH2 3466   3.305   5.173   1.653
 1170TIP3    H1 3467   3.249   5.167   1.731
 1170TIP3    H2 3468   3.380   5.117   1.674
 1171TIP3   OH2 3469   6.114   6.439   3.152
 1171TIP3    H1 3470   6.146   6.454   3.063
 1171TIP3    H2 3471   6.025   6.407   3.141
 1172TIP3   OH2 3472   5.074   0.283   5.812
 1172TIP3    H1 3473   5.140   0.348   5.836
 1172TIP3    H2 3474   5.109   0.241   5.733
 1173TIP3   OH2 3475   3.657   3.462   2.349
 1173TIP3    H1 3476   3.632   3.374   2.322
 1173TIP3    H2 3477   3.736   3.482   2.298
 1174TIP3   OH2 3478  -0.012   4.819   2.687
 1174TIP3    H1 3479   0.068   4.802   2.638
 1174TIP3    H2 3480   0.013   4.881   2.755
 1175TIP3   OH2 3481   2.760   3.394   4.716
 1175TIP3    H1 3482   2.667   3.417   4.718
 1175TIP3    H2 3483   2.800   3.452   4.781
 1176TIP3   OH2 3484   0.188   5.467   5.258
 1176TIP3    H1 3485   0.211   5.404   5.327
 1176TIP3    H2 3486   0.143   5.415   5.192
 1177TIP3   OH2 3487   1.768   3.375   2.185
 1177TIP3    H1 3488   1.752   3.461   2.223
 1177TIP3    H2 3489   1.857   3.353   2.213
 1178TIP3   OH2 3490   6.082   1.976   0.656
 1178TIP3    H1 3491   6.076   2.057   0.605
 1178TIP3    H2 3492   6.144   1.922   0.607
 1179TIP3   OH2 3493   4.630   2.063   6.435
 1179TIP3    H1 3494   4.607   2.013   6.357
 1179TIP3    H2 3495   4.619   2.001   6.508
 1180TIP3   OH2 3496   7.824   5.808   0.059
 1180TIP3    H1 3497   7.779   5.736   0.102
 1180TIP3    H2 3498   7.754   5.861   0.021
 1181TIP3   OH2 3499   7.054   4.842   2.112
 1181TIP3    H1 3500   6.984   4.908   2.117
 1181TIP3    H2 3501   7.082   4.844   2.021
 1182TIP3   OH2 3502   2.762   3.307   1.261
 1182TIP3    H1 3503   2.768   3.241   1.192
 1182TIP3    H2 3504   2.821   3.377   1.232
 1183TIP3   OH2 3505   2.775   4.499   1.415
 1183TIP3    H1 3506   2.698   4.477   1.362
 1183TIP3    H2 3507   2.742   4.563   1.479
 1184TIP3   OH2 3508   4.027   5.607   0.803
 1184TIP3    H1 3509   4.026   5.691   0.758
 1184TIP3    H2 3510   4.018   5.629   0.896
 1185TIP3   OH2 3511   0.357  -0.004   1.554
 1185TIP3    H1 3512   0.349   0.087   1.527
 1185TIP3    H2 3513   0.445  -0.029   1.526
 1186TIP3   OH2 3514   2.247   7.186   5.274
 1186TIP3    H1 3515   2.276   7.242   5.202
 1186TIP3    H2 3516   2.163   7.223   5.300
 1187TIP3   OH2 3517   3.558   1.549   1.640
 1187TIP3    H1 3518   3.544   1.615   1.573
 1187TIP3    H2 3519   3.645   1.569   1.675
 1188TIP3   OH2 3520   7.286   4.039   4.190
 1188TIP3    H1 3521   7.345   4.008   4.259
 1188TIP3    H2 3522   7.261   3.960   4.142
 1189TIP3   OH2 3523   2.956   1.198   0.386
 1189TIP3    H1 3524   3.041   1.177   0.347
 1189TIP3    H2 3525   2.906   1.238   0.315
 1190TIP3   OH2 3526   7.120   2.763   4.719
 1190TIP3    H1 3527   7.026   2.751   4.734
 1190TIP3    H2 3528   7.162   2.714   4.790
 1191TIP3   OH2 3529   5.610   2.788   1.776
 1191TIP3    H1 3530   5.641   2.854   1.839
 1191TIP3    H2 3531   5.547   2.736   1.826
 1192TIP3   OH2 3532   5.138   4.994   1.433
 1192TIP3    H1 3533   5.215   5.037   1.397
 1192TIP3    H2 3534   5.109   5.052   1.503
 1193TIP3   OH2 3535   8.129   2.349   6.654
 1193TIP3    H1 3536   8.054   2.313   6.702
 1193TIP3    H2 3537   8.183   2.272   6.634
 1194TIP3   OH2 3538   3.631   3.918   6.056
 1194TIP3    H1 3539   3.653   3.827   6.034
 1194TIP3    H2 3540   3.542   3.913   6.090
 1195TIP3   OH2 3541   0.215  -0.002   6.024
 1195TIP3    H1 3542   0.303   0.036   6.020
 1195TIP3    H2 3543   0.157   0.073   6.036
 1196TIP3   OH2 3544   0.978   5.156   0.278
 1196TIP3    H1 3545   0.935   5.135   0.195
 1196TIP3    H2 3546   1.070   5.170   0.254
 1197TIP3   OH2 3547   2.962   7.797   4.043
 1197TIP3    H1 3548   2.940   7.782   3.951
 1197TIP3    H2 3549   3.026   7.868   4.041
 1198TIP3   OH2 3550   1.770   0.988   5.024
 1198TIP3    H1 3551   1.754   0.982   5.118
 1198TIP3    H2 3552   1.697   1.039   4.990
 1199TIP3   OH2 3553   0.642   7.675   5.156
 1199TIP3    H1 3554   0.664   7.655   5.065
 1199TIP3    H2 3555   0.616   7.767   5.155
 1200TIP3   OH2 3556   1.888   5.414   3.549
 1200TIP3    H1 3557   1.874   5.344   3.485
 1200TIP3    H2 3558   1.875   5.371   3.634
 1201TIP3   OH2 3559   6.780   4.057   0.417
 1201TIP3    H1 3560   6.841   4.107   0.363
 1201TIP3    H2 3561   6.824   4.048   0.502
 1202TIP3   OH2 3562   2.186   2.587   6.216
 1202TIP3    H1 3563   2.141   2.505   6.195
 1202TIP3    H2 3564   2.267   2.582   6.166
 1203TIP3   OH2 3565   8.307   5.163   2.023
 1203TIP3    H1 3566   8.243   5.126   2.083
 1203TIP3    H2 3567   8.351   5.087   1.985
 1204TIP3   OH2 3568   0.093   2.792   0.461
 1204TIP3    H1 3569   0.027   2.800   0.531
 1204TIP3    H2 3570   0.041   2.788   0.381
 1205TIP3   OH2 3571   2.702   0.301   6.721
 1205TIP3    H1 3572   2.741   0.239   6.783
 1205TIP3    H2 3573   2.776   0.337   6.673
 1206TIP3   OH2 3574   1.136   6.723   3.278
 1206TIP3    H1 3575   1.078   6.648   3.288
 1206TIP3    H2 3576   1.208   6.691   3.224
 1207TIP3   OH2 3577   1.455   3.026   5.819
 1207TIP3    H1 3578   1.516   2.990   5.882
 1207TIP3    H2 3579   1.495   3.109   5.792
 1208TIP3   OH2 3580   6.031   2.339   3.667
 1208TIP3    H1 3581   6.064   2.426   3.692
 1208TIP3    H2 3582   6.027   2.342   3.571
 1209TIP3   OH2 3583   2.535   4.625   0.430
 1209TIP3    H1 3584   2.604   4.570   0.394
 1209TIP3    H2 3585   2.519   4.590   0.518
 1210TIP3   OH2 3586   6.185   3.031   2.563
 1210TIP3    H1 3587   6.238   3.016   2.642
 1210TIP3    H2 3588   6.249   3.052   2.495
 1211TIP3   OH2 3589   4.651   6.778   0.822
 1211TIP3    H1 3590   4.580   6.744   0.877
 1211TIP3    H2 3591   4.630   6.871   0.810
 1212TIP3   OH2 3592   2.984   3.831   6.651
 1212TIP3    H1 3593   3.063   3.855   6.603
 1212TIP3    H2 3594   3.012   3.827   6.743
 1213TIP3   OH2 3595   0.539   0.492   6.692
 1213TIP3    H1 3596   0.633   0.495   6.677
 1213TIP3    H2 3597   0.521   0.403   6.719
 1214TIP3   OH2 3598   5.915   7.389   1.217
 1214TIP3    H1 3599   5.916   7.459   1.153
 1214TIP3    H2 3600   5.884   7.430   1.298
 1215TIP3   OH2 3601   1.905   3.215   6.710
 1215TIP3    H1 3602   1.906   3.290   6.769
 1215TIP3    H2 3603   1.967   3.237   6.641
 1216TIP3   OH2 3604   6.579   2.107   1.171
 1216TIP3    H1 3605   6.533   2.190   1.160
 1216TIP3    H2 3606   6.511   2.041   1.161
 1217TIP3   OH2 3607   3.053   5.518   2.303
 1217TIP3    H1 3608   3.133   5.568   2.288
 1217TIP3    H2 3609   2.997   5.576   2.355
 1218TIP3   OH2 3610   4.284   6.531   1.782
 1218TIP3    H1 3611   4.301   6.443   1.814
 1218TIP3    H2 3612   4.218   6.520   1.714
 1219TIP3   OH2 3613   4.716   1.913   1.301
 1219TIP3    H1 3614   4.778   1.943   1.234
 1219TIP3    H2 3615   4.699   1.822   1.278
 1220TIP3   OH2 3616   1.787   5.118   3.753
 1220TIP3    H1 3617   1.781   5.070   3.836
 1220TIP3    H2 3618   1.837   5.196   3.774
 1221TIP3   OH2 3619   4.538   2.924   5.558
 1221TIP3    H1 3620   4.536   2.897   5.650
 1221TIP3    H2 3621   4.478   2.998   5.554
 1222TIP3   OH2 3622   3.532   7.229   0.946
 1222TIP3    H1 3623   3.512   7.254   0.856
 1222TIP3    H2 3624   3.590   7.153   0.937
 1223TIP3   OH2 3625   5.297   4.804   5.287
 1223TIP3    H1 3626   5.314   4.894   5.259
 1223TIP3    H2 3627   5.224   4.776   5.232
 1224TIP3   OH2 3628   4.541   5.903   0.874
 1224TIP3    H1 3629   4.543   5.826   0.817
 1224TIP3    H2 3630   4.453   5.904   0.911
 1225TIP3   OH2 3631   6.925   4.097   6.465
 1225TIP3    H1 3632   7.013   4.079   6.499
 1225TIP3    H2 3633   6.867   4.082   6.540
 1226TIP3   OH2 3634   7.397   6.412   2.910
 1226TIP3    H1 3635   7.407   6.490   2.855
 1226TIP3    H2 3636   7.460   6.350   2.874
 1227TIP3   OH2 3637   4.381   4.801   1.456
 1227TIP3    H1 3638   4.371   4.806   1.551
 1227TIP3    H2 3639   4.412   4.888   1.431
 1228TIP3   OH2 3640   6.920   0.314   0.474
 1228TIP3    H1 3641   6.994   0.294   0.417
 1228TIP3    H2 3642   6.954   0.377   0.537
 1229TIP3   OH2 3643   3.411   7.019   4.306
 1229TIP3    H1 3644   3.506   7.016   4.310
 1229TIP3    H2 3645   3.390   6.993   4.216
 1230TIP3   OH2 3646   5.842   7.071   3.776
 1230TIP3    H1 3647   5.789   7.149   3.758
 1230TIP3    H2 3648   5.804   7.034   3.855
 1231TIP3   OH2 3649   6.941   1.347   2.079
 1231TIP3    H1 3650   6.936   1.260   2.041
 1231TIP3    H2 3651   7.000   1.337   2.154
 1232TIP3   OH2 3652   4.924   6.858   5.700
 1232TIP3    H1 3653   4.984   6.844   5.772
 1232TIP3    H2 3654   4.950   6.943   5.663
 1233TIP3   OH2 3655   5.830   6.999   0.980
 1233TIP3    H1 3656   5.750   6.950   0.962
 1233TIP3    H2 3657   5.896   6.959   0.922
 1234TIP3   OH2 3658   7.082   0.741   3.983
 1234TIP3    H1 3659   7.163   0.710   3.944
 1234TIP3    H2 3660   7.108   0.815   4.038
 1235TIP3   OH2 3661   3.113   1.205   3.327
 1235TIP3    H1 3662   3.128   1.231   3.237
 1235TIP3    H2 3663   3.200   1.185   3.362
 1236TIP3   OH2 3664   7.735   7.311   4.935
 1236TIP3    H1 3665   7.705   7.354   5.015
 1236TIP3    H2 3666   7.698   7.223   4.940
 1237TIP3   OH2 3667   1.214   2.281   2.356
 1237TIP3    H1 3668   1.179   2.370   2.360
 1237TIP3    H2 3669   1.274   2.283   2.282
 1238TIP3   OH2 3670   8.252   0.705   5.281
 1238TIP3    H1 3671   8.333   0.750   5.308
 1238TIP3    H2 3672   8.212   0.676   5.363
 1239TIP3   OH2 3673   5.313   3.948   3.167
 1239TIP3    H1 3674   5.280   3.915   3.083
 1239TIP3    H2 3675   5.386   3.890   3.189
 1240TIP3   OH2 3676   5.805   0.839   3.798
 1240TIP3    H1 3677   5.844   0.857   3.883
 1240TIP3    H2 3678   5.856   0.765   3.764
 1241TIP3   OH2 3679   0.535   2.501   1.556
 1241TIP3    H1 3680   0.489   2.417   1.553
 1241TIP3    H2 3681   0.468   2.564   1.585
 1242TIP3   OH2 3682   7.534   6.066   3.288
 1242TIP3    H1 3683   7.477   6.120   3.342
 1242TIP3    H2 3684   7.533   6.107   3.202
 1243TIP3   OH2 3685   0.437   5.921   0.808
 1243TIP3    H1 3686   0.467   5.835   0.779
 1243TIP3    H2 3687   0.341   5.915   0.808
 1244TIP3   OH2 3688   6.179   2.300   1.288
 1244TIP3    H1 3689   6.115   2.275   1.355
 1244TIP3    H2 3690   6.127   2.309   1.208
 1245TIP3   OH2 3691   4.276   2.052   2.184
 1245TIP3    H1 3692   4.258   1.978   2.126
 1245TIP3    H2 3693   4.352   2.095   2.144
 1246TIP3   OH2 3694   5.598   0.041   6.432
 1246TIP3    H1 3695   5.570   0.127   6.464
 1246TIP3    H2 3696   5.641   0.001   6.508
 1247TIP3   OH2 3697   3.817   6.596   2.038
 1247TIP3    H1 3698   3.830   6.678   1.990
 1247TIP3    H2 3699   3.906   6.569   2.063
 1248TIP3   OH2 3700   7.834   4.302   2.929
 1248TIP3    H1 3701   7.767   4.260   2.876
 1248TIP3    H2 3702   7.903   4.325   2.867
 1249TIP3   OH2 3703   2.962   1.104   4.442
 1249TIP3    H1 3704   3.032   1.167   4.462
 1249TIP3    H2 3705   3.009   1.027   4.407
 1250TIP3   OH2 3706   7.601   3.054   4.849
 1250TIP3    H1 3707   7.567   3.078   4.762
 1250TIP3    H2 3708   7.560   2.970   4.869
 1251TIP3   OH2 3709   7.506   3.244   5.631
 1251TIP3    H1 3710   7.591   3.221   5.668
 1251TIP3    H2 3711   7.458   3.284   5.703
 1252TIP3   OH2 3712   0.305   1.746   5.865
 1252TIP3    H1 3713   0.259   1.760   5.782
 1252TIP3    H2 3714   0.340   1.833   5.887
 1253TIP3   OH2 3715   5.621   2.127   6.200
 1253TIP3    H1 3716   5.600   2.063   6.132
 1253TIP3    H2 3717   5.682   2.188   6.158
 1254TIP3   OH2 3718   1.280   2.992   6.229
 1254TIP3    H1 3719   1.199   2.945   6.209
 1254TIP3    H2 3720   1.331   2.987   6.148
 1255TIP3   OH2 3721   5.092   4.179   2.003
 1255TIP3    H1 3722   5.151   4.154   2.074
 1255TIP3    H2 3723   5.093   4.104   1.944
 1256TIP3   OH2 3724   7.879   0.572   5.221
 1256TIP3    H1 3725   7.952   0.552   5.281
 1256TIP3    H2 3726   7.838   0.650   5.259
 1257TIP3   OH2 3727   0.400   6.826   0.630
 1257TIP3    H1 3728   0.380   6.857   0.719
 1257TIP3    H2 3729   0.440   6.901   0.586
 1258TIP3   OH2 3730   6.118   6.586   5.382
 1258TIP3    H1 3731   6.045   6.645   5.401
 1258TIP3    H2 3732   6.177   6.595   5.458
 1259TIP3   OH2 3733   7.126   1.996   3.371
 1259TIP3    H1 3734   7.121   1.953   3.457
 1259TIP3    H2 3735   7.220   1.996   3.351
 1260TIP3   OH2 3736   1.070   1.299   1.983
 1260TIP3    H1 3737   1.097   1.215   2.018
 1260TIP3    H2 3738   0.976   1.304   2.001
 1261TIP3   OH2 3739   7.452   5.733   1.666
 1261TIP3    H1 3740   7.458   5.821   1.630
 1261TIP3    H2 3741   7.367   5.700   1.635
 1262TIP3   OH2 3742   4.089   3.245   6.726
 1262TIP3    H1 3743   4.121   3.333   6.707
 1262TIP3    H2 3744   3.994   3.250   6.715
 1263TIP3   OH2 3745   8.064   6.517   6.013
 1263TIP3    H1 3746   8.001   6.509   6.084
 1263TIP3    H2 3747   8.061   6.433   5.968
 1264TIP3   OH2 3748   5.359   4.527   2.255
 1264TIP3    H1 3749   5.431   4.523   2.192
 1264TIP3    H2 3750   5.382   4.601   2.312
 1265TIP3   OH2 3751   6.151   5.313   1.126
 1265TIP3    H1 3752   6.186   5.330   1.214
 1265TIP3    H2 3753   6.222   5.335   1.067
 1266TIP3   OH2 3754   0.737   6.876   4.620
 1266TIP3    H1 3755   0.804   6.814   4.649
 1266TIP3    H2 3756   0.762   6.959   4.660
 1267TIP3   OH2 3757   5.308   6.248   3.638
 1267TIP3    H1 3758   5.251   6.308   3.686
 1267TIP3    H2 3759   5.316   6.172   3.695
 1268TIP3   OH2 3760   6.610   0.442   6.256
 1268TIP3    H1 3761   6.534   0.439   6.198
 1268TIP3    H2 3762   6.624   0.351   6.282
 1269TIP3   OH2 3763   6.806   3.324   3.442
 1269TIP3    H1 3764   6.718   3.355   3.420
 1269TIP3    H2 3765   6.810   3.236   3.405
 1270TIP3   OH2 3766   1.858   1.276   1.643
 1270TIP3    H1 3767   1.787   1.239   1.695
 1270TIP3    H2 3768   1.902   1.336   1.703
 1271TIP3   OH2 3769   7.323   4.455   2.207
 1271TIP3    H1 3770   7.266   4.473   2.133
 1271TIP3    H2 3771   7.312   4.530   2.265
 1272TIP3   OH2 3772   3.298   1.945   2.554
 1272TIP3    H1 3773   3.303   2.033   2.516
 1272TIP3    H2 3774   3.302   1.960   2.649
 1273TIP3   OH2 3775   1.633   1.031   6.082
 1273TIP3    H1 3776   1.697   0.961   6.065
 1273TIP3    H2 3777   1.571   1.024   6.009
 1274TIP3   OH2 3778   2.751   3.689   4.241
 1274TIP3    H1 3779   2.846   3.685   4.246
 1274TIP3    H2 3780   2.721   3.626   4.307
 1275TIP3   OH2 3781   5.675   2.518   5.332
 1275TIP3    H1 3782   5.765   2.502   5.360
 1275TIP3    H2 3783   5.622   2.461   5.389
 1276TIP3   OH2 3784   6.084   4.892   1.776
 1276TIP3    H1 3785   6.123   4.805   1.778
 1276TIP3    H2 3786   6.157   4.950   1.753
 1277TIP3   OH2 3787   8.004   6.926   4.624
 1277TIP3    H1 3788   7.938   6.856   4.623
 1277TIP3    H2 3789   8.087   6.880   4.635
 1278TIP3   OH2 3790   4.027   1.928   1.675
 1278TIP3    H1 3791   3.939   1.946   1.643
 1278TIP3    H2 3792   4.044   1.837   1.651
 1279TIP3   OH2 3793   4.013   5.574   0.245
 1279TIP3    H1 3794   4.055   5.489   0.229
 1279TIP3    H2 3795   3.919   5.556   0.236
 1280TIP3   OH2 3796   1.824   5.166   6.488
 1280TIP3    H1 3797   1.910   5.130   6.466
 1280TIP3    H2 3798   1.843   5.244   6.541
 1281TIP3   OH2 3799   2.010   1.591   4.079
 1281TIP3    H1 3800   1.968   1.677   4.072
 1281TIP3    H2 3801   2.103   1.608   4.064
 1282TIP3   OH2 3802   4.099   5.127   3.508
 1282TIP3    H1 3803   4.119   5.150   3.599
 1282TIP3    H2 3804   4.066   5.037   3.513
 1283TIP3   OH2 3805   7.666   4.475   0.228
 1283TIP3    H1 3806   7.723   4.398   0.218
 1283TIP3    H2 3807   7.585   4.451   0.183
 1284TIP3   OH2 3808   7.516   1.372   4.797
 1284TIP3    H1 3809   7.439   1.427   4.782
 1284TIP3    H2 3810   7.542   1.343   4.709
 1285TIP3   OH2 3811   6.549   3.437   5.621
 1285TIP3    H1 3812   6.609   3.480   5.683
 1285TIP3    H2 3813   6.520   3.358   5.666
 1286TIP3   OH2 3814   6.753   2.432   0.218
 1286TIP3    H1 3815   6.681   2.370   0.231
 1286TIP3    H2 3816   6.812   2.388   0.158
 1287TIP3   OH2 3817   6.935   0.337   3.211
 1287TIP3    H1 3818   6.852   0.289   3.212
 1287TIP3    H2 3819   6.938   0.382   3.295
 1288TIP3   OH2 3820   5.399   1.706   6.304
 1288TIP3    H1 3821   5.407   1.611   6.310
 1288TIP3    H2 3822   5.312   1.726   6.338
 1289TIP3   OH2 3823   4.557   1.295   1.148
 1289TIP3    H1 3824   4.565   1.252   1.233
 1289TIP3    H2 3825   4.462   1.304   1.135
 1290TIP3   OH2 3826   2.180   7.033   6.316
 1290TIP3    H1 3827   2.224   7.026   6.401
 1290TIP3    H2 3828   2.093   7.067   6.338
 1291TIP3   OH2 3829   5.062   3.988   1.835
 1291TIP3    H1 3830   5.043   4.007   1.743
 1291TIP3    H2 3831   4.978   3.959   1.871
 1292TIP3   OH2 3832   8.034   0.277   5.980
 1292TIP3    H1 3833   7.990   0.318   6.054
 1292TIP3    H2 3834   8.000   0.188   5.977
 1293TIP3   OH2 3835   4.629   0.931   2.168
 1293TIP3    H1 3836   4.631   0.953   2.261
 1293TIP3    H2 3837   4.684   0.998   2.127
 1294TIP3   OH2 3838   3.248   5.736   6.560
 1294TIP3    H1 3839   3.264   5.780   6.477
 1294TIP3    H2 3840   3.250   5.807   6.625
 1295TIP3   OH2 3841   4.073   4.478   1.168
 1295TIP3    H1 3842   4.104   4.473   1.077
 1295TIP3    H2 3843   4.050   4.570   1.179
 1296TIP3   OH2 3844   7.158   4.618   3.601
 1296TIP3    H1 3845   7.130   4.683   3.537
 1296TIP3    H2 3846   7.242   4.650   3.633
 1297TIP3   OH2 3847   8.229   5.401   1.958
 1297TIP3    H1 3848   8.190   5.374   1.875
 1297TIP3    H2 3849   8.254   5.319   2.000
 1298TIP3   OH2 3850   8.125   7.087   1.690
 1298TIP3    H1 3851   8.129   7.182   1.681
 1298TIP3    H2 3852   8.087   7.074   1.777
 1299TIP3   OH2 3853   6.413   6.264   0.492
 1299TIP3    H1 3854   6.383   6.352   0.469
 1299TIP3    H2 3855   6.505   6.262   0.467
 1300TIP3   OH2 3856   6.407   7.341   0.082
 1300TIP3    H1 3857   6.417   7.257   0.127
 1300TIP3    H2 3858   6.330   7.381   0.123
 1301TIP3   OH2 3859   8.294   7.098   2.683
 1301TIP3    H1 3860   8.218   7.041   2.671
 1301TIP3    H2 3861   8.358   7.066   2.619
 1302TIP3   OH2 3862   1.247   1.809   1.519
 1302TIP3    H1 3863   1.160   1.805   1.478
 1302TIP3    H2 3864   1.253   1.898   1.552
 1303TIP3   OH2 3865   2.102   5.827   4.434
 1303TIP3    H1 3866   2.094   5.907   4.383
 1303TIP3    H2 3867   2.180   5.840   4.488
 1304TIP3   OH2 3868   7.650   0.889   3.048
 1304TIP3    H1 3869   7.672   0.808   3.095
 1304TIP3    H2 3870   7.731   0.941   3.052
 1305TIP3   OH2 3871   2.816   3.779   0.845
 1305TIP3    H1 3872   2.868   3.840   0.794
 1305TIP3    H2 3873   2.845   3.791   0.935
 1306TIP3   OH2 3874   2.516   7.197   0.364
 1306TIP3    H1 3875   2.441   7.157   0.321
 1306TIP3    H2 3876   2.518   7.286   0.330
 1307TIP3   OH2 3877   3.201   4.587   4.999
 1307TIP3    H1 3878   3.195   4.682   5.006
 1307TIP3    H2 3879   3.119   4.555   5.038
 1308TIP3   OH2 3880   6.884   6.090   4.508
 1308TIP3    H1 3881   6.932   6.076   4.426
 1308TIP3    H2 3882   6.947   6.134   4.565
 1309TIP3   OH2 3883   2.108   3.447   1.616
 1309TIP3    H1 3884   2.193   3.491   1.622
 1309TIP3    H2 3885   2.127   3.356   1.636
 1310TIP3   OH2 3886   1.334   3.285   1.582
 1310TIP3    H1 3887   1.428   3.303   1.591
 1310TIP3    H2 3888   1.293   3.327   1.657
 1311TIP3   OH2 3889   5.287   1.768   2.445
 1311TIP3    H1 3890   5.373   1.804   2.426
 1311TIP3    H2 3891   5.300   1.711   2.520
 1312TIP3   OH2 3892   2.473   4.497   1.522
 1312TIP3    H1 3893   2.379   4.509   1.509
 1312TIP3    H2 3894   2.512   4.517   1.437
 1313TIP3   OH2 3895   6.580   7.515   4.041
 1313TIP3    H1 3896   6.547   7.459   4.111
 1313TIP3    H2 3897   6.674   7.523   4.060
 1314TIP3   OH2 3898   6.796   5.873   1.802
 1314TIP3    H1 3899   6.754   5.937   1.745
 1314TIP3    H2 3900   6.724   5.833   1.851
 1315TIP3   OH2 3901   1.633   2.081   5.777
 1315TIP3    H1 3902   1.539   2.097   5.786
 1315TIP3    H2 3903   1.670   2.166   5.756
 1316TIP3   OH2 3904   3.514   5.113   5.481
 1316TIP3    H1 3905   3.521   5.204   5.451
 1316TIP3    H2 3906   3.568   5.064   5.419
 1317TIP3   OH2 3907   2.921   6.397   1.312
 1317TIP3    H1 3908   2.980   6.473   1.311
 1317TIP3    H2 3909   2.933   6.356   1.227
 1318TIP3   OH2 3910   1.106   4.870   0.494
 1318TIP3    H1 3911   1.160   4.922   0.435
 1318TIP3    H2 3912   1.082   4.793   0.444
 1319TIP3   OH2 3913   3.192   0.001   6.495
 1319TIP3    H1 3914   3.156   0.089   6.481
 1319TIP3    H2 3915   3.128  -0.058   6.454
 1320TIP3   OH2 3916   0.871   2.766   5.626
 1320TIP3    H1 3917   0.810   2.805   5.563
 1320TIP3    H2 3918   0.953   2.758   5.577
 1321TIP3   OH2 3919   7.097   0.420   0.672
 1321TIP3    H1 3920   7.142   0.428   0.756
 1321TIP3    H2 3921   7.039   0.496   0.668
 1322TIP3   OH2 3922   7.939   0.169   2.410
 1322TIP3    H1 3923   7.929   0.254   2.366
 1322TIP3    H2 3924   7.952   0.191   2.502
 1323TIP3   OH2 3925   0.003   6.283   3.438
 1323TIP3    H1 3926   0.002   6.191   3.411
 1323TIP3    H2 3927   0.023   6.331   3.359
 1324TIP3   OH2 3928   3.255   6.842   5.039
 1324TIP3    H1 3929   3.198   6.902   4.991
 1324TIP3    H2 3930   3.194   6.786   5.088
 1325TIP3   OH2 3931   4.537   0.057   4.196
 1325TIP3    H1 3932   4.526   0.119   4.124
 1325TIP3    H2 3933   4.449   0.039   4.227
 1326TIP3   OH2 3934   4.924   5.200   1.281
 1326TIP3    H1 3935   4.897   5.130   1.341
 1326TIP3    H2 3936   4.856   5.202   1.214
 1327TIP3   OH2 3937   3.547   2.014   3.491
 1327TIP3    H1 3938   3.470   1.979   3.446
 1327TIP3    H2 3939   3.536   1.987   3.582
 1328TIP3   OH2 3940   8.235   6.701   5.539
 1328TIP3    H1 3941   8.161   6.653   5.504
 1328TIP3    H2 3942   8.227   6.692   5.634
 1329TIP3   OH2 3943   7.220   6.124   0.132
 1329TIP3    H1 3944   7.240   6.187   0.202
 1329TIP3    H2 3945   7.283   6.144   0.063
 1330TIP3   OH2 3946   6.873   1.441   5.490
 1330TIP3    H1 3947   6.946   1.477   5.439
 1330TIP3    H2 3948   6.871   1.495   5.569
 1331TIP3   OH2 3949   2.805   1.697   6.076
 1331TIP3    H1 3950   2.790   1.761   6.146
 1331TIP3    H2 3951   2.779   1.614   6.114
 1332TIP3   OH2 3952   1.975   7.501   0.155
 1332TIP3    H1 3953   1.995   7.594   0.162
 1332TIP3    H2 3954   1.879   7.498   0.150
 1333TIP3   OH2 3955   1.613   6.481   4.139
 1333TIP3    H1 3956   1.708   6.475   4.149
 1333TIP3    H2 3957   1.598   6.474   4.044
 1334TIP3   OH2 3958   3.222   4.597   1.860
 1334TIP3    H1 3959   3.174   4.588   1.778
 1334TIP3    H2 3960   3.208   4.514   1.905
 1335TIP3   OH2 3961   2.253   1.382   3.665
 1335TIP3    H1 3962   2.213   1.326   3.731
 1335TIP3    H2 3963   2.318   1.327   3.621
 1336TIP3   OH2 3964   2.148   7.139   4.118
 1336TIP3    H1 3965   2.112   7.175   4.198
 1336TIP3    H2 3966   2.165   7.047   4.138
 1337TIP3   OH2 3967   3.360   0.810   4.346
 1337TIP3    H1 3968   3.383   0.718   4.355
 1337TIP3    H2 3969   3.433   0.857   4.386
 1338TIP3   OH2 3970   5.325   6.057   3.079
 1338TIP3    H1 3971   5.308   6.038   3.172
 1338TIP3    H2 3972   5.324   5.971   3.036
 1339TIP3   OH2 3973   2.528   6.665   5.932
 1339TIP3    H1 3974   2.565   6.640   5.848
 1339TIP3    H2 3975   2.454   6.606   5.945
 1340TIP3   OH2 3976   2.883   6.777   5.115
 1340TIP3    H1 3977   2.921   6.741   5.036
 1340TIP3    H2 3978   2.945   6.754   5.185
 1341TIP3   OH2 3979   4.350   3.079   5.940
 1341TIP3    H1 3980   4.266   3.115   5.909
 1341TIP3    H2 3981   4.325   3.016   6.008
 1342TIP3   OH2 3982   3.220   4.847   6.062
 1342TIP3    H1 3983   3.253   4.894   6.139
 1342TIP3    H2 3984   3.138   4.891   6.040
 1343TIP3   OH2 3985   6.281   6.744   0.567
 1343TIP3    H1 3986   6.215   6.738   0.497
 1343TIP3    H2 3987   6.264   6.667   0.622
 1344TIP3   OH2 3988   6.221   4.285   1.564
 1344TIP3    H1 3989   6.154   4.239   1.615
 1344TIP3    H2 3990   6.193   4.376   1.563
 1345TIP3   OH2 3991   7.578   7.385   2.325
 1345TIP3    H1 3992   7.574   7.458   2.263
 1345TIP3    H2 3993   7.666   7.349   2.312
 1346TIP3   OH2 3994   0.214   1.097   1.269
 1346TIP3    H1 3995   0.137   1.151   1.291
 1346TIP3    H2 3996   0.279   1.122   1.335
 1347TIP3   OH2 3997   5.844   6.385   5.433
 1347TIP3    H1 3998   5.902   6.424   5.500
 1347TIP3    H2 3999   5.756   6.409   5.461
 1348TIP3   OH2 4000   7.397   1.768   5.442
 1348TIP3    H1 4001   7.470   1.792   5.385
 1348TIP3    H2 4002   7.438   1.744   5.525
 1349TIP3   OH2 4003   3.100   4.699   5.745
 1349TIP3    H1 4004   3.042   4.696   5.821
 1349TIP3    H2 4005   3.049   4.658   5.675
 1350TIP3   OH2 4006   1.943   3.878   6.170
 1350TIP3    H1 4007   1.945   3.900   6.263
 1350TIP3    H2 4008   1.992   3.948   6.127
 1351TIP3   OH2 4009   2.433   4.728   5.938
 1351TIP3    H1 4010   2.466   4.745   5.850
 1351TIP3    H2 4011   2.387   4.645   5.930
 1352TIP3   OH2 4012   5.063   1.523   3.492
 1352TIP3    H1 4013   5.062   1.492   3.401
 1352TIP3    H2 4014   4.977   1.562   3.505
 1353TIP3   OH2 4015   3.660   1.048   2.570
 1353TIP3    H1 4016   3.565   1.051   2.581
 1353TIP3    H2 4017   3.674   1.022   2.479
 1354TIP3   OH2 4018   2.769   2.723   2.265
 1354TIP3    H1 4019   2.843   2.755   2.317
 1354TIP3    H2 4020   2.810   2.686   2.186
 1355TIP3   OH2 4021   6.530   6.319   1.886
 1355TIP3    H1 4022   6.523   6.233   1.845
 1355TIP3    H2 4023   6.546   6.379   1.813
 1356TIP3   OH2 4024   5.171   5.028   2.298
 1356TIP3    H1 4025   5.263   5.041   2.320
 1356TIP3    H2 4026   5.171   4.961   2.230
 1357TIP3   OH2 4027   1.817   2.170   4.490
 1357TIP3    H1 4028   1.762   2.157   4.567
 1357TIP3    H2 4029   1.904   2.141   4.517
 1358TIP3   OH2 4030   7.663   3.034   6.632
 1358TIP3    H1 4031   7.577   3.010   6.598
 1358TIP3    H2 4032   7.718   2.958   6.616
 1359TIP3   OH2 4033   4.729   1.616   2.370
 1359TIP3    H1 4034   4.668   1.680   2.336
 1359TIP3    H2 4035   4.693   1.590   2.454
 1360TIP3   OH2 4036   2.011   4.561   5.356
 1360TIP3    H1 4037   2.094   4.517   5.372
 1360TIP3    H2 4038   2.013   4.584   5.263
 1361TIP3   OH2 4039   0.494   1.566   6.389
 1361TIP3    H1 4040   0.526   1.477   6.375
 1361TIP3    H2 4041   0.507   1.582   6.482
 1362TIP3   OH2 4042   6.827   6.022   0.001
 1362TIP3    H1 4043   6.787   6.020   0.088
 1362TIP3    H2 4044   6.838   6.115  -0.018
 1363TIP3   OH2 4045   3.783   2.047   6.060
 1363TIP3    H1 4046   3.823   2.050   6.147
 1363TIP3    H2 4047   3.799   2.134   6.024
 1364TIP3   OH2 4048   0.590   3.503   6.185
 1364TIP3    H1 4049   0.649   3.462   6.249
 1364TIP3    H2 4050   0.502   3.480   6.215
 1365TIP3   OH2 4051   1.897   6.804   5.593
 1365TIP3    H1 4052   1.890   6.753   5.675
 1365TIP3    H2 4053   1.827   6.869   5.599
 1366TIP3   OH2 4054   1.889   4.440   6.154
 1366TIP3    H1 4055   1.876   4.523   6.199
 1366TIP3    H2 4056   1.958   4.396   6.203
 1367TIP3   OH2 4057   1.615   1.616   4.671
 1367TIP3    H1 4058   1.558   1.608   4.595
 1367TIP3    H2 4059   1.702   1.592   4.639
 1368TIP3   OH2 4060   6.311   1.240   3.769
 1368TIP3    H1 4061   6.238   1.183   3.793
 1368TIP3    H2 4062   6.341   1.207   3.685
 1369TIP3   OH2 4063   1.118   7.742   3.497
 1369TIP3    H1 4064   1.090   7.785   3.417
 1369TIP3    H2 4065   1.206   7.775   3.513
 1370TIP3   OH2 4066   7.014   4.918   0.427
 1370TIP3    H1 4067   6.950   4.847   0.432
 1370TIP3    H2 4068   7.094   4.880   0.463
 1371TIP3   OH2 4069   3.053   1.147   1.025
 1371TIP3    H1 4070   3.036   1.142   1.119
 1371TIP3    H2 4071   3.086   1.236   1.011
 1372TIP3   OH2 4072   3.275   1.649   2.580
 1372TIP3    H1 4073   3.213   1.621   2.513
 1372TIP3    H2 4074   3.299   1.738   2.554
 1373TIP3   OH2 4075   5.572   0.436   1.007
 1373TIP3    H1 4076   5.594   0.455   0.916
 1373TIP3    H2 4077   5.649   0.392   1.043
 1374TIP3   OH2 4078   2.638   2.558   0.782
 1374TIP3    H1 4079   2.703   2.542   0.850
 1374TIP3    H2 4080   2.665   2.502   0.709
 1375TIP3   OH2 4081   3.384   4.148   3.103
 1375TIP3    H1 4082   3.434   4.068   3.120
 1375TIP3    H2 4083   3.294   4.118   3.088
 1376TIP3   OH2 4084   2.251   2.741   5.554
 1376TIP3    H1 4085   2.217   2.813   5.606
 1376TIP3    H2 4086   2.231   2.765   5.463
 1377TIP3   OH2 4087   8.284   3.734   3.737
 1377TIP3    H1 4088   8.320   3.648   3.717
 1377TIP3    H2 4089   8.243   3.763   3.656
 1378TIP3   OH2 4090   7.357   2.729   5.614
 1378TIP3    H1 4091   7.272   2.749   5.653
 1378TIP3    H2 4092   7.374   2.639   5.641
 1379TIP3   OH2 4093   1.157   3.988   3.256
 1379TIP3    H1 4094   1.063   3.991   3.276
 1379TIP3    H2 4095   1.192   4.068   3.295
 1380TIP3   OH2 4096   5.289   1.525   4.135
 1380TIP3    H1 4097   5.308   1.526   4.041
 1380TIP3    H2 4098   5.216   1.464   4.144
 1381TIP3   OH2 4099   0.814   1.089   1.760
 1381TIP3    H1 4100   0.807   1.149   1.835
 1381TIP3    H2 4101   0.904   1.057   1.764
 1382TIP3   OH2 4102   6.632   6.750   1.567
 1382TIP3    H1 4103   6.681   6.719   1.491
 1382TIP3    H2 4104   6.558   6.690   1.573
 1383TIP3   OH2 4105   7.450   4.897   5.323
 1383TIP3    H1 4106   7.509   4.828   5.353
 1383TIP3    H2 4107   7.408   4.929   5.402
 1384TIP3   OH2 4108   4.980   5.546   6.384
 1384TIP3    H1 4109   5.013   5.636   6.387
 1384TIP3    H2 4110   5.020   5.503   6.460
 1385TIP3   OH2 4111   5.566   4.471   4.299
 1385TIP3    H1 4112   5.514   4.391   4.307
 1385TIP3    H2 4113   5.573   4.504   4.389
 1386TIP3   OH2 4114   4.461   0.362   1.110
 1386TIP3    H1 4115   4.553   0.374   1.089
 1386TIP3    H2 4116   4.420   0.445   1.086
 1387TIP3   OH2 4117   1.673   6.281   6.571
 1387TIP3    H1 4118   1.760   6.258   6.606
 1387TIP3    H2 4119   1.629   6.197   6.559
 1388TIP3   OH2 4120   1.622   5.549   5.419
 1388TIP3    H1 4121   1.667   5.532   5.336
 1388TIP3    H2 4122   1.538   5.587   5.393
 1389TIP3   OH2 4123   2.301   7.752   5.266
 1389TIP3    H1 4124   2.348   7.814   5.209
 1389TIP3    H2 4125   2.278   7.804   5.343
 1390TIP3   OH2 4126   0.059   4.886   4.795
 1390TIP3    H1 4127   0.152   4.906   4.789
 1390TIP3    H2 4128   0.055   4.790   4.794
 1391TIP3   OH2 4129   5.621   5.111   6.680
 1391TIP3    H1 4130   5.526   5.111   6.673
 1391TIP3    H2 4131   5.648   5.028   6.642
 1392TIP3   OH2 4132   5.597   0.664   1.420
 1392TIP3    H1 4133   5.514   0.631   1.386
 1392TIP3    H2 4134   5.579   0.685   1.511
 1393TIP3   OH2 4135   6.603   5.162   3.587
 1393TIP3    H1 4136   6.628   5.075   3.619
 1393TIP3    H2 4137   6.583   5.149   3.495
 1394TIP3   OH2 4138   7.202   6.370   0.287
 1394TIP3    H1 4139   7.181   6.376   0.380
 1394TIP3    H2 4140   7.201   6.461   0.257
 1395TIP3   OH2 4141   4.071   6.416   0.019
 1395TIP3    H1 4142   4.043   6.506   0.005
 1395TIP3    H2 4143   4.052   6.398   0.111
 1396TIP3   OH2 4144   1.055   7.613   4.137
 1396TIP3    H1 4145   1.106   7.582   4.062
 1396TIP3    H2 4146   1.085   7.560   4.211
 1397TIP3   OH2 4147   5.083   5.466   4.856
 1397TIP3    H1 4148   5.045   5.392   4.903
 1397TIP3    H2 4149   5.169   5.477   4.897
 1398TIP3   OH2 4150   2.005   5.858   3.496
 1398TIP3    H1 4151   1.941   5.787   3.500
 1398TIP3    H2 4152   1.986   5.912   3.573
 1399TIP3   OH2 4153   3.889   1.378   5.604
 1399TIP3    H1 4154   3.839   1.449   5.565
 1399TIP3    H2 4155   3.964   1.421   5.645
 1400TIP3   OH2 4156   6.706   6.652   3.472
 1400TIP3    H1 4157   6.657   6.666   3.553
 1400TIP3    H2 4158   6.655   6.698   3.405
 1401TIP3   OH2 4159   0.066   2.104   5.677
 1401TIP3    H1 4160   0.145   2.140   5.637
 1401TIP3    H2 4161   0.000   2.173   5.668
 1402TIP3   OH2 4162   1.214   5.871   2.712
 1402TIP3    H1 4163   1.207   5.944   2.650
 1402TIP3    H2 4164   1.274   5.809   2.669
 1403TIP3   OH2 4165   6.126   4.287   4.035
 1403TIP3    H1 4166   6.096   4.258   3.949
 1403TIP3    H2 4167   6.046   4.315   4.080
 1404TIP3   OH2 4168   0.152   3.545   4.062
 1404TIP3    H1 4169   0.058   3.552   4.046
 1404TIP3    H2 4170   0.176   3.628   4.103
 1405TIP3   OH2 4171   7.461   6.396   6.371
 1405TIP3    H1 4172   7.538   6.371   6.422
 1405TIP3    H2 4173   7.466   6.491   6.364
 1406TIP3   OH2 4174   5.722   2.991   1.905
 1406TIP3    H1 4175   5.817   2.995   1.900
 1406TIP3    H2 4176   5.699   3.052   1.976
 1407TIP3   OH2 4177   0.734   5.478   1.377
 1407TIP3    H1 4178   0.756   5.492   1.470
 1407TIP3    H2 4179   0.714   5.565   1.344
 1408TIP3   OH2 4180   6.487   7.699   3.585
 1408TIP3    H1 4181   6.509   7.622   3.636
 1408TIP3    H2 4182   6.493   7.670   3.494
 1409TIP3   OH2 4183   7.135   2.210   0.354
 1409TIP3    H1 4184   7.183   2.128   0.341
 1409TIP3    H2 4185   7.067   2.208   0.287
 1410TIP3   OH2 4186   6.902   4.291   6.275
 1410TIP3    H1 4187   6.938   4.230   6.339
 1410TIP3    H2 4188   6.883   4.237   6.198
 1411TIP3   OH2 4189   5.713   4.256   4.541
 1411TIP3    H1 4190   5.653   4.195   4.583
 1411TIP3    H2 4191   5.668   4.341   4.546
 1412TIP3   OH2 4192   5.875   2.433   2.925
 1412TIP3    H1 4193   5.846   2.385   3.003
 1412TIP3    H2 4194   5.815   2.405   2.856
 1413TIP3   OH2 4195   4.286   2.550   1.040
 1413TIP3    H1 4196   4.328   2.485   0.983
 1413TIP3    H2 4197   4.357   2.610   1.063
 1414TIP3   OH2 4198   7.891   1.010   6.097
 1414TIP3    H1 4199   7.864   1.085   6.151
 1414TIP3    H2 4200   7.969   1.041   6.051
 1415TIP3   OH2 4201   2.501   5.150   6.485
 1415TIP3    H1 4202   2.406   5.143   6.495
 1415TIP3    H2 4203   2.532   5.179   6.571
 1416TIP3   OH2 4204   6.925   0.927   0.214
 1416TIP3    H1 4205   6.860   0.979   0.260
 1416TIP3    H2 4206   6.985   0.992   0.177
 1417TIP3   OH2 4207   6.808   2.099   2.421
 1417TIP3    H1 4208   6.747   2.044   2.372
 1417TIP3    H2 4209   6.878   2.039   2.449
 1418TIP3   OH2 4210   4.878   3.128   4.466
 1418TIP3    H1 4211   4.959   3.142   4.515
 1418TIP3    H2 4212   4.899   3.058   4.404
 1419TIP3   OH2 4213   5.195   6.326   2.337
 1419TIP3    H1 4214   5.215   6.284   2.421
 1419TIP3    H2 4215   5.234   6.268   2.272
 1420TIP3   OH2 4216   5.702   4.197   4.237
 1420TIP3    H1 4217   5.659   4.112   4.230
 1420TIP3    H2 4218   5.719   4.208   4.330
 1421TIP3   OH2 4219   1.320   0.580   6.336
 1421TIP3    H1 4220   1.374   0.507   6.307
 1421TIP3    H2 4221   1.233   0.543   6.347
 1422TIP3   OH2 4222   5.111   5.503   4.493
 1422TIP3    H1 4223   5.105   5.576   4.555
 1422TIP3    H2 4224   5.154   5.541   4.417
 1423TIP3   OH2 4225   2.424   2.797   4.719
 1423TIP3    H1 4226   2.467   2.847   4.649
 1423TIP3    H2 4227   2.390   2.863   4.779
 1424TIP3   OH2 4228   3.587   0.899   5.304
 1424TIP3    H1 4229   3.511   0.899   5.362
 1424TIP3    H2 4230   3.551   0.914   5.217
 1425TIP3   OH2 4231   1.369   1.582   6.553
 1425TIP3    H1 4232   1.336   1.521   6.487
 1425TIP3    H2 4233   1.443   1.625   6.511
 1426TIP3   OH2 4234   0.461   1.557   1.596
 1426TIP3    H1 4235   0.497   1.474   1.564
 1426TIP3    H2 4236   0.367   1.540   1.605
 1427TIP3   OH2 4237   6.291   7.652   0.891
 1427TIP3    H1 4238   6.259   7.742   0.899
 1427TIP3    H2 4239   6.256   7.607   0.968
 1428TIP3   OH2 4240   5.389   5.397   2.332
 1428TIP3    H1 4241   5.309   5.364   2.371
 1428TIP3    H2 4242   5.399   5.347   2.250
 1429TIP3   OH2 4243   1.902   6.926   2.452
 1429TIP3    H1 4244   1.837   6.986   2.489
 1429TIP3    H2 4245   1.903   6.947   2.358
 1430TIP3   OH2 4246   1.464   0.730   4.737
 1430TIP3    H1 4247   1.543   0.687   4.769
 1430TIP3    H2 4248   1.396   0.706   4.800
 1431TIP3   OH2 4249   7.846   3.763   2.058
 1431TIP3    H1 4250   7.847   3.787   2.151
 1431TIP3    H2 4251   7.781   3.821   2.019
 1432TIP3   OH2 4252   0.165   3.758   4.244
 1432TIP3    H1 4253   0.210   3.827   4.293
 1432TIP3    H2 4254   0.081   3.798   4.220
 1433TIP3   OH2 4255   7.426   6.955   1.112
 1433TIP3    H1 4256   7.494   7.021   1.098
 1433TIP3    H2 4257   7.428   6.901   1.033
 1434TIP3   OH2 4258   1.904   3.024   2.416
 1434TIP3    H1 4259   1.823   2.979   2.391
 1434TIP3    H2 4260   1.883   3.067   2.499
 1435TIP3   OH2 4261   3.833   6.992   6.509
 1435TIP3    H1 4262   3.850   6.939   6.430
 1435TIP3    H2 4263   3.801   6.929   6.573
 1436TIP3   OH2 4264   7.253   3.681   5.921
 1436TIP3    H1 4265   7.212   3.767   5.933
 1436TIP3    H2 4266   7.187   3.619   5.951
 1437TIP3   OH2 4267   3.602   6.340   1.570
 1437TIP3    H1 4268   3.512   6.315   1.588
 1437TIP3    H2 4269   3.633   6.380   1.652
 1438TIP3   OH2 4270   4.430   1.911   5.101
 1438TIP3    H1 4271   4.495   1.840   5.109
 1438TIP3    H2 4272   4.477   1.981   5.055
 1439TIP3   OH2 4273   4.136   1.600   4.270
 1439TIP3    H1 4274   4.123   1.663   4.199
 1439TIP3    H2 4275   4.049   1.563   4.286
 1440TIP3   OH2 4276   2.815   5.778   6.294
 1440TIP3    H1 4277   2.888   5.818   6.248
 1440TIP3    H2 4278   2.758   5.852   6.317
 1441TIP3   OH2 4279   1.339   5.333   5.191
 1441TIP3    H1 4280   1.365   5.274   5.120
 1441TIP3    H2 4281   1.352   5.421   5.156
 1442TIP3   OH2 4282   5.944   3.855   3.372
 1442TIP3    H1 4283   5.930   3.869   3.465
 1442TIP3    H2 4284   5.929   3.761   3.359
 1443TIP3   OH2 4285   8.184   2.527   0.228
 1443TIP3    H1 4286   8.198   2.604   0.284
 1443TIP3    H2 4287   8.272   2.497   0.206
 1444TIP3   OH2 4288   2.120   0.490   2.059
 1444TIP3    H1 4289   2.101   0.399   2.082
 1444TIP3    H2 4290   2.048   0.515   2.001
 1445TIP3   OH2 4291   7.659   2.547   5.948
 1445TIP3    H1 4292   7.580   2.551   5.895
 1445TIP3    H2 4293   7.636   2.589   6.030
 1446TIP3   OH2 4294   1.734   7.225   3.434
 1446TIP3    H1 4295   1.643   7.255   3.442
 1446TIP3    H2 4296   1.784   7.306   3.419
 1447TIP3   OH2 4297   6.881   6.254   1.021
 1447TIP3    H1 4298   6.817   6.188   1.049
 1447TIP3    H2 4299   6.847   6.285   0.937
 1448TIP3   OH2 4300   8.155   6.498   5.358
 1448TIP3    H1 4301   8.166   6.423   5.416
 1448TIP3    H2 4302   8.146   6.460   5.271
 1449TIP3   OH2 4303   4.468   0.937   4.581
 1449TIP3    H1 4304   4.542   0.889   4.546
 1449TIP3    H2 4305   4.393   0.879   4.567
 1450TIP3   OH2 4306   5.284   3.570   3.690
 1450TIP3    H1 4307   5.240   3.651   3.667
 1450TIP3    H2 4308   5.234   3.502   3.645
 1451TIP3   OH2 4309   6.556   6.994   1.283
 1451TIP3    H1 4310   6.499   6.985   1.207
 1451TIP3    H2 4311   6.496   7.006   1.357
 1452TIP3   OH2 4312   2.821   6.576   3.005
 1452TIP3    H1 4313   2.740   6.555   2.959
 1452TIP3    H2 4314   2.845   6.663   2.972
 1453TIP3   OH2 4315   4.576   5.944   2.417
 1453TIP3    H1 4316   4.615   6.014   2.469
 1453TIP3    H2 4317   4.608   5.959   2.328
 1454TIP3   OH2 4318   1.601   2.302   4.403
 1454TIP3    H1 4319   1.677   2.244   4.396
 1454TIP3    H2 4320   1.612   2.344   4.489
 1455TIP3   OH2 4321   6.807   3.924   5.170
 1455TIP3    H1 4322   6.843   3.999   5.122
 1455TIP3    H2 4323   6.776   3.962   5.253
 1456TIP3   OH2 4324   5.184   0.494   1.984
 1456TIP3    H1 4325   5.251   0.446   2.033
 1456TIP3    H2 4326   5.199   0.586   2.005
 1457TIP3   OH2 4327   3.413   0.600   4.583
 1457TIP3    H1 4328   3.409   0.547   4.663
 1457TIP3    H2 4329   3.327   0.642   4.578
 1458TIP3   OH2 4330   6.789   1.449   3.419
 1458TIP3    H1 4331   6.696   1.465   3.431
 1458TIP3    H2 4332   6.814   1.393   3.492
 1459TIP3   OH2 4333   0.250   6.942   3.214
 1459TIP3    H1 4334   0.243   6.992   3.133
 1459TIP3    H2 4335   0.176   6.971   3.267
 1460TIP3   OH2 4336   4.560   2.761   2.554
 1460TIP3    H1 4337   4.601   2.698   2.496
 1460TIP3    H2 4338   4.631   2.817   2.584
 1461TIP3   OH2 4339   5.245   6.225   5.398
 1461TIP3    H1 4340   5.239   6.130   5.387
 1461TIP3    H2 4341   5.167   6.249   5.447
 1462TIP3   OH2 4342   1.740   5.189   2.458
 1462TIP3    H1 4343   1.730   5.255   2.526
 1462TIP3    H2 4344   1.671   5.125   2.476
 1463TIP3   OH2 4345   7.104   5.414   2.779
 1463TIP3    H1 4346   7.053   5.491   2.756
 1463TIP3    H2 4347   7.068   5.344   2.725
 1464TIP3   OH2 4348   3.864   3.658   4.207
 1464TIP3    H1 4349   3.804   3.700   4.269
 1464TIP3    H2 4350   3.905   3.588   4.258
 1465TIP3   OH2 4351   2.597   0.265   3.633
 1465TIP3    H1 4352   2.683   0.299   3.657
 1465TIP3    H2 4353   2.584   0.294   3.542
 1466TIP3   OH2 4354   5.823   1.509   1.642
 1466TIP3    H1 4355   5.797   1.428   1.685
 1466TIP3    H2 4356   5.889   1.482   1.579
 1467TIP3   OH2 4357   6.892   5.242   3.388
 1467TIP3    H1 4358   6.905   5.327   3.345
 1467TIP3    H2 4359   6.805   5.248   3.426
 1468TIP3   OH2 4360   7.788   5.791   3.054
 1468TIP3    H1 4361   7.781   5.836   2.970
 1468TIP3    H2 4362   7.701   5.755   3.069
 1469TIP3   OH2 4363   1.878   1.658   3.573
 1469TIP3    H1 4364   1.896   1.598   3.500
 1469TIP3    H2 4365   1.934   1.627   3.644
 1470TIP3   OH2 4366   6.928   1.894   5.646
 1470TIP3    H1 4367   6.953   1.939   5.727
 1470TIP3    H2 4368   7.010   1.863   5.609
 1471TIP3   OH2 4369   7.196   7.662   5.316
 1471TIP3    H1 4370   7.110   7.658   5.357
 1471TIP3    H2 4371   7.235   7.743   5.349
 1472TIP3   OH2 4372   2.884   2.738   3.967
 1472TIP3    H1 4373   2.930   2.820   3.983
 1472TIP3    H2 4374   2.897   2.721   3.873
 1473TIP3   OH2 4375   0.988   6.920   5.299
 1473TIP3    H1 4376   0.966   7.013   5.292
 1473TIP3    H2 4377   1.076   6.919   5.338
 1474TIP3   OH2 4378   7.371   2.925   1.752
 1474TIP3    H1 4379   7.325   2.944   1.833
 1474TIP3    H2 4380   7.345   2.996   1.693
 1475TIP3   OH2 4381   1.261   6.460   1.920
 1475TIP3    H1 4382   1.284   6.470   1.828
 1475TIP3    H2 4383   1.188   6.521   1.934
 1476TIP3   OH2 4384   2.733   0.401   0.900
 1476TIP3    H1 4385   2.810   0.406   0.957
 1476TIP3    H2 4386   2.765   0.361   0.819
 1477TIP3   OH2 4387   0.023   2.701   1.723
 1477TIP3    H1 4388  -0.039   2.683   1.653
 1477TIP3    H2 4389   0.059   2.787   1.702
 1478TIP3   OH2 4390   4.018   7.190   2.408
 1478TIP3    H1 4391   4.055   7.170   2.323
 1478TIP3    H2 4392   3.925   7.207   2.390
 1479TIP3   OH2 4393   0.587   4.209   2.702
 1479TIP3    H1 4394   0.587   4.181   2.610
 1479TIP3    H2 4395   0.678   4.199   2.730
 1480TIP3   OH2 4396   5.258   4.555   3.887
 1480TIP3    H1 4397   5.349   4.566   3.913
 1480TIP3    H2 4398   5.210   4.548   3.969
 1481TIP3   OH2 4399   4.980   5.467   1.356
 1481TIP3    H1 4400   4.923   5.514   1.416
 1481TIP3    H2 4401   4.933   5.386   1.337
 1482TIP3   OH2 4402   0.323   1.802   6.705
 1482TIP3    H1 4403   0.413   1.805   6.672
 1482TIP3    H2 4404   0.333   1.801   6.801
 1483TIP3   OH2 4405   1.083   3.860   6.777
 1483TIP3    H1 4406   1.144   3.797   6.816
 1483TIP3    H2 4407   1.108   3.863   6.685
 1484TIP3   OH2 4408   5.922   4.195   1.119
 1484TIP3    H1 4409   5.849   4.146   1.155
 1484TIP3    H2 4410   5.896   4.287   1.128
 1485TIP3   OH2 4411   0.271   5.472   1.381
 1485TIP3    H1 4412   0.184   5.513   1.379
 1485TIP3    H2 4413   0.253   5.379   1.395
 1486TIP3   OH2 4414   7.993   0.695   3.585
 1486TIP3    H1 4415   8.049   0.673   3.659
 1486TIP3    H2 4416   8.040   0.764   3.538
 1487TIP3   OH2 4417   4.839   7.342   5.980
 1487TIP3    H1 4418   4.864   7.253   6.007
 1487TIP3    H2 4419   4.820   7.387   6.062
 1488TIP3   OH2 4420   1.494   3.842   3.346
 1488TIP3    H1 4421   1.439   3.847   3.268
 1488TIP3    H2 4422   1.539   3.926   3.350
 1489TIP3   OH2 4423   1.530   2.126   1.629
 1489TIP3    H1 4424   1.595   2.076   1.677
 1489TIP3    H2 4425   1.579   2.170   1.560
 1490TIP3   OH2 4426   6.273   2.740   0.182
 1490TIP3    H1 4427   6.272   2.828   0.145
 1490TIP3    H2 4428   6.211   2.745   0.255
 1491TIP3   OH2 4429   2.210   2.752   0.115
 1491TIP3    H1 4430   2.224   2.782   0.025
 1491TIP3    H2 4431   2.114   2.749   0.124
 1492TIP3   OH2 4432   1.091   0.429   0.450
 1492TIP3    H1 4433   1.161   0.463   0.394
 1492TIP3    H2 4434   1.124   0.346   0.482
 1493TIP3   OH2 4435   2.864   4.423   2.683
 1493TIP3    H1 4436   2.789   4.473   2.652
 1493TIP3    H2 4437   2.903   4.386   2.604
 1494TIP3   OH2 4438   7.732   6.278   2.289
 1494TIP3    H1 4439   7.749   6.183   2.287
 1494TIP3    H2 4440   7.819   6.318   2.290
 1495TIP3   OH2 4441   3.942   1.231   5.244
 1495TIP3    H1 4442   4.010   1.298   5.255
 1495TIP3    H2 4443   3.861   1.276   5.268
 1496TIP3   OH2 4444   6.542   7.571   2.349
 1496TIP3    H1 4445   6.464   7.573   2.293
 1496TIP3    H2 4446   6.529   7.643   2.411
 1497TIP3   OH2 4447   0.119   0.182   2.548
 1497TIP3    H1 4448   0.198   0.129   2.559
 1497TIP3    H2 4449   0.063   0.129   2.491
 1498TIP3   OH2 4450   0.226   6.695   3.365
 1498TIP3    H1 4451   0.319   6.674   3.372
 1498TIP3    H2 4452   0.223   6.772   3.309
 1499TIP3   OH2 4453   5.475   2.963   1.277
 1499TIP3    H1 4454   5.553   2.910   1.292
 1499TIP3    H2 4455   5.466   3.015   1.357
 1500TIP3   OH2 4456   1.852   6.586   5.427
 1500TIP3    H1 4457   1.855   6.677   5.396
 1500TIP3    H2 4458   1.933   6.576   5.478
 1501TIP3   OH2 4459   1.868   1.568   2.299
 1501TIP3    H1 4460   1.786   1.544   2.255
 1501TIP3    H2 4461   1.934   1.513   2.257
 1502TIP3   OH2 4462   3.646   7.301   6.482
 1502TIP3    H1 4463   3.605   7.291   6.396
 1502TIP3    H2 4464   3.658   7.396   6.491
 1503TIP3   OH2 4465   6.980   3.846   3.617
 1503TIP3    H1 4466   6.926   3.809   3.687
 1503TIP3    H2 4467   6.922   3.848   3.540
 1504TIP3   OH2 4468   6.543   7.206   0.707
 1504TIP3    H1 4469   6.570   7.238   0.793
 1504TIP3    H2 4470   6.457   7.247   0.692
 1505TIP3   OH2 4471   3.741   7.233   2.327
 1505TIP3    H1 4472   3.668   7.278   2.284
 1505TIP3    H2 4473   3.733   7.142   2.300
 1506TIP3   OH2 4474   2.470   7.278   0.676
 1506TIP3    H1 4475   2.475   7.280   0.771
 1506TIP3    H2 4476   2.469   7.370   0.650
 1507TIP3   OH2 4477   7.749   1.259   4.314
 1507TIP3    H1 4478   7.726   1.343   4.354
 1507TIP3    H2 4479   7.840   1.244   4.341
 1508TIP3   OH2 4480   6.211   7.422   5.710
 1508TIP3    H1 4481   6.285   7.415   5.649
 1508TIP3    H2 4482   6.137   7.384   5.662
 1509TIP3   OH2 4483   4.227   5.205   4.459
 1509TIP3    H1 4484   4.223   5.137   4.526
 1509TIP3    H2 4485   4.295   5.265   4.489
 1510TIP3   OH2 4486   1.358   0.388   2.421
 1510TIP3    H1 4487   1.323   0.301   2.439
 1510TIP3    H2 4488   1.372   0.427   2.508
 1511TIP3   OH2 4489   0.351   6.211   3.701
 1511TIP3    H1 4490   0.306   6.129   3.680
 1511TIP3    H2 4491   0.295   6.279   3.664
 1512TIP3   OH2 4492   7.088   0.045   2.477
 1512TIP3    H1 4493   7.153   0.057   2.546
 1512TIP3    H2 4494   7.026   0.118   2.489
 1513TIP3   OH2 4495   2.754   5.092   0.998
 1513TIP3    H1 4496   2.768   5.015   0.942
 1513TIP3    H2 4497   2.729   5.056   1.083
 1514TIP3   OH2 4498   3.310   0.092   3.794
 1514TIP3    H1 4499   3.290   0.008   3.752
 1514TIP3    H2 4500   3.237   0.107   3.854
 1515TIP3   OH2 4501   3.754   7.274   3.614
 1515TIP3    H1 4502   3.702   7.314   3.683
 1515TIP3    H2 4503   3.840   7.314   3.623
 1516TIP3   OH2 4504   7.565   5.532   5.670
 1516TIP3    H1 4505   7.646   5.582   5.665
 1516TIP3    H2 4506   7.500   5.595   5.700
 1517TIP3   OH2 4507   8.268   3.594   4.716
 1517TIP3    H1 4508   8.250   3.595   4.622
 1517TIP3    H2 4509   8.355   3.636   4.724
 1518TIP3   OH2 4510   0.296   5.585   6.081
 1518TIP3    H1 4511   0.285   5.647   6.153
 1518TIP3    H2 4512   0.254   5.505   6.112
 1519TIP3   OH2 4513   0.765   0.335   4.826
 1519TIP3    H1 4514   0.718   0.290   4.896
 1519TIP3    H2 4515   0.727   0.423   4.824
 1520TIP3   OH2 4516   6.511   5.509   6.632
 1520TIP3    H1 4517   6.440   5.450   6.608
 1520TIP3    H2 4518   6.495   5.588   6.581
 1521TIP3   OH2 4519   4.818   5.560   6.608
 1521TIP3    H1 4520   4.734   5.515   6.616
 1521TIP3    H2 4521   4.796   5.646   6.571
 1522TIP3   OH2 4522   6.082   0.378   0.808
 1522TIP3    H1 4523   6.077   0.461   0.760
 1522TIP3    H2 4524   6.030   0.394   0.888
 1523TIP3   OH2 4525   6.166   3.177   3.054
 1523TIP3    H1 4526   6.261   3.177   3.038
 1523TIP3    H2 4527   6.139   3.267   3.041
 1524TIP3   OH2 4528   3.391   5.547   0.118
 1524TIP3    H1 4529   3.388   5.505   0.033
 1524TIP3    H2 4530   3.375   5.476   0.181
 1525TIP3   OH2 4531   0.012   4.505   2.125
 1525TIP3    H1 4532   0.107   4.512   2.116
 1525TIP3    H2 4533   0.000   4.433   2.187
 1526TIP3   OH2 4534   6.952   6.252   0.714
 1526TIP3    H1 4535   6.920   6.342   0.712
 1526TIP3    H2 4536   6.873   6.199   0.727
 1527TIP3   OH2 4537   3.183   5.366   2.125
 1527TIP3    H1 4538   3.218   5.400   2.043
 1527TIP3    H2 4539   3.120   5.432   2.153
 1528TIP3   OH2 4540   2.500   0.002   2.573
 1528TIP3    H1 4541   2.515   0.088   2.612
 1528TIP3    H2 4542   2.502  -0.059   2.647
 1529TIP3   OH2 4543   1.428   0.953   3.387
 1529TIP3    H1 4544   1.457   1.026   3.443
 1529TIP3    H2 4545   1.339   0.977   3.360
 1530TIP3   OH2 4546   7.937   0.620   6.157
 1530TIP3    H1 4547   7.885   0.544   6.131
 1530TIP3    H2 4548   7.887   0.695   6.124
 1531TIP3   OH2 4549   4.692   2.571   2.108
 1531TIP3    H1 4550   4.677   2.477   2.114
 1531TIP3    H2 4551   4.627   2.602   2.044
 1532TIP3   OH2 4552   3.173   4.677   4.280
 1532TIP3    H1 4553   3.182   4.768   4.308
 1532TIP3    H2 4554   3.086   4.651   4.312
 1533TIP3   OH2 4555   4.750   6.401   0.543
 1533TIP3    H1 4556   4.774   6.493   0.552
 1533TIP3    H2 4557   4.742   6.388   0.448
 1534TIP3   OH2 4558   7.981   3.442   3.980
 1534TIP3    H1 4559   7.889   3.460   3.964
 1534TIP3    H2 4560   7.992   3.350   3.956
 1535TIP3   OH2 4561   7.783   5.959   6.131
 1535TIP3    H1 4562   7.715   5.961   6.199
 1535TIP3    H2 4563   7.751   5.895   6.067
 1536TIP3   OH2 4564   3.739   2.674   1.294
 1536TIP3    H1 4565   3.695   2.702   1.374
 1536TIP3    H2 4566   3.672   2.626   1.245
 1537TIP3   OH2 4567   5.405   1.335   5.656
 1537TIP3    H1 4568   5.453   1.351   5.737
 1537TIP3    H2 4569   5.365   1.419   5.635
 1538TIP3   OH2 4570   0.405   4.857   1.966
 1538TIP3    H1 4571   0.316   4.894   1.962
 1538TIP3    H2 4572   0.460   4.929   1.994
 1539TIP3   OH2 4573   5.839   6.421   2.812
 1539TIP3    H1 4574   5.799   6.508   2.821
 1539TIP3    H2 4575   5.849   6.389   2.901
 1540TIP3   OH2 4576   7.117   2.522   2.640
 1540TIP3    H1 4577   7.075   2.438   2.623
 1540TIP3    H2 4578   7.210   2.507   2.622
 1541TIP3   OH2 4579   2.041   5.379   5.977
 1541TIP3    H1 4580   1.983   5.390   6.053
 1541TIP3    H2 4581   2.012   5.445   5.915
 1542TIP3   OH2 4582   1.277   0.612   1.822
 1542TIP3    H1 4583   1.340   0.612   1.894
 1542TIP3    H2 4584   1.193   0.593   1.864
 1543TIP3   OH2 4585   6.724   7.234   6.728
 1543TIP3    H1 4586   6.630   7.232   6.746
 1543TIP3    H2 4587   6.731   7.276   6.643
 1544TIP3   OH2 4588   0.844   1.911   6.685
 1544TIP3    H1 4589   0.908   1.973   6.650
 1544TIP3    H2 4590   0.886   1.875   6.764
 1545TIP3   OH2 4591   6.259   7.150   4.595
 1545TIP3    H1 4592   6.225   7.081   4.651
 1545TIP3    H2 4593   6.205   7.227   4.615
 1546TIP3   OH2 4594   4.985   4.110   3.877
 1546TIP3    H1 4595   4.928   4.152   3.942
 1546TIP3    H2 4596   5.006   4.179   3.815
 1547TIP3   OH2 4597   6.521   7.000   1.580
 1547TIP3    H1 4598   6.436   6.971   1.613
 1547TIP3    H2 4599   6.566   6.920   1.556
 1548TIP3   OH2 4600   6.849   1.824   4.902
 1548TIP3    H1 4601   6.759   1.827   4.868
 1548TIP3    H2 4602   6.839   1.802   4.994
 1549TIP3   OH2 4603   5.349   6.842   3.396
 1549TIP3    H1 4604   5.379   6.761   3.437
 1549TIP3    H2 4605   5.394   6.911   3.445
 1550TIP3   OH2 4606   6.969   3.408   0.039
 1550TIP3    H1 4607   7.047   3.411   0.094
 1550TIP3    H2 4608   6.896   3.411   0.101
 1551TIP3   OH2 4609   1.624   6.127   0.669
 1551TIP3    H1 4610   1.562   6.129   0.596
 1551TIP3    H2 4611   1.621   6.036   0.700
 1552TIP3   OH2 4612   0.368   3.794   6.222
 1552TIP3    H1 4613   0.410   3.727   6.276
 1552TIP3    H2 4614   0.278   3.798   6.253
 1553TIP3   OH2 4615   2.162   6.605   1.598
 1553TIP3    H1 4616   2.083   6.653   1.620
 1553TIP3    H2 4617   2.232   6.649   1.647
 1554TIP3   OH2 4618   7.653   6.862   5.721
 1554TIP3    H1 4619   7.604   6.932   5.765
 1554TIP3    H2 4620   7.685   6.902   5.640
 1555TIP3   OH2 4621   7.325   4.592   4.130
 1555TIP3    H1 4622   7.295   4.682   4.118
 1555TIP3    H2 4623   7.383   4.576   4.055
 1556TIP3   OH2 4624   6.980   1.920   2.541
 1556TIP3    H1 4625   7.075   1.927   2.547
 1556TIP3    H2 4626   6.953   1.891   2.629
 1557TIP3   OH2 4627   1.811   6.053   4.289
 1557TIP3    H1 4628   1.902   6.079   4.305
 1557TIP3    H2 4629   1.815   5.998   4.211
 1558TIP3   OH2 4630   7.047   7.626   3.699
 1558TIP3    H1 4631   7.013   7.704   3.655
 1558TIP3    H2 4632   6.977   7.561   3.689
 1559TIP3   OH2 4633   1.539   3.465   1.356
 1559TIP3    H1 4634   1.584   3.382   1.341
 1559TIP3    H2 4635   1.526   3.468   1.451
 1560TIP3   OH2 4636   5.318   6.042   4.851
 1560TIP3    H1 4637   5.406   6.025   4.883
 1560TIP3    H2 4638   5.294   5.962   4.804
 1561TIP3   OH2 4639   4.654   4.552   2.151
 1561TIP3    H1 4640   4.565   4.562   2.183
 1561TIP3    H2 4641   4.695   4.491   2.212
 1562TIP3   OH2 4642   2.489   7.245   0.936
 1562TIP3    H1 4643   2.573   7.203   0.951
 1562TIP3    H2 4644   2.471   7.293   1.017
 1563TIP3   OH2 4645   2.468   1.398   0.667
 1563TIP3    H1 4646   2.558   1.427   0.678
 1563TIP3    H2 4647   2.471   1.303   0.678
 1564TIP3   OH2 4648   0.886   1.549   6.563
 1564TIP3    H1 4649   0.897   1.464   6.606
 1564TIP3    H2 4650   0.810   1.587   6.605
 1565TIP3   OH2 4651   0.336   6.561   2.436
 1565TIP3    H1 4652   0.331   6.641   2.488
 1565TIP3    H2 4653   0.280   6.499   2.482
 1566TIP3   OH2 4654   5.191   0.544   1.234
 1566TIP3    H1 4655   5.235   0.463   1.262
 1566TIP3    H2 4656   5.260   0.596   1.193
 1567TIP3   OH2 4657   2.403   2.184   0.706
 1567TIP3    H1 4658   2.393   2.093   0.734
 1567TIP3    H2 4659   2.467   2.221   0.767
 1568TIP3   OH2 4660   7.137   0.489   5.661
 1568TIP3    H1 4661   7.095   0.520   5.581
 1568TIP3    H2 4662   7.109   0.398   5.670
 1569TIP3   OH2 4663   5.980   3.289   4.982
 1569TIP3    H1 4664   5.905   3.306   4.924
 1569TIP3    H2 4665   6.050   3.264   4.923
 1570TIP3   OH2 4666   5.866   4.466   1.188
 1570TIP3    H1 4667   5.942   4.494   1.238
 1570TIP3    H2 4668   5.830   4.547   1.151
 1571TIP3   OH2 4669   0.900   3.933   5.531
 1571TIP3    H1 4670   0.973   3.994   5.538
 1571TIP3    H2 4671   0.939   3.847   5.548
 1572TIP3   OH2 4672   4.255   7.655   0.140
 1572TIP3    H1 4673   4.277   7.743   0.170
 1572TIP3    H2 4674   4.260   7.660   0.045
 1573TIP3   OH2 4675   1.592   7.518   4.394
 1573TIP3    H1 4676   1.542   7.567   4.459
 1573TIP3    H2 4677   1.618   7.438   4.438
 1574TIP3   OH2 4678   0.537   3.255   4.146
 1574TIP3    H1 4679   0.578   3.235   4.062
 1574TIP3    H2 4680   0.443   3.256   4.127
 1575TIP3   OH2 4681   7.958   6.867   3.543
 1575TIP3    H1 4682   7.890   6.838   3.481
 1575TIP3    H2 4683   8.039   6.830   3.507
 1576TIP3   OH2 4684   6.998   4.340   3.637
 1576TIP3    H1 4685   6.903   4.348   3.643
 1576TIP3    H2 4686   7.030   4.369   3.723
 1577TIP3   OH2 4687   7.142   1.138   0.396
 1577TIP3    H1 4688   7.214   1.119   0.337
 1577TIP3    H2 4689   7.136   1.233   0.397
 1578TIP3   OH2 4690   6.692   6.056   1.617
 1578TIP3    H1 4691   6.647   6.004   1.550
 1578TIP3    H2 4692   6.756   6.108   1.569
 1579TIP3   OH2 4693   0.612   1.412   0.637
 1579TIP3    H1 4694   0.596   1.322   0.610
 1579TIP3    H2 4695   0.561   1.465   0.576
 1580TIP3   OH2 4696   4.437   4.344   4.094
 1580TIP3    H1 4697   4.436   4.391   4.010
 1580TIP3    H2 4698   4.345   4.329   4.114
 1581TIP3   OH2 4699   8.322   5.027   0.775
 1581TIP3    H1 4700   8.243   5.020   0.829
 1581TIP3    H2 4701   8.344   5.120   0.777
 1582TIP3   OH2 4702   1.657   7.740   3.434
 1582TIP3    H1 4703   1.574   7.782   3.453
 1582TIP3    H2 4704   1.696   7.793   3.364
 1583TIP3   OH2 4705   4.173   2.862   4.165
 1583TIP3    H1 4706   4.122   2.890   4.240
 1583TIP3    H2 4707   4.258   2.905   4.176
 1584TIP3   OH2 4708   3.194   3.308   0.405
 1584TIP3    H1 4709   3.158   3.371   0.467
 1584TIP3    H2 4710   3.178   3.346   0.319
 1585TIP3   OH2 4711   0.974   1.585   1.402
 1585TIP3    H1 4712   0.958   1.605   1.310
 1585TIP3    H2 4713   1.036   1.513   1.400
 1586TIP3   OH2 4714   6.440   7.744   6.035
 1586TIP3    H1 4715   6.507   7.690   5.993
 1586TIP3    H2 4716   6.364   7.738   5.977
 1587TIP3   OH2 4717   5.351   2.190   2.115
 1587TIP3    H1 4718   5.345   2.102   2.079
 1587TIP3    H2 4719   5.310   2.246   2.049
 1588TIP3   OH2 4720   4.572   4.496   3.555
 1588TIP3    H1 4721   4.620   4.540   3.484
 1588TIP3    H2 4722   4.641   4.459   3.610
 1589TIP3   OH2 4723   5.876   4.383   1.486
 1589TIP3    H1 4724   5.867   4.415   1.397
 1589TIP3    H2 4725   5.945   4.437   1.524
 1590TIP3   OH2 4726   3.367   2.034   1.786
 1590TIP3    H1 4727   3.439   2.090   1.817
 1590TIP3    H2 4728   3.370   2.042   1.691
 1591TIP3   OH2 4729   4.340   6.242   1.250
 1591TIP3    H1 4730   4.300   6.304   1.190
 1591TIP3    H2 4731   4.288   6.162   1.241
 1592TIP3   OH2 4732   6.473   5.942   0.537
 1592TIP3    H1 4733   6.406   5.993   0.583
 1592TIP3    H2 4734   6.520   5.896   0.606
 1593TIP3   OH2 4735   6.168   4.429   6.421
 1593TIP3    H1 4736   6.235   4.363   6.406
 1593TIP3    H2 4737   6.088   4.379   6.440
 1594TIP3   OH2 4738   4.355   6.930   3.451
 1594TIP3    H1 4739   4.310   6.928   3.535
 1594TIP3    H2 4740   4.448   6.939   3.473
 1595TIP3   OH2 4741   7.783   2.308   4.993
 1595TIP3    H1 4742   7.727   2.314   4.916
 1595TIP3    H2 4743   7.814   2.397   5.008
 1596TIP3   OH2 4744   0.627   4.322   4.806
 1596TIP3    H1 4745   0.544   4.324   4.853
 1596TIP3    H2 4746   0.665   4.409   4.819
 1597TIP3   OH2 4747   2.758   3.663   2.287
 1597TIP3    H1 4748   2.754   3.753   2.320
 1597TIP3    H2 4749   2.851   3.640   2.289
 1598TIP3   OH2 4750   1.154   5.989   1.195
 1598TIP3    H1 4751   1.213   5.958   1.264
 1598TIP3    H2 4752   1.198   6.065   1.157
 1599TIP3   OH2 4753   7.235   5.397   6.591
 1599TIP3    H1 4754   7.274   5.317   6.625
 1599TIP3    H2 4755   7.152   5.405   6.638
 1600TIP3   OH2 4756   1.099   0.426   6.356
 1600TIP3    H1 4757   1.084   0.348   6.410
 1600TIP3    H2 4758   1.041   0.414   6.280
 1601TIP3   OH2 4759   5.182   6.580   3.213
 1601TIP3    H1 4760   5.212   6.559   3.302
 1601TIP3    H2 4761   5.262   6.600   3.165
 1602TIP3   OH2 4762   5.903   1.774   4.086
 1602TIP3    H1 4763   5.876   1.825   4.010
 1602TIP3    H2 4764   5.841   1.701   4.089
 1603TIP3   OH2 4765   0.066   5.360   1.083
 1603TIP3    H1 4766   0.025   5.370   1.169
 1603TIP3    H2 4767  -0.004   5.380   1.021
 1604TIP3   OH2 4768   7.795   6.579   3.070
 1604TIP3    H1 4769   7.718   6.628   3.041
 1604TIP3    H2 4770   7.865   6.604   3.011
 1605TIP3   OH2 4771   5.412   2.849   1.041
 1605TIP3    H1 4772   5.426   2.895   1.123
 1605TIP3    H2 4773   5.352   2.905   0.992
 1606TIP3   OH2 4774   6.062   0.684   4.545
 1606TIP3    H1 4775   6.112   0.641   4.615
 1606TIP3    H2 4776   6.123   0.747   4.507
 1607TIP3   OH2 4777   2.071   3.138   2.772
 1607TIP3    H1 4778   2.143   3.189   2.809
 1607TIP3    H2 4779   2.104   3.049   2.768
 1608TIP3   OH2 4780   1.034   1.921   5.169
 1608TIP3    H1 4781   1.058   1.834   5.201
 1608TIP3    H2 4782   1.107   1.947   5.114
 1609TIP3   OH2 4783   0.128   7.759   1.160
 1609TIP3    H1 4784   0.119   7.664   1.166
 1609TIP3    H2 4785   0.038   7.792   1.157
 1610TIP3   OH2 4786   3.703   4.734   3.176
 1610TIP3    H1 4787   3.763   4.742   3.102
 1610TIP3    H2 4788   3.682   4.640   3.180
 1611TIP3   OH2 4789   4.512   5.632   0.738
 1611TIP3    H1 4790   4.443   5.615   0.802
 1611TIP3    H2 4791   4.475   5.603   0.654
 1612TIP3   OH2 4792   3.531   1.932   5.672
 1612TIP3    H1 4793   3.612   1.982   5.664
 1612TIP3    H2 4794   3.475   1.987   5.728
 1613TIP3   OH2 4795   2.713   2.088   4.401
 1613TIP3    H1 4796   2.794   2.045   4.427
 1613TIP3    H2 4797   2.650   2.017   4.389
 1614TIP3   OH2 4798   7.683   5.117   2.753
 1614TIP3    H1 4799   7.660   5.168   2.675
 1614TIP3    H2 4800   7.713   5.033   2.719
 1615TIP3   OH2 4801   1.581  -0.007   1.376
 1615TIP3    H1 4802   1.604   0.069   1.321
 1615TIP3    H2 4803   1.488   0.004   1.395
 1616TIP3   OH2 4804   2.746   5.130   3.310
 1616TIP3    H1 4805   2.763   5.214   3.267
 1616TIP3    H2 4806   2.822   5.116   3.367
 1617TIP3   OH2 4807   5.082   4.201   0.617
 1617TIP3    H1 4808   5.067   4.149   0.538
 1617TIP3    H2 4809   5.029   4.159   0.685
 1618TIP3   OH2 4810   2.467   1.300   5.206
 1618TIP3    H1 4811   2.437   1.320   5.294
 1618TIP3    H2 4812   2.421   1.219   5.182
 1619TIP3   OH2 4813   7.200   0.047   1.556
 1619TIP3    H1 4814   7.225   0.120   1.500
 1619TIP3    H2 4815   7.119   0.014   1.516
 1620TIP3   OH2 4816   1.610   0.414   2.663
 1620TIP3    H1 4817   1.674   0.395   2.595
 1620TIP3    H2 4818   1.553   0.337   2.665
 1621TIP3   OH2 4819   4.921   5.467   3.576
 1621TIP3    H1 4820   4.864   5.455   3.651
 1621TIP3    H2 4821   4.872   5.524   3.517
 1622TIP3   OH2 4822   3.411   2.084   1.506
 1622TIP3    H1 4823   3.441   2.168   1.469
 1622TIP3    H2 4824   3.345   2.053   1.443
 1623TIP3   OH2 4825   5.551   0.318   2.710
 1623TIP3    H1 4826   5.579   0.314   2.618
 1623TIP3    H2 4827   5.498   0.397   2.716
 1624TIP3   OH2 4828   6.854   1.034   4.859
 1624TIP3    H1 4829   6.934   1.060   4.813
 1624TIP3    H2 4830   6.787   1.030   4.790
 1625TIP3   OH2 4831   3.870   3.254   0.294
 1625TIP3    H1 4832   3.824   3.210   0.367
 1625TIP3    H2 4833   3.962   3.242   0.314
 1626TIP3   OH2 4834   1.032   0.368   0.727
 1626TIP3    H1 4835   0.992   0.282   0.734
 1626TIP3    H2 4836   0.992   0.407   0.649
 1627TIP3   OH2 4837   4.642   4.461   0.302
 1627TIP3    H1 4838   4.657   4.547   0.342
 1627TIP3    H2 4839   4.630   4.481   0.209
 1628TIP3   OH2 4840   5.399   5.247   0.812
 1628TIP3    H1 4841   5.381   5.331   0.768
 1628TIP3    H2 4842   5.335   5.244   0.884
 1629TIP3   OH2 4843   8.202   5.167   0.483
 1629TIP3    H1 4844   8.151   5.169   0.402
 1629TIP3    H2 4845   8.281   5.216   0.463
 1630TIP3   OH2 4846   7.178   4.879   4.848
 1630TIP3    H1 4847   7.114   4.870   4.919
 1630TIP3    H2 4848   7.256   4.833   4.880
 1631TIP3   OH2 4849   3.412   2.724   2.424
 1631TIP3    H1 4850   3.436   2.631   2.429
 1631TIP3    H2 4851   3.424   2.756   2.514
 1632TIP3   OH2 4852   5.768   5.109   5.330
 1632TIP3    H1 4853   5.862   5.091   5.326
 1632TIP3    H2 4854   5.738   5.101   5.239
 1633TIP3   OH2 4855   5.418   0.958   0.845
 1633TIP3    H1 4856   5.483   0.960   0.916
 1633TIP3    H2 4857   5.411   1.048   0.816
 1634TIP3   OH2 4858   4.225   0.148   0.523
 1634TIP3    H1 4859   4.159   0.217   0.525
 1634TIP3    H2 4860   4.246   0.132   0.615
 1635TIP3   OH2 4861   6.178   0.697   3.808
 1635TIP3    H1 4862   6.183   0.617   3.861
 1635TIP3    H2 4863   6.105   0.681   3.747
 1636TIP3   OH2 4864   1.312   3.479   3.430
 1636TIP3    H1 4865   1.279   3.420   3.499
 1636TIP3    H2 4866   1.309   3.426   3.351
 1637TIP3   OH2 4867   4.977   2.353   2.936
 1637TIP3    H1 4868   4.929   2.269   2.935
 1637TIP3    H2 4869   5.005   2.363   3.027
 1638TIP3   OH2 4870   0.172   1.746   4.443
 1638TIP3    H1 4871   0.126   1.755   4.526
 1638TIP3    H2 4872   0.177   1.652   4.428
 1639TIP3   OH2 4873   3.841   7.211   5.874
 1639TIP3    H1 4874   3.842   7.123   5.836
 1639TIP3    H2 4875   3.831   7.270   5.799
 1640TIP3   OH2 4876   8.316   5.082   5.614
 1640TIP3    H1 4877   8.302   5.167   5.573
 1640TIP3    H2 4878   8.239   5.030   5.591
 1641TIP3   OH2 4879   4.354   2.934   3.657
 1641TIP3    H1 4880   4.284   2.995   3.636
 1641TIP3    H2 4881   4.427   2.962   3.602
 1642TIP3   OH2 4882   6.341   7.329   3.848
 1642TIP3    H1 4883   6.325   7.419   3.877
 1642TIP3    H2 4884   6.259   7.284   3.865
 1643TIP3   OH2 4885   5.901   7.699   5.319
 1643TIP3    H1 4886   5.968   7.639   5.352
 1643TIP3    H2 4887   5.858   7.649   5.249
 1644TIP3   OH2 4888   2.173   1.178   2.449
 1644TIP3    H1 4889   2.266   1.180   2.472
 1644TIP3    H2 4890   2.142   1.266   2.467
 1645TIP3   OH2 4891   5.128   0.430   6.201
 1645TIP3    H1 4892   5.041   0.441   6.164
 1645TIP3    H2 4893   5.118   0.448   6.294
 1646TIP3   OH2 4894   0.524   7.564   3.038
 1646TIP3    H1 4895   0.445   7.574   2.986
 1646TIP3    H2 4896   0.505   7.493   3.098
 1647TIP3   OH2 4897   7.062   1.421   0.885
 1647TIP3    H1 4898   7.116   1.491   0.848
 1647TIP3    H2 4899   7.097   1.409   0.974
 1648TIP3   OH2 4900   8.114   2.544   6.328
 1648TIP3    H1 4901   8.096   2.450   6.337
 1648TIP3    H2 4902   8.053   2.586   6.388
 1649TIP3   OH2 4903   4.757   4.527   4.390
 1649TIP3    H1 4904   4.756   4.460   4.459
 1649TIP3    H2 4905   4.824   4.589   4.417
 1650TIP3   OH2 4906   3.321   4.942   5.540
 1650TIP3    H1 4907   3.385   5.006   5.510
 1650TIP3    H2 4908   3.372   4.880   5.592
 1651TIP3   OH2 4909   5.389   5.498   3.299
 1651TIP3    H1 4910   5.468   5.444   3.296
 1651TIP3    H2 4911   5.380   5.521   3.392
 1652TIP3   OH2 4912   4.443   7.219   2.736
 1652TIP3    H1 4913   4.410   7.129   2.735
 1652TIP3    H2 4914   4.401   7.261   2.661
 1653TIP3   OH2 4915   7.481   3.172   4.606
 1653TIP3    H1 4916   7.434   3.156   4.524
 1653TIP3    H2 4917   7.573   3.177   4.580
 1654TIP3   OH2 4918   1.030   2.438   3.692
 1654TIP3    H1 4919   0.960   2.471   3.748
 1654TIP3    H2 4920   1.084   2.515   3.673
 1655TIP3   OH2 4921   1.320   6.306   6.385
 1655TIP3    H1 4922   1.367   6.299   6.302
 1655TIP3    H2 4923   1.328   6.398   6.410
 1656TIP3   OH2 4924   3.316   6.205   6.476
 1656TIP3    H1 4925   3.331   6.259   6.398
 1656TIP3    H2 4926   3.264   6.131   6.444
 1657TIP3   OH2 4927   6.625   6.195   5.822
 1657TIP3    H1 4928   6.601   6.117   5.771
 1657TIP3    H2 4929   6.657   6.161   5.905
 1658TIP3   OH2 4930   2.001   6.598   5.129
 1658TIP3    H1 4931   2.023   6.537   5.199
 1658TIP3    H2 4932   1.950   6.667   5.172
 1659TIP3   OH2 4933   5.810   6.890   4.671
 1659TIP3    H1 4934   5.794   6.980   4.700
 1659TIP3    H2 4935   5.837   6.899   4.580
 1660TIP3   OH2 4936   7.228   1.366   5.338
 1660TIP3    H1 4937   7.151   1.319   5.307
 1660TIP3    H2 4938   7.288   1.297   5.367
 1661TIP3   OH2 4939   2.458   5.525   3.860
 1661TIP3    H1 4940   2.417   5.549   3.943
 1661TIP3    H2 4941   2.454   5.429   3.858
 1662TIP3   OH2 4942   1.540   1.351   6.314
 1662TIP3    H1 4943   1.489   1.341   6.394
 1662TIP3    H2 4944   1.630   1.361   6.344
 1663TIP3   OH2 4945   4.869   1.068   2.282
 1663TIP3    H1 4946   4.928   1.133   2.321
 1663TIP3    H2 4947   4.798   1.058   2.346
 1664TIP3   OH2 4948   7.154   2.214   2.480
 1664TIP3    H1 4949   7.192   2.142   2.431
 1664TIP3    H2 4950   7.092   2.255   2.420
 1665TIP3   OH2 4951   0.892   4.953   4.133
 1665TIP3    H1 4952   0.848   4.872   4.159
 1665TIP3    H2 4953   0.846   4.982   4.054
 1666TIP3   OH2 4954   1.004   6.793   0.914
 1666TIP3    H1 4955   0.992   6.702   0.940
 1666TIP3    H2 4956   1.095   6.813   0.938
 1667TIP3   OH2 4957   1.877   0.807   1.287
 1667TIP3    H1 4958   1.949   0.744   1.287
 1667TIP3    H2 4959   1.921   0.892   1.289
 1668TIP3   OH2 4960   6.821   5.155   4.661
 1668TIP3    H1 4961   6.846   5.223   4.598
 1668TIP3    H2 4962   6.877   5.081   4.638
 1669TIP3   OH2 4963   7.748   5.010   4.507
 1669TIP3    H1 4964   7.708   4.955   4.574
 1669TIP3    H2 4965   7.729   5.099   4.534
 1670TIP3   OH2 4966   4.881   2.190   1.680
 1670TIP3    H1 4967   4.818   2.262   1.679
 1670TIP3    H2 4968   4.836   2.119   1.634
 1671TIP3   OH2 4969   0.418   1.404   4.366
 1671TIP3    H1 4970   0.345   1.453   4.328
 1671TIP3    H2 4971   0.379   1.321   4.395
 1672TIP3   OH2 4972   1.037   1.353   0.109
 1672TIP3    H1 4973   1.067   1.399   0.188
 1672TIP3    H2 4974   1.104   1.371   0.044
 1673TIP3   OH2 4975   3.306   6.192   5.977
 1673TIP3    H1 4976   3.362   6.213   5.903
 1673TIP3    H2 4977   3.307   6.271   6.031
 1674TIP3   OH2 4978   6.727   5.658   1.493
 1674TIP3    H1 4979   6.776   5.613   1.561
 1674TIP3    H2 4980   6.674   5.722   1.541
 1675TIP3   OH2 4981   6.219   5.350   4.958
 1675TIP3    H1 4982   6.284   5.418   4.973
 1675TIP3    H2 4983   6.269   5.270   4.946
 1676TIP3   OH2 4984   2.648   5.553   0.296
 1676TIP3    H1 4985   2.685   5.521   0.214
 1676TIP3    H2 4986   2.578   5.492   0.316
 1677TIP3   OH2 4987   4.766   2.207   3.748
 1677TIP3    H1 4988   4.819   2.180   3.823
 1677TIP3    H2 4989   4.699   2.139   3.741
 1678TIP3   OH2 4990   4.129   1.923   6.149
 1678TIP3    H1 4991   4.205   1.902   6.094
 1678TIP3    H2 4992   4.056   1.877   6.106
 1679TIP3   OH2 4993   4.950   6.927   2.972
 1679TIP3    H1 4994   4.912   7.001   3.018
 1679TIP3    H2 4995   4.947   6.952   2.879
 1680TIP3   OH2 4996   3.310   6.424   4.767
 1680TIP3    H1 4997   3.346   6.510   4.791
 1680TIP3    H2 4998   3.294   6.430   4.673
 1681TIP3   OH2 4999   7.501   4.629   5.584
 1681TIP3    H1 5000   7.556   4.559   5.619
 1681TIP3    H2 5001   7.535   4.644   5.496
 1682TIP3   OH2 5002   0.455   4.461   0.748
 1682TIP3    H1 5003   0.424   4.385   0.798
 1682TIP3    H2 5004   0.391   4.471   0.677
 1683TIP3   OH2 5005   1.094   5.599   5.075
 1683TIP3    H1 5006   1.033   5.672   5.088
 1683TIP3    H2 5007   1.111   5.598   4.981
 1684TIP3   OH2 5008   5.613   4.565   1.054
 1684TIP3    H1 5009   5.543   4.619   1.018
 1684TIP3    H2 5010   5.676   4.557   0.982
 1685TIP3   OH2 5011   2.829   4.748   2.084
 1685TIP3    H1 5012   2.791   4.768   2.170
 1685TIP3    H2 5013   2.799   4.659   2.065
 1686TIP3   OH2 5014   7.051   2.859   6.626
 1686TIP3    H1 5015   7.111   2.785   6.641
 1686TIP3    H2 5016   7.108   2.935   6.624
 1687TIP3   OH2 5017   6.979   4.824   3.128
 1687TIP3    H1 5018   6.949   4.788   3.044
 1687TIP3    H2 5019   7.015   4.910   3.105
 1688TIP3   OH2 5020   5.821   4.086   5.757
 1688TIP3    H1 5021   5.871   4.167   5.757
 1688TIP3    H2 5022   5.732   4.113   5.780
 1689TIP3   OH2 5023   7.775   2.282   6.661
 1689TIP3    H1 5024   7.780   2.247   6.750
 1689TIP3    H2 5025   7.694   2.245   6.625
 1690TIP3   OH2 5026   3.789   4.280   0.293
 1690TIP3    H1 5027   3.874   4.297   0.250
 1690TIP3    H2 5028   3.724   4.309   0.229
 1691TIP3   OH2 5029   2.553   2.575   6.396
 1691TIP3    H1 5030   2.578   2.639   6.329
 1691TIP3    H2 5031   2.628   2.516   6.402
 1692TIP3   OH2 5032   3.348   6.591   3.458
 1692TIP3    H1 5033   3.439   6.592   3.489
 1692TIP3    H2 5034   3.347   6.521   3.392
 1693TIP3   OH2 5035   7.243   3.246   6.035
 1693TIP3    H1 5036   7.192   3.290   6.103
 1693TIP3    H2 5037   7.200   3.161   6.024
 1694TIP3   OH2 5038   8.189   5.629   1.147
 1694TIP3    H1 5039   8.160   5.570   1.077
 1694TIP3    H2 5040   8.283   5.614   1.153
 1695TIP3   OH2 5041   7.278   5.248   3.192
 1695TIP3    H1 5042   7.359   5.221   3.151
 1695TIP3    H2 5043   7.254   5.329   3.147
 1696TIP3   OH2 5044   2.249   3.262   5.619
 1696TIP3    H1 5045   2.326   3.227   5.573
 1696TIP3    H2 5046   2.203   3.313   5.553
 1697TIP3   OH2 5047   3.053   7.393   4.652
 1697TIP3    H1 5048   2.981   7.454   4.667
 1697TIP3    H2 5049   3.122   7.422   4.711
 1698TIP3   OH2 5050   5.457   0.326   3.589
 1698TIP3    H1 5051   5.404   0.305   3.666
 1698TIP3    H2 5052   5.529   0.263   3.591
 1699TIP3   OH2 5053   7.055   2.028   6.394
 1699TIP3    H1 5054   7.090   1.961   6.336
 1699TIP3    H2 5055   7.132   2.065   6.437
 1700TIP3   OH2 5056   5.849   4.797   5.216
 1700TIP3    H1 5057   5.758   4.797   5.246
 1700TIP3    H2 5058   5.845   4.836   5.129
 1701TIP3   OH2 5059   6.484   2.538   2.326
 1701TIP3    H1 5060   6.470   2.631   2.343
 1701TIP3    H2 5061   6.398   2.497   2.337
 1702TIP3   OH2 5062   4.208   5.239   6.276
 1702TIP3    H1 5063   4.121   5.254   6.240
 1702TIP3    H2 5064   4.196   5.168   6.339
 1703TIP3   OH2 5065   4.371   3.291   1.481
 1703TIP3    H1 5066   4.288   3.261   1.443
 1703TIP3    H2 5067   4.377   3.243   1.564
 1704TIP3   OH2 5068   1.370   2.831   2.400
 1704TIP3    H1 5069   1.306   2.774   2.444
 1704TIP3    H2 5070   1.440   2.842   2.464
 1705TIP3   OH2 5071   6.325   4.088   5.019
 1705TIP3    H1 5072   6.332   4.046   5.105
 1705TIP3    H2 5073   6.310   4.016   4.958
 1706TIP3   OH2 5074   0.470   5.635   1.370
 1706TIP3    H1 5075   0.407   5.563   1.368
 1706TIP3    H2 5076   0.416   5.714   1.369
 1707TIP3   OH2 5077   0.049   6.857   6.464
 1707TIP3    H1 5078   0.004   6.774   6.478
 1707TIP3    H2 5079  -0.014   6.923   6.491
 1708TIP3   OH2 5080   5.842   7.167   6.073
 1708TIP3    H1 5081   5.802   7.235   6.019
 1708TIP3    H2 5082   5.782   7.092   6.066
 1709TIP3   OH2 5083   5.183   7.515   0.816
 1709TIP3    H1 5084   5.196   7.502   0.722
 1709TIP3    H2 5085   5.248   7.582   0.840
 1710TIP3   OH2 5086   7.238   5.748   2.576
 1710TIP3    H1 5087   7.199   5.834   2.560
 1710TIP3    H2 5088   7.326   5.754   2.539
 1711TIP3   OH2 5089   2.361   5.732   0.407
 1711TIP3    H1 5090   2.439   5.787   0.411
 1711TIP3    H2 5091   2.294   5.787   0.366
 1712TIP3   OH2 5092   7.964   4.674   4.332
 1712TIP3    H1 5093   7.911   4.752   4.347
 1712TIP3    H2 5094   8.031   4.703   4.270
 1713TIP3   OH2 5095   3.789   1.509   0.367
 1713TIP3    H1 5096   3.738   1.569   0.312
 1713TIP3    H2 5097   3.821   1.564   0.438
 1714TIP3   OH2 5098   4.185   1.032   3.619
 1714TIP3    H1 5099   4.242   1.106   3.641
 1714TIP3    H2 5100   4.232   0.985   3.550
 1715TIP3   OH2 5101   0.768   3.343   5.354
 1715TIP3    H1 5102   0.686   3.306   5.386
 1715TIP3    H2 5103   0.749   3.368   5.264
 1716TIP3   OH2 5104   4.335   3.559   3.802
 1716TIP3    H1 5105   4.314   3.646   3.835
 1716TIP3    H2 5106   4.255   3.530   3.759
 1717TIP3   OH2 5107   1.133   2.041   0.952
 1717TIP3    H1 5108   1.049   2.085   0.935
 1717TIP3    H2 5109   1.125   1.957   0.907
 1718TIP3   OH2 5110   5.065   7.020   2.419
 1718TIP3    H1 5111   5.036   6.971   2.496
 1718TIP3    H2 5112   5.161   7.020   2.425
 1719TIP3   OH2 5113   2.986   4.113   4.442
 1719TIP3    H1 5114   3.006   4.206   4.457
 1719TIP3    H2 5115   2.895   4.112   4.413
 1720TIP3   OH2 5116   0.373   7.246   1.998
 1720TIP3    H1 5117   0.452   7.219   2.043
 1720TIP3    H2 5118   0.402   7.268   1.909
 1721TIP3   OH2 5119   6.995   6.714   5.369
 1721TIP3    H1 5120   6.965   6.623   5.369
 1721TIP3    H2 5121   7.080   6.713   5.412
 1722TIP3   OH2 5122   0.072   6.530   6.413
 1722TIP3    H1 5123   0.151   6.520   6.466
 1722TIP3    H2 5124   0.085   6.471   6.338
 1723TIP3   OH2 5125   2.634   2.767   0.294
 1723TIP3    H1 5126   2.677   2.829   0.236
 1723TIP3    H2 5127   2.573   2.820   0.346
 1724TIP3   OH2 5128   3.493   6.974   3.393
 1724TIP3    H1 5129   3.411   6.975   3.442
 1724TIP3    H2 5130   3.555   6.932   3.453
 1725TIP3   OH2 5131   2.420   0.936   4.551
 1725TIP3    H1 5132   2.474   0.982   4.615
 1725TIP3    H2 5133   2.422   0.992   4.474
 1726TIP3   OH2 5134   2.307   2.602   6.774
 1726TIP3    H1 5135   2.263   2.529   6.817
 1726TIP3    H2 5136   2.297   2.584   6.680
 1727TIP3   OH2 5137   0.677   2.850   1.093
 1727TIP3    H1 5138   0.765   2.854   1.131
 1727TIP3    H2 5139   0.644   2.764   1.118
 1728TIP3   OH2 5140   6.403   6.118   3.822
 1728TIP3    H1 5141   6.333   6.094   3.883
 1728TIP3    H2 5142   6.358   6.136   3.739
 1729TIP3   OH2 5143   3.546   6.573   5.326
 1729TIP3    H1 5144   3.579   6.500   5.379
 1729TIP3    H2 5145   3.623   6.605   5.279
 1730TIP3   OH2 5146   3.848   4.028   0.808
 1730TIP3    H1 5147   3.895   3.946   0.794
 1730TIP3    H2 5148   3.904   4.095   0.769
 1731TIP3   OH2 5149   7.350   4.009   0.234
 1731TIP3    H1 5150   7.407   4.066   0.183
 1731TIP3    H2 5151   7.358   3.923   0.192
 1732TIP3   OH2 5152   6.445   1.016   3.982
 1732TIP3    H1 5153   6.369   1.054   3.937
 1732TIP3    H2 5154   6.420   1.012   4.074
 1733TIP3   OH2 5155   0.874   1.598   1.676
 1733TIP3    H1 5156   0.783   1.594   1.704
 1733TIP3    H2 5157   0.870   1.587   1.581
 1734TIP3   OH2 5158   5.669   7.403   4.189
 1734TIP3    H1 5159   5.764   7.412   4.196
 1734TIP3    H2 5160   5.648   7.432   4.101
 1735TIP3   OH2 5161   0.888   6.621   4.343
 1735TIP3    H1 5162   0.828   6.606   4.416
 1735TIP3    H2 5163   0.904   6.534   4.307
 1736TIP3   OH2 5164   2.664   2.590   1.857
 1736TIP3    H1 5165   2.618   2.508   1.842
 1736TIP3    H2 5166   2.703   2.612   1.772
 1737TIP3   OH2 5167   6.678   0.813   0.903
 1737TIP3    H1 5168   6.603   0.773   0.946
 1737TIP3    H2 5169   6.641   0.882   0.849
 1738TIP3   OH2 5170   6.673   7.500   5.487
 1738TIP3    H1 5171   6.607   7.465   5.426
 1738TIP3    H2 5172   6.752   7.449   5.468
 1739TIP3   OH2 5173   4.936   5.674   2.712
 1739TIP3    H1 5174   4.912   5.622   2.789
 1739TIP3    H2 5175   4.961   5.609   2.647
 1740TIP3   OH2 5176   3.927   6.821   0.375
 1740TIP3    H1 5177   3.976   6.818   0.457
 1740TIP3    H2 5178   3.932   6.731   0.341
 1741TIP3   OH2 5179   5.101   1.318   3.685
 1741TIP3    H1 5180   5.092   1.369   3.605
 1741TIP3    H2 5181   5.177   1.261   3.670
 1742TIP3   OH2 5182   6.764   0.049   6.510
 1742TIP3    H1 5183   6.817   0.104   6.452
 1742TIP3    H2 5184   6.826   0.008   6.569
 1743TIP3   OH2 5185   0.912   3.354   4.101
 1743TIP3    H1 5186   0.939   3.314   4.183
 1743TIP3    H2 5187   0.833   3.306   4.075
 1744TIP3   OH2 5188   3.592   2.032   6.344
 1744TIP3    H1 5189   3.551   2.110   6.308
 1744TIP3    H2 5190   3.582   2.041   6.438
 1745TIP3   OH2 5191   1.939   0.281   5.937
 1745TIP3    H1 5192   1.852   0.320   5.930
 1745TIP3    H2 5193   1.976   0.319   6.017
 1746TIP3   OH2 5194   3.621   5.006   0.333
 1746TIP3    H1 5195   3.715   5.026   0.324
 1746TIP3    H2 5196   3.610   4.925   0.284
 1747TIP3   OH2 5197   1.438   6.730   2.035
 1747TIP3    H1 5198   1.392   6.722   1.952
 1747TIP3    H2 5199   1.464   6.641   2.057
 1748TIP3   OH2 5200   2.860   0.215   4.801
 1748TIP3    H1 5201   2.777   0.201   4.847
 1748TIP3    H2 5202   2.834   0.226   4.709
 1749TIP3   OH2 5203   1.566   6.491   0.358
 1749TIP3    H1 5204   1.486   6.545   0.358
 1749TIP3    H2 5205   1.598   6.495   0.448
 1750TIP3   OH2 5206   7.042   4.959   0.164
 1750TIP3    H1 5207   7.045   4.943   0.259
 1750TIP3    H2 5208   7.131   4.941   0.134
 1751TIP3   OH2 5209   2.194   2.941   4.191
 1751TIP3    H1 5210   2.102   2.923   4.206
 1751TIP3    H2 5211   2.222   2.871   4.131
 1752TIP3   OH2 5212   7.341   7.692   4.235
 1752TIP3    H1 5213   7.249   7.688   4.262
 1752TIP3    H2 5214   7.386   7.629   4.291
 1753TIP3   OH2 5215   2.025   1.154   0.906
 1753TIP3    H1 5216   1.955   1.163   0.971
 1753TIP3    H2 5217   1.983   1.112   0.831
 1754TIP3   OH2 5218   5.685   7.723   0.421
 1754TIP3    H1 5219   5.715   7.713   0.511
 1754TIP3    H2 5220   5.728   7.653   0.372
 1755TIP3   OH2 5221   6.103   3.270   5.874
 1755TIP3    H1 5222   6.167   3.341   5.868
 1755TIP3    H2 5223   6.085   3.262   5.968
 1756TIP3   OH2 5224   5.939   2.882   2.587
 1756TIP3    H1 5225   5.949   2.789   2.608
 1756TIP3    H2 5226   6.029   2.916   2.589
 1757TIP3   OH2 5227   4.908   7.747   2.579
 1757TIP3    H1 5228   4.905   7.810   2.650
 1757TIP3    H2 5229   4.817   7.720   2.567
 1758TIP3   OH2 5230   7.614   2.456   2.311
 1758TIP3    H1 5231   7.700   2.419   2.293
 1758TIP3    H2 5232   7.556   2.380   2.321
 1759TIP3   OH2 5233   1.200   4.336   3.124
 1759TIP3    H1 5234   1.188   4.407   3.187
 1759TIP3    H2 5235   1.199   4.379   3.038
 1760TIP3   OH2 5236   5.761   5.246   0.818
 1760TIP3    H1 5237   5.818   5.321   0.833
 1760TIP3    H2 5238   5.786   5.213   0.732
 1761TIP3   OH2 5239   7.859   1.687   6.739
 1761TIP3    H1 5240   7.894   1.682   6.828
 1761TIP3    H2 5241   7.935   1.708   6.684
 1762TIP3   OH2 5242   5.945   6.957   5.800
 1762TIP3    H1 5243   5.991   6.874   5.807
 1762TIP3    H2 5244   5.904   6.969   5.886
 1763TIP3   OH2 5245   6.739   7.759   1.600
 1763TIP3    H1 5246   6.751   7.667   1.622
 1763TIP3    H2 5247   6.781   7.807   1.671
 1764TIP3   OH2 5248   1.174   2.670   3.900
 1764TIP3    H1 5249   1.241   2.633   3.842
 1764TIP3    H2 5250   1.121   2.726   3.843
 1765TIP3   OH2 5251   5.458   2.813   5.396
 1765TIP3    H1 5252   5.375   2.793   5.439
 1765TIP3    H2 5253   5.450   2.776   5.308
 1766TIP3   OH2 5254   7.591   7.277   6.688
 1766TIP3    H1 5255   7.557   7.187   6.692
 1766TIP3    H2 5256   7.630   7.283   6.601
 1767TIP3   OH2 5257   6.893   2.634   2.283
 1767TIP3    H1 5258   6.937   2.628   2.198
 1767TIP3    H2 5259   6.850   2.720   2.281
 1768TIP3   OH2 5260   2.553   4.325   1.821
 1768TIP3    H1 5261   2.573   4.271   1.898
 1768TIP3    H2 5262   2.617   4.396   1.825
 1769TIP3   OH2 5263   0.446   5.183   6.273
 1769TIP3    H1 5264   0.528   5.135   6.279
 1769TIP3    H2 5265   0.471   5.275   6.286
 1770TIP3   OH2 5266   0.276   0.253   1.515
 1770TIP3    H1 5267   0.268   0.285   1.605
 1770TIP3    H2 5268   0.202   0.292   1.469
 1771TIP3   OH2 5269   6.003   2.134   4.044
 1771TIP3    H1 5270   6.087   2.108   4.080
 1771TIP3    H2 5271   5.939   2.104   4.109
 1772TIP3   OH2 5272   4.603   1.833   2.220
 1772TIP3    H1 5273   4.620   1.927   2.225
 1772TIP3    H2 5274   4.622   1.809   2.130
 1773TIP3   OH2 5275   2.468   5.409   5.727
 1773TIP3    H1 5276   2.381   5.388   5.695
 1773TIP3    H2 5277   2.459   5.408   5.822
 1774TIP3   OH2 5278   7.468   7.700   4.723
 1774TIP3    H1 5279   7.523   7.678   4.798
 1774TIP3    H2 5280   7.388   7.735   4.762
 1775TIP3   OH2 5281   5.023   1.402   2.577
 1775TIP3    H1 5282   4.949   1.391   2.518
 1775TIP3    H2 5283   4.984   1.418   2.663
 1776TIP3   OH2 5284   5.624   1.920   0.771
 1776TIP3    H1 5285   5.565   1.866   0.718
 1776TIP3    H2 5286   5.664   1.858   0.832
 1777TIP3   OH2 5287   1.067   2.540   5.208
 1777TIP3    H1 5288   1.121   2.480   5.260
 1777TIP3    H2 5289   1.046   2.491   5.129
 1778TIP3   OH2 5290   3.069   5.792   2.914
 1778TIP3    H1 5291   3.122   5.713   2.906
 1778TIP3    H2 5292   3.097   5.832   2.996
 1779TIP3   OH2 5293   5.560   0.021   4.712
 1779TIP3    H1 5294   5.509   0.100   4.698
 1779TIP3    H2 5295   5.531  -0.012   4.797
 1780TIP3   OH2 5296   6.750   6.058   2.767
 1780TIP3    H1 5297   6.755   6.126   2.700
 1780TIP3    H2 5298   6.673   6.080   2.819
 1781TIP3   OH2 5299   5.378   7.427   4.283
 1781TIP3    H1 5300   5.467   7.424   4.247
 1781TIP3    H2 5301   5.325   7.376   4.221
 1782TIP3   OH2 5302   3.263   4.277   3.644
 1782TIP3    H1 5303   3.191   4.233   3.692
 1782TIP3    H2 5304   3.340   4.259   3.697
 1783TIP3   OH2 5305   4.063   0.488   3.322
 1783TIP3    H1 5306   3.988   0.505   3.265
 1783TIP3    H2 5307   4.090   0.574   3.353
 1784TIP3   OH2 5308   4.367   7.147   2.157
 1784TIP3    H1 5309   4.412   7.231   2.166
 1784TIP3    H2 5310   4.418   7.099   2.092
 1785TIP3   OH2 5311   5.379   3.755   6.464
 1785TIP3    H1 5312   5.338   3.720   6.543
 1785TIP3    H2 5313   5.372   3.850   6.474
 1786TIP3   OH2 5314   4.676   5.538   2.292
 1786TIP3    H1 5315   4.709   5.591   2.219
 1786TIP3    H2 5316   4.595   5.500   2.259
 1787TIP3   OH2 5317   1.479   1.972   3.469
 1787TIP3    H1 5318   1.395   1.928   3.484
 1787TIP3    H2 5319   1.545   1.908   3.497
 1788TIP3   OH2 5320   0.983   0.823   1.020
 1788TIP3    H1 5321   0.931   0.878   0.962
 1788TIP3    H2 5322   1.002   0.744   0.969
 1789TIP3   OH2 5323   6.104   1.542   6.474
 1789TIP3    H1 5324   6.118   1.515   6.565
 1789TIP3    H2 5325   6.036   1.609   6.479
 1790TIP3   OH2 5326   0.267   4.751   0.476
 1790TIP3    H1 5327   0.230   4.672   0.438
 1790TIP3    H2 5328   0.267   4.735   0.570
 1791TIP3   OH2 5329   0.503   0.163   6.433
 1791TIP3    H1 5330   0.430   0.102   6.421
 1791TIP3    H2 5331   0.512   0.207   6.349
 1792TIP3   OH2 5332   3.525   0.142   3.305
 1792TIP3    H1 5333   3.588   0.163   3.236
 1792TIP3    H2 5334   3.447   0.114   3.258
 1793TIP3   OH2 5335   2.341   0.967   1.074
 1793TIP3    H1 5336   2.387   0.973   1.158
 1793TIP3    H2 5337   2.407   0.934   1.013
 1794TIP3   OH2 5338   8.130   7.234   3.984
 1794TIP3    H1 5339   8.127   7.189   3.899
 1794TIP3    H2 5340   8.219   7.270   3.988
 1795TIP3   OH2 5341   5.933   4.298   0.329
 1795TIP3    H1 5342   5.873   4.344   0.270
 1795TIP3    H2 5343   5.892   4.307   0.415
 1796TIP3   OH2 5344   6.248   1.678   2.426
 1796TIP3    H1 5345   6.286   1.720   2.349
 1796TIP3    H2 5346   6.175   1.734   2.451
 1797TIP3   OH2 5347   0.313   0.375   5.345
 1797TIP3    H1 5348   0.361   0.295   5.323
 1797TIP3    H2 5349   0.355   0.443   5.293
 1798TIP3   OH2 5350   6.555   2.057   4.887
 1798TIP3    H1 5351   6.494   2.003   4.937
 1798TIP3    H2 5352   6.572   2.007   4.808
 1799TIP3   OH2 5353   4.721   3.970   2.263
 1799TIP3    H1 5354   4.735   3.879   2.287
 1799TIP3    H2 5355   4.634   3.991   2.297
 1800TIP3   OH2 5356   2.696   2.609   2.825
 1800TIP3    H1 5357   2.756   2.676   2.858
 1800TIP3    H2 5358   2.633   2.658   2.772
 1801TIP3   OH2 5359   3.577   7.374   4.574
 1801TIP3    H1 5360   3.632   7.328   4.638
 1801TIP3    H2 5361   3.499   7.318   4.566
 1802TIP3   OH2 5362   3.875   2.559   3.406
 1802TIP3    H1 5363   3.894   2.622   3.475
 1802TIP3    H2 5364   3.794   2.591   3.367
 1803TIP3   OH2 5365   0.644   1.496   3.055
 1803TIP3    H1 5366   0.650   1.454   2.969
 1803TIP3    H2 5367   0.550   1.515   3.065
 1804TIP3   OH2 5368   8.076   7.580   1.583
 1804TIP3    H1 5369   8.082   7.632   1.503
 1804TIP3    H2 5370   8.141   7.511   1.571
 1805TIP3   OH2 5371   5.377   4.322   4.871
 1805TIP3    H1 5372   5.467   4.354   4.862
 1805TIP3    H2 5373   5.340   4.331   4.783
 1806TIP3   OH2 5374   1.132   2.044   3.084
 1806TIP3    H1 5375   1.086   1.960   3.096
 1806TIP3    H2 5376   1.215   2.032   3.128
 1807TIP3   OH2 5377   5.540   1.022   6.327
 1807TIP3    H1 5378   5.509   0.951   6.271
 1807TIP3    H2 5379   5.532   1.101   6.273
 1808TIP3   OH2 5380   2.234   6.031   1.916
 1808TIP3    H1 5381   2.315   6.042   1.866
 1808TIP3    H2 5382   2.166   6.067   1.860
 1809TIP3   OH2 5383   3.939   0.334   4.467
 1809TIP3    H1 5384   3.908   0.415   4.508
 1809TIP3    H2 5385   3.870   0.310   4.405
 1810TIP3   OH2 5386   1.637   3.652   0.239
 1810TIP3    H1 5387   1.558   3.640   0.291
 1810TIP3    H2 5388   1.672   3.737   0.268
 1811TIP3   OH2 5389   0.878   3.313   0.853
 1811TIP3    H1 5390   0.838   3.399   0.867
 1811TIP3    H2 5391   0.804   3.254   0.838
 1812TIP3   OH2 5392   6.610   5.684   1.182
 1812TIP3    H1 5393   6.554   5.606   1.188
 1812TIP3    H2 5394   6.639   5.700   1.272
 1813TIP3   OH2 5395   3.193   6.069   0.736
 1813TIP3    H1 5396   3.140   5.995   0.706
 1813TIP3    H2 5397   3.194   6.061   0.832
 1814TIP3   OH2 5398   7.812   3.537   5.102
 1814TIP3    H1 5399   7.830   3.485   5.181
 1814TIP3    H2 5400   7.848   3.484   5.030
 1815TIP3   OH2 5401   3.608   3.603   0.495
 1815TIP3    H1 5402   3.614   3.525   0.551
 1815TIP3    H2 5403   3.564   3.572   0.416
 1816TIP3   OH2 5404   2.740   1.964   1.572
 1816TIP3    H1 5405   2.725   1.879   1.612
 1816TIP3    H2 5406   2.657   1.986   1.529
 1817TIP3   OH2 5407   3.833   7.569   1.879
 1817TIP3    H1 5408   3.740   7.578   1.900
 1817TIP3    H2 5409   3.860   7.488   1.922
 1818TIP3   OH2 5410   7.315   1.688   1.207
 1818TIP3    H1 5411   7.318   1.776   1.244
 1818TIP3    H2 5412   7.350   1.698   1.118
 1819TIP3   OH2 5413   7.566   7.600   2.119
 1819TIP3    H1 5414   7.501   7.601   2.048
 1819TIP3    H2 5415   7.614   7.682   2.109
 1820TIP3   OH2 5416   5.646   1.662   4.731
 1820TIP3    H1 5417   5.567   1.696   4.689
 1820TIP3    H2 5418   5.650   1.707   4.815
 1821TIP3   OH2 5419   3.345   0.216   0.032
 1821TIP3    H1 5420   3.380   0.182   0.115
 1821TIP3    H2 5421   3.254   0.185   0.031
 1822TIP3   OH2 5422   1.493   3.467   3.104
 1822TIP3    H1 5423   1.502   3.422   3.020
 1822TIP3    H2 5424   1.474   3.397   3.167
 1823TIP3   OH2 5425   3.389   1.085   3.466
 1823TIP3    H1 5426   3.432   1.086   3.380
 1823TIP3    H2 5427   3.461   1.085   3.529
 1824TIP3   OH2 5428   2.207   0.139   1.210
 1824TIP3    H1 5429   2.212   0.072   1.279
 1824TIP3    H2 5430   2.291   0.133   1.164
 1825TIP3   OH2 5431   0.397   2.856   0.982
 1825TIP3    H1 5432   0.484   2.818   0.965
 1825TIP3    H2 5433   0.406   2.899   1.067
 1826TIP3   OH2 5434   5.768   2.266   1.575
 1826TIP3    H1 5435   5.720   2.226   1.648
 1826TIP3    H2 5436   5.718   2.345   1.555
 1827TIP3   OH2 5437   5.793   0.666   6.176
 1827TIP3    H1 5438   5.864   0.633   6.232
 1827TIP3    H2 5439   5.796   0.761   6.187
 1828TIP3   OH2 5440   4.794   1.844   0.086
 1828TIP3    H1 5441   4.758   1.797   0.010
 1828TIP3    H2 5442   4.717   1.876   0.133
 1829TIP3   OH2 5443   2.884   4.792   2.597
 1829TIP3    H1 5444   2.876   4.885   2.619
 1829TIP3    H2 5445   2.973   4.770   2.621
 1830TIP3   OH2 5446   0.413   7.358   0.569
 1830TIP3    H1 5447   0.455   7.397   0.492
 1830TIP3    H2 5448   0.364   7.284   0.535
 1831TIP3   OH2 5449   1.051   5.293   3.910
 1831TIP3    H1 5450   1.091   5.352   3.975
 1831TIP3    H2 5451   0.999   5.351   3.854
 1832TIP3   OH2 5452   1.211   0.905   5.756
 1832TIP3    H1 5453   1.206   0.851   5.677
 1832TIP3    H2 5454   1.217   0.842   5.828
 1833TIP3   OH2 5455   1.407   6.030   3.131
 1833TIP3    H1 5456   1.470   6.055   3.063
 1833TIP3    H2 5457   1.455   5.969   3.187
 1834TIP3   OH2 5458   7.609   2.617   0.127
 1834TIP3    H1 5459   7.565   2.692   0.167
 1834TIP3    H2 5460   7.691   2.652   0.092
 1835TIP3   OH2 5461   1.332   2.022   3.879
 1835TIP3    H1 5462   1.276   1.992   3.950
 1835TIP3    H2 5463   1.328   1.952   3.814
 1836TIP3   OH2 5464   7.495   7.779   5.407
 1836TIP3    H1 5465   7.506   7.768   5.312
 1836TIP3    H2 5466   7.467   7.870   5.417
 1837TIP3   OH2 5467   5.758   5.186   2.230
 1837TIP3    H1 5468   5.730   5.185   2.322
 1837TIP3    H2 5469   5.726   5.104   2.193
 1838TIP3   OH2 5470   5.289   7.712   5.537
 1838TIP3    H1 5471   5.243   7.630   5.520
 1838TIP3    H2 5472   5.324   7.738   5.452
 1839TIP3   OH2 5473   7.154   5.669   2.012
 1839TIP3    H1 5474   7.245   5.652   1.987
 1839TIP3    H2 5475   7.159   5.751   2.062
 1840TIP3   OH2 5476   1.869   0.242   4.868
 1840TIP3    H1 5477   1.822   0.160   4.883
 1840TIP3    H2 5478   1.801   0.309   4.869
 1841TIP3   OH2 5479   3.448   0.097   2.112
 1841TIP3    H1 5480   3.439   0.168   2.175
 1841TIP3    H2 5481   3.485   0.139   2.034
 1842TIP3   OH2 5482   4.313   7.484   6.069
 1842TIP3    H1 5483   4.407   7.481   6.088
 1842TIP3    H2 5484   4.302   7.560   6.011
 1843TIP3   OH2 5485   6.104   6.368   0.487
 1843TIP3    H1 5486   6.086   6.324   0.404
 1843TIP3    H2 5487   6.018   6.392   0.520
 1844TIP3   OH2 5488   0.401   3.074   4.855
 1844TIP3    H1 5489   0.440   3.052   4.940
 1844TIP3    H2 5490   0.308   3.084   4.873
 1845TIP3   OH2 5491   5.901   4.064   5.202
 1845TIP3    H1 5492   5.870   3.992   5.147
 1845TIP3    H2 5493   5.821   4.101   5.239
 1846TIP3   OH2 5494   4.161   4.328   4.674
 1846TIP3    H1 5495   4.186   4.343   4.765
 1846TIP3    H2 5496   4.102   4.253   4.677
 1847TIP3   OH2 5497   7.210   2.652   5.860
 1847TIP3    H1 5498   7.271   2.582   5.884
 1847TIP3    H2 5499   7.143   2.650   5.929
 1848TIP3   OH2 5500   7.412   2.377   4.071
 1848TIP3    H1 5501   7.467   2.370   3.992
 1848TIP3    H2 5502   7.391   2.470   4.078
 1849TIP3   OH2 5503   7.887   3.781   1.718
 1849TIP3    H1 5504   7.882   3.686   1.727
 1849TIP3    H2 5505   7.929   3.810   1.799
 1850TIP3   OH2 5506   4.623   6.930   2.515
 1850TIP3    H1 5507   4.532   6.957   2.505
 1850TIP3    H2 5508   4.637   6.925   2.610
 1851TIP3   OH2 5509   7.954   3.311   4.756
 1851TIP3    H1 5510   7.946   3.325   4.850
 1851TIP3    H2 5511   7.987   3.222   4.747
 1852TIP3   OH2 5512   3.771   1.088   3.827
 1852TIP3    H1 5513   3.797   1.172   3.864
 1852TIP3    H2 5514   3.849   1.033   3.835
 1853TIP3   OH2 5515   6.116   6.490   3.486
 1853TIP3    H1 5516   6.211   6.500   3.474
 1853TIP3    H2 5517   6.087   6.576   3.518
 1854TIP3   OH2 5518   4.420   2.392   1.836
 1854TIP3    H1 5519   4.350   2.370   1.775
 1854TIP3    H2 5520   4.445   2.481   1.813
 1855TIP3   OH2 5521   3.357   1.139   4.852
 1855TIP3    H1 5522   3.325   1.229   4.865
 1855TIP3    H2 5523   3.450   1.144   4.871
 1856TIP3   OH2 5524   3.798   6.885   1.955
 1856TIP3    H1 5525   3.727   6.933   1.995
 1856TIP3    H2 5526   3.782   6.891   1.861
 1857TIP3   OH2 5527   8.145   1.797   4.944
 1857TIP3    H1 5528   8.232   1.821   4.911
 1857TIP3    H2 5529   8.161   1.760   5.031
 1858TIP3   OH2 5530   0.880   3.474   4.869
 1858TIP3    H1 5531   0.955   3.414   4.866
 1858TIP3    H2 5532   0.859   3.491   4.777
 1859TIP3   OH2 5533   7.147   1.023   3.261
 1859TIP3    H1 5534   7.172   1.115   3.259
 1859TIP3    H2 5535   7.230   0.976   3.266
 1860TIP3   OH2 5536   6.185   3.100   2.131
 1860TIP3    H1 5537   6.274   3.078   2.158
 1860TIP3    H2 5538   6.133   3.022   2.151
 1861TIP3   OH2 5539   2.418   6.750   0.839
 1861TIP3    H1 5540   2.502   6.738   0.882
 1861TIP3    H2 5541   2.439   6.789   0.754
 1862TIP3   OH2 5542   4.755   0.226   2.462
 1862TIP3    H1 5543   4.694   0.265   2.398
 1862TIP3    H2 5544   4.841   0.260   2.437
 1863TIP3   OH2 5545   4.664   5.971   3.272
 1863TIP3    H1 5546   4.706   6.055   3.285
 1863TIP3    H2 5547   4.617   5.980   3.189
 1864TIP3   OH2 5548   2.862   1.460   0.468
 1864TIP3    H1 5549   2.875   1.498   0.381
 1864TIP3    H2 5550   2.897   1.371   0.462
 1865TIP3   OH2 5551   1.869   5.119   1.906
 1865TIP3    H1 5552   1.893   5.203   1.866
 1865TIP3    H2 5553   1.892   5.053   1.840
 1866TIP3   OH2 5554   5.548   4.909   0.998
 1866TIP3    H1 5555   5.635   4.943   0.978
 1866TIP3    H2 5556   5.518   4.961   1.072
 1867TIP3   OH2 5557   6.224   2.636   3.651
 1867TIP3    H1 5558   6.271   2.618   3.569
 1867TIP3    H2 5559   6.290   2.627   3.719
 1868TIP3   OH2 5560   3.657   6.080   2.950
 1868TIP3    H1 5561   3.731   6.020   2.959
 1868TIP3    H2 5562   3.621   6.086   3.039
 1869TIP3   OH2 5563   8.149   2.106   1.724
 1869TIP3    H1 5564   8.147   2.059   1.808
 1869TIP3    H2 5565   8.070   2.161   1.726
 1870TIP3   OH2 5566   5.511   1.569   3.351
 1870TIP3    H1 5567   5.456   1.565   3.429
 1870TIP3    H2 5568   5.469   1.509   3.288
 1871TIP3   OH2 5569   4.541   6.577   0.655
 1871TIP3    H1 5570   4.575   6.563   0.744
 1871TIP3    H2 5571   4.611   6.622   0.609
 1872TIP3   OH2 5572   5.744   5.714   1.230
 1872TIP3    H1 5573   5.765   5.808   1.233
 1872TIP3    H2 5574   5.764   5.688   1.140
 1873TIP3   OH2 5575   7.818   5.883   1.921
 1873TIP3    H1 5576   7.808   5.881   1.826
 1873TIP3    H2 5577   7.820   5.791   1.948
 1874TIP3   OH2 5578   3.397   6.801   0.457
 1874TIP3    H1 5579   3.480   6.781   0.412
 1874TIP3    H2 5580   3.395   6.896   0.463
 1875TIP3   OH2 5581   4.476   4.379   5.156
 1875TIP3    H1 5582   4.511   4.312   5.097
 1875TIP3    H2 5583   4.548   4.441   5.166
 1876TIP3   OH2 5584   2.964   2.660   4.965
 1876TIP3    H1 5585   2.880   2.704   4.976
 1876TIP3    H2 5586   3.018   2.722   4.915
 1877TIP3   OH2 5587   6.205   5.374   3.274
 1877TIP3    H1 5588   6.218   5.308   3.206
 1877TIP3    H2 5589   6.138   5.336   3.331
 1878TIP3   OH2 5590   6.965   1.192   3.065
 1878TIP3    H1 5591   6.881   1.166   3.027
 1878TIP3    H2 5592   6.942   1.224   3.152
 1879TIP3   OH2 5593   3.700   3.654   5.301
 1879TIP3    H1 5594   3.731   3.729   5.251
 1879TIP3    H2 5595   3.606   3.668   5.309
 1880TIP3   OH2 5596   7.220   1.806   5.137
 1880TIP3    H1 5597   7.266   1.725   5.114
 1880TIP3    H2 5598   7.279   1.850   5.199
 1881TIP3   OH2 5599   2.812   3.887   3.008
 1881TIP3    H1 5600   2.835   3.969   3.052
 1881TIP3    H2 5601   2.875   3.880   2.936
 1882TIP3   OH2 5602  -0.024   3.329   2.760
 1882TIP3    H1 5603  -0.006   3.383   2.836
 1882TIP3    H2 5604   0.057   3.279   2.746
 1883TIP3   OH2 5605   4.827   3.889   3.021
 1883TIP3    H1 5606   4.835   3.834   3.099
 1883TIP3    H2 5607   4.746   3.859   2.980
 1884TIP3   OH2 5608   4.620   2.177   1.410
 1884TIP3    H1 5609   4.543   2.139   1.452
 1884TIP3    H2 5610   4.615   2.148   1.319
 1885TIP3   OH2 5611   3.367   4.918   5.847
 1885TIP3    H1 5612   3.292   4.965   5.811
 1885TIP3    H2 5613   3.332   4.871   5.923
 1886TIP3   OH2 5614   2.574   7.656   1.562
 1886TIP3    H1 5615   2.480   7.636   1.567
 1886TIP3    H2 5616   2.614   7.573   1.537
 1887TIP3   OH2 5617   5.845   5.620   0.985
 1887TIP3    H1 5618   5.750   5.630   0.980
 1887TIP3    H2 5619   5.878   5.660   0.905
 1888TIP3   OH2 5620   1.105   5.642   2.007
 1888TIP3    H1 5621   1.124   5.717   2.063
 1888TIP3    H2 5622   1.045   5.677   1.941
 1889TIP3   OH2 5623   2.354   4.048   4.688
 1889TIP3    H1 5624   2.444   4.022   4.672
 1889TIP3    H2 5625   2.317   4.062   4.600
 1890TIP3   OH2 5626   3.157   5.182   6.563
 1890TIP3    H1 5627   3.063   5.167   6.555
 1890TIP3    H2 5628   3.172   5.191   6.657
 1891TIP3   OH2 5629   7.130   5.656   0.521
 1891TIP3    H1 5630   7.086   5.672   0.604
 1891TIP3    H2 5631   7.169   5.741   0.498
 1892TIP3   OH2 5632   8.134   5.226   5.125
 1892TIP3    H1 5633   8.119   5.145   5.076
 1892TIP3    H2 5634   8.230   5.234   5.130
 1893TIP3   OH2 5635   3.261   7.447   5.779
 1893TIP3    H1 5636   3.184   7.445   5.722
 1893TIP3    H2 5637   3.268   7.358   5.813
 1894TIP3   OH2 5638   3.046   4.239   2.970
 1894TIP3    H1 5639   2.976   4.220   2.907
 1894TIP3    H2 5640   3.127   4.218   2.924
 1895TIP3   OH2 5641   7.530   6.935   3.230
 1895TIP3    H1 5642   7.597   6.904   3.291
 1895TIP3    H2 5643   7.447   6.905   3.269
 1896TIP3   OH2 5644   7.083   7.457   6.421
 1896TIP3    H1 5645   7.114   7.369   6.441
 1896TIP3    H2 5646   6.998   7.462   6.465
 1897TIP3   OH2 5647   3.702   0.923   3.022
 1897TIP3    H1 5648   3.727   0.837   2.988
 1897TIP3    H2 5649   3.613   0.937   2.989
 1898TIP3   OH2 5650   3.084   1.606   2.038
 1898TIP3    H1 5651   3.150   1.538   2.051
 1898TIP3    H2 5652   3.131   1.677   1.994
 1899TIP3   OH2 5653   3.812   4.895   0.114
 1899TIP3    H1 5654   3.741   4.839   0.144
 1899TIP3    H2 5655   3.868   4.838   0.061
 1900TIP3   OH2 5656   0.628   5.764   0.109
 1900TIP3    H1 5657   0.718   5.766   0.141
 1900TIP3    H2 5658   0.636   5.789   0.017
 1901TIP3   OH2 5659   3.744   2.511   2.029
 1901TIP3    H1 5660   3.687   2.549   1.962
 1901TIP3    H2 5661   3.765   2.584   2.087
 1902TIP3   OH2 5662   5.607   2.841   6.654
 1902TIP3    H1 5663   5.609   2.865   6.561
 1902TIP3    H2 5664   5.523   2.874   6.685
 1903TIP3   OH2 5665   5.178   0.252   2.917
 1903TIP3    H1 5666   5.219   0.248   3.003
 1903TIP3    H2 5667   5.233   0.196   2.862
 1904TIP3   OH2 5668   4.653   4.921   2.445
 1904TIP3    H1 5669   4.642   4.904   2.351
 1904TIP3    H2 5670   4.673   5.015   2.450
 1905TIP3   OH2 5671   2.711   7.113   3.237
 1905TIP3    H1 5672   2.762   7.193   3.224
 1905TIP3    H2 5673   2.748   7.074   3.316
 1906TIP3   OH2 5674   7.006   1.239   5.266
 1906TIP3    H1 5675   6.918   1.277   5.263
 1906TIP3    H2 5676   6.991   1.145   5.282
 1907TIP3   OH2 5677   0.165   6.862   1.846
 1907TIP3    H1 5678   0.171   6.814   1.928
 1907TIP3    H2 5679   0.158   6.954   1.872
 1908TIP3   OH2 5680   7.631   1.847   2.972
 1908TIP3    H1 5681   7.663   1.937   2.968
 1908TIP3    H2 5682   7.653   1.810   2.886
 1909TIP3   OH2 5683   8.208   5.010   3.325
 1909TIP3    H1 5684   8.300   5.029   3.305
 1909TIP3    H2 5685   8.163   5.094   3.314
 1910TIP3   OH2 5686   0.262   4.241   4.212
 1910TIP3    H1 5687   0.217   4.288   4.282
 1910TIP3    H2 5688   0.199   4.175   4.183
 1911TIP3   OH2 5689   2.641   3.877   4.435
 1911TIP3    H1 5690   2.662   3.924   4.355
 1911TIP3    H2 5691   2.651   3.784   4.412
 1912TIP3   OH2 5692   6.476   6.883   4.862
 1912TIP3    H1 5693   6.547   6.939   4.833
 1912TIP3    H2 5694   6.516   6.796   4.872
 1913TIP3   OH2 5695   1.425   2.246   2.589
 1913TIP3    H1 5696   1.369   2.294   2.528
 1913TIP3    H2 5697   1.467   2.179   2.535
 1914TIP3   OH2 5698   3.078   0.853   2.351
 1914TIP3    H1 5699   2.984   0.840   2.336
 1914TIP3    H2 5700   3.121   0.798   2.286
 1915TIP3   OH2 5701   4.370   1.073   2.223
 1915TIP3    H1 5702   4.381   0.978   2.220
 1915TIP3    H2 5703   4.444   1.105   2.275
 1916TIP3   OH2 5704   4.635   5.000   3.508
 1916TIP3    H1 5705   4.721   4.992   3.467
 1916TIP3    H2 5706   4.607   5.090   3.488
 1917TIP3   OH2 5707   2.855   2.155   5.168
 1917TIP3    H1 5708   2.773   2.142   5.216
 1917TIP3    H2 5709   2.855   2.085   5.102
 1918TIP3   OH2 5710   2.488   4.277   4.448
 1918TIP3    H1 5711   2.464   4.209   4.384
 1918TIP3    H2 5712   2.533   4.229   4.517
 1919TIP3   OH2 5713   6.038   6.451   6.539
 1919TIP3    H1 5714   6.034   6.434   6.445
 1919TIP3    H2 5715   6.024   6.365   6.579
 1920TIP3   OH2 5716   2.488   0.454   2.964
 1920TIP3    H1 5717   2.531   0.523   2.912
 1920TIP3    H2 5718   2.553   0.384   2.967
 1921TIP3   OH2 5719   6.283   6.691   4.302
 1921TIP3    H1 5720   6.349   6.660   4.364
 1921TIP3    H2 5721   6.333   6.730   4.231
 1922TIP3   OH2 5722   6.852   5.374   6.064
 1922TIP3    H1 5723   6.828   5.427   5.988
 1922TIP3    H2 5724   6.920   5.425   6.109
 1923TIP3   OH2 5725   2.643   7.298   1.840
 1923TIP3    H1 5726   2.553   7.324   1.860
 1923TIP3    H2 5727   2.672   7.251   1.918
 1924TIP3   OH2 5728   3.834   1.084   0.079
 1924TIP3    H1 5729   3.860   1.074   0.170
 1924TIP3    H2 5730   3.846   1.177   0.060
 1925TIP3   OH2 5731   8.241   4.083   1.222
 1925TIP3    H1 5732   8.248   4.169   1.181
 1925TIP3    H2 5733   8.293   4.025   1.166
 1926TIP3   OH2 5734   4.823   4.440   6.765
 1926TIP3    H1 5735   4.781   4.395   6.692
 1926TIP3    H2 5736   4.804   4.533   6.751
 1927TIP3   OH2 5737   5.918   5.834   4.486
 1927TIP3    H1 5738   5.860   5.820   4.411
 1927TIP3    H2 5739   5.860   5.829   4.562
 1928TIP3   OH2 5740   5.111   4.563   5.411
 1928TIP3    H1 5741   5.058   4.641   5.392
 1928TIP3    H2 5742   5.047   4.499   5.443
 1929TIP3   OH2 5743   3.510   3.631   4.423
 1929TIP3    H1 5744   3.536   3.545   4.456
 1929TIP3    H2 5745   3.472   3.613   4.337
 1930TIP3   OH2 5746   6.258   2.750   0.972
 1930TIP3    H1 5747   6.294   2.717   1.054
 1930TIP3    H2 5748   6.165   2.764   0.989
 1931TIP3   OH2 5749   6.324   2.493   3.391
 1931TIP3    H1 5750   6.380   2.445   3.330
 1931TIP3    H2 5751   6.258   2.535   3.335
 1932TIP3   OH2 5752   7.964   0.958   4.246
 1932TIP3    H1 5753   7.961   0.871   4.206
 1932TIP3    H2 5754   7.879   0.998   4.225
 1933TIP3   OH2 5755   3.705   1.139   6.076
 1933TIP3    H1 5756   3.744   1.054   6.098
 1933TIP3    H2 5757   3.779   1.195   6.054
 1934TIP3   OH2 5758   2.544   7.309   2.914
 1934TIP3    H1 5759   2.605   7.375   2.880
 1934TIP3    H2 5760   2.500   7.353   2.986
 1935TIP3   OH2 5761   1.133   5.379   2.981
 1935TIP3    H1 5762   1.175   5.461   2.955
 1935TIP3    H2 5763   1.173   5.358   3.065
 1936TIP3   OH2 5764   7.221   0.388   0.908
 1936TIP3    H1 5765   7.278   0.342   0.969
 1936TIP3    H2 5766   7.139   0.339   0.909
 1937TIP3   OH2 5767   8.006   2.021   2.630
 1937TIP3    H1 5768   7.989   2.113   2.649
 1937TIP3    H2 5769   8.094   2.019   2.593
 1938TIP3   OH2 5770   0.025   7.065   4.973
 1938TIP3    H1 5771   0.016   6.975   4.941
 1938TIP3    H2 5772   0.027   7.118   4.893
 1939TIP3   OH2 5773   1.447   2.133   0.163
 1939TIP3    H1 5774   1.500   2.174   0.095
 1939TIP3    H2 5775   1.467   2.040   0.156
 1940TIP3   OH2 5776   4.672   4.140   1.007
 1940TIP3    H1 5777   4.754   4.147   0.958
 1940TIP3    H2 5778   4.623   4.071   0.963
 1941TIP3   OH2 5779   7.544   0.131   1.276
 1941TIP3    H1 5780   7.583   0.060   1.226
 1941TIP3    H2 5781   7.493   0.088   1.344
 1942TIP3   OH2 5782   7.634   3.871   3.995
 1942TIP3    H1 5783   7.699   3.894   4.062
 1942TIP3    H2 5784   7.572   3.814   4.042
 1943TIP3   OH2 5785   5.824   7.182   4.637
 1943TIP3    H1 5786   5.729   7.191   4.642
 1943TIP3    H2 5787   5.839   7.119   4.567
 1944TIP3   OH2 5788   6.601   7.340   5.254
 1944TIP3    H1 5789   6.679   7.361   5.202
 1944TIP3    H2 5790   6.603   7.245   5.262
 1945TIP3   OH2 5791   3.464   4.217   1.021
 1945TIP3    H1 5792   3.383   4.168   1.004
 1945TIP3    H2 5793   3.492   4.187   1.108
 1946TIP3   OH2 5794   0.229   0.767   2.108
 1946TIP3    H1 5795   0.247   0.847   2.058
 1946TIP3    H2 5796   0.315   0.734   2.133
 1947TIP3   OH2 5797   2.848   4.067   3.288
 1947TIP3    H1 5798   2.823   4.066   3.380
 1947TIP3    H2 5799   2.847   4.160   3.264
 1948TIP3   OH2 5800   5.139   3.695   2.899
 1948TIP3    H1 5801   5.199   3.619   2.901
 1948TIP3    H2 5802   5.081   3.677   2.826
 1949TIP3   OH2 5803   0.839   2.865   2.244
 1949TIP3    H1 5804   0.866   2.812   2.169
 1949TIP3    H2 5805   0.766   2.817   2.283
 1950TIP3   OH2 5806   2.595   1.154   3.680
 1950TIP3    H1 5807   2.531   1.146   3.609
 1950TIP3    H2 5808   2.654   1.079   3.668
 1951TIP3   OH2 5809   0.567   7.170   5.939
 1951TIP3    H1 5810   0.512   7.190   5.863
 1951TIP3    H2 5811   0.605   7.085   5.920
 1952TIP3   OH2 5812   1.273   5.255   0.714
 1952TIP3    H1 5813   1.304   5.171   0.681
 1952TIP3    H2 5814   1.218   5.290   0.644
 1953TIP3   OH2 5815   5.608   2.422   0.141
 1953TIP3    H1 5816   5.694   2.380   0.152
 1953TIP3    H2 5817   5.573   2.382   0.061
 1954TIP3   OH2 5818   0.483   2.272   4.686
 1954TIP3    H1 5819   0.444   2.307   4.605
 1954TIP3    H2 5820   0.435   2.191   4.702
 1955TIP3   OH2 5821   8.318   0.747   1.470
 1955TIP3    H1 5822   8.237   0.700   1.494
 1955TIP3    H2 5823   8.298   0.839   1.489
 1956TIP3   OH2 5824   7.762   1.428   1.423
 1956TIP3    H1 5825   7.836   1.386   1.380
 1956TIP3    H2 5826   7.710   1.465   1.352
 1957TIP3   OH2 5827   1.843   5.908   4.053
 1957TIP3    H1 5828   1.835   5.827   4.002
 1957TIP3    H2 5829   1.926   5.946   4.024
 1958TIP3   OH2 5830   6.884   7.735   0.679
 1958TIP3    H1 5831   6.874   7.826   0.652
 1958TIP3    H2 5832   6.813   7.689   0.634
 1959TIP3   OH2 5833   0.248   4.689   4.006
 1959TIP3    H1 5834   0.172   4.719   3.957
 1959TIP3    H2 5835   0.240   4.593   4.007
 1960TIP3   OH2 5836   2.432   5.414   0.764
 1960TIP3    H1 5837   2.511   5.442   0.809
 1960TIP3    H2 5838   2.389   5.496   0.738
 1961TIP3   OH2 5839   2.793   3.019   3.574
 1961TIP3    H1 5840   2.749   2.957   3.516
 1961TIP3    H2 5841   2.871   3.046   3.525
 1962TIP3   OH2 5842   4.645   4.939   0.823
 1962TIP3    H1 5843   4.681   4.953   0.735
 1962TIP3    H2 5844   4.717   4.964   0.882
 1963TIP3   OH2 5845   5.024   7.160   6.120
 1963TIP3    H1 5846   5.097   7.216   6.097
 1963TIP3    H2 5847   5.003   7.184   6.211
 1964TIP3   OH2 5848   0.555   2.644   0.726
 1964TIP3    H1 5849   0.597   2.578   0.670
 1964TIP3    H2 5850   0.480   2.674   0.674
 1965TIP3   OH2 5851   7.167   6.114   2.746
 1965TIP3    H1 5852   7.218   6.063   2.683
 1965TIP3    H2 5853   7.137   6.190   2.695
 1966TIP3   OH2 5854   2.218   3.064   3.022
 1966TIP3    H1 5855   2.293   3.028   2.974
 1966TIP3    H2 5856   2.247   3.151   3.049
 1967TIP3   OH2 5857   1.801   2.693   4.805
 1967TIP3    H1 5858   1.890   2.724   4.823
 1967TIP3    H2 5859   1.797   2.606   4.847
 1968TIP3   OH2 5860   4.229   2.084   4.138
 1968TIP3    H1 5861   4.289   2.128   4.198
 1968TIP3    H2 5862   4.155   2.144   4.130
 1969TIP3   OH2 5863   3.774   3.553   3.147
 1969TIP3    H1 5864   3.733   3.602   3.076
 1969TIP3    H2 5865   3.769   3.461   3.119
 1970TIP3   OH2 5866   3.052   1.397   0.763
 1970TIP3    H1 5867   2.968   1.373   0.803
 1970TIP3    H2 5868   3.096   1.314   0.749
 1971TIP3   OH2 5869   3.432   2.487   0.916
 1971TIP3    H1 5870   3.480   2.446   0.844
 1971TIP3    H2 5871   3.342   2.493   0.884
 1972TIP3   OH2 5872   4.553   1.246   4.679
 1972TIP3    H1 5873   4.648   1.234   4.677
 1972TIP3    H2 5874   4.526   1.245   4.587
 1973TIP3   OH2 5875   2.262   2.178   0.080
 1973TIP3    H1 5876   2.197   2.212   0.142
 1973TIP3    H2 5877   2.339   2.159   0.135
 1974TIP3   OH2 5878   5.547   5.986   6.742
 1974TIP3    H1 5879   5.631   5.940   6.746
 1974TIP3    H2 5880   5.568   6.078   6.753
 1975TIP3   OH2 5881   2.138   6.386   6.203
 1975TIP3    H1 5882   2.169   6.297   6.216
 1975TIP3    H2 5883   2.200   6.441   6.251
 1976TIP3   OH2 5884   2.490   6.109   3.015
 1976TIP3    H1 5885   2.479   6.201   3.039
 1976TIP3    H2 5886   2.495   6.062   3.098
 1977TIP3   OH2 5887   1.314   2.281   4.398
 1977TIP3    H1 5888   1.393   2.228   4.412
 1977TIP3    H2 5889   1.304   2.285   4.303
 1978TIP3   OH2 5890   0.704   3.525   0.245
 1978TIP3    H1 5891   0.734   3.564   0.163
 1978TIP3    H2 5892   0.743   3.438   0.246
 1979TIP3   OH2 5893   0.680   7.068   0.131
 1979TIP3    H1 5894   0.667   7.017   0.211
 1979TIP3    H2 5895   0.729   7.145   0.160
 1980TIP3   OH2 5896   0.757   3.708   2.212
 1980TIP3    H1 5897   0.743   3.614   2.223
 1980TIP3    H2 5898   0.724   3.728   2.124
 1981TIP3   OH2 5899   0.459   1.986   5.354
 1981TIP3    H1 5900   0.476   1.898   5.320
 1981TIP3    H2 5901   0.527   2.041   5.316
 1982TIP3   OH2 5902   7.277   0.068   0.460
 1982TIP3    H1 5903   7.205   0.008   0.479
 1982TIP3    H2 5904   7.333   0.019   0.399
 1983TIP3   OH2 5905   2.878   6.024   3.022
 1983TIP3    H1 5906   2.899   6.117   3.035
 1983TIP3    H2 5907   2.849   5.994   3.108
 1984TIP3   OH2 5908   5.996   2.895   5.738
 1984TIP3    H1 5909   5.910   2.865   5.768
 1984TIP3    H2 5910   5.981   2.984   5.706
 1985TIP3   OH2 5911   3.306   0.776   3.073
 1985TIP3    H1 5912   3.219   0.762   3.110
 1985TIP3    H2 5913   3.301   0.742   2.984
 1986TIP3   OH2 5914   4.303   6.461   1.452
 1986TIP3    H1 5915   4.291   6.377   1.408
 1986TIP3    H2 5916   4.392   6.487   1.431
 1987TIP3   OH2 5917   5.129   5.284   2.419
 1987TIP3    H1 5918   5.141   5.246   2.506
 1987TIP3    H2 5919   5.121   5.209   2.360
 1988TIP3   OH2 5920   7.915   2.143   4.810
 1988TIP3    H1 5921   7.905   2.211   4.744
 1988TIP3    H2 5922   7.893   2.186   4.893
 1989TIP3   OH2 5923   3.841   3.139   6.299
 1989TIP3    H1 5924   3.937   3.137   6.293
 1989TIP3    H2 5925   3.812   3.172   6.215
 1990TIP3   OH2 5926   6.753   2.007   3.039
 1990TIP3    H1 5927   6.845   1.987   3.060
 1990TIP3    H2 5928   6.713   1.921   3.027
 1991TIP3   OH2 5929   2.959   0.488   4.503
 1991TIP3    H1 5930   2.885   0.428   4.510
 1991TIP3    H2 5931   2.928   0.558   4.445
 1992TIP3   OH2 5932   8.285   7.384   4.553
 1992TIP3    H1 5933   8.365   7.369   4.503
 1992TIP3    H2 5934   8.217   7.396   4.487
 1993TIP3   OH2 5935   4.068   6.383   2.553
 1993TIP3    H1 5936   4.030   6.457   2.506
 1993TIP3    H2 5937   4.050   6.400   2.645
 1994TIP3   OH2 5938   6.117   0.010   4.340
 1994TIP3    H1 5939   6.173   0.084   4.315
 1994TIP3    H2 5940   6.105   0.020   4.434
 1995TIP3   OH2 5941   6.399   6.392   4.906
 1995TIP3    H1 5942   6.366   6.357   4.989
 1995TIP3    H2 5943   6.371   6.328   4.840
 1996TIP3   OH2 5944   1.251   7.028   4.812
 1996TIP3    H1 5945   1.167   7.071   4.828
 1996TIP3    H2 5946   1.268   6.978   4.892
 1997TIP3   OH2 5947   0.497   3.304   2.521
 1997TIP3    H1 5948   0.426   3.346   2.571
 1997TIP3    H2 5949   0.538   3.376   2.473
 1998TIP3   OH2 5950   2.716   5.821   4.437
 1998TIP3    H1 5951   2.803   5.820   4.398
 1998TIP3    H2 5952   2.727   5.871   4.518
 1999TIP3   OH2 5953   6.634   2.070   0.828
 1999TIP3    H1 5954   6.698   2.090   0.759
 1999TIP3    H2 5955   6.576   2.146   0.829
 2000TIP3   OH2 5956   2.614   6.229   2.814
 2000TIP3    H1 5957   2.538   6.220   2.756
 2000TIP3    H2 5958   2.589   6.182   2.894
 2001TIP3   OH2 5959   6.326   5.722   3.853
 2001TIP3    H1 5960   6.273   5.768   3.788
 2001TIP3    H2 5961   6.417   5.740   3.827
 2002TIP3   OH2 5962   4.373   0.419   4.183
 2002TIP3    H1 5963   4.358   0.438   4.275
 2002TIP3    H2 5964   4.305   0.356   4.160
 2003TIP3   OH2 5965   1.607   0.022   0.790
 2003TIP3    H1 5966   1.619  -0.021   0.706
 2003TIP3    H2 5967   1.513   0.020   0.805
 2004TIP3   OH2 5968   7.083   3.277   2.499
 2004TIP3    H1 5969   7.078   3.373   2.502
 2004TIP3    H2 5970   7.121   3.252   2.583
 2005TIP3   OH2 5971   7.439   0.216   2.490
 2005TIP3    H1 5972   7.384   0.271   2.434
 2005TIP3    H2 5973   7.402   0.228   2.578
 2006TIP3   OH2 5974   3.361   0.441   3.113
 2006TIP3    H1 5975   3.345   0.441   3.207
 2006TIP3    H2 5976   3.274   0.446   3.073
 2007TIP3   OH2 5977   7.660   4.844   0.566
 2007TIP3    H1 5978   7.711   4.770   0.533
 2007TIP3    H2 5979   7.598   4.804   0.627
 2008TIP3   OH2 5980   7.107   5.533   6.098
 2008TIP3    H1 5981   7.096   5.622   6.133
 2008TIP3    H2 5982   7.200   5.527   6.077
 2009TIP3   OH2 5983   7.851   1.767   1.366
 2009TIP3    H1 5984   7.768   1.813   1.350
 2009TIP3    H2 5985   7.870   1.723   1.284
 2010TIP3   OH2 5986   7.192   0.709   4.355
 2010TIP3    H1 5987   7.223   0.791   4.393
 2010TIP3    H2 5988   7.271   0.665   4.325
 2011TIP3   OH2 5989   7.413   5.412   4.161
 2011TIP3    H1 5990   7.466   5.391   4.084
 2011TIP3    H2 5991   7.348   5.343   4.166
 2012TIP3   OH2 5992   2.080   7.141   5.535
 2012TIP3    H1 5993   2.023   7.125   5.460
 2012TIP3    H2 5994   2.044   7.221   5.575
 2013TIP3   OH2 5995   2.277   3.312   5.107
 2013TIP3    H1 5996   2.193   3.330   5.065
 2013TIP3    H2 5997   2.316   3.399   5.119
 2014TIP3   OH2 5998   6.648   2.933   2.979
 2014TIP3    H1 5999   6.638   2.986   2.900
 2014TIP3    H2 6000   6.634   2.995   3.051
 2015TIP3   OH2 6001   2.750   3.078   5.690
 2015TIP3    H1 6002   2.735   3.140   5.619
 2015TIP3    H2 6003   2.663   3.052   5.719
 2016TIP3   OH2 6004   7.535   3.418   6.098
 2016TIP3    H1 6005   7.517   3.431   6.191
 2016TIP3    H2 6006   7.589   3.493   6.074
 2017TIP3   OH2 6007   0.461   4.957  -0.020
 2017TIP3    H1 6008   0.422   5.034   0.022
 2017TIP3    H2 6009   0.417   4.883   0.021
 2018TIP3   OH2 6010   5.932   4.950   2.006
 2018TIP3    H1 6011   5.991   4.898   1.952
 2018TIP3    H2 6012   5.986   4.975   2.082
 2019TIP3   OH2 6013   6.080   5.172   3.403
 2019TIP3    H1 6014   6.087   5.092   3.350
 2019TIP3    H2 6015   6.159   5.173   3.457
 2020TIP3   OH2 6016   4.969   3.847   3.790
 2020TIP3    H1 6017   5.001   3.798   3.865
 2020TIP3    H2 6018   4.980   3.939   3.814
 2021TIP3   OH2 6019   1.237   3.870   1.549
 2021TIP3    H1 6020   1.178   3.795   1.544
 2021TIP3    H2 6021   1.214   3.923   1.473
 2022TIP3   OH2 6022   3.242   0.864   4.881
 2022TIP3    H1 6023   3.269   0.955   4.890
 2022TIP3    H2 6024   3.318   0.820   4.842
 2023TIP3   OH2 6025   5.460   1.818   1.744
 2023TIP3    H1 6026   5.397   1.861   1.687
 2023TIP3    H2 6027   5.516   1.768   1.685
 2024TIP3   OH2 6028   2.603   4.025   5.377
 2024TIP3    H1 6029   2.663   4.054   5.309
 2024TIP3    H2 6030   2.656   3.971   5.436
 2025TIP3   OH2 6031   1.029   4.424   2.075
 2025TIP3    H1 6032   1.041   4.452   1.984
 2025TIP3    H2 6033   0.955   4.475   2.107
 2026TIP3   OH2 6034   8.268   6.919   1.313
 2026TIP3    H1 6035   8.345   6.883   1.269
 2026TIP3    H2 6036   8.231   6.980   1.249
 2027TIP3   OH2 6037   4.008   7.763   2.813
 2027TIP3    H1 6038   3.914   7.765   2.828
 2027TIP3    H2 6039   4.035   7.676   2.844
 2028TIP3   OH2 6040   3.734   1.404   5.308
 2028TIP3    H1 6041   3.658   1.347   5.317
 2028TIP3    H2 6042   3.743   1.446   5.393
 2029TIP3   OH2 6043   2.593   1.442   0.150
 2029TIP3    H1 6044   2.504   1.440   0.186
 2029TIP3    H2 6045   2.590   1.511   0.084
 2030TIP3   OH2 6046   5.128   4.253   1.350
 2030TIP3    H1 6047   5.209   4.204   1.344
 2030TIP3    H2 6048   5.086   4.221   1.430
 2031TIP3   OH2 6049   4.745   3.898   5.160
 2031TIP3    H1 6050   4.749   3.805   5.181
 2031TIP3    H2 6051   4.676   3.933   5.217
 2032TIP3   OH2 6052   6.359   2.728   2.062
 2032TIP3    H1 6053   6.402   2.735   2.147
 2032TIP3    H2 6054   6.401   2.797   2.009
 2033TIP3   OH2 6055   5.731   0.935   4.911
 2033TIP3    H1 6056   5.657   0.915   4.854
 2033TIP3    H2 6057   5.755   0.852   4.950
 2034TIP3   OH2 6058   4.214   0.059   1.315
 2034TIP3    H1 6059   4.204   0.074   1.409
 2034TIP3    H2 6060   4.302   0.089   1.295
 2035TIP3   OH2 6061   4.819   0.255   0.038
 2035TIP3    H1 6062   4.915   0.248   0.038
 2035TIP3    H2 6063   4.801   0.336   0.086
 2036TIP3   OH2 6064   3.544   4.949   3.302
 2036TIP3    H1 6065   3.582   5.034   3.279
 2036TIP3    H2 6066   3.593   4.885   3.250
 2037TIP3   OH2 6067   5.359   4.180   6.015
 2037TIP3    H1 6068   5.369   4.232   6.095
 2037TIP3    H2 6069   5.390   4.093   6.038
 2038TIP3   OH2 6070   0.919   0.440   3.496
 2038TIP3    H1 6071   0.884   0.469   3.581
 2038TIP3    H2 6072   0.863   0.366   3.471
 2039TIP3   OH2 6073   1.331   5.709   3.373
 2039TIP3    H1 6074   1.396   5.689   3.441
 2039TIP3    H2 6075   1.383   5.734   3.297
 2040TIP3   OH2 6076   7.347   1.232   1.609
 2040TIP3    H1 6077   7.329   1.244   1.702
 2040TIP3    H2 6078   7.277   1.175   1.578
 2041TIP3   OH2 6079   3.724   1.963   1.662
 2041TIP3    H1 6080   3.651   2.026   1.660
 2041TIP3    H2 6081   3.696   1.897   1.726
 2042TIP3   OH2 6082   4.652   1.723   1.736
 2042TIP3    H1 6083   4.741   1.715   1.700
 2042TIP3    H2 6084   4.600   1.660   1.686
 2043TIP3   OH2 6085   7.132   6.889   1.162
 2043TIP3    H1 6086   7.141   6.797   1.186
 2043TIP3    H2 6087   7.204   6.933   1.208
 2044TIP3   OH2 6088   2.704   2.293   4.594
 2044TIP3    H1 6089   2.725   2.224   4.532
 2044TIP3    H2 6090   2.768   2.282   4.664
 2045TIP3   OH2 6091   6.276   0.787   3.473
 2045TIP3    H1 6092   6.330   0.809   3.397
 2045TIP3    H2 6093   6.292   0.694   3.488
 2046TIP3   OH2 6094   6.547   1.409   6.365
 2046TIP3    H1 6095   6.509   1.368   6.442
 2046TIP3    H2 6096   6.507   1.363   6.291
 2047TIP3   OH2 6097   1.710   3.633   1.222
 2047TIP3    H1 6098   1.640   3.594   1.275
 2047TIP3    H2 6099   1.717   3.576   1.146
 2048TIP3   OH2 6100   6.209   6.403   2.172
 2048TIP3    H1 6101   6.304   6.398   2.177
 2048TIP3    H2 6102   6.179   6.319   2.206
 2049TIP3   OH2 6103   4.665   1.220   2.802
 2049TIP3    H1 6104   4.571   1.198   2.798
 2049TIP3    H2 6105   4.702   1.153   2.860
 2050TIP3   OH2 6106   0.004   4.694   6.234
 2050TIP3    H1 6107   0.007   4.702   6.139
 2050TIP3    H2 6108   0.021   4.783   6.266
 2051TIP3   OH2 6109   1.059   0.946   1.763
 2051TIP3    H1 6110   1.064   0.907   1.850
 2051TIP3    H2 6111   1.140   0.997   1.755
 2052TIP3   OH2 6112   6.412   5.440   3.612
 2052TIP3    H1 6113   6.412   5.418   3.706
 2052TIP3    H2 6114   6.398   5.534   3.610
 2053TIP3   OH2 6115   5.998   3.186   1.386
 2053TIP3    H1 6116   5.953   3.225   1.311
 2053TIP3    H2 6117   6.090   3.209   1.373
 2054TIP3   OH2 6118   7.370   0.581   6.135
 2054TIP3    H1 6119   7.399   0.668   6.163
 2054TIP3    H2 6120   7.362   0.588   6.040
 2055TIP3   OH2 6121   8.165   5.821   6.187
 2055TIP3    H1 6122   8.098   5.889   6.189
 2055TIP3    H2 6123   8.128   5.751   6.133
 2056TIP3   OH2 6124   0.063   0.147   4.777
 2056TIP3    H1 6125   0.010   0.171   4.701
 2056TIP3    H2 6126   0.150   0.131   4.742
 2057TIP3   OH2 6127   8.049   0.733   1.831
 2057TIP3    H1 6128   7.955   0.721   1.815
 2057TIP3    H2 6129   8.080   0.647   1.859
 2058TIP3   OH2 6130   6.665   7.638   5.227
 2058TIP3    H1 6131   6.699   7.552   5.205
 2058TIP3    H2 6132   6.573   7.623   5.249
 2059TIP3   OH2 6133   3.745   4.298   2.911
 2059TIP3    H1 6134   3.831   4.338   2.923
 2059TIP3    H2 6135   3.745   4.221   2.967
 2060TIP3   OH2 6136   6.895   6.203   3.900
 2060TIP3    H1 6137   6.886   6.240   3.988
 2060TIP3    H2 6138   6.818   6.147   3.889
 2061TIP3   OH2 6139   7.457   3.181   0.536
 2061TIP3    H1 6140   7.512   3.245   0.491
 2061TIP3    H2 6141   7.384   3.232   0.572
 2062TIP3   OH2 6142   0.243   0.405   6.123
 2062TIP3    H1 6143   0.161   0.363   6.097
 2062TIP3    H2 6144   0.272   0.451   6.044
 2063TIP3   OH2 6145   7.113   0.538   2.600
 2063TIP3    H1 6146   7.082   0.449   2.581
 2063TIP3    H2 6147   7.143   0.534   2.691
 2064TIP3   OH2 6148   0.545   3.566   5.892
 2064TIP3    H1 6149   0.590   3.650   5.887
 2064TIP3    H2 6150   0.565   3.533   5.979
 2065TIP3   OH2 6151   5.015   3.750   0.995
 2065TIP3    H1 6152   4.988   3.663   1.023
 2065TIP3    H2 6153   5.103   3.738   0.960
 2066TIP3   OH2 6154   5.993   5.984   5.698
 2066TIP3    H1 6155   5.979   6.014   5.608
 2066TIP3    H2 6156   6.063   6.040   5.731
 2067TIP3   OH2 6157   1.877   4.904   4.204
 2067TIP3    H1 6158   1.965   4.928   4.174
 2067TIP3    H2 6159   1.887   4.889   4.298
 2068TIP3   OH2 6160   4.214   7.504   5.672
 2068TIP3    H1 6161   4.231   7.571   5.738
 2068TIP3    H2 6162   4.276   7.435   5.691
 2069TIP3   OH2 6163   3.784   5.000   4.939
 2069TIP3    H1 6164   3.719   4.992   5.009
 2069TIP3    H2 6165   3.868   4.990   4.983
 2070TIP3   OH2 6166   6.020   7.216   5.751
 2070TIP3    H1 6167   5.966   7.137   5.758
 2070TIP3    H2 6168   5.970   7.284   5.795
 2071TIP3   OH2 6169   1.118   1.469   4.456
 2071TIP3    H1 6170   1.207   1.440   4.440
 2071TIP3    H2 6171   1.071   1.390   4.481
 2072TIP3   OH2 6172   1.583   4.502   5.608
 2072TIP3    H1 6173   1.587   4.464   5.695
 2072TIP3    H2 6174   1.663   4.554   5.600
 2073TIP3   OH2 6175   7.327   0.349   0.523
 2073TIP3    H1 6176   7.325   0.254   0.529
 2073TIP3    H2 6177   7.246   0.378   0.566
 2074TIP3   OH2 6178   0.817   2.504   0.348
 2074TIP3    H1 6179   0.908   2.477   0.346
 2074TIP3    H2 6180   0.803   2.552   0.266
 2075TIP3   OH2 6181   3.770   4.577   0.873
 2075TIP3    H1 6182   3.761   4.490   0.914
 2075TIP3    H2 6183   3.689   4.622   0.895
 2076TIP3   OH2 6184   3.680   6.468   1.833
 2076TIP3    H1 6185   3.752   6.414   1.864
 2076TIP3    H2 6186   3.699   6.555   1.867
 2077TIP3   OH2 6187   2.198   7.332   0.137
 2077TIP3    H1 6188   2.128   7.394   0.159
 2077TIP3    H2 6189   2.183   7.311   0.045
 2078TIP3   OH2 6190   3.185   1.954   3.940
 2078TIP3    H1 6191   3.212   2.002   4.019
 2078TIP3    H2 6192   3.267   1.933   3.895
 2079TIP3   OH2 6193   4.520   3.885   6.397
 2079TIP3    H1 6194   4.547   3.816   6.458
 2079TIP3    H2 6195   4.470   3.839   6.330
 2080TIP3   OH2 6196   0.903   0.116   0.867
 2080TIP3    H1 6197   0.870   0.172   0.937
 2080TIP3    H2 6198   0.953   0.047   0.912
 2081TIP3   OH2 6199   4.713   6.701   2.324
 2081TIP3    H1 6200   4.697   6.627   2.384
 2081TIP3    H2 6201   4.697   6.779   2.378
 2082TIP3   OH2 6202   1.500   2.832   0.828
 2082TIP3    H1 6203   1.477   2.918   0.792
 2082TIP3    H2 6204   1.595   2.835   0.840
 2083TIP3   OH2 6205   0.984   7.196   5.320
 2083TIP3    H1 6206   0.937   7.279   5.317
 2083TIP3    H2 6207   1.026   7.195   5.406
 2084TIP3   OH2 6208   7.387   1.611   2.936
 2084TIP3    H1 6209   7.477   1.637   2.920
 2084TIP3    H2 6210   7.358   1.665   3.009
 2085TIP3   OH2 6211   6.704   1.295   5.170
 2085TIP3    H1 6212   6.663   1.309   5.085
 2085TIP3    H2 6213   6.684   1.203   5.191
 2086TIP3   OH2 6214   5.355   4.536   2.980
 2086TIP3    H1 6215   5.346   4.590   2.902
 2086TIP3    H2 6216   5.295   4.463   2.966
 2087TIP3   OH2 6217   3.373   6.612   1.192
 2087TIP3    H1 6218   3.446   6.596   1.252
 2087TIP3    H2 6219   3.386   6.702   1.162
 2088TIP3   OH2 6220   2.642   0.180   4.981
 2088TIP3    H1 6221   2.549   0.199   4.965
 2088TIP3    H2 6222   2.655   0.202   5.073
 2089TIP3   OH2 6223   1.233   4.592   5.666
 2089TIP3    H1 6224   1.277   4.673   5.690
 2089TIP3    H2 6225   1.269   4.526   5.725
 2090TIP3   OH2 6226   8.045   6.242   6.379
 2090TIP3    H1 6227   8.140   6.245   6.391
 2090TIP3    H2 6228   8.013   6.199   6.458
 2091TIP3   OH2 6229   5.876   5.202   6.712
 2091TIP3    H1 6230   5.878   5.210   6.617
 2091TIP3    H2 6231   5.786   5.178   6.733
 2092TIP3   OH2 6232   6.921   3.773   2.871
 2092TIP3    H1 6233   6.995   3.763   2.811
 2092TIP3    H2 6234   6.955   3.827   2.943
 2093TIP3   OH2 6235   5.338   5.990   5.904
 2093TIP3    H1 6236   5.259   5.940   5.925
 2093TIP3    H2 6237   5.404   5.923   5.885
 2094TIP3   OH2 6238   1.532   1.348   2.605
 2094TIP3    H1 6239   1.497   1.263   2.577
 2094TIP3    H2 6240   1.467   1.412   2.576
 2095TIP3   OH2 6241   5.004   2.562   4.615
 2095TIP3    H1 6242   5.056   2.640   4.636
 2095TIP3    H2 6243   5.053   2.519   4.545
 2096TIP3   OH2 6244   2.292   3.407   5.852
 2096TIP3    H1 6245   2.294   3.348   5.777
 2096TIP3    H2 6246   2.200   3.410   5.878
 2097TIP3   OH2 6247   0.712   3.107   2.192
 2097TIP3    H1 6248   0.708   3.162   2.269
 2097TIP3    H2 6249   0.785   3.047   2.209
 2098TIP3   OH2 6250   0.622   4.985   4.876
 2098TIP3    H1 6251   0.675   4.939   4.811
 2098TIP3    H2 6252   0.580   4.915   4.925
 2099TIP3   OH2 6253   4.366   0.006   2.925
 2099TIP3    H1 6254   4.442   0.040   2.972
 2099TIP3    H2 6255   4.384   0.024   2.833
 2100TIP3   OH2 6256   1.442   6.414   4.796
 2100TIP3    H1 6257   1.395   6.464   4.864
 2100TIP3    H2 6258   1.512   6.473   4.768
 2101TIP3   OH2 6259   3.396   3.402   5.342
 2101TIP3    H1 6260   3.434   3.429   5.425
 2101TIP3    H2 6261   3.469   3.362   5.294
 2102TIP3   OH2 6262   7.019   2.309   1.754
 2102TIP3    H1 6263   6.963   2.289   1.679
 2102TIP3    H2 6264   7.096   2.253   1.743
 2103TIP3   OH2 6265   0.596   2.800   3.129
 2103TIP3    H1 6266   0.594   2.896   3.120
 2103TIP3    H2 6267   0.566   2.784   3.218
 2104TIP3   OH2 6268   3.120   1.017   4.074
 2104TIP3    H1 6269   3.161   1.075   4.011
 2104TIP3    H2 6270   3.047   1.067   4.110
 2105TIP3   OH2 6271   7.409   6.173   0.385
 2105TIP3    H1 6272   7.374   6.145   0.470
 2105TIP3    H2 6273   7.371   6.260   0.372
 2106TIP3   OH2 6274   6.651   2.265   6.455
 2106TIP3    H1 6275   6.586   2.221   6.508
 2106TIP3    H2 6276   6.705   2.313   6.519
 2107TIP3   OH2 6277   4.586   7.385   0.047
 2107TIP3    H1 6278   4.605   7.399   0.140
 2107TIP3    H2 6279   4.491   7.385   0.041
 2108TIP3   OH2 6280   5.636   0.363   2.977
 2108TIP3    H1 6281   5.624   0.322   2.891
 2108TIP3    H2 6282   5.655   0.455   2.957
 2109TIP3   OH2 6283   0.189   4.902   3.566
 2109TIP3    H1 6284   0.151   4.987   3.589
 2109TIP3    H2 6285   0.278   4.905   3.601
 2110TIP3   OH2 6286   3.925   3.673   3.759
 2110TIP3    H1 6287   3.917   3.745   3.696
 2110TIP3    H2 6288   3.844   3.622   3.747
 2111TIP3   OH2 6289   4.400   3.525   2.762
 2111TIP3    H1 6290   4.353   3.604   2.789
 2111TIP3    H2 6291   4.435   3.489   2.844
 2112TIP3   OH2 6292   5.637   6.601   4.118
 2112TIP3    H1 6293   5.596   6.653   4.188
 2112TIP3    H2 6294   5.707   6.554   4.163
 2113TIP3   OH2 6295   0.369   6.093   2.345
 2113TIP3    H1 6296   0.394   6.178   2.382
 2113TIP3    H2 6297   0.286   6.109   2.301
 2114TIP3   OH2 6298   5.308   0.642   5.876
 2114TIP3    H1 6299   5.349   0.556   5.874
 2114TIP3    H2 6300   5.289   0.659   5.968
 2115TIP3   OH2 6301   6.469   0.979   5.672
 2115TIP3    H1 6302   6.385   0.993   5.628
 2115TIP3    H2 6303   6.508   1.066   5.678
 2116TIP3   OH2 6304   4.128   2.155   5.944
 2116TIP3    H1 6305   4.221   2.154   5.923
 2116TIP3    H2 6306   4.123   2.128   6.036
 2117TIP3   OH2 6307   4.396   2.054   2.479
 2117TIP3    H1 6308   4.411   2.146   2.500
 2117TIP3    H2 6309   4.380   2.053   2.385
 2118TIP3   OH2 6310   2.459   5.616   2.909
 2118TIP3    H1 6311   2.470   5.569   2.826
 2118TIP3    H2 6312   2.491   5.704   2.890
 2119TIP3   OH2 6313   0.715   0.230   5.306
 2119TIP3    H1 6314   0.632   0.185   5.323
 2119TIP3    H2 6315   0.781   0.161   5.313
 2120TIP3   OH2 6316   4.364   1.609   2.010
 2120TIP3    H1 6317   4.457   1.605   2.034
 2120TIP3    H2 6318   4.339   1.699   2.026
 2121TIP3   OH2 6319   1.638   6.295   2.567
 2121TIP3    H1 6320   1.608   6.241   2.494
 2121TIP3    H2 6321   1.724   6.328   2.539
 2122TIP3   OH2 6322   7.227   2.521   0.781
 2122TIP3    H1 6323   7.180   2.536   0.863
 2122TIP3    H2 6324   7.170   2.558   0.713
 2123TIP3   OH2 6325   1.316   0.387   1.028
 2123TIP3    H1 6326   1.263   0.463   1.005
 2123TIP3    H2 6327   1.404   0.410   0.998
 2124TIP3   OH2 6328   5.195   3.593   0.123
 2124TIP3    H1 6329   5.105   3.578   0.094
 2124TIP3    H2 6330   5.199   3.553   0.210
 2125TIP3   OH2 6331   5.281   3.030   4.267
 2125TIP3    H1 6332   5.375   3.036   4.280
 2125TIP3    H2 6333   5.256   3.114   4.228
 2126TIP3   OH2 6334   1.563   2.689   1.241
 2126TIP3    H1 6335   1.643   2.720   1.199
 2126TIP3    H2 6336   1.492   2.725   1.187
 2127TIP3   OH2 6337   1.623   7.579   3.099
 2127TIP3    H1 6338   1.536   7.539   3.094
 2127TIP3    H2 6339   1.610   7.669   3.070
 2128TIP3   OH2 6340   2.967   1.094   3.574
 2128TIP3    H1 6341   3.030   1.044   3.624
 2128TIP3    H2 6342   3.020   1.156   3.523
 2129TIP3   OH2 6343   0.598   2.533   3.072
 2129TIP3    H1 6344   0.592   2.627   3.089
 2129TIP3    H2 6345   0.566   2.491   3.152
 2130TIP3   OH2 6346   3.792   5.369   4.662
 2130TIP3    H1 6347   3.816   5.277   4.674
 2130TIP3    H2 6348   3.802   5.384   4.567
 2131TIP3   OH2 6349   6.497   1.918   0.089
 2131TIP3    H1 6350   6.589   1.942   0.080
 2131TIP3    H2 6351   6.496   1.823   0.085
 2132TIP3   OH2 6352   1.447   2.739   1.830
 2132TIP3    H1 6353   1.497   2.797   1.773
 2132TIP3    H2 6354   1.508   2.667   1.850
 2133TIP3   OH2 6355   5.592   1.181   6.544
 2133TIP3    H1 6356   5.687   1.185   6.534
 2133TIP3    H2 6357   5.564   1.115   6.480
 2134TIP3   OH2 6358   7.821   3.666   4.134
 2134TIP3    H1 6359   7.883   3.736   4.116
 2134TIP3    H2 6360   7.864   3.614   4.202
 2135TIP3   OH2 6361   6.279   1.813   1.299
 2135TIP3    H1 6362   6.339   1.739   1.306
 2135TIP3    H2 6363   6.229   1.796   1.220
 2136TIP3   OH2 6364   2.325   7.477   5.209
 2136TIP3    H1 6365   2.408   7.459   5.165
 2136TIP3    H2 6366   2.322   7.572   5.217
 2137TIP3   OH2 6367   6.825   5.071   2.121
 2137TIP3    H1 6368   6.795   5.069   2.030
 2137TIP3    H2 6369   6.886   5.144   2.124
 2138TIP3   OH2 6370   2.525   2.020   3.138
 2138TIP3    H1 6371   2.579   2.012   3.059
 2138TIP3    H2 6372   2.438   2.042   3.106
 2139TIP3   OH2 6373   4.276   6.623   2.291
 2139TIP3    H1 6374   4.201   6.676   2.266
 2139TIP3    H2 6375   4.246   6.570   2.364
 2140TIP3   OH2 6376   2.030   5.861   3.840
 2140TIP3    H1 6377   1.973   5.917   3.787
 2140TIP3    H2 6378   2.078   5.809   3.775
 2141TIP3   OH2 6379   0.914   1.328   4.131
 2141TIP3    H1 6380   0.884   1.353   4.043
 2141TIP3    H2 6381   0.844   1.356   4.189
 2142TIP3   OH2 6382   3.541   0.829   5.649
 2142TIP3    H1 6383   3.601   0.877   5.706
 2142TIP3    H2 6384   3.514   0.753   5.701
 2143TIP3   OH2 6385   1.199   4.166   1.733
 2143TIP3    H1 6386   1.236   4.079   1.715
 2143TIP3    H2 6387   1.221   4.183   1.825
 2144TIP3   OH2 6388   0.461   3.779   0.804
 2144TIP3    H1 6389   0.434   3.701   0.853
 2144TIP3    H2 6390   0.556   3.770   0.796
 2145TIP3   OH2 6391   6.471   1.323   2.284
 2145TIP3    H1 6392   6.387   1.369   2.286
 2145TIP3    H2 6393   6.457   1.250   2.225
 2146TIP3   OH2 6394   2.039   7.761   5.845
 2146TIP3    H1 6395   2.009   7.823   5.778
 2146TIP3    H2 6396   2.117   7.801   5.882
 2147TIP3   OH2 6397   0.230   7.695   0.661
 2147TIP3    H1 6398   0.212   7.609   0.699
 2147TIP3    H2 6399   0.285   7.677   0.585
 2148TIP3   OH2 6400   4.720   0.389   4.043
 2148TIP3    H1 6401   4.748   0.307   4.083
 2148TIP3    H2 6402   4.636   0.368   4.002
 2149TIP3   OH2 6403   4.138   2.988   1.554
 2149TIP3    H1 6404   4.052   2.945   1.554
 2149TIP3    H2 6405   4.146   3.026   1.641
 2150TIP3   OH2 6406   4.439   4.733   5.447
 2150TIP3    H1 6407   4.475   4.658   5.494
 2150TIP3    H2 6408   4.399   4.696   5.368
 2151TIP3   OH2 6409   3.883   5.096   0.615
 2151TIP3    H1 6410   3.916   5.186   0.618
 2151TIP3    H2 6411   3.805   5.097   0.671
 2152TIP3   OH2 6412   6.893   6.633   0.333
 2152TIP3    H1 6413   6.871   6.553   0.286
 2152TIP3    H2 6414   6.973   6.612   0.381
 2153TIP3   OH2 6415   4.904   0.081   2.992
 2153TIP3    H1 6416   4.929   0.174   2.992
 2153TIP3    H2 6417   4.915   0.053   3.083
 2154TIP3   OH2 6418   5.668   2.157   2.369
 2154TIP3    H1 6419   5.741   2.144   2.309
 2154TIP3    H2 6420   5.629   2.070   2.379
 2155TIP3   OH2 6421   7.943   4.182   1.152
 2155TIP3    H1 6422   7.878   4.176   1.082
 2155TIP3    H2 6423   7.975   4.272   1.147
 2156TIP3   OH2 6424   3.540   7.327   4.138
 2156TIP3    H1 6425   3.602   7.395   4.112
 2156TIP3    H2 6426   3.584   7.278   4.207
 2157TIP3   OH2 6427   6.234   6.543   1.946
 2157TIP3    H1 6428   6.186   6.509   2.021
 2157TIP3    H2 6429   6.175   6.530   1.872
 2158TIP3   OH2 6430   2.618   1.778   2.741
 2158TIP3    H1 6431   2.578   1.823   2.667
 2158TIP3    H2 6432   2.545   1.759   2.800
 2159TIP3   OH2 6433   7.540   6.970   3.578
 2159TIP3    H1 6434   7.608   6.917   3.537
 2159TIP3    H2 6435   7.530   6.932   3.666
 2160TIP3   OH2 6436   3.589   4.565   0.358
 2160TIP3    H1 6437   3.584   4.516   0.276
 2160TIP3    H2 6438   3.498   4.587   0.378
 2161TIP3   OH2 6439   7.007   0.978   4.557
 2161TIP3    H1 6440   7.076   0.925   4.595
 2161TIP3    H2 6441   7.028   1.068   4.585
 2162TIP3   OH2 6442   2.933   1.284   3.788
 2162TIP3    H1 6443   2.910   1.228   3.713
 2162TIP3    H2 6444   2.914   1.373   3.758
 2163TIP3   OH2 6445   7.438   1.430   5.833
 2163TIP3    H1 6446   7.343   1.420   5.830
 2163TIP3    H2 6447   7.454   1.519   5.803
 2164TIP3   OH2 6448   5.411   7.755   3.749
 2164TIP3    H1 6449   5.470   7.813   3.796
 2164TIP3    H2 6450   5.378   7.694   3.815
 2165TIP3   OH2 6451   2.435   3.716   2.417
 2165TIP3    H1 6452   2.400   3.649   2.359
 2165TIP3    H2 6453   2.505   3.672   2.466
 2166TIP3   OH2 6454   0.148   6.852   1.133
 2166TIP3    H1 6455   0.213   6.785   1.151
 2166TIP3    H2 6456   0.172   6.887   1.047
 2167TIP3   OH2 6457   1.233   2.334   0.883
 2167TIP3    H1 6458   1.294   2.262   0.902
 2167TIP3    H2 6459   1.252   2.359   0.793
 2168TIP3   OH2 6460   6.621   6.284   5.177
 2168TIP3    H1 6461   6.612   6.290   5.272
 2168TIP3    H2 6462   6.532   6.288   5.144
 2169TIP3   OH2 6463   7.747   7.812   4.569
 2169TIP3    H1 6464   7.840   7.833   4.561
 2169TIP3    H2 6465   7.745   7.735   4.625
 2170TIP3   OH2 6466   2.335   7.428   4.317
 2170TIP3    H1 6467   2.402   7.409   4.252
 2170TIP3    H2 6468   2.263   7.368   4.296
 2171TIP3   OH2 6469   0.270   3.276   4.100
 2171TIP3    H1 6470   0.220   3.355   4.080
 2171TIP3    H2 6471   0.207   3.217   4.141
 2172TIP3   OH2 6472   4.876   2.518   0.132
 2172TIP3    H1 6473   4.967   2.537   0.157
 2172TIP3    H2 6474   4.882   2.489   0.041
 2173TIP3   OH2 6475   0.135   5.085   1.659
 2173TIP3    H1 6476   0.157   5.074   1.567
 2173TIP3    H2 6477   0.095   5.171   1.664
 2174TIP3   OH2 6478   4.257   7.147   3.745
 2174TIP3    H1 6479   4.289   7.058   3.733
 2174TIP3    H2 6480   4.254   7.184   3.656
 2175TIP3   OH2 6481   6.205   6.846   2.960
 2175TIP3    H1 6482   6.196   6.796   3.042
 2175TIP3    H2 6483   6.198   6.781   2.891
 2176TIP3   OH2 6484   6.947   6.009   5.740
 2176TIP3    H1 6485   6.964   6.080   5.802
 2176TIP3    H2 6486   7.013   6.021   5.672
 2177TIP3   OH2 6487   2.159   6.013   2.436
 2177TIP3    H1 6488   2.075   6.059   2.432
 2177TIP3    H2 6489   2.179   5.993   2.345
 2178TIP3   OH2 6490   1.190   4.959   5.452
 2178TIP3    H1 6491   1.179   5.029   5.517
 2178TIP3    H2 6492   1.113   4.904   5.463
 2179TIP3   OH2 6493   2.213   6.508   3.056
 2179TIP3    H1 6494   2.151   6.462   3.113
 2179TIP3    H2 6495   2.157   6.563   3.000
 2180TIP3   OH2 6496   0.647   1.758   6.248
 2180TIP3    H1 6497   0.733   1.716   6.252
 2180TIP3    H2 6498   0.586   1.691   6.278
 2181TIP3   OH2 6499   0.879   4.150   6.707
 2181TIP3    H1 6500   0.814   4.113   6.767
 2181TIP3    H2 6501   0.857   4.111   6.622
 2182TIP3   OH2 6502   2.889   6.978   6.258
 2182TIP3    H1 6503   2.980   6.975   6.230
 2182TIP3    H2 6504   2.853   6.892   6.234
 2183TIP3   OH2 6505   0.150   4.954   1.914
 2183TIP3    H1 6506   0.158   4.986   1.824
 2183TIP3    H2 6507   0.077   4.892   1.911
 2184TIP3   OH2 6508   4.286   6.102   6.282
 2184TIP3    H1 6509   4.278   6.109   6.187
 2184TIP3    H2 6510   4.371   6.060   6.296
 2185TIP3   OH2 6511   2.138   5.886   0.366
 2185TIP3    H1 6512   2.064   5.832   0.394
 2185TIP3    H2 6513   2.159   5.939   0.443
 2186TIP3   OH2 6514   0.864   1.707   2.550
 2186TIP3    H1 6515   0.920   1.781   2.524
 2186TIP3    H2 6516   0.852   1.718   2.644
 2187TIP3   OH2 6517   1.384   7.025   5.854
 2187TIP3    H1 6518   1.442   7.037   5.779
 2187TIP3    H2 6519   1.409   7.094   5.915
 2188TIP3   OH2 6520   1.838   5.585   3.949
 2188TIP3    H1 6521   1.917   5.597   4.001
 2188TIP3    H2 6522   1.857   5.511   3.892
 2189TIP3   OH2 6523   3.599   6.415   0.953
 2189TIP3    H1 6524   3.529   6.480   0.945
 2189TIP3    H2 6525   3.656   6.432   0.878
 2190TIP3   OH2 6526   1.230   5.888   2.108
 2190TIP3    H1 6527   1.276   5.875   2.191
 2190TIP3    H2 6528   1.150   5.935   2.131
 2191TIP3   OH2 6529   4.516   7.390   6.551
 2191TIP3    H1 6530   4.431   7.356   6.523
 2191TIP3    H2 6531   4.497   7.474   6.591
 2192TIP3   OH2 6532   0.784   1.673   5.430
 2192TIP3    H1 6533   0.745   1.678   5.517
 2192TIP3    H2 6534   0.724   1.619   5.380
 2193TIP3   OH2 6535   5.846   3.324   5.231
 2193TIP3    H1 6536   5.907   3.312   5.159
 2193TIP3    H2 6537   5.804   3.238   5.242
 2194TIP3   OH2 6538   4.162   4.531   3.325
 2194TIP3    H1 6539   4.073   4.558   3.347
 2194TIP3    H2 6540   4.171   4.444   3.364
 2195TIP3   OH2 6541   3.736   6.546   5.809
 2195TIP3    H1 6542   3.784   6.527   5.729
 2195TIP3    H2 6543   3.678   6.471   5.820
 2196TIP3   OH2 6544   2.192   1.306   2.755
 2196TIP3    H1 6545   2.213   1.241   2.822
 2196TIP3    H2 6546   2.271   1.360   2.749
 2197TIP3   OH2 6547   8.251   5.851   5.683
 2197TIP3    H1 6548   8.341   5.881   5.674
 2197TIP3    H2 6549   8.255   5.757   5.662
 2198TIP3   OH2 6550   1.718   2.366   0.699
 2198TIP3    H1 6551   1.631   2.362   0.739
 2198TIP3    H2 6552   1.778   2.345   0.770
 2199TIP3   OH2 6553   7.409   6.383   5.298
 2199TIP3    H1 6554   7.411   6.402   5.392
 2199TIP3    H2 6555   7.467   6.307   5.288
 2200TIP3   OH2 6556   6.650   0.882   4.977
 2200TIP3    H1 6557   6.708   0.952   4.946
 2200TIP3    H2 6558   6.699   0.802   4.961
 2201TIP3   OH2 6559   7.186   0.930   4.766
 2201TIP3    H1 6560   7.221   1.019   4.759
 2201TIP3    H2 6561   7.263   0.875   4.777
 2202TIP3   OH2 6562   1.473   3.129   3.504
 2202TIP3    H1 6563   1.473   3.163   3.594
 2202TIP3    H2 6564   1.425   3.046   3.510
 2203TIP3   OH2 6565   0.751   5.617   3.060
 2203TIP3    H1 6566   0.741   5.610   2.965
 2203TIP3    H2 6567   0.811   5.690   3.073
 2204TIP3   OH2 6568   5.569   7.098   6.721
 2204TIP3    H1 6569   5.625   7.027   6.687
 2204TIP3    H2 6570   5.513   7.120   6.647
 2205TIP3   OH2 6571   0.973   2.431   4.967
 2205TIP3    H1 6572   1.028   2.459   4.895
 2205TIP3    H2 6573   0.903   2.497   4.972
 2206TIP3   OH2 6574   1.911   1.495   0.127
 2206TIP3    H1 6575   1.863   1.524   0.205
 2206TIP3    H2 6576   1.937   1.405   0.147
 2207TIP3   OH2 6577   7.303   1.542   4.779
 2207TIP3    H1 6578   7.216   1.581   4.789
 2207TIP3    H2 6579   7.324   1.552   4.686
 2208TIP3   OH2 6580   6.564   2.060   2.741
 2208TIP3    H1 6581   6.574   1.970   2.712
 2208TIP3    H2 6582   6.473   2.083   2.719
 2209TIP3   OH2 6583   0.705   6.157   5.849
 2209TIP3    H1 6584   0.612   6.137   5.840
 2209TIP3    H2 6585   0.749   6.098   5.788
 2210TIP3   OH2 6586   1.091   0.317   4.983
 2210TIP3    H1 6587   1.064   0.281   4.898
 2210TIP3    H2 6588   1.073   0.246   5.045
 2211TIP3   OH2 6589   4.202   4.548   5.634
 2211TIP3    H1 6590   4.186   4.619   5.696
 2211TIP3    H2 6591   4.295   4.529   5.644
 2212TIP3   OH2 6592   6.347   0.793   5.991
 2212TIP3    H1 6593   6.294   0.792   5.911
 2212TIP3    H2 6594   6.438   0.793   5.960
 2213TIP3   OH2 6595   6.728   0.228   1.837
 2213TIP3    H1 6596   6.681   0.273   1.907
 2213TIP3    H2 6597   6.761   0.299   1.781
 2214TIP3   OH2 6598   4.938   1.215   4.075
 2214TIP3    H1 6599   4.942   1.304   4.110
 2214TIP3    H2 6600   4.845   1.192   4.079
 2215TIP3   OH2 6601   1.938   6.545   6.478
 2215TIP3    H1 6602   1.897   6.628   6.503
 2215TIP3    H2 6603   1.892   6.518   6.399
 2216TIP3   OH2 6604   4.663   7.390   5.415
 2216TIP3    H1 6605   4.712   7.472   5.416
 2216TIP3    H2 6606   4.573   7.416   5.435
 2217TIP3   OH2 6607   4.435   3.962   4.228
 2217TIP3    H1 6608   4.354   4.006   4.201
 2217TIP3    H2 6609   4.439   3.975   4.322
 2218TIP3   OH2 6610   7.881   2.597   6.509
 2218TIP3    H1 6611   7.821   2.543   6.459
 2218TIP3    H2 6612   7.836   2.681   6.520
 2219TIP3   OH2 6613   7.326   0.895   4.488
 2219TIP3    H1 6614   7.420   0.876   4.488
 2219TIP3    H2 6615   7.314   0.957   4.560
 2220TIP3   OH2 6616   4.323   7.207   4.910
 2220TIP3    H1 6617   4.344   7.267   4.981
 2220TIP3    H2 6618   4.373   7.241   4.835
 2221TIP3   OH2 6619   4.265   1.152   1.394
 2221TIP3    H1 6620   4.197   1.179   1.332
 2221TIP3    H2 6621   4.280   1.059   1.374
 2222TIP3   OH2 6622   5.136   3.072   4.497
 2222TIP3    H1 6623   5.166   3.154   4.538
 2222TIP3    H2 6624   5.207   3.049   4.437
 2223TIP3   OH2 6625   5.234   2.329   1.910
 2223TIP3    H1 6626   5.286   2.408   1.902
 2223TIP3    H2 6627   5.153   2.357   1.953
 2224TIP3   OH2 6628   1.745   5.335   2.677
 2224TIP3    H1 6629   1.770   5.262   2.732
 2224TIP3    H2 6630   1.724   5.406   2.738
 2225TIP3   OH2 6631   7.488   1.709   2.180
 2225TIP3    H1 6632   7.431   1.750   2.246
 2225TIP3    H2 6633   7.549   1.656   2.232
 2226TIP3   OH2 6634   3.197   1.081   1.718
 2226TIP3    H1 6635   3.292   1.076   1.729
 2226TIP3    H2 6636   3.177   1.175   1.727
 2227TIP3   OH2 6637   5.290   3.016   2.527
 2227TIP3    H1 6638   5.378   2.989   2.500
 2227TIP3    H2 6639   5.233   2.947   2.493
 2228TIP3   OH2 6640   4.056   1.278   3.625
 2228TIP3    H1 6641   3.979   1.294   3.570
 2228TIP3    H2 6642   4.067   1.183   3.625
 2229TIP3   OH2 6643   6.296   2.607   5.662
 2229TIP3    H1 6644   6.214   2.640   5.697
 2229TIP3    H2 6645   6.271   2.557   5.584
 2230TIP3   OH2 6646   4.501   4.597   6.036
 2230TIP3    H1 6647   4.477   4.585   6.127
 2230TIP3    H2 6648   4.596   4.612   6.038
 2231TIP3   OH2 6649   6.832   5.758   4.022
 2231TIP3    H1 6650   6.758   5.781   4.078
 2231TIP3    H2 6651   6.831   5.662   4.019
 2232TIP3   OH2 6652   2.769   0.732   3.212
 2232TIP3    H1 6653   2.754   0.641   3.240
 2232TIP3    H2 6654   2.706   0.746   3.141
 2233TIP3   OH2 6655   0.174   0.258   4.414
 2233TIP3    H1 6656   0.176   0.339   4.465
 2233TIP3    H2 6657   0.264   0.226   4.418
 2234TIP3   OH2 6658   0.764   0.645   4.082
 2234TIP3    H1 6659   0.837   0.583   4.087
 2234TIP3    H2 6660   0.802   0.729   4.107
 2235TIP3   OH2 6661   7.936   6.541   5.520
 2235TIP3    H1 6662   7.989   6.476   5.473
 2235TIP3    H2 6663   7.874   6.573   5.454
 2236TIP3   OH2 6664   2.117   5.779   1.666
 2236TIP3    H1 6665   2.044   5.757   1.724
 2236TIP3    H2 6666   2.091   5.861   1.624
 2237TIP3   OH2 6667   6.701   1.879   3.824
 2237TIP3    H1 6668   6.708   1.947   3.890
 2237TIP3    H2 6669   6.669   1.802   3.871
 2238TIP3   OH2 6670   7.618   6.539   1.603
 2238TIP3    H1 6671   7.643   6.624   1.639
 2238TIP3    H2 6672   7.584   6.559   1.516
 2239TIP3   OH2 6673   4.376   0.815   0.774
 2239TIP3    H1 6674   4.344   0.905   0.780
 2239TIP3    H2 6675   4.313   0.771   0.717
 2240TIP3   OH2 6676   4.230   5.849   3.513
 2240TIP3    H1 6677   4.315   5.807   3.500
 2240TIP3    H2 6678   4.183   5.789   3.571
 2241TIP3   OH2 6679   1.583   3.481   5.492
 2241TIP3    H1 6680   1.599   3.473   5.586
 2241TIP3    H2 6681   1.573   3.390   5.462
 2242TIP3   OH2 6682   4.028   3.346   4.028
 2242TIP3    H1 6683   4.046   3.440   4.035
 2242TIP3    H2 6684   4.084   3.307   4.095
 2243TIP3   OH2 6685   5.435   5.031   2.266
 2243TIP3    H1 6686   5.425   5.080   2.185
 2243TIP3    H2 6687   5.476   5.093   2.327
 2244TIP3   OH2 6688   0.472   2.322   3.263
 2244TIP3    H1 6689   0.442   2.255   3.325
 2244TIP3    H2 6690   0.395   2.343   3.210
 2245TIP3   OH2 6691   6.369   1.119   5.349
 2245TIP3    H1 6692   6.347   1.190   5.289
 2245TIP3    H2 6693   6.380   1.162   5.434
 2246TIP3   OH2 6694   1.069   1.691   5.352
 2246TIP3    H1 6695   0.988   1.671   5.399
 2246TIP3    H2 6696   1.086   1.614   5.299
 2247TIP3   OH2 6697   6.155   4.846   5.914
 2247TIP3    H1 6698   6.157   4.916   5.849
 2247TIP3    H2 6699   6.187   4.886   5.994
 2248TIP3   OH2 6700   1.429   2.541   1.558
 2248TIP3    H1 6701   1.425   2.635   1.538
 2248TIP3    H2 6702   1.519   2.527   1.588
 2249TIP3   OH2 6703   1.025   2.316   1.060
 2249TIP3    H1 6704   1.102   2.334   1.006
 2249TIP3    H2 6705   1.057   2.257   1.128
 2250TIP3   OH2 6706   1.208   4.172   5.908
 2250TIP3    H1 6707   1.237   4.092   5.864
 2250TIP3    H2 6708   1.172   4.143   5.991
 2251TIP3   OH2 6709   1.615   3.163   4.350
 2251TIP3    H1 6710   1.657   3.088   4.309
 2251TIP3    H2 6711   1.683   3.231   4.352
 2252TIP3   OH2 6712   0.291   4.053   1.852
 2252TIP3    H1 6713   0.303   4.051   1.947
 2252TIP3    H2 6714   0.215   4.110   1.840
 2253TIP3   OH2 6715   0.332   3.420   1.181
 2253TIP3    H1 6716   0.307   3.363   1.108
 2253TIP3    H2 6717   0.260   3.410   1.244
 2254TIP3   OH2 6718   5.112   3.143   6.124
 2254TIP3    H1 6719   5.150   3.123   6.038
 2254TIP3    H2 6720   5.095   3.237   6.122
 2255TIP3   OH2 6721   3.812   2.360   2.696
 2255TIP3    H1 6722   3.888   2.409   2.725
 2255TIP3    H2 6723   3.833   2.334   2.606
 2256TIP3   OH2 6724   0.186   1.305   4.969
 2256TIP3    H1 6725   0.197   1.241   4.899
 2256TIP3    H2 6726   0.127   1.263   5.032
 2257TIP3   OH2 6727   2.152   1.665   2.787
 2257TIP3    H1 6728   2.058   1.656   2.774
 2257TIP3    H2 6729   2.186   1.576   2.785
 2258TIP3   OH2 6730   0.640   5.891   1.080
 2258TIP3    H1 6731   0.615   5.976   1.044
 2258TIP3    H2 6732   0.699   5.911   1.152
 2259TIP3   OH2 6733   6.022   4.869   6.174
 2259TIP3    H1 6734   6.045   4.895   6.263
 2259TIP3    H2 6735   6.071   4.787   6.160
 2260TIP3   OH2 6736   7.604   2.996   0.266
 2260TIP3    H1 6737   7.537   2.963   0.326
 2260TIP3    H2 6738   7.686   2.988   0.314
 2261TIP3   OH2 6739   0.696   2.101   4.105
 2261TIP3    H1 6740   0.691   2.125   4.198
 2261TIP3    H2 6741   0.623   2.040   4.093
 2262TIP3   OH2 6742   0.000   2.215   2.096
 2262TIP3    H1 6743   0.076   2.225   2.154
 2262TIP3    H2 6744   0.038   2.187   2.012
 2263TIP3   OH2 6745   5.883   5.255   4.402
 2263TIP3    H1 6746   5.833   5.335   4.415
 2263TIP3    H2 6747   5.843   5.212   4.327
 2264TIP3   OH2 6748   3.842   5.602   2.096
 2264TIP3    H1 6749   3.903   5.611   2.022
 2264TIP3    H2 6750   3.770   5.661   2.074
 2265TIP3   OH2 6751   6.230   5.806   3.119
 2265TIP3    H1 6752   6.293   5.877   3.106
 2265TIP3    H2 6753   6.189   5.794   3.034
 2266TIP3   OH2 6754   1.075   3.613   1.735
 2266TIP3    H1 6755   1.111   3.613   1.646
 2266TIP3    H2 6756   1.057   3.521   1.754
 2267TIP3   OH2 6757   4.435   4.136   6.475
 2267TIP3    H1 6758   4.386   4.173   6.401
 2267TIP3    H2 6759   4.443   4.043   6.454
 2268TIP3   OH2 6760   7.220   6.849   3.593
 2268TIP3    H1 6761   7.273   6.806   3.660
 2268TIP3    H2 6762   7.209   6.939   3.625
 2269TIP3   OH2 6763   2.495   7.569   3.403
 2269TIP3    H1 6764   2.439   7.492   3.408
 2269TIP3    H2 6765   2.445   7.632   3.351
 2270TIP3   OH2 6766   7.902   5.893   3.842
 2270TIP3    H1 6767   7.829   5.938   3.885
 2270TIP3    H2 6768   7.890   5.911   3.749
 2271TIP3   OH2 6769   5.798   7.643   3.087
 2271TIP3    H1 6770   5.704   7.662   3.098
 2271TIP3    H2 6771   5.834   7.723   3.049
 2272TIP3   OH2 6772   4.880   6.584   0.285
 2272TIP3    H1 6773   4.946   6.650   0.265
 2272TIP3    H2 6774   4.797   6.625   0.263
 2273TIP3   OH2 6775   6.351   0.536   5.350
 2273TIP3    H1 6776   6.347   0.443   5.329
 2273TIP3    H2 6777   6.367   0.580   5.266
 2274TIP3   OH2 6778   8.176   2.891   0.253
 2274TIP3    H1 6779   8.115   2.905   0.325
 2274TIP3    H2 6780   8.124   2.902   0.174
 2275TIP3   OH2 6781   2.730   0.995   2.366
 2275TIP3    H1 6782   2.757   0.906   2.387
 2275TIP3    H2 6783   2.716   1.037   2.451
 2276TIP3   OH2 6784   1.573   0.762   6.433
 2276TIP3    H1 6785   1.539   0.825   6.370
 2276TIP3    H2 6786   1.657   0.733   6.396
 2277TIP3   OH2 6787   1.071   7.265   3.518
 2277TIP3    H1 6788   1.135   7.226   3.578
 2277TIP3    H2 6789   1.073   7.358   3.537
 2278TIP3   OH2 6790   4.226   6.842   6.521
 2278TIP3    H1 6791   4.142   6.797   6.510
 2278TIP3    H2 6792   4.211   6.930   6.486
 2279TIP3   OH2 6793   1.443   4.961   5.486
 2279TIP3    H1 6794   1.475   4.873   5.462
 2279TIP3    H2 6795   1.353   4.963   5.452
 2280TIP3   OH2 6796   0.586   2.876   4.541
 2280TIP3    H1 6797   0.626   2.932   4.474
 2280TIP3    H2 6798   0.591   2.927   4.622
 2281TIP3   OH2 6799   3.902   5.372   4.911
 2281TIP3    H1 6800   3.897   5.416   4.827
 2281TIP3    H2 6801   3.918   5.280   4.889
 2282TIP3   OH2 6802   2.391   5.941   1.497
 2282TIP3    H1 6803   2.389   6.004   1.569
 2282TIP3    H2 6804   2.473   5.893   1.509
 2283TIP3   OH2 6805   8.087   5.053   1.591
 2283TIP3    H1 6806   8.114   5.144   1.589
 2283TIP3    H2 6807   8.169   5.003   1.596
 2284TIP3   OH2 6808   3.937   1.962   2.709
 2284TIP3    H1 6809   3.925   2.002   2.795
 2284TIP3    H2 6810   3.978   2.030   2.656
 2285TIP3   OH2 6811   4.630   3.026   3.257
 2285TIP3    H1 6812   4.667   3.022   3.170
 2285TIP3    H2 6813   4.606   2.935   3.277
 2286TIP3   OH2 6814   4.349   2.678   3.794
 2286TIP3    H1 6815   4.343   2.766   3.758
 2286TIP3    H2 6816   4.285   2.677   3.866
 2287TIP3   OH2 6817   1.828   0.634   6.673
 2287TIP3    H1 6818   1.899   0.679   6.718
 2287TIP3    H2 6819   1.871   0.568   6.620
 2288TIP3   OH2 6820   7.745   0.256   3.780
 2288TIP3    H1 6821   7.762   0.178   3.833
 2288TIP3    H2 6822   7.829   0.276   3.739
 2289TIP3   OH2 6823   3.575   4.777   0.169
 2289TIP3    H1 6824   3.567   4.721   0.092
 2289TIP3    H2 6825   3.522   4.734   0.236
 2290TIP3   OH2 6826   3.901   7.281   0.304
 2290TIP3    H1 6827   3.815   7.308   0.271
 2290TIP3    H2 6828   3.907   7.321   0.391
 2291TIP3   OH2 6829   6.365   2.219   0.667
 2291TIP3    H1 6830   6.384   2.136   0.624
 2291TIP3    H2 6831   6.286   2.251   0.623
 2292TIP3   OH2 6832   4.723   6.296   1.029
 2292TIP3    H1 6833   4.739   6.359   1.099
 2292TIP3    H2 6834   4.756   6.339   0.950
 2293TIP3   OH2 6835   3.995   6.312   4.194
 2293TIP3    H1 6836   3.934   6.364   4.247
 2293TIP3    H2 6837   4.049   6.266   4.259
 2294TIP3   OH2 6838   4.370   0.313   2.185
 2294TIP3    H1 6839   4.362   0.237   2.128
 2294TIP3    H2 6840   4.334   0.385   2.135
 2295TIP3   OH2 6841   1.107   6.836   3.955
 2295TIP3    H1 6842   1.016   6.826   3.985
 2295TIP3    H2 6843   1.100   6.840   3.860
 2296TIP3   OH2 6844   2.355   4.870   6.170
 2296TIP3    H1 6845   2.372   4.813   6.094
 2296TIP3    H2 6846   2.315   4.948   6.133
 2297TIP3   OH2 6847   4.503   0.241   5.391
 2297TIP3    H1 6848   4.506   0.328   5.352
 2297TIP3    H2 6849   4.409   0.223   5.404
 2298TIP3   OH2 6850   8.230   7.373   6.438
 2298TIP3    H1 6851   8.216   7.387   6.532
 2298TIP3    H2 6852   8.199   7.454   6.398
 2299TIP3   OH2 6853   6.013   3.836   6.620
 2299TIP3    H1 6854   5.978   3.882   6.697
 2299TIP3    H2 6855   6.083   3.892   6.588
 2300TIP3   OH2 6856   5.966   6.752   0.030
 2300TIP3    H1 6857   5.933   6.784  -0.053
 2300TIP3    H2 6858   5.887   6.725   0.078
 2301TIP3   OH2 6859   4.119   3.455   6.195
 2301TIP3    H1 6860   4.069   3.452   6.277
 2301TIP3    H2 6861   4.067   3.402   6.134
 2302TIP3   OH2 6862   5.485   2.160   5.341
 2302TIP3    H1 6863   5.551   2.229   5.328
 2302TIP3    H2 6864   5.413   2.205   5.386
 2303TIP3   OH2 6865   3.040   3.635   5.472
 2303TIP3    H1 6866   2.969   3.573   5.489
 2303TIP3    H2 6867   3.110   3.608   5.532
 2304TIP3   OH2 6868   4.512   0.768   3.946
 2304TIP3    H1 6869   4.526   0.766   4.040
 2304TIP3    H2 6870   4.600   0.778   3.909
 2305TIP3   OH2 6871   2.002   3.968   5.787
 2305TIP3    H1 6872   2.030   4.057   5.763
 2305TIP3    H2 6873   1.958   3.979   5.871
 2306TIP3   OH2 6874   6.065   6.873   0.854
 2306TIP3    H1 6875   6.039   6.794   0.807
 2306TIP3    H2 6876   6.159   6.861   0.870
 2307TIP3   OH2 6877   5.272   0.514   4.022
 2307TIP3    H1 6878   5.304   0.591   3.975
 2307TIP3    H2 6879   5.327   0.508   4.099
 2308TIP3   OH2 6880   4.414   7.077   5.494
 2308TIP3    H1 6881   4.477   7.117   5.434
 2308TIP3    H2 6882   4.443   6.986   5.502
 2309TIP3   OH2 6883   7.984   1.788   2.896
 2309TIP3    H1 6884   8.010   1.725   2.963
 2309TIP3    H2 6885   8.042   1.863   2.911
 2310TIP3   OH2 6886   3.236   4.327   1.966
 2310TIP3    H1 6887   3.245   4.305   1.873
 2310TIP3    H2 6888   3.284   4.259   2.012
 2311TIP3   OH2 6889   7.014   1.473   4.898
 2311TIP3    H1 6890   7.087   1.424   4.937
 2311TIP3    H2 6891   6.951   1.483   4.970
 2312TIP3   OH2 6892   0.711   5.503   0.872
 2312TIP3    H1 6893   0.749   5.547   0.948
 2312TIP3    H2 6894   0.727   5.410   0.888
 2313TIP3   OH2 6895   8.099   3.311   6.721
 2313TIP3    H1 6896   8.108   3.240   6.785
 2313TIP3    H2 6897   8.050   3.272   6.649
 2314TIP3   OH2 6898   1.709   3.788   6.076
 2314TIP3    H1 6899   1.798   3.812   6.100
 2314TIP3    H2 6900   1.713   3.773   5.981
 2315TIP3   OH2 6901   5.489   7.583   0.917
 2315TIP3    H1 6902   5.514   7.589   1.009
 2315TIP3    H2 6903   5.453   7.670   0.896
 2316TIP3   OH2 6904   5.671   5.600   6.359
 2316TIP3    H1 6905   5.617   5.635   6.429
 2316TIP3    H2 6906   5.706   5.518   6.393
 2317TIP3   OH2 6907   3.211   3.281   6.511
 2317TIP3    H1 6908   3.267   3.295   6.587
 2317TIP3    H2 6909   3.247   3.338   6.443
 2318TIP3   OH2 6910   1.401   3.615   0.376
 2318TIP3    H1 6911   1.341   3.611   0.302
 2318TIP3    H2 6912   1.371   3.545   0.435
 2319TIP3   OH2 6913   1.674   4.063   6.148
 2319TIP3    H1 6914   1.662   3.969   6.162
 2319TIP3    H2 6915   1.613   4.085   6.078
 2320TIP3   OH2 6916   7.965   2.593   4.691
 2320TIP3    H1 6917   7.919   2.630   4.616
 2320TIP3    H2 6918   7.961   2.498   4.677
 2321TIP3   OH2 6919   6.671   7.437   0.111
 2321TIP3    H1 6920   6.583   7.414   0.083
 2321TIP3    H2 6921   6.678   7.531   0.093
 2322TIP3   OH2 6922   4.311   3.587   2.212
 2322TIP3    H1 6923   4.358   3.505   2.196
 2322TIP3    H2 6924   4.292   3.621   2.125
 2323TIP3   OH2 6925   4.805   7.174   3.749
 2323TIP3    H1 6926   4.736   7.168   3.683
 2323TIP3    H2 6927   4.884   7.144   3.703
 2324TIP3   OH2 6928   6.871   1.231   0.601
 2324TIP3    H1 6929   6.963   1.215   0.584
 2324TIP3    H2 6930   6.829   1.226   0.515
 2325TIP3   OH2 6931   1.005   5.232   4.246
 2325TIP3    H1 6932   1.053   5.203   4.168
 2325TIP3    H2 6933   0.943   5.161   4.263
 2326TIP3   OH2 6934   1.774   0.056   0.320
 2326TIP3    H1 6935   1.815   0.127   0.369
 2326TIP3    H2 6936   1.790  -0.022   0.373
 2327TIP3   OH2 6937   2.560   1.572   1.034
 2327TIP3    H1 6938   2.585   1.503   1.096
 2327TIP3    H2 6939   2.626   1.640   1.046
 2328TIP3   OH2 6940   1.104   4.164   4.328
 2328TIP3    H1 6941   1.083   4.229   4.394
 2328TIP3    H2 6942   1.021   4.149   4.282
 2329TIP3   OH2 6943   2.205   1.214   0.282
 2329TIP3    H1 6944   2.203   1.181   0.372
 2329TIP3    H2 6945   2.150   1.292   0.283
 2330TIP3   OH2 6946   6.061   7.330   4.132
 2330TIP3    H1 6947   6.035   7.364   4.046
 2330TIP3    H2 6948   6.088   7.408   4.181
 2331TIP3   OH2 6949   1.753   2.689   5.943
 2331TIP3    H1 6950   1.836   2.646   5.923
 2331TIP3    H2 6951   1.733   2.739   5.864
 2332TIP3   OH2 6952   0.125   6.168   2.268
 2332TIP3    H1 6953   0.077   6.176   2.185
 2332TIP3    H2 6954   0.058   6.141   2.331
 2333TIP3   OH2 6955   5.549   4.062   2.920
 2333TIP3    H1 6956   5.504   3.983   2.949
 2333TIP3    H2 6957   5.552   4.055   2.825
 2334TIP3   OH2 6958   2.769   3.642   2.875
 2334TIP3    H1 6959   2.824   3.610   2.947
 2334TIP3    H2 6960   2.728   3.721   2.910
 2335TIP3   OH2 6961   0.247   3.953   2.378
 2335TIP3    H1 6962   0.336   3.972   2.407
 2335TIP3    H2 6963   0.234   4.009   2.300
 2336TIP3   OH2 6964   2.923   6.405   4.864
 2336TIP3    H1 6965   3.002   6.354   4.880
 2336TIP3    H2 6966   2.948   6.467   4.795
 2337TIP3   OH2 6967   3.716   5.376   1.856
 2337TIP3    H1 6968   3.621   5.372   1.850
 2337TIP3    H2 6969   3.740   5.455   1.807
 2338TIP3   OH2 6970   7.787   5.458   1.457
 2338TIP3    H1 6971   7.743   5.526   1.509
 2338TIP3    H2 6972   7.749   5.466   1.370
 2339TIP3   OH2 6973   4.175   5.383   1.756
 2339TIP3    H1 6974   4.210   5.353   1.840
 2339TIP3    H2 6975   4.090   5.338   1.749
 2340TIP3   OH2 6976   6.466   5.077   6.535
 2340TIP3    H1 6977   6.557   5.063   6.562
 2340TIP3    H2 6978   6.437   4.991   6.504
 2341TIP3   OH2 6979   8.156   2.079   0.934
 2341TIP3    H1 6980   8.091   2.111   0.872
 2341TIP3    H2 6981   8.240   2.103   0.895
 2342TIP3   OH2 6982   0.419   7.495   4.049
 2342TIP3    H1 6983   0.493   7.466   4.101
 2342TIP3    H2 6984   0.347   7.436   4.075
 2343TIP3   OH2 6985   6.644   6.198   3.036
 2343TIP3    H1 6986   6.688   6.255   2.973
 2343TIP3    H2 6987   6.589   6.256   3.088
 2344TIP3   OH2 6988   0.794   4.829   2.152
 2344TIP3    H1 6989   0.720   4.865   2.103
 2344TIP3    H2 6990   0.859   4.899   2.153
 2345TIP3   OH2 6991   3.544   5.258   3.025
 2345TIP3    H1 6992   3.604   5.202   2.976
 2345TIP3    H2 6993   3.460   5.247   2.982
 2346TIP3   OH2 6994   6.211   5.459   6.020
 2346TIP3    H1 6995   6.248   5.374   6.047
 2346TIP3    H2 6996   6.222   5.461   5.925
 2347TIP3   OH2 6997   3.909   5.144   5.252
 2347TIP3    H1 6998   3.973   5.074   5.259
 2347TIP3    H2 6999   3.824   5.100   5.258
 2348TIP3   OH2 7000   1.943   0.074   4.529
 2348TIP3    H1 7001   1.937  -0.004   4.584
 2348TIP3    H2 7002   2.037   0.084   4.513
 2349TIP3   OH2 7003   1.441   3.148   4.008
 2349TIP3    H1 7004   1.392   3.224   4.039
 2349TIP3    H2 7005   1.380   3.075   4.017
 2350TIP3   OH2 7006   5.545   3.572   5.207
 2350TIP3    H1 7007   5.516   3.495   5.255
 2350TIP3    H2 7008   5.556   3.640   5.274
 2351TIP3   OH2 7009   0.815   7.257   3.050
 2351TIP3    H1 7010   0.879   7.244   3.120
 2351TIP3    H2 7011   0.744   7.196   3.070
 2352TIP3   OH2 7012   1.419   6.045   5.252
 2352TIP3    H1 7013   1.432   5.968   5.197
 2352TIP3    H2 7014   1.479   6.032   5.326
 2353TIP3   OH2 7015   3.950   4.253   1.105
 2353TIP3    H1 7016   3.980   4.334   1.146
 2353TIP3    H2 7017   3.889   4.283   1.036
 2354TIP3   OH2 7018   7.533   4.401   5.751
 2354TIP3    H1 7019   7.547   4.337   5.821
 2354TIP3    H2 7020   7.498   4.478   5.795
 2355TIP3   OH2 7021   2.855   6.975   2.421
 2355TIP3    H1 7022   2.947   7.002   2.425
 2355TIP3    H2 7023   2.837   6.938   2.507
 2356TIP3   OH2 7024   6.844   4.559   4.977
 2356TIP3    H1 7025   6.753   4.536   4.956
 2356TIP3    H2 7026   6.873   4.611   4.902
 2357TIP3   OH2 7027   7.969   1.889   6.022
 2357TIP3    H1 7028   8.015   1.804   6.022
 2357TIP3    H2 7029   7.978   1.920   5.931
 2358TIP3   OH2 7030   0.049   0.214   1.727
 2358TIP3    H1 7031   0.009   0.184   1.645
 2358TIP3    H2 7032  -0.021   0.205   1.792
 2359TIP3   OH2 7033   5.927   6.289   1.476
 2359TIP3    H1 7034   5.949   6.232   1.402
 2359TIP3    H2 7035   5.843   6.328   1.452
 2360TIP3   OH2 7036   0.229   6.768   3.981
 2360TIP3    H1 7037   0.208   6.695   3.923
 2360TIP3    H2 7038   0.182   6.749   4.062
 2361TIP3   OH2 7039   6.810   7.797   6.504
 2361TIP3    H1 7040   6.898   7.766   6.523
 2361TIP3    H2 7041   6.778   7.831   6.588
 2362TIP3   OH2 7042   1.512   4.178   1.847
 2362TIP3    H1 7043   1.490   4.085   1.851
 2362TIP3    H2 7044   1.605   4.182   1.871
 2363TIP3   OH2 7045   2.258   4.251   4.866
 2363TIP3    H1 7046   2.256   4.159   4.841
 2363TIP3    H2 7047   2.324   4.256   4.935
 2364TIP3   OH2 7048   4.578   7.787   0.951
 2364TIP3    H1 7049   4.526   7.786   0.870
 2364TIP3    H2 7050   4.649   7.848   0.932
 2365TIP3   OH2 7051   0.052   6.019   1.905
 2365TIP3    H1 7052   0.019   5.980   1.987
 2365TIP3    H2 7053  -0.019   6.006   1.842
 2366TIP3   OH2 7054   3.459   5.620   3.400
 2366TIP3    H1 7055   3.548   5.585   3.399
 2366TIP3    H2 7056   3.403   5.543   3.398
 2367TIP3   OH2 7057   2.983   5.858   4.310
 2367TIP3    H1 7058   2.963   5.826   4.222
 2367TIP3    H2 7059   3.055   5.920   4.297
 2368TIP3   OH2 7060   2.972   5.448   6.659
 2368TIP3    H1 7061   2.918   5.370   6.654
 2368TIP3    H2 7062   2.910   5.519   6.675
 2369TIP3   OH2 7063   2.010   6.283   5.016
 2369TIP3    H1 7064   2.090   6.230   5.021
 2369TIP3    H2 7065   1.986   6.299   5.108
 2370TIP3   OH2 7066   4.785   6.605   5.266
 2370TIP3    H1 7067   4.846   6.606   5.340
 2370TIP3    H2 7068   4.818   6.535   5.210
 2371TIP3   OH2 7069   8.166   7.149   2.050
 2371TIP3    H1 7070   8.238   7.116   2.104
 2371TIP3    H2 7071   8.105   7.075   2.043
 2372TIP3   OH2 7072   4.592   5.675   6.056
 2372TIP3    H1 7073   4.597   5.583   6.083
 2372TIP3    H2 7074   4.682   5.700   6.040
 2373TIP3   OH2 7075   2.060   3.594   4.544
 2373TIP3    H1 7076   2.107   3.649   4.607
 2373TIP3    H2 7077   2.109   3.512   4.542
 2374TIP3   OH2 7078   7.317   2.212   4.630
 2374TIP3    H1 7079   7.360   2.128   4.613
 2374TIP3    H2 7080   7.234   2.207   4.582
 2375TIP3   OH2 7081   4.821   4.797   5.811
 2375TIP3    H1 7082   4.877   4.851   5.868
 2375TIP3    H2 7083   4.775   4.861   5.756
 2376TIP3   OH2 7084   1.212   2.693   1.685
 2376TIP3    H1 7085   1.249   2.613   1.647
 2376TIP3    H2 7086   1.273   2.717   1.755
 2377TIP3   OH2 7087   6.411   5.881   5.661
 2377TIP3    H1 7088   6.438   5.957   5.609
 2377TIP3    H2 7089   6.493   5.837   5.683
 2378TIP3   OH2 7090   6.233   7.492   4.301
 2378TIP3    H1 7091   6.317   7.451   4.283
 2378TIP3    H2 7092   6.243   7.583   4.272
 2379TIP3   OH2 7093   4.241   0.719   0.553
 2379TIP3    H1 7094   4.235   0.668   0.472
 2379TIP3    H2 7095   4.165   0.691   0.605
 2380TIP3   OH2 7096   5.386   2.260   1.546
 2380TIP3    H1 7097   5.306   2.313   1.550
 2380TIP3    H2 7098   5.364   2.180   1.594
 2381TIP3   OH2 7099   5.504   1.274   1.641
 2381TIP3    H1 7100   5.523   1.291   1.549
 2381TIP3    H2 7101   5.448   1.196   1.640
 2382TIP3   OH2 7102   0.176   2.585   3.891
 2382TIP3    H1 7103   0.190   2.656   3.954
 2382TIP3    H2 7104   0.238   2.517   3.918
 2383TIP3   OH2 7105   4.734   2.681   1.522
 2383TIP3    H1 7106   4.745   2.636   1.437
 2383TIP3    H2 7107   4.751   2.773   1.502
 2384TIP3   OH2 7108   7.373   2.666   1.660
 2384TIP3    H1 7109   7.355   2.753   1.696
 2384TIP3    H2 7110   7.370   2.608   1.737
 2385TIP3   OH2 7111   5.609   5.859   1.696
 2385TIP3    H1 7112   5.649   5.933   1.651
 2385TIP3    H2 7113   5.607   5.788   1.631
 2386TIP3   OH2 7114   4.651   6.636   3.210
 2386TIP3    H1 7115   4.730   6.640   3.156
 2386TIP3    H2 7116   4.583   6.676   3.156
 2387TIP3   OH2 7117   8.108   2.542   3.863
 2387TIP3    H1 7118   8.054   2.611   3.824
 2387TIP3    H2 7119   8.147   2.497   3.788
 2388TIP3   OH2 7120   8.137   3.862   3.503
 2388TIP3    H1 7121   8.062   3.810   3.475
 2388TIP3    H2 7122   8.197   3.860   3.429
 2389TIP3   OH2 7123   7.819   6.389   5.720
 2389TIP3    H1 7124   7.885   6.393   5.789
 2389TIP3    H2 7125   7.851   6.447   5.652
 2390TIP3   OH2 7126   7.036   3.611   1.746
 2390TIP3    H1 7127   7.124   3.582   1.721
 2390TIP3    H2 7128   6.998   3.536   1.792
 2391TIP3   OH2 7129   4.123   2.453   4.987
 2391TIP3    H1 7130   4.174   2.451   4.906
 2391TIP3    H2 7131   4.166   2.520   5.041
 2392TIP3   OH2 7132   4.622   0.722   4.505
 2392TIP3    H1 7133   4.705   0.760   4.477
 2392TIP3    H2 7134   4.602   0.656   4.439
 2393TIP3   OH2 7135   5.855   3.157   2.515
 2393TIP3    H1 7136   5.899   3.157   2.430
 2393TIP3    H2 7137   5.874   3.244   2.551
 2394TIP3   OH2 7138   3.481   5.237   1.131
 2394TIP3    H1 7139   3.424   5.278   1.196
 2394TIP3    H2 7140   3.474   5.292   1.053
 2395TIP3   OH2 7141   4.672   6.749   5.647
 2395TIP3    H1 7142   4.632   6.794   5.573
 2395TIP3    H2 7143   4.753   6.796   5.663
 2396TIP3   OH2 7144   5.344   3.207   2.333
 2396TIP3    H1 7145   5.348   3.168   2.246
 2396TIP3    H2 7146   5.308   3.137   2.388
 2397TIP3   OH2 7147   6.826   7.853   5.111
 2397TIP3    H1 7148   6.796   7.783   5.170
 2397TIP3    H2 7149   6.771   7.845   5.033
 2398TIP3   OH2 7150   4.732   4.998   5.589
 2398TIP3    H1 7151   4.766   4.987   5.500
 2398TIP3    H2 7152   4.656   5.056   5.578
 2399TIP3   OH2 7153   5.855   3.758   3.893
 2399TIP3    H1 7154   5.849   3.794   3.804
 2399TIP3    H2 7155   5.765   3.761   3.926
 2400TIP3   OH2 7156   1.914   7.755   1.405
 2400TIP3    H1 7157   1.903   7.830   1.346
 2400TIP3    H2 7158   1.980   7.701   1.362
 2401TIP3   OH2 7159   5.693   5.495   6.682
 2401TIP3    H1 7160   5.624   5.525   6.741
 2401TIP3    H2 7161   5.645   5.466   6.604
 2402TIP3   OH2 7162   5.771   5.572   4.106
 2402TIP3    H1 7163   5.743   5.484   4.132
 2402TIP3    H2 7164   5.859   5.560   4.070
 2403TIP3   OH2 7165   1.296   6.774   1.798
 2403TIP3    H1 7166   1.301   6.685   1.763
 2403TIP3    H2 7167   1.254   6.825   1.729
 2404TIP3   OH2 7168   2.389   3.261   6.480
 2404TIP3    H1 7169   2.455   3.264   6.411
 2404TIP3    H2 7170   2.372   3.168   6.494
 2405TIP3   OH2 7171   1.659   6.980   0.489
 2405TIP3    H1 7172   1.724   7.043   0.457
 2405TIP3    H2 7173   1.677   6.900   0.440
 2406TIP3   OH2 7174   8.155   6.290   1.018
 2406TIP3    H1 7175   8.119   6.369   1.058
 2406TIP3    H2 7176   8.131   6.296   0.926
 2407TIP3   OH2 7177   0.953   5.384   5.909
 2407TIP3    H1 7178   0.950   5.289   5.893
 2407TIP3    H2 7179   0.970   5.392   6.003
 2408TIP3   OH2 7180   1.906   0.981   0.746
 2408TIP3    H1 7181   1.894   0.920   0.819
 2408TIP3    H2 7182   1.843   0.950   0.679
 2409TIP3   OH2 7183   1.349   3.506   0.930
 2409TIP3    H1 7184   1.321   3.590   0.896
 2409TIP3    H2 7185   1.310   3.442   0.871
 2410TIP3   OH2 7186   0.524   7.205   2.817
 2410TIP3    H1 7187   0.504   7.112   2.830
 2410TIP3    H2 7188   0.616   7.206   2.790
 2411TIP3   OH2 7189   7.025   3.625   1.261
 2411TIP3    H1 7190   7.075   3.696   1.300
 2411TIP3    H2 7191   7.031   3.640   1.166
 2412TIP3   OH2 7192   7.722   1.991   5.710
 2412TIP3    H1 7193   7.776   2.067   5.730
 2412TIP3    H2 7194   7.700   1.954   5.796
 2413TIP3   OH2 7195   5.932   4.353   4.213
 2413TIP3    H1 7196   5.899   4.436   4.249
 2413TIP3    H2 7197   5.853   4.303   4.192
 2414TIP3   OH2 7198   6.592   6.137   2.332
 2414TIP3    H1 7199   6.638   6.176   2.406
 2414TIP3    H2 7200   6.499   6.148   2.354
 2415TIP3   OH2 7201   1.270   4.815   1.320
 2415TIP3    H1 7202   1.291   4.908   1.322
 2415TIP3    H2 7203   1.175   4.811   1.332
 2416TIP3   OH2 7204   4.205   0.851   4.787
 2416TIP3    H1 7205   4.220   0.814   4.700
 2416TIP3    H2 7206   4.188   0.944   4.771
 2417TIP3   OH2 7207   2.326   2.400   3.828
 2417TIP3    H1 7208   2.321   2.321   3.881
 2417TIP3    H2 7209   2.235   2.420   3.805
 2418TIP3   OH2 7210   6.925   4.320   0.775
 2418TIP3    H1 7211   6.910   4.386   0.707
 2418TIP3    H2 7212   6.952   4.242   0.727
 2419TIP3   OH2 7213   2.322   4.221   6.642
 2419TIP3    H1 7214   2.318   4.151   6.576
 2419TIP3    H2 7215   2.407   4.209   6.684
 2420TIP3   OH2 7216   1.373   6.001   0.827
 2420TIP3    H1 7217   1.315   6.024   0.754
 2420TIP3    H2 7218   1.362   5.907   0.837
 2421TIP3   OH2 7219   5.419   0.821   6.220
 2421TIP3    H1 7220   5.474   0.752   6.257
 2421TIP3    H2 7221   5.337   0.776   6.197
 2422TIP3   OH2 7222   8.167   4.645   4.681
 2422TIP3    H1 7223   8.143   4.713   4.744
 2422TIP3    H2 7224   8.085   4.627   4.634
 2423TIP3   OH2 7225   2.794   0.892   5.829
 2423TIP3    H1 7226   2.889   0.884   5.845
 2423TIP3    H2 7227   2.778   0.834   5.755
 2424TIP3   OH2 7228   4.442   0.104   1.985
 2424TIP3    H1 7229   4.471   0.060   1.905
 2424TIP3    H2 7230   4.517   0.095   2.045
 2425TIP3   OH2 7231   4.518   5.971   6.272
 2425TIP3    H1 7232   4.534   5.936   6.184
 2425TIP3    H2 7233   4.573   5.917   6.329
 2426TIP3   OH2 7234   3.013   1.147   1.295
 2426TIP3    H1 7235   3.058   1.224   1.330
 2426TIP3    H2 7236   3.028   1.079   1.360
 2427TIP3   OH2 7237   5.452   3.455   2.558
 2427TIP3    H1 7238   5.455   3.364   2.588
 2427TIP3    H2 7239   5.412   3.451   2.472
 2428TIP3   OH2 7240   3.280   2.430   6.167
 2428TIP3    H1 7241   3.213   2.363   6.179
 2428TIP3    H2 7242   3.303   2.458   6.256
 2429TIP3   OH2 7243   1.467   5.636   0.725
 2429TIP3    H1 7244   1.493   5.546   0.705
 2429TIP3    H2 7245   1.502   5.652   0.812
 2430TIP3   OH2 7246   3.785   5.441   2.527
 2430TIP3    H1 7247   3.817   5.516   2.477
 2430TIP3    H2 7248   3.730   5.392   2.466
 2431TIP3   OH2 7249   2.587   7.313   5.146
 2431TIP3    H1 7250   2.510   7.276   5.103
 2431TIP3    H2 7251   2.658   7.254   5.122
 2432TIP3   OH2 7252   2.298   1.431   5.407
 2432TIP3    H1 7253   2.229   1.367   5.424
 2432TIP3    H2 7254   2.251   1.510   5.379
 2433TIP3   OH2 7255   7.623   7.431   4.692
 2433TIP3    H1 7256   7.679   7.508   4.700
 2433TIP3    H2 7257   7.656   7.370   4.758
 2434TIP3   OH2 7258   6.094   6.269   2.775
 2434TIP3    H1 7259   6.062   6.276   2.685
 2434TIP3    H2 7260   6.016   6.263   2.829
 2435TIP3   OH2 7261   1.245   2.298   4.136
 2435TIP3    H1 7262   1.200   2.379   4.113
 2435TIP3    H2 7263   1.272   2.261   4.052
 2436TIP3   OH2 7264   2.277   4.374   1.950
 2436TIP3    H1 7265   2.281   4.292   2.000
 2436TIP3    H2 7266   2.184   4.396   1.946
 2437TIP3   OH2 7267   4.032   5.780   0.436
 2437TIP3    H1 7268   4.025   5.709   0.372
 2437TIP3    H2 7269   4.076   5.851   0.389
 2438TIP3   OH2 7270   1.297   4.423   5.868
 2438TIP3    H1 7271   1.265   4.333   5.871
 2438TIP3    H2 7272   1.392   4.415   5.877
 2439TIP3   OH2 7273   4.335   3.945   2.671
 2439TIP3    H1 7274   4.366   3.911   2.587
 2439TIP3    H2 7275   4.240   3.949   2.662
 2440TIP3   OH2 7276   3.124   1.182   6.406
 2440TIP3    H1 7277   3.067   1.258   6.392
 2440TIP3    H2 7278   3.213   1.217   6.395
 2441TIP3   OH2 7279   1.923   5.660   6.450
 2441TIP3    H1 7280   1.873   5.741   6.452
 2441TIP3    H2 7281   1.904   5.622   6.364
 2442TIP3   OH2 7282   6.145   0.321   5.146
 2442TIP3    H1 7283   6.093   0.396   5.173
 2442TIP3    H2 7284   6.120   0.251   5.207
 2443TIP3   OH2 7285   2.880   1.913   3.775
 2443TIP3    H1 7286   2.851   1.849   3.840
 2443TIP3    H2 7287   2.811   1.912   3.709
 2444TIP3   OH2 7288   2.423   6.418   5.535
 2444TIP3    H1 7289   2.340   6.391   5.494
 2444TIP3    H2 7290   2.471   6.336   5.547
 2445TIP3   OH2 7291   5.910   3.793   1.423
 2445TIP3    H1 7292   5.932   3.886   1.428
 2445TIP3    H2 7293   5.926   3.769   1.332
 2446TIP3   OH2 7294   0.657   4.312   0.509
 2446TIP3    H1 7295   0.602   4.246   0.553
 2446TIP3    H2 7296   0.602   4.390   0.505
 2447TIP3   OH2 7297   5.571   4.754   5.263
 2447TIP3    H1 7298   5.575   4.687   5.195
 2447TIP3    H2 7299   5.480   4.784   5.262
 2448TIP3   OH2 7300   2.053   2.791   3.710
 2448TIP3    H1 7301   2.130   2.744   3.679
 2448TIP3    H2 7302   1.981   2.757   3.657
 2449TIP3   OH2 7303   7.798   6.670   6.113
 2449TIP3    H1 7304   7.845   6.732   6.058
 2449TIP3    H2 7305   7.737   6.626   6.053
 2450TIP3   OH2 7306   6.681   0.284   1.235
 2450TIP3    H1 7307   6.672   0.288   1.140
 2450TIP3    H2 7308   6.604   0.329   1.268
 2451TIP3   OH2 7309   6.616   7.578   5.910
 2451TIP3    H1 7310   6.611   7.512   5.841
 2451TIP3    H2 7311   6.666   7.536   5.980
 2452TIP3   OH2 7312   1.517   3.196   3.757
 2452TIP3    H1 7313   1.498   3.148   3.838
 2452TIP3    H2 7314   1.590   3.254   3.781
 2453TIP3   OH2 7315   4.543   2.810   3.433
 2453TIP3    H1 7316   4.538   2.721   3.469
 2453TIP3    H2 7317   4.558   2.797   3.339
 2454TIP3   OH2 7318   0.308   4.078   0.269
 2454TIP3    H1 7319   0.227   4.067   0.219
 2454TIP3    H2 7320   0.355   3.995   0.258
 2455TIP3   OH2 7321   5.483   7.518   3.430
 2455TIP3    H1 7322   5.400   7.512   3.477
 2455TIP3    H2 7323   5.539   7.574   3.485
 2456TIP3   OH2 7324   5.948   3.916   0.463
 2456TIP3    H1 7325   5.903   3.907   0.547
 2456TIP3    H2 7326   6.040   3.925   0.485
 2457TIP3   OH2 7327   3.763   3.539   2.579
 2457TIP3    H1 7328   3.768   3.631   2.602
 2457TIP3    H2 7329   3.699   3.535   2.508
 2458TIP3   OH2 7330   6.615   0.572   2.206
 2458TIP3    H1 7331   6.582   0.659   2.182
 2458TIP3    H2 7332   6.539   0.527   2.243
 2459TIP3   OH2 7333   3.458   3.163   6.170
 2459TIP3    H1 7334   3.427   3.132   6.085
 2459TIP3    H2 7335   3.511   3.091   6.204
 2460TIP3   OH2 7336   1.455   1.990   2.105
 2460TIP3    H1 7337   1.444   2.081   2.134
 2460TIP3    H2 7338   1.416   1.988   2.018
 2461TIP3   OH2 7339   0.333   1.590   3.624
 2461TIP3    H1 7340   0.241   1.610   3.610
 2461TIP3    H2 7341   0.372   1.671   3.655
 2462TIP3   OH2 7342   6.583   1.880   4.682
 2462TIP3    H1 7343   6.655   1.896   4.622
 2462TIP3    H2 7344   6.564   1.787   4.673
 2463TIP3   OH2 7345   5.341   1.639   5.968
 2463TIP3    H1 7346   5.369   1.621   6.057
 2463TIP3    H2 7347   5.422   1.652   5.919
 2464TIP3   OH2 7348   5.015   7.423   3.488
 2464TIP3    H1 7349   4.942   7.481   3.508
 2464TIP3    H2 7350   4.986   7.336   3.517
 2465TIP3   OH2 7351   5.390   1.286   1.330
 2465TIP3    H1 7352   5.322   1.310   1.393
 2465TIP3    H2 7353   5.343   1.260   1.251
 2466TIP3   OH2 7354   3.762   1.593   5.105
 2466TIP3    H1 7355   3.741   1.532   5.176
 2466TIP3    H2 7356   3.740   1.545   5.025
 2467TIP3   OH2 7357   4.648   0.093   4.736
 2467TIP3    H1 7358   4.641   0.052   4.823
 2467TIP3    H2 7359   4.629   0.021   4.675
 2468TIP3   OH2 7360   1.173   4.761   0.723
 2468TIP3    H1 7361   1.163   4.671   0.693
 2468TIP3    H2 7362   1.157   4.814   0.645
 2469TIP3   OH2 7363   6.641   5.313   5.134
 2469TIP3    H1 7364   6.596   5.250   5.078
 2469TIP3    H2 7365   6.707   5.354   5.077
 2470TIP3   OH2 7366   1.144   3.853   0.450
 2470TIP3    H1 7367   1.058   3.814   0.464
 2470TIP3    H2 7368   1.126   3.944   0.428
 2471TIP3   OH2 7369   0.737   7.157   1.563
 2471TIP3    H1 7370   0.681   7.138   1.638
 2471TIP3    H2 7371   0.761   7.249   1.573
 2472TIP3   OH2 7372   5.150   2.807   2.431
 2472TIP3    H1 7373   5.171   2.728   2.480
 2472TIP3    H2 7374   5.125   2.776   2.344
 2473TIP3   OH2 7375   5.450   5.813   0.573
 2473TIP3    H1 7376   5.497   5.831   0.492
 2473TIP3    H2 7377   5.416   5.724   0.562
 2474TIP3   OH2 7378   1.589   4.254   0.216
 2474TIP3    H1 7379   1.638   4.190   0.268
 2474TIP3    H2 7380   1.501   4.218   0.211
 2475TIP3   OH2 7381   4.082   0.666   6.601
 2475TIP3    H1 7382   4.151   0.653   6.537
 2475TIP3    H2 7383   4.127   0.675   6.684
 2476TIP3   OH2 7384   3.063   6.226   4.195
 2476TIP3    H1 7385   3.048   6.309   4.241
 2476TIP3    H2 7386   3.122   6.177   4.252
 2477TIP3   OH2 7387   5.138   7.174   2.132
 2477TIP3    H1 7388   5.075   7.205   2.068
 2477TIP3    H2 7389   5.100   7.195   2.217
 2478TIP3   OH2 7390   6.550   2.215   2.444
 2478TIP3    H1 7391   6.601   2.281   2.397
 2478TIP3    H2 7392   6.614   2.168   2.496
 2479TIP3   OH2 7393   0.856   2.487   1.280
 2479TIP3    H1 7394   0.878   2.409   1.331
 2479TIP3    H2 7395   0.920   2.553   1.309
 2480TIP3   OH2 7396   4.877   7.663   5.082
 2480TIP3    H1 7397   4.918   7.577   5.079
 2480TIP3    H2 7398   4.931   7.714   5.142
 2481TIP3   OH2 7399   7.996   5.859   5.804
 2481TIP3    H1 7400   8.089   5.876   5.786
 2481TIP3    H2 7401   7.996   5.787   5.866
 2482TIP3   OH2 7402   6.330   0.061   4.852
 2482TIP3    H1 7403   6.246   0.083   4.810
 2482TIP3    H2 7404   6.394   0.118   4.809
 2483TIP3   OH2 7405   3.825   5.062   1.605
 2483TIP3    H1 7406   3.907   5.013   1.612
 2483TIP3    H2 7407   3.847   5.149   1.641
 2484TIP3   OH2 7408   2.049   2.549   3.949
 2484TIP3    H1 7409   2.010   2.544   3.862
 2484TIP3    H2 7410   1.974   2.563   4.008
 2485TIP3   OH2 7411   4.460   4.496   5.584
 2485TIP3    H1 7412   4.458   4.429   5.516
 2485TIP3    H2 7413   4.478   4.449   5.665
 2486TIP3   OH2 7414   6.988   4.328   1.046
 2486TIP3    H1 7415   7.066   4.383   1.053
 2486TIP3    H2 7416   6.976   4.316   0.952
 2487TIP3   OH2 7417   1.134   4.373   0.092
 2487TIP3    H1 7418   1.143   4.309   0.021
 2487TIP3    H2 7419   1.223   4.407   0.104
 2488TIP3   OH2 7420   1.003   6.608   2.020
 2488TIP3    H1 7421   1.061   6.625   2.095
 2488TIP3    H2 7422   0.948   6.536   2.050
 2489TIP3   OH2 7423   2.608   4.492   0.941
 2489TIP3    H1 7424   2.701   4.493   0.918
 2489TIP3    H2 7425   2.582   4.400   0.934
 2490TIP3   OH2 7426   4.112   2.628   0.301
 2490TIP3    H1 7427   4.166   2.649   0.225
 2490TIP3    H2 7428   4.155   2.551   0.339
 2491TIP3   OH2 7429   5.192   6.666   4.202
 2491TIP3    H1 7430   5.151   6.752   4.197
 2491TIP3    H2 7431   5.124   6.609   4.240
 2492TIP3   OH2 7432   0.554   7.501   1.104
 2492TIP3    H1 7433   0.646   7.510   1.078
 2492TIP3    H2 7434   0.535   7.582   1.152
 2493TIP3   OH2 7435   4.950   1.528   2.825
 2493TIP3    H1 7436   4.939   1.623   2.825
 2493TIP3    H2 7437   4.874   1.495   2.873
 2494TIP3   OH2 7438   1.734   2.794   6.252
 2494TIP3    H1 7439   1.698   2.780   6.339
 2494TIP3    H2 7440   1.736   2.706   6.213
 2495TIP3   OH2 7441   2.622   6.052   1.026
 2495TIP3    H1 7442   2.533   6.059   0.992
 2495TIP3    H2 7443   2.613   6.058   1.121
 2496TIP3   OH2 7444   2.250   6.404   0.074
 2496TIP3    H1 7445   2.262   6.350  -0.004
 2496TIP3    H2 7446   2.178   6.464   0.052
 2497TIP3   OH2 7447   4.094   1.004   4.336
 2497TIP3    H1 7448   4.151   1.067   4.380
 2497TIP3    H2 7449   4.094   1.031   4.245
 2498TIP3   OH2 7450   4.810   5.274   3.105
 2498TIP3    H1 7451   4.886   5.227   3.141
 2498TIP3    H2 7452   4.738   5.213   3.114
 2499TIP3   OH2 7453   4.141   2.111   2.576
 2499TIP3    H1 7454   4.120   2.199   2.546
 2499TIP3    H2 7455   4.236   2.104   2.564
 2500TIP3   OH2 7456   4.389   3.668   3.062
 2500TIP3    H1 7457   4.422   3.658   3.151
 2500TIP3    H2 7458   4.365   3.579   3.036
 2501TIP3   OH2 7459   2.202   7.781   5.536
 2501TIP3    H1 7460   2.212   7.686   5.547
 2501TIP3    H2 7461   2.107   7.795   5.542
 2502TIP3   OH2 7462   7.171   3.854   1.783
 2502TIP3    H1 7463   7.264   3.850   1.758
 2502TIP3    H2 7464   7.143   3.763   1.787
 2503TIP3   OH2 7465   5.622   5.325   4.980
 2503TIP3    H1 7466   5.624   5.421   4.971
 2503TIP3    H2 7467   5.605   5.293   4.892
 2504TIP3   OH2 7468   6.962   3.470   6.457
 2504TIP3    H1 7469   6.869   3.452   6.470
 2504TIP3    H2 7470   6.968   3.565   6.457
 2505TIP3   OH2 7471   0.623   7.732   1.326
 2505TIP3    H1 7472   0.612   7.808   1.383
 2505TIP3    H2 7473   0.588   7.658   1.377
 2506TIP3   OH2 7474   6.686   5.036   1.899
 2506TIP3    H1 7475   6.590   5.043   1.899
 2506TIP3    H2 7476   6.704   4.956   1.850
 2507TIP3   OH2 7477   0.491   7.650   0.492
 2507TIP3    H1 7478   0.531   7.733   0.520
 2507TIP3    H2 7479   0.531   7.633   0.407
 2508TIP3   OH2 7480   8.133   2.710   6.107
 2508TIP3    H1 7481   8.149   2.660   6.187
 2508TIP3    H2 7482   8.038   2.722   6.104
 2509TIP3   OH2 7483   5.601   2.467   1.525
 2509TIP3    H1 7484   5.552   2.546   1.548
 2509TIP3    H2 7485   5.536   2.397   1.525
 2510TIP3   OH2 7486   0.371   1.252   2.770
 2510TIP3    H1 7487   0.341   1.233   2.681
 2510TIP3    H2 7488   0.326   1.333   2.794
 2511TIP3   OH2 7489   4.525   0.490   2.671
 2511TIP3    H1 7490   4.556   0.406   2.705
 2511TIP3    H2 7491   4.590   0.515   2.605
 2512TIP3   OH2 7492   4.320   2.046   3.402
 2512TIP3    H1 7493   4.379   2.051   3.328
 2512TIP3    H2 7494   4.357   2.104   3.468
 2513TIP3   OH2 7495   7.317   5.974   6.339
 2513TIP3    H1 7496   7.280   5.954   6.425
 2513TIP3    H2 7497   7.269   6.051   6.309
 2514TIP3   OH2 7498   1.683   2.561   5.110
 2514TIP3    H1 7499   1.711   2.651   5.126
 2514TIP3    H2 7500   1.594   2.568   5.076
 2515TIP3   OH2 7501   1.930   1.232   2.878
 2515TIP3    H1 7502   1.885   1.183   2.810
 2515TIP3    H2 7503   2.018   1.195   2.880
 2516TIP3   OH2 7504   4.139   1.428   2.981
 2516TIP3    H1 7505   4.175   1.362   3.040
 2516TIP3    H2 7506   4.057   1.389   2.949
 2517TIP3   OH2 7507   3.748   5.921   3.508
 2517TIP3    H1 7508   3.673   5.872   3.540
 2517TIP3    H2 7509   3.824   5.867   3.531
 2518TIP3   OH2 7510   1.982   7.190   6.453
 2518TIP3    H1 7511   1.898   7.228   6.428
 2518TIP3    H2 7512   2.015   7.248   6.522
 2519TIP3   OH2 7513   7.040   2.523   5.660
 2519TIP3    H1 7514   7.074   2.591   5.717
 2519TIP3    H2 7515   7.104   2.516   5.589
 2520TIP3   OH2 7516   6.802   1.529   0.856
 2520TIP3    H1 7517   6.792   1.563   0.945
 2520TIP3    H2 7518   6.889   1.490   0.855
 2521TIP3   OH2 7519   1.463   7.773   5.269
 2521TIP3    H1 7520   1.517   7.693   5.265
 2521TIP3    H2 7521   1.473   7.812   5.182
 2522TIP3   OH2 7522   1.869   3.780   2.592
 2522TIP3    H1 7523   1.954   3.746   2.563
 2522TIP3    H2 7524   1.853   3.736   2.675
 2523TIP3   OH2 7525   7.595   1.064   4.550
 2523TIP3    H1 7526   7.684   1.075   4.582
 2523TIP3    H2 7527   7.589   0.971   4.527
 2524TIP3   OH2 7528   6.410   6.247   5.529
 2524TIP3    H1 7529   6.420   6.162   5.486
 2524TIP3    H2 7530   6.354   6.297   5.470
 2525TIP3   OH2 7531   1.395   0.636   2.626
 2525TIP3    H1 7532   1.483   0.620   2.660
 2525TIP3    H2 7533   1.337   0.620   2.700
 2526TIP3   OH2 7534   8.235   3.580   5.735
 2526TIP3    H1 7535   8.193   3.531   5.805
 2526TIP3    H2 7536   8.328   3.559   5.743
 2527TIP3   OH2 7537   7.425   4.784   6.717
 2527TIP3    H1 7538   7.376   4.726   6.659
 2527TIP3    H2 7539   7.511   4.743   6.725
 2528TIP3   OH2 7540   3.477   1.969   0.552
 2528TIP3    H1 7541   3.402   2.011   0.509
 2528TIP3    H2 7542   3.501   1.897   0.494
 2529TIP3   OH2 7543   4.955   2.642   6.650
 2529TIP3    H1 7544   4.872   2.679   6.680
 2529TIP3    H2 7545   4.952   2.551   6.679
 2530TIP3   OH2 7546   0.890   1.617   3.661
 2530TIP3    H1 7547   0.796   1.600   3.664
 2530TIP3    H2 7548   0.897   1.699   3.612
 2531TIP3   OH2 7549   0.632   2.450   4.383
 2531TIP3    H1 7550   0.697   2.502   4.337
 2531TIP3    H2 7551   0.630   2.486   4.471
 2532TIP3   OH2 7552   2.974   2.940   1.365
 2532TIP3    H1 7553   2.965   2.859   1.314
 2532TIP3    H2 7554   3.069   2.951   1.375
 2533TIP3   OH2 7555   2.766   2.708   4.195
 2533TIP3    H1 7556   2.833   2.746   4.138
 2533TIP3    H2 7557   2.747   2.622   4.156
 2534TIP3   OH2 7558   6.511   3.276   1.498
 2534TIP3    H1 7559   6.584   3.325   1.534
 2534TIP3    H2 7560   6.548   3.226   1.425
 2535TIP3   OH2 7561   1.619   0.446   1.765
 2535TIP3    H1 7562   1.601   0.530   1.721
 2535TIP3    H2 7563   1.548   0.389   1.737
 2536TIP3   OH2 7564   3.317   2.752   6.309
 2536TIP3    H1 7565   3.341   2.791   6.393
 2536TIP3    H2 7566   3.223   2.768   6.301
 2537TIP3   OH2 7567   6.172   1.060   3.974
 2537TIP3    H1 7568   6.208   0.998   4.038
 2537TIP3    H2 7569   6.087   1.023   3.950
 2538TIP3   OH2 7570   0.496   3.461   1.917
 2538TIP3    H1 7571   0.516   3.488   1.827
 2538TIP3    H2 7572   0.536   3.529   1.971
 2539TIP3   OH2 7573   1.574   3.349   6.045
 2539TIP3    H1 7574   1.509   3.295   6.091
 2539TIP3    H2 7575   1.600   3.414   6.109
 2540TIP3   OH2 7576   6.772   7.143   5.583
 2540TIP3    H1 7577   6.698   7.087   5.558
 2540TIP3    H2 7578   6.835   7.083   5.623
 2541TIP3   OH2 7579   5.148   5.725   5.950
 2541TIP3    H1 7580   5.163   5.637   5.985
 2541TIP3    H2 7581   5.154   5.714   5.855
 2542TIP3   OH2 7582   0.483   1.140   3.347
 2542TIP3    H1 7583   0.500   1.064   3.404
 2542TIP3    H2 7584   0.455   1.209   3.407
 2543TIP3   OH2 7585   3.162   4.040   6.175
 2543TIP3    H1 7586   3.142   4.047   6.082
 2543TIP3    H2 7587   3.205   4.123   6.197
 2544TIP3   OH2 7588   6.989   4.585   6.542
 2544TIP3    H1 7589   6.900   4.611   6.519
 2544TIP3    H2 7590   7.044   4.651   6.501
 2545TIP3   OH2 7591   1.501   1.046   2.060
 2545TIP3    H1 7592   1.471   0.955   2.064
 2545TIP3    H2 7593   1.595   1.040   2.080
 2546TIP3   OH2 7594   1.050   4.887   2.267
 2546TIP3    H1 7595   1.080   4.977   2.281
 2546TIP3    H2 7596   1.050   4.848   2.355
 2547TIP3   OH2 7597   4.844   3.427   1.643
 2547TIP3    H1 7598   4.866   3.435   1.551
 2547TIP3    H2 7599   4.866   3.336   1.665
 2548TIP3   OH2 7600   1.246   2.320   1.964
 2548TIP3    H1 7601   1.174   2.257   1.949
 2548TIP3    H2 7602   1.202   2.399   1.995
 2549TIP3   OH2 7603   8.048   5.329   3.067
 2549TIP3    H1 7604   8.023   5.417   3.038
 2549TIP3    H2 7605   8.009   5.271   3.002
 2550TIP3   OH2 7606   8.147   3.143   3.434
 2550TIP3    H1 7607   8.071   3.116   3.384
 2550TIP3    H2 7608   8.221   3.131   3.374
 2551TIP3   OH2 7609   2.676   5.702   5.672
 2551TIP3    H1 7610   2.740   5.633   5.685
 2551TIP3    H2 7611   2.644   5.722   5.760
 2552TIP3   OH2 7612   3.283   4.019   1.170
 2552TIP3    H1 7613   3.240   4.094   1.212
 2552TIP3    H2 7614   3.251   3.943   1.219
 2553TIP3   OH2 7615   4.986   3.188   1.640
 2553TIP3    H1 7616   4.988   3.123   1.570
 2553TIP3    H2 7617   5.073   3.184   1.679
 2554TIP3   OH2 7618   0.927   4.887   6.021
 2554TIP3    H1 7619   0.835   4.868   6.040
 2554TIP3    H2 7620   0.963   4.802   5.994
 2555TIP3   OH2 7621   6.168   2.378   4.292
 2555TIP3    H1 7622   6.073   2.380   4.308
 2555TIP3    H2 7623   6.198   2.301   4.340
 2556TIP3   OH2 7624   0.516   4.004   2.455
 2556TIP3    H1 7625   0.563   3.937   2.506
 2556TIP3    H2 7626   0.565   4.009   2.372
 2557TIP3   OH2 7627   7.013   4.567   3.153
 2557TIP3    H1 7628   6.923   4.537   3.167
 2557TIP3    H2 7629   7.005   4.662   3.143
 2558TIP3   OH2 7630   0.683   0.641   1.178
 2558TIP3    H1 7631   0.713   0.659   1.268
 2558TIP3    H2 7632   0.764   0.625   1.129
 2559TIP3   OH2 7633   0.224   3.723   4.608
 2559TIP3    H1 7634   0.260   3.717   4.520
 2559TIP3    H2 7635   0.290   3.771   4.658
 2560TIP3   OH2 7636   5.243   4.207   4.085
 2560TIP3    H1 7637   5.218   4.300   4.091
 2560TIP3    H2 7638   5.169   4.160   4.123
 2561TIP3   OH2 7639   8.132   5.391   6.208
 2561TIP3    H1 7640   8.159   5.402   6.299
 2561TIP3    H2 7641   8.038   5.375   6.213
 2562TIP3   OH2 7642   4.564   1.926   6.675
 2562TIP3    H1 7643   4.586   1.852   6.733
 2562TIP3    H2 7644   4.476   1.952   6.702
 2563TIP3   OH2 7645   3.252   7.173   5.767
 2563TIP3    H1 7646   3.327   7.148   5.713
 2563TIP3    H2 7647   3.176   7.152   5.712
 2564TIP3   OH2 7648   0.789   1.399   4.507
 2564TIP3    H1 7649   0.779   1.410   4.413
 2564TIP3    H2 7650   0.704   1.423   4.543
 2565TIP3   OH2 7651   6.248   4.853   3.841
 2565TIP3    H1 7652   6.226   4.907   3.916
 2565TIP3    H2 7653   6.231   4.908   3.765
 2566TIP3   OH2 7654   4.779   2.524   1.314
 2566TIP3    H1 7655   4.813   2.439   1.343
 2566TIP3    H2 7656   4.699   2.503   1.266
 2567TIP3   OH2 7657   4.292   3.573   0.525
 2567TIP3    H1 7658   4.295   3.669   0.526
 2567TIP3    H2 7659   4.371   3.547   0.572
 2568TIP3   OH2 7660   5.205   4.243   5.585
 2568TIP3    H1 7661   5.120   4.212   5.553
 2568TIP3    H2 7662   5.183   4.320   5.639
 2569TIP3   OH2 7663   7.329   5.340   5.345
 2569TIP3    H1 7664   7.279   5.263   5.317
 2569TIP3    H2 7665   7.360   5.318   5.433
 2570TIP3   OH2 7666   6.734   4.218   1.467
 2570TIP3    H1 7667   6.691   4.296   1.501
 2570TIP3    H2 7668   6.671   4.147   1.483
 2571TIP3   OH2 7669   1.687   6.510   5.713
 2571TIP3    H1 7670   1.623   6.539   5.649
 2571TIP3    H2 7671   1.657   6.546   5.796
 2572TIP3   OH2 7672   8.125   1.973   2.004
 2572TIP3    H1 7673   8.079   1.917   1.941
 2572TIP3    H2 7674   8.063   2.044   2.023
 2573TIP3   OH2 7675   7.671   1.238   3.125
 2573TIP3    H1 7676   7.599   1.264   3.068
 2573TIP3    H2 7677   7.636   1.164   3.175
 2574TIP3   OH2 7678   2.335   4.757   1.317
 2574TIP3    H1 7679   2.241   4.768   1.299
 2574TIP3    H2 7680   2.349   4.800   1.400
 2575TIP3   OH2 7681   1.504   2.541   2.497
 2575TIP3    H1 7682   1.497   2.580   2.409
 2575TIP3    H2 7683   1.594   2.560   2.524
 2576TIP3   OH2 7684   2.825   5.565   1.116
 2576TIP3    H1 7685   2.877   5.627   1.065
 2576TIP3    H2 7686   2.883   5.490   1.128
 2577TIP3   OH2 7687   4.893   6.747   1.810
 2577TIP3    H1 7688   4.947   6.677   1.845
 2577TIP3    H2 7689   4.863   6.714   1.725
 2578TIP3   OH2 7690   5.917   2.869   6.410
 2578TIP3    H1 7691   5.884   2.785   6.441
 2578TIP3    H2 7692   5.857   2.934   6.447
 2579TIP3   OH2 7693   1.990   2.345   4.964
 2579TIP3    H1 7694   2.042   2.272   4.932
 2579TIP3    H2 7695   2.009   2.417   4.903
 2580TIP3   OH2 7696   0.964   6.082   3.206
 2580TIP3    H1 7697   1.031   6.115   3.147
 2580TIP3    H2 7698   1.000   6.095   3.294
 2581TIP3   OH2 7699   1.727   6.566   4.756
 2581TIP3    H1 7700   1.733   6.473   4.731
 2581TIP3    H2 7701   1.774   6.572   4.839
 2582TIP3   OH2 7702   0.643   6.169   6.292
 2582TIP3    H1 7703   0.664   6.138   6.380
 2582TIP3    H2 7704   0.563   6.121   6.269
 2583TIP3   OH2 7705   0.329   2.265   5.083
 2583TIP3    H1 7706   0.327   2.330   5.014
 2583TIP3    H2 7707   0.416   2.276   5.123
 2584TIP3   OH2 7708   4.655   1.023   0.417
 2584TIP3    H1 7709   4.598   0.947   0.427
 2584TIP3    H2 7710   4.744   0.987   0.414
 2585TIP3   OH2 7711   7.264   5.502   0.348
 2585TIP3    H1 7712   7.232   5.552   0.423
 2585TIP3    H2 7713   7.203   5.428   0.341
 2586TIP3   OH2 7714   6.902   4.184   5.090
 2586TIP3    H1 7715   6.984   4.140   5.066
 2586TIP3    H2 7716   6.927   4.275   5.103
 2587TIP3   OH2 7717   1.134   0.610   2.111
 2587TIP3    H1 7718   1.164   0.593   2.201
 2587TIP3    H2 7719   1.089   0.530   2.085
 2588TIP3   OH2 7720   1.201   6.571   6.170
 2588TIP3    H1 7721   1.292   6.578   6.198
 2588TIP3    H2 7722   1.175   6.660   6.148
 2589TIP3   OH2 7723   6.362   4.515   3.848
 2589TIP3    H1 7724   6.443   4.462   3.845
 2589TIP3    H2 7725   6.293   4.451   3.868
 2590TIP3   OH2 7726   3.604   2.609   3.285
 2590TIP3    H1 7727   3.559   2.666   3.223
 2590TIP3    H2 7728   3.535   2.563   3.331
 2591TIP3   OH2 7729   7.288   4.461   5.512
 2591TIP3    H1 7730   7.344   4.406   5.457
 2591TIP3    H2 7731   7.344   4.535   5.536
 2592TIP3   OH2 7732   4.659   0.250   6.397
 2592TIP3    H1 7733   4.696   0.260   6.309
 2592TIP3    H2 7734   4.726   0.287   6.455
 2593TIP3   OH2 7735   1.729   1.897   3.255
 2593TIP3    H1 7736   1.695   1.887   3.344
 2593TIP3    H2 7737   1.733   1.808   3.220
 2594TIP3   OH2 7738   7.311   0.600   3.941
 2594TIP3    H1 7739   7.352   0.593   4.028
 2594TIP3    H2 7740   7.375   0.647   3.888
 2595TIP3   OH2 7741   4.062   6.869   2.322
 2595TIP3    H1 7742   4.043   6.886   2.230
 2595TIP3    H2 7743   3.998   6.922   2.370
 2596TIP3   OH2 7744   8.266   6.256   4.088
 2596TIP3    H1 7745   8.228   6.213   4.012
 2596TIP3    H2 7746   8.357   6.272   4.063
 2597TIP3   OH2 7747   6.616   2.660   3.001
 2597TIP3    H1 7748   6.530   2.634   2.966
 2597TIP3    H2 7749   6.622   2.753   2.983
 2598TIP3   OH2 7750   4.205   2.453   3.624
 2598TIP3    H1 7751   4.144   2.467   3.696
 2598TIP3    H2 7752   4.227   2.541   3.593
 2599TIP3   OH2 7753   7.682   0.521   1.083
 2599TIP3    H1 7754   7.701   0.429   1.065
 2599TIP3    H2 7755   7.672   0.526   1.178
 2600TIP3   OH2 7756   7.389   3.218   3.116
 2600TIP3    H1 7757   7.340   3.299   3.105
 2600TIP3    H2 7758   7.328   3.149   3.087
 2601TIP3   OH2 7759   7.012   1.331   6.669
 2601TIP3    H1 7760   7.102   1.362   6.677
 2601TIP3    H2 7761   6.985   1.356   6.581
 2602TIP3   OH2 7762   5.484   3.857   5.674
 2602TIP3    H1 7763   5.394   3.833   5.695
 2602TIP3    H2 7764   5.525   3.775   5.646
 2603TIP3   OH2 7765   5.949   4.752   3.026
 2603TIP3    H1 7766   5.979   4.668   3.061
 2603TIP3    H2 7767   6.025   4.810   3.036
 2604TIP3   OH2 7768   7.607   1.891   0.301
 2604TIP3    H1 7769   7.600   1.986   0.288
 2604TIP3    H2 7770   7.672   1.863   0.237
 2605TIP3   OH2 7771   5.808   1.059   6.043
 2605TIP3    H1 7772   5.821   1.034   6.135
 2605TIP3    H2 7773   5.837   1.150   6.038
 2606TIP3   OH2 7774   6.751   1.172   4.161
 2606TIP3    H1 7775   6.663   1.134   4.162
 2606TIP3    H2 7776   6.805   1.107   4.206
 2607TIP3   OH2 7777   5.525   5.631   1.024
 2607TIP3    H1 7778   5.454   5.660   1.080
 2607TIP3    H2 7779   5.554   5.548   1.062
 2608TIP3   OH2 7780   2.173   2.816   6.069
 2608TIP3    H1 7781   2.149   2.729   6.100
 2608TIP3    H2 7782   2.132   2.876   6.131
 2609TIP3   OH2 7783   6.896   3.161   4.615
 2609TIP3    H1 7784   6.914   3.244   4.660
 2609TIP3    H2 7785   6.951   3.165   4.536
 2610TIP3   OH2 7786   5.691   4.006   6.244
 2610TIP3    H1 7787   5.740   3.929   6.274
 2610TIP3    H2 7788   5.602   3.972   6.229
 2611TIP3   OH2 7789   3.176   4.325   1.139
 2611TIP3    H1 7790   3.134   4.366   1.215
 2611TIP3    H2 7791   3.238   4.390   1.108
 2612TIP3   OH2 7792   3.371   1.242   6.754
 2612TIP3    H1 7793   3.462   1.214   6.764
 2612TIP3    H2 7794   3.323   1.161   6.738
 2613TIP3   OH2 7795   6.403   1.930   2.401
 2613TIP3    H1 7796   6.308   1.940   2.391
 2613TIP3    H2 7797   6.425   1.981   2.479
 2614TIP3   OH2 7798   1.117   4.228   2.242
 2614TIP3    H1 7799   1.055   4.294   2.275
 2614TIP3    H2 7800   1.142   4.261   2.156
 2615TIP3   OH2 7801   5.261   3.527   4.464
 2615TIP3    H1 7802   5.288   3.443   4.502
 2615TIP3    H2 7803   5.174   3.510   4.428
 2616TIP3   OH2 7804   1.951   5.298   0.638
 2616TIP3    H1 7805   1.985   5.382   0.609
 2616TIP3    H2 7806   1.923   5.254   0.558
 2617TIP3   OH2 7807   5.810   2.201   3.809
 2617TIP3    H1 7808   5.878   2.238   3.753
 2617TIP3    H2 7809   5.856   2.176   3.890
 2618TIP3   OH2 7810   1.366   2.782   1.088
 2618TIP3    H1 7811   1.290   2.840   1.094
 2618TIP3    H2 7812   1.409   2.808   1.007
 2619TIP3   OH2 7813   4.219   4.877   2.757
 2619TIP3    H1 7814   4.292   4.825   2.791
 2619TIP3    H2 7815   4.208   4.947   2.822
 2620TIP3   OH2 7816   8.195   0.133   1.943
 2620TIP3    H1 7817   8.264   0.124   2.008
 2620TIP3    H2 7818   8.117   0.154   1.993
 2621TIP3   OH2 7819   2.333   0.295   5.392
 2621TIP3    H1 7820   2.368   0.208   5.412
 2621TIP3    H2 7821   2.278   0.281   5.316
 2622TIP3   OH2 7822   0.606   0.450   3.980
 2622TIP3    H1 7823   0.659   0.528   3.997
 2622TIP3    H2 7824   0.658   0.378   4.015
 2623TIP3   OH2 7825   1.149   6.217   4.644
 2623TIP3    H1 7826   1.087   6.152   4.612
 2623TIP3    H2 7827   1.144   6.211   4.739
 2624TIP3   OH2 7828   1.734   0.143   5.179
 2624TIP3    H1 7829   1.731   0.227   5.226
 2624TIP3    H2 7830   1.646   0.131   5.145
 2625TIP3   OH2 7831   6.504   0.114   5.070
 2625TIP3    H1 7832   6.478   0.035   5.023
 2625TIP3    H2 7833   6.591   0.135   5.035
 2626TIP3   OH2 7834   0.514   3.063   3.444
 2626TIP3    H1 7835   0.595   3.015   3.428
 2626TIP3    H2 7836   0.465   3.057   3.362
 2627TIP3   OH2 7837   4.044   2.103   0.483
 2627TIP3    H1 7838   4.068   2.156   0.559
 2627TIP3    H2 7839   4.124   2.098   0.430
 2628TIP3   OH2 7840   0.020   5.581   3.960
 2628TIP3    H1 7841   0.109   5.562   3.930
 2628TIP3    H2 7842   0.010   5.531   4.041
 2629TIP3   OH2 7843   5.914   3.565   3.391
 2629TIP3    H1 7844   5.964   3.532   3.466
 2629TIP3    H2 7845   5.827   3.527   3.402
 2630TIP3   OH2 7846   7.903   0.136   6.564
 2630TIP3    H1 7847   7.930   0.201   6.499
 2630TIP3    H2 7848   7.888   0.187   6.644
 2631TIP3   OH2 7849   2.444   4.698   5.020
 2631TIP3    H1 7850   2.506   4.763   4.988
 2631TIP3    H2 7851   2.467   4.618   4.972
 2632TIP3   OH2 7852   1.005   6.407   3.046
 2632TIP3    H1 7853   1.073   6.358   3.092
 2632TIP3    H2 7854   0.979   6.351   2.973
 2633TIP3   OH2 7855   1.012   1.872   4.152
 2633TIP3    H1 7856   0.930   1.824   4.166
 2633TIP3    H2 7857   1.005   1.948   4.209
 2634TIP3   OH2 7858   2.150   4.678   6.531
 2634TIP3    H1 7859   2.225   4.726   6.564
 2634TIP3    H2 7860   2.075   4.734   6.551
 2635TIP3   OH2 7861   4.430   6.689   6.465
 2635TIP3    H1 7862   4.373   6.613   6.479
 2635TIP3    H2 7863   4.371   6.764   6.472
 2636TIP3   OH2 7864   4.607   7.595   5.102
 2636TIP3    H1 7865   4.586   7.502   5.104
 2636TIP3    H2 7866   4.703   7.598   5.100
 2637TIP3   OH2 7867   3.744   0.071   4.366
 2637TIP3    H1 7868   3.709   0.017   4.296
 2637TIP3    H2 7869   3.667   0.103   4.413
 2638TIP3   OH2 7870   0.868   4.569   2.246
 2638TIP3    H1 7871   0.799   4.539   2.305
 2638TIP3    H2 7872   0.839   4.655   2.217
 2639TIP3   OH2 7873   0.026   3.783   3.328
 2639TIP3    H1 7874   0.112   3.796   3.289
 2639TIP3    H2 7875   0.025   3.690   3.352
 2640TIP3   OH2 7876   3.011   4.772   0.200
 2640TIP3    H1 7877   3.045   4.790   0.288
 2640TIP3    H2 7878   3.063   4.829   0.143
 2641TIP3   OH2 7879   2.625   1.211   3.245
 2641TIP3    H1 7880   2.665   1.156   3.178
 2641TIP3    H2 7881   2.672   1.295   3.238
 2642TIP3   OH2 7882   0.905   6.537   0.361
 2642TIP3    H1 7883   0.971   6.489   0.411
 2642TIP3    H2 7884   0.900   6.490   0.278
 2643TIP3   OH2 7885   1.266   3.387   0.504
 2643TIP3    H1 7886   1.194   3.448   0.485
 2643TIP3    H2 7887   1.242   3.346   0.586
 2644TIP3   OH2 7888   5.829   0.164   0.318
 2644TIP3    H1 7889   5.865   0.194   0.402
 2644TIP3    H2 7890   5.880   0.213   0.252
 2645TIP3   OH2 7891   7.802   6.754   4.705
 2645TIP3    H1 7892   7.806   6.752   4.801
 2645TIP3    H2 7893   7.758   6.673   4.681
 2646TIP3   OH2 7894   2.775   5.065   2.565
 2646TIP3    H1 7895   2.690   5.023   2.547
 2646TIP3    H2 7896   2.767   5.152   2.526
 2647TIP3   OH2 7897   1.886   1.746   5.199
 2647TIP3    H1 7898   1.976   1.773   5.212
 2647TIP3    H2 7899   1.892   1.653   5.174
 2648TIP3   OH2 7900   0.706   0.932   0.073
 2648TIP3    H1 7901   0.788   0.885   0.059
 2648TIP3    H2 7902   0.639   0.864   0.073
 2649TIP3   OH2 7903   4.096   6.299   6.322
 2649TIP3    H1 7904   4.052   6.307   6.406
 2649TIP3    H2 7905   4.151   6.221   6.331
 2650TIP3   OH2 7906   4.062   2.512   2.718
 2650TIP3    H1 7907   4.001   2.584   2.737
 2650TIP3    H2 7908   4.148   2.546   2.743
 2651TIP3   OH2 7909   4.997   2.846   4.980
 2651TIP3    H1 7910   5.037   2.929   4.955
 2651TIP3    H2 7911   4.905   2.856   4.956
 2652TIP3   OH2 7912   2.193   6.228   4.066
 2652TIP3    H1 7913   2.188   6.263   3.977
 2652TIP3    H2 7914   2.246   6.149   4.058
 2653TIP3   OH2 7915   4.377   3.144   1.706
 2653TIP3    H1 7916   4.354   3.066   1.757
 2653TIP3    H2 7917   4.346   3.218   1.759
 2654TIP3   OH2 7918   3.832   5.030   2.573
 2654TIP3    H1 7919   3.756   5.044   2.517
 2654TIP3    H2 7920   3.840   4.935   2.579
 2655TIP3   OH2 7921   6.656   2.789   6.742
 2655TIP3    H1 7922   6.661   2.760   6.833
 2655TIP3    H2 7923   6.577   2.747   6.707
 2656TIP3   OH2 7924   7.863   2.892   5.799
 2656TIP3    H1 7925   7.897   2.831   5.733
 2656TIP3    H2 7926   7.768   2.883   5.793
 2657TIP3   OH2 7927   7.350   7.790   6.219
 2657TIP3    H1 7928   7.395   7.874   6.222
 2657TIP3    H2 7929   7.414   7.730   6.180
 2658TIP3   OH2 7930   4.341   6.637   2.939
 2658TIP3    H1 7931   4.321   6.573   3.008
 2658TIP3    H2 7932   4.256   6.667   2.908
 2659TIP3   OH2 7933   2.575   6.953   2.046
 2659TIP3    H1 7934   2.508   6.885   2.036
 2659TIP3    H2 7935   2.655   6.904   2.067
 2660TIP3   OH2 7936   4.830   3.287   3.172
 2660TIP3    H1 7937   4.897   3.282   3.241
 2660TIP3    H2 7938   4.751   3.315   3.218
 2661TIP3   OH2 7939   0.512   3.625   4.982
 2661TIP3    H1 7940   0.472   3.662   5.061
 2661TIP3    H2 7941   0.572   3.558   5.015
 2662TIP3   OH2 7942   7.908   5.557   3.295
 2662TIP3    H1 7943   8.003   5.552   3.299
 2662TIP3    H2 7944   7.889   5.645   3.262
 2663TIP3   OH2 7945   1.655   4.192   5.660
 2663TIP3    H1 7946   1.645   4.269   5.715
 2663TIP3    H2 7947   1.743   4.159   5.680
 2664TIP3   OH2 7948   7.484   1.073   3.321
 2664TIP3    H1 7949   7.458   0.983   3.303
 2664TIP3    H2 7950   7.412   1.126   3.288
 2665TIP3   OH2 7951   5.390   5.392   5.652
 2665TIP3    H1 7952   5.360   5.344   5.729
 2665TIP3    H2 7953   5.350   5.346   5.578
 2666TIP3   OH2 7954   0.896   6.560   1.283
 2666TIP3    H1 7955   0.960   6.585   1.350
 2666TIP3    H2 7956   0.815   6.604   1.310
 2667TIP3   OH2 7957   0.218   5.070   5.801
 2667TIP3    H1 7958   0.152   5.098   5.738
 2667TIP3    H2 7959   0.231   4.977   5.782
 2668TIP3   OH2 7960   3.542   3.509   5.634
 2668TIP3    H1 7961   3.570   3.500   5.725
 2668TIP3    H2 7962   3.451   3.478   5.634
 2669TIP3   OH2 7963   4.377   0.334   3.703
 2669TIP3    H1 7964   4.344   0.379   3.626
 2669TIP3    H2 7965   4.348   0.387   3.777
 2670TIP3   OH2 7966   0.431   7.782   4.123
 2670TIP3    H1 7967   0.437   7.691   4.150
 2670TIP3    H2 7968   0.484   7.830   4.187
 2671TIP3   OH2 7969   7.833   2.881   1.298
 2671TIP3    H1 7970   7.864   2.907   1.211
 2671TIP3    H2 7971   7.741   2.908   1.300
 2672TIP3   OH2 7972   1.797   4.969   3.528
 2672TIP3    H1 7973   1.797   5.001   3.619
 2672TIP3    H2 7974   1.854   4.892   3.530
 2673TIP3   OH2 7975   3.230   5.913   1.750
 2673TIP3    H1 7976   3.287   5.987   1.729
 2673TIP3    H2 7977   3.270   5.838   1.707
 2674TIP3   OH2 7978   3.516   4.221   3.776
 2674TIP3    H1 7979   3.595   4.196   3.728
 2674TIP3    H2 7980   3.548   4.260   3.857
 2675TIP3   OH2 7981   1.075   6.967   0.087
 2675TIP3    H1 7982   1.048   6.885   0.044
 2675TIP3    H2 7983   1.170   6.968   0.079
 2676TIP3   OH2 7984   3.427   1.956   4.577
 2676TIP3    H1 7985   3.479   1.972   4.498
 2676TIP3    H2 7986   3.492   1.945   4.647
 2677TIP3   OH2 7987   5.939   0.819   5.566
 2677TIP3    H1 7988   5.951   0.912   5.546
 2677TIP3    H2 7989   6.027   0.787   5.586
 2678TIP3   OH2 7990   6.422   1.738   0.688
 2678TIP3    H1 7991   6.434   1.792   0.766
 2678TIP3    H2 7992   6.510   1.728   0.653
 2679TIP3   OH2 7993   5.576   0.853   5.929
 2679TIP3    H1 7994   5.609   0.934   5.969
 2679TIP3    H2 7995   5.561   0.794   6.003
 2680TIP3   OH2 7996   5.967   5.394   0.938
 2680TIP3    H1 7997   6.047   5.380   0.989
 2680TIP3    H2 7998   5.940   5.483   0.959
 2681TIP3   OH2 7999   2.200   6.810   0.534
 2681TIP3    H1 8000   2.190   6.796   0.628
 2681TIP3    H2 8001   2.154   6.892   0.517
 2682TIP3   OH2 8002   2.655   7.028   4.100
 2682TIP3    H1 8003   2.677   7.053   4.190
 2682TIP3    H2 8004   2.562   7.047   4.092
 2683TIP3   OH2 8005   3.193   7.555   3.977
 2683TIP3    H1 8006   3.282   7.590   3.971
 2683TIP3    H2 8007   3.136   7.632   3.964
 2684TIP3   OH2 8008   4.419   0.139   6.736
 2684TIP3    H1 8009   4.357   0.069   6.757
 2684TIP3    H2 8010   4.366   0.219   6.737
 2685TIP3   OH2 8011   2.138   2.323   3.176
 2685TIP3    H1 8012   2.128   2.388   3.107
 2685TIP3    H2 8013   2.065   2.341   3.236
 2686TIP3   OH2 8014   5.349   5.075   4.753
 2686TIP3    H1 8015   5.307   5.151   4.713
 2686TIP3    H2 8016   5.443   5.096   4.751
 2687TIP3   OH2 8017   4.857   1.870   2.789
 2687TIP3    H1 8018   4.887   1.958   2.812
 2687TIP3    H2 8019   4.825   1.879   2.699
 2688TIP3   OH2 8020   7.360   4.528   3.401
 2688TIP3    H1 8021   7.294   4.565   3.459
 2688TIP3    H2 8022   7.378   4.599   3.338
 2689TIP3   OH2 8023   7.902   3.187   6.492
 2689TIP3    H1 8024   7.902   3.157   6.401
 2689TIP3    H2 8025   7.900   3.106   6.544
 2690TIP3   OH2 8026   6.352   5.430   1.646
 2690TIP3    H1 8027   6.430   5.380   1.670
 2690TIP3    H2 8028   6.296   5.424   1.723
 2691TIP3   OH2 8029   0.851   5.804   2.391
 2691TIP3    H1 8030   0.920   5.753   2.433
 2691TIP3    H2 8031   0.770   5.767   2.427
 2692TIP3   OH2 8032   6.921   4.639   2.280
 2692TIP3    H1 8033   6.975   4.638   2.360
 2692TIP3    H2 8034   6.954   4.713   2.230
 2693TIP3   OH2 8035   7.175   5.551   5.151
 2693TIP3    H1 8036   7.248   5.539   5.211
 2693TIP3    H2 8037   7.097   5.541   5.205
 2694TIP3   OH2 8038   4.948   0.433   5.289
 2694TIP3    H1 8039   5.031   0.471   5.318
 2694TIP3    H2 8040   4.889   0.508   5.282
 2695TIP3   OH2 8041   4.328   6.235   4.121
 2695TIP3    H1 8042   4.271   6.192   4.058
 2695TIP3    H2 8043   4.331   6.175   4.195
 2696TIP3   OH2 8044   6.891   0.055   1.997
 2696TIP3    H1 8045   6.905   0.001   1.919
 2696TIP3    H2 8046   6.838   0.129   1.967
 2697TIP3   OH2 8047   6.336   6.210   6.580
 2697TIP3    H1 8048   6.372   6.246   6.662
 2697TIP3    H2 8049   6.244   6.194   6.600
 2698TIP3   OH2 8050   2.984   4.149   1.507
 2698TIP3    H1 8051   3.007   4.093   1.581
 2698TIP3    H2 8052   2.926   4.094   1.453
 2699TIP3   OH2 8053   0.893   7.525   5.835
 2699TIP3    H1 8054   0.905   7.610   5.877
 2699TIP3    H2 8055   0.850   7.471   5.901
 2700TIP3   OH2 8056   7.702   5.704   4.038
 2700TIP3    H1 8057   7.626   5.662   3.999
 2700TIP3    H2 8058   7.777   5.662   3.995
 2701TIP3   OH2 8059   2.947   6.416   0.321
 2701TIP3    H1 8060   2.919   6.366   0.244
 2701TIP3    H2 8061   2.865   6.449   0.359
 2702TIP3   OH2 8062   7.220   5.238   4.753
 2702TIP3    H1 8063   7.160   5.312   4.757
 2702TIP3    H2 8064   7.275   5.248   4.830
 2703TIP3   OH2 8065   2.819   7.367   3.204
 2703TIP3    H1 8066   2.835   7.461   3.205
 2703TIP3    H2 8067   2.862   7.336   3.124
 2704TIP3   OH2 8068   5.302   0.361   0.895
 2704TIP3    H1 8069   5.391   0.384   0.922
 2704TIP3    H2 8070   5.288   0.273   0.929
 2705TIP3   OH2 8071   6.568   3.006   3.620
 2705TIP3    H1 8072   6.636   2.977   3.680
 2705TIP3    H2 8073   6.565   2.938   3.553
 2706TIP3   OH2 8074   2.616   2.450   0.048
 2706TIP3    H1 8075   2.640   2.541   0.030
 2706TIP3    H2 8076   2.615   2.409  -0.038
 2707TIP3   OH2 8077   2.860   6.452   5.874
 2707TIP3    H1 8078   2.832   6.393   5.945
 2707TIP3    H2 8079   2.852   6.399   5.795
 2708TIP3   OH2 8080   6.538   3.253   0.601
 2708TIP3    H1 8081   6.481   3.270   0.526
 2708TIP3    H2 8082   6.538   3.157   0.611
 2709TIP3   OH2 8083   5.048   5.212   3.248
 2709TIP3    H1 8084   5.061   5.303   3.223
 2709TIP3    H2 8085   5.101   5.162   3.186
 2710TIP3   OH2 8086   3.911   4.595   5.745
 2710TIP3    H1 8087   3.974   4.665   5.757
 2710TIP3    H2 8088   3.826   4.635   5.763
 2711TIP3   OH2 8089   0.042   5.092   2.978
 2711TIP3    H1 8090   0.067   5.113   3.068
 2711TIP3    H2 8091   0.074   5.003   2.963
 2712TIP3   OH2 8092   6.974   0.087   4.933
 2712TIP3    H1 8093   6.970   0.017   4.998
 2712TIP3    H2 8094   6.884   0.118   4.925
 2713TIP3   OH2 8095   0.173   0.747   0.504
 2713TIP3    H1 8096   0.190   0.699   0.585
 2713TIP3    H2 8097   0.218   0.696   0.436
 2714TIP3   OH2 8098   5.626   2.267   2.067
 2714TIP3    H1 8099   5.546   2.259   2.119
 2714TIP3    H2 8100   5.686   2.203   2.106
 2715TIP3   OH2 8101   4.330   6.611   3.659
 2715TIP3    H1 8102   4.410   6.625   3.709
 2715TIP3    H2 8103   4.353   6.634   3.569
 2716TIP3   OH2 8104   1.574   5.214   1.206
 2716TIP3    H1 8105   1.536   5.301   1.213
 2716TIP3    H2 8106   1.661   5.228   1.169
 2717TIP3   OH2 8107   4.026   3.848   5.893
 2717TIP3    H1 8108   4.041   3.864   5.986
 2717TIP3    H2 8109   4.075   3.918   5.849
 2718TIP3   OH2 8110   1.231   5.836   4.432
 2718TIP3    H1 8111   1.302   5.896   4.409
 2718TIP3    H2 8112   1.260   5.751   4.399
 2719TIP3   OH2 8113   1.938   0.169   3.185
 2719TIP3    H1 8114   1.866   0.186   3.246
 2719TIP3    H2 8115   1.924   0.079   3.155
 2720TIP3   OH2 8116   1.526   2.673   4.535
 2720TIP3    H1 8117   1.554   2.582   4.545
 2720TIP3    H2 8118   1.465   2.672   4.461
 2721TIP3   OH2 8119   5.793   1.158   1.220
 2721TIP3    H1 8120   5.709   1.165   1.176
 2721TIP3    H2 8121   5.823   1.248   1.231
 2722TIP3   OH2 8122   5.802   1.689   2.251
 2722TIP3    H1 8123   5.833   1.749   2.183
 2722TIP3    H2 8124   5.826   1.732   2.334
 2723TIP3   OH2 8125   3.360   0.384   0.744
 2723TIP3    H1 8126   3.364   0.442   0.820
 2723TIP3    H2 8127   3.449   0.349   0.736
 2724TIP3   OH2 8128   1.188   6.097   5.388
 2724TIP3    H1 8129   1.276   6.064   5.371
 2724TIP3    H2 8130   1.162   6.055   5.470
 2725TIP3   OH2 8131   2.992   5.884   6.523
 2725TIP3    H1 8132   2.914   5.830   6.515
 2725TIP3    H2 8133   3.026   5.865   6.610
 2726TIP3   OH2 8134   4.489   4.442   2.863
 2726TIP3    H1 8135   4.487   4.351   2.834
 2726TIP3    H2 8136   4.545   4.441   2.941
 2727TIP3   OH2 8137   5.838   7.413   5.194
 2727TIP3    H1 8138   5.768   7.370   5.145
 2727TIP3    H2 8139   5.919   7.380   5.155
 2728TIP3   OH2 8140   3.321   6.369   1.821
 2728TIP3    H1 8141   3.376   6.439   1.784
 2728TIP3    H2 8142   3.292   6.403   1.905
 2729TIP3   OH2 8143   0.883   3.896   3.588
 2729TIP3    H1 8144   0.927   3.968   3.542
 2729TIP3    H2 8145   0.946   3.870   3.655
 2730TIP3   OH2 8146   6.868   5.901   0.469
 2730TIP3    H1 8147   6.918   5.906   0.550
 2730TIP3    H2 8148   6.788   5.852   0.492
 2731TIP3   OH2 8149   1.296   7.208   4.333
 2731TIP3    H1 8150   1.269   7.225   4.243
 2731TIP3    H2 8151   1.330   7.118   4.332
 2732TIP3   OH2 8152   7.236   4.585   4.660
 2732TIP3    H1 8153   7.235   4.524   4.586
 2732TIP3    H2 8154   7.323   4.576   4.697
 2733TIP3   OH2 8155   0.633   0.014   5.642
 2733TIP3    H1 8156   0.628   0.107   5.621
 2733TIP3    H2 8157   0.655  -0.028   5.558
 2734TIP3   OH2 8158   0.848   6.777   6.239
 2734TIP3    H1 8159   0.772   6.832   6.261
 2734TIP3    H2 8160   0.919   6.840   6.227
 2735TIP3   OH2 8161   5.720   5.557   1.603
 2735TIP3    H1 8162   5.741   5.505   1.681
 2735TIP3    H2 8163   5.803   5.599   1.580
 2736TIP3   OH2 8164   2.746   4.274   4.039
 2736TIP3    H1 8165   2.664   4.251   3.996
 2736TIP3    H2 8166   2.791   4.331   3.976
 2737TIP3   OH2 8167   7.389   6.199   0.950
 2737TIP3    H1 8168   7.340   6.282   0.957
 2737TIP3    H2 8169   7.479   6.222   0.973
 2738TIP3   OH2 8170   1.909   1.090   2.381
 2738TIP3    H1 8171   1.917   0.994   2.387
 2738TIP3    H2 8172   1.995   1.122   2.408
 2739TIP3   OH2 8173   7.678   6.543   2.250
 2739TIP3    H1 8174   7.628   6.465   2.227
 2739TIP3    H2 8175   7.767   6.512   2.263
 2740TIP3   OH2 8176   5.356   0.190   0.571
 2740TIP3    H1 8177   5.349   0.128   0.643
 2740TIP3    H2 8178   5.403   0.143   0.502
 2741TIP3   OH2 8179   0.722   6.448   3.674
 2741TIP3    H1 8180   0.694   6.370   3.721
 2741TIP3    H2 8181   0.800   6.478   3.721
 2742TIP3   OH2 8182   2.741   5.327   3.819
 2742TIP3    H1 8183   2.790   5.403   3.851
 2742TIP3    H2 8184   2.715   5.281   3.899
 2743TIP3   OH2 8185   2.075   0.025   5.874
 2743TIP3    H1 8186   2.008  -0.042   5.865
 2743TIP3    H2 8187   2.033   0.096   5.922
 2744TIP3   OH2 8188   3.889   0.484   5.883
 2744TIP3    H1 8189   3.980   0.494   5.910
 2744TIP3    H2 8190   3.858   0.408   5.932
 2745TIP3   OH2 8191   6.078   4.242   3.524
 2745TIP3    H1 8192   6.085   4.161   3.575
 2745TIP3    H2 8193   6.152   4.239   3.464
 2746TIP3   OH2 8194   1.768   0.920   0.236
 2746TIP3    H1 8195   1.714   0.989   0.197
 2746TIP3    H2 8196   1.752   0.928   0.330
 2747TIP3   OH2 8197   4.341   0.458   0.251
 2747TIP3    H1 8198   4.289   0.484   0.175
 2747TIP3    H2 8199   4.276   0.434   0.318
 2748TIP3   OH2 8200   1.270   0.321   4.389
 2748TIP3    H1 8201   1.190   0.365   4.359
 2748TIP3    H2 8202   1.310   0.289   4.308
 2749TIP3   OH2 8203   0.303   7.039   3.927
 2749TIP3    H1 8204   0.368   7.021   3.995
 2749TIP3    H2 8205   0.270   6.953   3.900
 2750TIP3   OH2 8206   8.010   1.200   4.395
 2750TIP3    H1 8207   8.024   1.108   4.374
 2750TIP3    H2 8208   8.054   1.248   4.325
 2751TIP3   OH2 8209   2.299   7.791   2.470
 2751TIP3    H1 8210   2.300   7.785   2.566
 2751TIP3    H2 8211   2.219   7.746   2.444
 2752TIP3   OH2 8212   7.229   1.333   2.520
 2752TIP3    H1 8213   7.316   1.367   2.500
 2752TIP3    H2 8214   7.191   1.397   2.580
 2753TIP3   OH2 8215   1.850   6.904   4.097
 2753TIP3    H1 8216   1.857   6.976   4.034
 2753TIP3    H2 8217   1.763   6.914   4.136
 2754TIP3   OH2 8218   0.755   5.987   1.368
 2754TIP3    H1 8219   0.714   6.051   1.426
 2754TIP3    H2 8220   0.739   5.903   1.411
 2755TIP3   OH2 8221   6.129   6.707   3.740
 2755TIP3    H1 8222   6.149   6.792   3.701
 2755TIP3    H2 8223   6.079   6.728   3.818
 2756TIP3   OH2 8224   6.818   5.033   2.563
 2756TIP3    H1 8225   6.748   5.013   2.500
 2756TIP3    H2 8226   6.898   5.005   2.519
 2757TIP3   OH2 8227   5.120   3.777   3.578
 2757TIP3    H1 8228   5.109   3.835   3.503
 2757TIP3    H2 8229   5.055   3.808   3.642
 2758TIP3   OH2 8230   8.043   6.613   2.546
 2758TIP3    H1 8231   7.997   6.542   2.500
 2758TIP3    H2 8232   8.068   6.674   2.477
 2759TIP3   OH2 8233   1.628   1.731   1.229
 2759TIP3    H1 8234   1.577   1.685   1.295
 2759TIP3    H2 8235   1.662   1.808   1.274
 2760TIP3   OH2 8236   1.412   0.150   5.610
 2760TIP3    H1 8237   1.490   0.150   5.554
 2760TIP3    H2 8238   1.437   0.203   5.686
 2761TIP3   OH2 8239   2.040   4.838   3.081
 2761TIP3    H1 8240   1.969   4.901   3.079
 2761TIP3    H2 8241   2.118   4.890   3.102
 2762TIP3   OH2 8242   6.906   4.250   0.265
 2762TIP3    H1 8243   6.857   4.329   0.242
 2762TIP3    H2 8244   6.961   4.234   0.188
 2763TIP3   OH2 8245   2.363   6.781   1.105
 2763TIP3    H1 8246   2.384   6.689   1.118
 2763TIP3    H2 8247   2.387   6.799   1.014
 2764TIP3   OH2 8248   1.235   5.415   6.714
 2764TIP3    H1 8249   1.291   5.473   6.765
 2764TIP3    H2 8250   1.245   5.445   6.624
 2765TIP3   OH2 8251   8.271   5.127   6.125
 2765TIP3    H1 8252   8.248   5.219   6.132
 2765TIP3    H2 8253   8.231   5.099   6.042
 2766TIP3   OH2 8254   2.431   2.551   1.370
 2766TIP3    H1 8255   2.513   2.592   1.342
 2766TIP3    H2 8256   2.411   2.592   1.454
 2767TIP3   OH2 8257   5.458   1.566   0.484
 2767TIP3    H1 8258   5.397   1.520   0.426
 2767TIP3    H2 8259   5.507   1.625   0.426
 2768TIP3   OH2 8260   4.502   3.468   2.023
 2768TIP3    H1 8261   4.557   3.451   1.946
 2768TIP3    H2 8262   4.554   3.529   2.076
 2769TIP3   OH2 8263   4.528   6.838   5.385
 2769TIP3    H1 8264   4.586   6.849   5.310
 2769TIP3    H2 8265   4.475   6.761   5.364
 2770TIP3   OH2 8266   7.083   5.081   3.053
 2770TIP3    H1 8267   7.173   5.114   3.050
 2770TIP3    H2 8268   7.032   5.155   3.087
 2771TIP3   OH2 8269   5.044   5.217   1.578
 2771TIP3    H1 8270   5.068   5.304   1.612
 2771TIP3    H2 8271   4.949   5.214   1.588
 2772TIP3   OH2 8272   2.024   6.675   2.455
 2772TIP3    H1 8273   2.105   6.698   2.500
 2772TIP3    H2 8274   1.989   6.759   2.425
 2773TIP3   OH2 8275   5.657   1.038   5.689
 2773TIP3    H1 8276   5.654   0.951   5.728
 2773TIP3    H2 8277   5.565   1.061   5.673
 2774TIP3   OH2 8278   0.091   4.713   0.139
 2774TIP3    H1 8279   0.077   4.670   0.223
 2774TIP3    H2 8280   0.015   4.688   0.086
 2775TIP3   OH2 8281   7.800   5.834   0.588
 2775TIP3    H1 8282   7.816   5.740   0.602
 2775TIP3    H2 8283   7.730   5.856   0.649
 2776TIP3   OH2 8284   1.613   2.371   0.167
 2776TIP3    H1 8285   1.642   2.401   0.253
 2776TIP3    H2 8286   1.688   2.324   0.131
 2777TIP3   OH2 8287   4.731   6.541   1.160
 2777TIP3    H1 8288   4.652   6.562   1.110
 2777TIP3    H2 8289   4.778   6.624   1.166
 2778TIP3   OH2 8290   4.153   4.916   0.152
 2778TIP3    H1 8291   4.164   4.907   0.057
 2778TIP3    H2 8292   4.103   4.839   0.178
 2779TIP3   OH2 8293   1.904   4.641   6.698
 2779TIP3    H1 8294   1.934   4.639   6.789
 2779TIP3    H2 8295   1.930   4.555   6.663
 2780TIP3   OH2 8296   4.009   5.942   2.712
 2780TIP3    H1 8297   4.085   5.963   2.657
 2780TIP3    H2 8298   3.969   5.866   2.669
 2781TIP3   OH2 8299   0.155   6.849   2.136
 2781TIP3    H1 8300   0.240   6.872   2.173
 2781TIP3    H2 8301   0.141   6.758   2.162
 2782TIP3   OH2 8302   5.846   1.468   4.785
 2782TIP3    H1 8303   5.811   1.385   4.752
 2782TIP3    H2 8304   5.776   1.531   4.772
 2783TIP3   OH2 8305   6.226   6.627   5.002
 2783TIP3    H1 8306   6.263   6.550   4.960
 2783TIP3    H2 8307   6.161   6.593   5.064
 2784TIP3   OH2 8308   5.929   7.023   4.451
 2784TIP3    H1 8309   5.935   7.067   4.367
 2784TIP3    H2 8310   6.019   6.994   4.469
 2785TIP3   OH2 8311   2.945   6.508   6.570
 2785TIP3    H1 8312   2.913   6.597   6.557
 2785TIP3    H2 8313   2.909   6.482   6.655
 2786TIP3   OH2 8314   4.788   7.524   6.183
 2786TIP3    H1 8315   4.868   7.574   6.170
 2786TIP3    H2 8316   4.787   7.506   6.277
 2787TIP3   OH2 8317   0.421   7.662   3.821
 2787TIP3    H1 8318   0.511   7.632   3.810
 2787TIP3    H2 8319   0.399   7.640   3.912
 2788TIP3   OH2 8320   5.219   6.280   5.132
 2788TIP3    H1 8321   5.290   6.324   5.085
 2788TIP3    H2 8322   5.246   6.282   5.224
 2789TIP3   OH2 8323   0.019   0.782   5.808
 2789TIP3    H1 8324  -0.068   0.749   5.783
 2789TIP3    H2 8325   0.069   0.703   5.828
 2790TIP3   OH2 8326   5.771   5.396   1.806
 2790TIP3    H1 8327   5.726   5.423   1.886
 2790TIP3    H2 8328   5.843   5.340   1.837
 2791TIP3   OH2 8329   1.686   4.852   1.798
 2791TIP3    H1 8330   1.764   4.842   1.745
 2791TIP3    H2 8331   1.719   4.856   1.888
 2792TIP3   OH2 8332   2.954   0.925   0.910
 2792TIP3    H1 8333   2.905   0.977   0.846
 2792TIP3    H2 8334   3.009   0.988   0.956
 2793TIP3   OH2 8335   5.740   6.663   2.854
 2793TIP3    H1 8336   5.808   6.721   2.819
 2793TIP3    H2 8337   5.659   6.712   2.842
 2794TIP3   OH2 8338   5.511   7.635   2.542
 2794TIP3    H1 8339   5.430   7.587   2.558
 2794TIP3    H2 8340   5.580   7.581   2.580
 2795TIP3   OH2 8341   7.700   2.154   6.403
 2795TIP3    H1 8342   7.784   2.117   6.431
 2795TIP3    H2 8343   7.660   2.085   6.350
 2796TIP3   OH2 8344   4.661   4.920   6.517
 2796TIP3    H1 8345   4.612   4.967   6.450
 2796TIP3    H2 8346   4.753   4.937   6.495
 2797TIP3   OH2 8347   1.196   2.975   5.615
 2797TIP3    H1 8348   1.252   3.052   5.631
 2797TIP3    H2 8349   1.165   2.950   5.702
 2798TIP3   OH2 8350   3.544   3.037   4.757
 2798TIP3    H1 8351   3.622   3.076   4.798
 2798TIP3    H2 8352   3.473   3.055   4.818
 2799TIP3   OH2 8353   7.453   0.041   0.015
 2799TIP3    H1 8354   7.480  -0.031  -0.041
 2799TIP3    H2 8355   7.522   0.047   0.081
 2800TIP3   OH2 8356   1.432   4.615   4.331
 2800TIP3    H1 8357   1.517   4.642   4.297
 2800TIP3    H2 8358   1.381   4.696   4.337
 2801TIP3   OH2 8359   2.467   0.426   0.952
 2801TIP3    H1 8360   2.447   0.461   0.865
 2801TIP3    H2 8361   2.562   0.419   0.954
 2802TIP3   OH2 8362   3.537   6.712   6.013
 2802TIP3    H1 8363   3.575   6.673   5.934
 2802TIP3    H2 8364   3.454   6.748   5.985
 2803TIP3   OH2 8365   1.821   3.275   3.742
 2803TIP3    H1 8366   1.815   3.249   3.650
 2803TIP3    H2 8367   1.909   3.248   3.768
 2804TIP3   OH2 8368   7.013   3.085   2.272
 2804TIP3    H1 8369   7.015   3.168   2.319
 2804TIP3    H2 8370   7.059   3.024   2.329
 2805TIP3   OH2 8371   1.285   2.508   1.151
 2805TIP3    H1 8372   1.311   2.599   1.135
 2805TIP3    H2 8373   1.192   2.506   1.126
 2806TIP3   OH2 8374   1.341   1.633   0.906
 2806TIP3    H1 8375   1.340   1.552   0.957
 2806TIP3    H2 8376   1.405   1.688   0.950
 2807TIP3   OH2 8377   3.661   5.673   2.944
 2807TIP3    H1 8378   3.721   5.748   2.942
 2807TIP3    H2 8379   3.709   5.606   2.993
 2808TIP3   OH2 8380   0.914   4.689   3.172
 2808TIP3    H1 8381   0.834   4.665   3.218
 2808TIP3    H2 8382   0.884   4.735   3.094
 2809TIP3   OH2 8383   7.838   0.323   1.223
 2809TIP3    H1 8384   7.875   0.235   1.212
 2809TIP3    H2 8385   7.860   0.347   1.313
 2810TIP3   OH2 8386   5.542   5.858   3.919
 2810TIP3    H1 8387   5.622   5.905   3.896
 2810TIP3    H2 8388   5.474   5.899   3.867
 2811TIP3   OH2 8389   7.813   6.752   4.981
 2811TIP3    H1 8390   7.767   6.829   5.013
 2811TIP3    H2 8391   7.899   6.756   5.023
 2812TIP3   OH2 8392   1.653   4.618   3.479
 2812TIP3    H1 8393   1.561   4.642   3.468
 2812TIP3    H2 8394   1.698   4.663   3.408
 2813TIP3   OH2 8395   7.570   5.798   3.575
 2813TIP3    H1 8396   7.484   5.768   3.603
 2813TIP3    H2 8397   7.568   5.791   3.480
 2814TIP3   OH2 8398   6.761   4.573   5.917
 2814TIP3    H1 8399   6.685   4.563   5.860
 2814TIP3    H2 8400   6.828   4.517   5.878
 2815TIP3   OH2 8401   3.318   7.839   4.620
 2815TIP3    H1 8402   3.224   7.844   4.637
 2815TIP3    H2 8403   3.347   7.758   4.663
 2816TIP3   OH2 8404   4.523   4.395   5.825
 2816TIP3    H1 8405   4.551   4.314   5.868
 2816TIP3    H2 8406   4.532   4.463   5.891
 2817TIP3   OH2 8407   6.639   6.390   3.441
 2817TIP3    H1 8408   6.672   6.479   3.435
 2817TIP3    H2 8409   6.634   6.373   3.535
 2818TIP3   OH2 8410   5.952   3.439   5.480
 2818TIP3    H1 8411   6.014   3.505   5.450
 2818TIP3    H2 8412   5.904   3.414   5.401
 2819TIP3   OH2 8413   7.905   2.975   3.133
 2819TIP3    H1 8414   7.830   3.034   3.131
 2819TIP3    H2 8415   7.932   2.974   3.225
 2820TIP3   OH2 8416   0.231   1.768   0.377
 2820TIP3    H1 8417   0.266   1.691   0.422
 2820TIP3    H2 8418   0.155   1.794   0.430
 2821TIP3   OH2 8419   0.058   2.480   4.479
 2821TIP3    H1 8420  -0.022   2.489   4.427
 2821TIP3    H2 8421   0.073   2.567   4.515
 2822TIP3   OH2 8422   3.940   5.349   3.635
 2822TIP3    H1 8423   3.939   5.269   3.582
 2822TIP3    H2 8424   3.984   5.324   3.716
 2823TIP3   OH2 8425   6.663   6.068   3.903
 2823TIP3    H1 8426   6.678   6.012   3.979
 2823TIP3    H2 8427   6.571   6.052   3.880
 2824TIP3   OH2 8428   6.127   1.970   2.381
 2824TIP3    H1 8429   6.126   1.998   2.289
 2824TIP3    H2 8430   6.090   2.045   2.429
 2825TIP3   OH2 8431   1.390   1.511   0.401
 2825TIP3    H1 8432   1.362   1.594   0.439
 2825TIP3    H2 8433   1.480   1.499   0.434
 2826TIP3   OH2 8434   3.487   4.593   6.120
 2826TIP3    H1 8435   3.502   4.672   6.172
 2826TIP3    H2 8436   3.392   4.586   6.114
 2827TIP3   OH2 8437   6.451   3.957   4.023
 2827TIP3    H1 8438   6.527   4.015   4.028
 2827TIP3    H2 8439   6.477   3.887   3.964
 2828TIP3   OH2 8440   3.230   2.942   3.233
 2828TIP3    H1 8441   3.136   2.928   3.220
 2828TIP3    H2 8442   3.262   2.971   3.147
 2829TIP3   OH2 8443   1.351   7.524   1.455
 2829TIP3    H1 8444   1.281   7.546   1.516
 2829TIP3    H2 8445   1.318   7.552   1.370
 2830TIP3   OH2 8446   4.080   1.827   1.317
 2830TIP3    H1 8447   4.090   1.784   1.402
 2830TIP3    H2 8448   4.025   1.903   1.334
 2831TIP3   OH2 8449   1.637   5.766   3.879
 2831TIP3    H1 8450   1.711   5.705   3.881
 2831TIP3    H2 8451   1.561   5.711   3.860
 2832TIP3   OH2 8452   2.946   2.076   4.077
 2832TIP3    H1 8453   2.997   2.029   4.012
 2832TIP3    H2 8454   2.858   2.039   4.070
 2833TIP3   OH2 8455   3.198   5.023   0.717
 2833TIP3    H1 8456   3.225   5.006   0.807
 2833TIP3    H2 8457   3.214   5.116   0.705
 2834TIP3   OH2 8458   7.824   6.865   3.811
 2834TIP3    H1 8459   7.893   6.827   3.757
 2834TIP3    H2 8460   7.863   6.874   3.898
 2835TIP3   OH2 8461   6.631   4.161   0.801
 2835TIP3    H1 8462   6.564   4.092   0.800
 2835TIP3    H2 8463   6.706   4.122   0.756
 2836TIP3   OH2 8464   2.030   4.184   2.150
 2836TIP3    H1 8465   1.986   4.170   2.233
 2836TIP3    H2 8466   2.123   4.188   2.172
 2837TIP3   OH2 8467   3.530   0.810   4.741
 2837TIP3    H1 8468   3.608   0.804   4.796
 2837TIP3    H2 8469   3.513   0.720   4.713
 2838TIP3   OH2 8470   6.750   1.755   5.175
 2838TIP3    H1 8471   6.798   1.794   5.248
 2838TIP3    H2 8472   6.669   1.806   5.170
 2839TIP3   OH2 8473   3.449   3.899   5.751
 2839TIP3    H1 8474   3.539   3.931   5.743
 2839TIP3    H2 8475   3.411   3.915   5.664
 2840TIP3   OH2 8476   5.942   1.427   1.213
 2840TIP3    H1 8477   6.016   1.456   1.160
 2840TIP3    H2 8478   5.976   1.425   1.303
 2841TIP3   OH2 8479   2.568   7.055   3.014
 2841TIP3    H1 8480   2.585   7.074   3.106
 2841TIP3    H2 8481   2.569   7.140   2.971
 2842TIP3   OH2 8482   2.183   5.299   0.905
 2842TIP3    H1 8483   2.143   5.369   0.957
 2842TIP3    H2 8484   2.276   5.320   0.904
 2843TIP3   OH2 8485   0.110   6.548   4.598
 2843TIP3    H1 8486   0.098   6.507   4.684
 2843TIP3    H2 8487   0.118   6.475   4.537
 2844TIP3   OH2 8488   3.987   5.351   0.674
 2844TIP3    H1 8489   3.999   5.368   0.768
 2844TIP3    H2 8490   4.076   5.347   0.639
 2845TIP3   OH2 8491   0.179   5.098   1.374
 2845TIP3    H1 8492   0.106   5.151   1.343
 2845TIP3    H2 8493   0.239   5.094   1.299
 2846TIP3   OH2 8494   6.949   5.773   5.905
 2846TIP3    H1 8495   7.029   5.769   5.958
 2846TIP3    H2 8496   6.954   5.859   5.862
 2847TIP3   OH2 8497   4.658   5.619   5.298
 2847TIP3    H1 8498   4.732   5.621   5.237
 2847TIP3    H2 8499   4.592   5.565   5.253
 2848TIP3   OH2 8500   7.203   4.834   6.180
 2848TIP3    H1 8501   7.289   4.871   6.162
 2848TIP3    H2 8502   7.154   4.905   6.222
 2849TIP3   OH2 8503   4.364   4.831   5.972
 2849TIP3    H1 8504   4.399   4.745   5.950
 2849TIP3    H2 8505   4.421   4.863   6.043
 2850TIP3   OH2 8506   4.731   6.984   4.912
 2850TIP3    H1 8507   4.739   6.940   4.828
 2850TIP3    H2 8508   4.691   6.919   4.970
 2851TIP3   OH2 8509   5.077   1.174   4.874
 2851TIP3    H1 8510   5.067   1.267   4.895
 2851TIP3    H2 8511   5.019   1.129   4.936
 2852TIP3   OH2 8512   8.033   7.763   2.103
 2852TIP3    H1 8513   8.046   7.772   2.009
 2852TIP3    H2 8514   8.085   7.686   2.127
 2853TIP3   OH2 8515   7.868   2.239   5.749
 2853TIP3    H1 8516   7.935   2.295   5.788
 2853TIP3    H2 8517   7.787   2.264   5.793
 2854TIP3   OH2 8518   6.995   4.140   3.899
 2854TIP3    H1 8519   6.993   4.235   3.886
 2854TIP3    H2 8520   7.030   4.129   3.987
 2855TIP3   OH2 8521   5.591   0.069   1.731
 2855TIP3    H1 8522   5.534   0.084   1.657
 2855TIP3    H2 8523   5.633   0.153   1.748
 2856TIP3   OH2 8524   7.799   4.314   4.518
 2856TIP3    H1 8525   7.864   4.344   4.581
 2856TIP3    H2 8526   7.849   4.267   4.452
 2857TIP3   OH2 8527   2.888   4.470   0.940
 2857TIP3    H1 8528   2.941   4.530   0.993
 2857TIP3    H2 8529   2.952   4.413   0.898
 2858TIP3   OH2 8530   6.406   4.609   3.296
 2858TIP3    H1 8531   6.463   4.630   3.222
 2858TIP3    H2 8532   6.465   4.595   3.369
 2859TIP3   OH2 8533   2.696   3.208   5.422
 2859TIP3    H1 8534   2.771   3.177   5.370
 2859TIP3    H2 8535   2.632   3.138   5.416
 2860TIP3   OH2 8536   3.153   3.560   3.999
 2860TIP3    H1 8537   3.083   3.624   3.986
 2860TIP3    H2 8538   3.170   3.525   3.911
 2861TIP3   OH2 8539   3.909   7.485   1.624
 2861TIP3    H1 8540   3.874   7.510   1.709
 2861TIP3    H2 8541   3.852   7.528   1.560
 2862TIP3   OH2 8542   5.802   1.617   4.498
 2862TIP3    H1 8543   5.764   1.650   4.580
 2862TIP3    H2 8544   5.881   1.669   4.486
 2863TIP3   OH2 8545   6.629   4.951   6.222
 2863TIP3    H1 8546   6.658   4.860   6.231
 2863TIP3    H2 8547   6.677   4.983   6.145
 2864TIP3   OH2 8548   0.205   1.658   6.325
 2864TIP3    H1 8549   0.183   1.633   6.235
 2864TIP3    H2 8550   0.296   1.632   6.336
 2865TIP3   OH2 8551   1.478   6.039   2.690
 2865TIP3    H1 8552   1.516   6.084   2.614
 2865TIP3    H2 8553   1.458   5.952   2.658
 2866TIP3   OH2 8554   1.593   3.826   5.238
 2866TIP3    H1 8555   1.551   3.912   5.243
 2866TIP3    H2 8556   1.559   3.788   5.157
 2867TIP3   OH2 8557   0.495   0.911   2.573
 2867TIP3    H1 8558   0.586   0.940   2.576
 2867TIP3    H2 8559   0.474   0.891   2.665
 2868TIP3   OH2 8560   6.917   5.901   4.841
 2868TIP3    H1 8561   6.825   5.883   4.823
 2868TIP3    H2 8562   6.934   5.858   4.925
 2869TIP3   OH2 8563   6.956   7.730   5.771
 2869TIP3    H1 8564   6.934   7.801   5.711
 2869TIP3    H2 8565   6.898   7.743   5.846
 2870TIP3   OH2 8566   3.282   6.328   0.957
 2870TIP3    H1 8567   3.361   6.286   0.923
 2870TIP3    H2 8568   3.288   6.318   1.052
 2871TIP3   OH2 8569   2.005   4.611   4.796
 2871TIP3    H1 8570   1.929   4.624   4.739
 2871TIP3    H2 8571   2.009   4.516   4.809
 2872TIP3   OH2 8572   4.554   3.297   3.628
 2872TIP3    H1 8573   4.612   3.228   3.595
 2872TIP3    H2 8574   4.479   3.297   3.568
 2873TIP3   OH2 8575   2.159   1.200   4.650
 2873TIP3    H1 8576   2.100   1.233   4.582
 2873TIP3    H2 8577   2.119   1.228   4.733
 2874TIP3   OH2 8578   3.434   4.977   2.676
 2874TIP3    H1 8579   3.484   4.911   2.629
 2874TIP3    H2 8580   3.500   5.031   2.719
 2875TIP3   OH2 8581   5.107   3.332   6.605
 2875TIP3    H1 8582   5.119   3.400   6.538
 2875TIP3    H2 8583   5.060   3.262   6.559
 2876TIP3   OH2 8584   4.470   1.710   1.174
 2876TIP3    H1 8585   4.514   1.656   1.108
 2876TIP3    H2 8586   4.404   1.652   1.211
 2877TIP3   OH2 8587   5.696   3.198   0.504
 2877TIP3    H1 8588   5.732   3.287   0.506
 2877TIP3    H2 8589   5.651   3.189   0.588
 2878TIP3   OH2 8590   2.924   7.438   5.275
 2878TIP3    H1 8591   2.876   7.520   5.261
 2878TIP3    H2 8592   2.939   7.405   5.186
 2879TIP3   OH2 8593   6.011   7.158   1.138
 2879TIP3    H1 8594   5.937   7.110   1.100
 2879TIP3    H2 8595   5.974   7.243   1.162
 2880TIP3   OH2 8596   2.600   3.128   0.749
 2880TIP3    H1 8597   2.578   3.175   0.668
 2880TIP3    H2 8598   2.606   3.037   0.723
 2881TIP3   OH2 8599   4.756   4.214   0.616
 2881TIP3    H1 8600   4.710   4.223   0.699
 2881TIP3    H2 8601   4.758   4.119   0.599
 2882TIP3   OH2 8602   1.759   5.364   1.717
 2882TIP3    H1 8603   1.853   5.361   1.698
 2882TIP3    H2 8604   1.721   5.298   1.659
 2883TIP3   OH2 8605   3.869   4.226   4.035
 2883TIP3    H1 8606   3.888   4.240   4.127
 2883TIP3    H2 8607   3.773   4.226   4.030
 2884TIP3   OH2 8608   5.290   7.414   2.599
 2884TIP3    H1 8609   5.339   7.356   2.541
 2884TIP3    H2 8610   5.278   7.363   2.680
 2885TIP3   OH2 8611   7.145   5.388   3.981
 2885TIP3    H1 8612   7.153   5.313   3.922
 2885TIP3    H2 8613   7.066   5.368   4.033
 2886TIP3   OH2 8614   3.193   4.186   0.238
 2886TIP3    H1 8615   3.151   4.128   0.174
 2886TIP3    H2 8616   3.285   4.186   0.212
 2887TIP3   OH2 8617   3.324   3.994   5.509
 2887TIP3    H1 8618   3.382   4.066   5.534
 2887TIP3    H2 8619   3.242   4.013   5.554
 2888TIP3   OH2 8620   3.213   0.575   5.631
 2888TIP3    H1 8621   3.164   0.647   5.593
 2888TIP3    H2 8622   3.297   0.575   5.584
 2889TIP3   OH2 8623   2.012   2.194   5.491
 2889TIP3    H1 8624   2.104   2.200   5.464
 2889TIP3    H2 8625   1.964   2.182   5.409
 2890TIP3   OH2 8626   7.585   7.686   6.392
 2890TIP3    H1 8627   7.621   7.709   6.306
 2890TIP3    H2 8628   7.654   7.707   6.454
 2891TIP3   OH2 8629   5.529   7.709   3.101
 2891TIP3    H1 8630   5.491   7.623   3.119
 2891TIP3    H2 8631   5.482   7.768   3.158
 2892TIP3   OH2 8632   6.979   4.274   2.616
 2892TIP3    H1 8633   7.030   4.227   2.682
 2892TIP3    H2 8634   6.920   4.208   2.579
 2893TIP3   OH2 8635   3.936   1.106   5.598
 2893TIP3    H1 8636   3.917   1.200   5.597
 2893TIP3    H2 8637   3.852   1.065   5.582
 2894TIP3   OH2 8638   6.088   7.380   6.196
 2894TIP3    H1 8639   6.013   7.322   6.190
 2894TIP3    H2 8640   6.050   7.467   6.213
 2895TIP3   OH2 8641   2.816   6.797   3.205
 2895TIP3    H1 8642   2.846   6.754   3.286
 2895TIP3    H2 8643   2.832   6.732   3.137
 2896TIP3   OH2 8644   6.450   1.287   3.129
 2896TIP3    H1 8645   6.425   1.309   3.219
 2896TIP3    H2 8646   6.504   1.361   3.100
 2897TIP3   OH2 8647   8.244   4.223   2.550
 2897TIP3    H1 8648   8.190   4.288   2.505
 2897TIP3    H2 8649   8.197   4.141   2.537
 2898TIP3   OH2 8650   1.432   3.008   2.791
 2898TIP3    H1 8651   1.382   2.928   2.775
 2898TIP3    H2 8652   1.523   2.979   2.798
 2899TIP3   OH2 8653   6.642   7.518   3.697
 2899TIP3    H1 8654   6.722   7.506   3.647
 2899TIP3    H2 8655   6.660   7.477   3.782
 2900TIP3   OH2 8656   1.671   5.722   0.554
 2900TIP3    H1 8657   1.729   5.721   0.630
 2900TIP3    H2 8658   1.583   5.721   0.590
 2901TIP3   OH2 8659   3.040   4.119   5.713
 2901TIP3    H1 8660   2.998   4.045   5.669
 2901TIP3    H2 8661   3.018   4.107   5.806
 2902TIP3   OH2 8662   3.731   3.112   2.856
 2902TIP3    H1 8663   3.818   3.112   2.816
 2902TIP3    H2 8664   3.701   3.203   2.846
 2903TIP3   OH2 8665   0.329   4.934   6.284
 2903TIP3    H1 8666   0.378   5.016   6.278
 2903TIP3    H2 8667   0.299   4.917   6.195
 2904TIP3   OH2 8668   1.955   6.616   5.960
 2904TIP3    H1 8669   1.916   6.536   5.996
 2904TIP3    H2 8670   2.003   6.654   6.034
 2905TIP3   OH2 8671   8.116   0.704   0.855
 2905TIP3    H1 8672   8.186   0.674   0.913
 2905TIP3    H2 8673   8.074   0.775   0.902
 2906TIP3   OH2 8674   3.546   3.894   3.180
 2906TIP3    H1 8675   3.477   3.857   3.125
 2906TIP3    H2 8676   3.545   3.842   3.260
 2907TIP3   OH2 8677   2.181   3.336   4.566
 2907TIP3    H1 8678   2.096   3.323   4.607
 2907TIP3    H2 8679   2.200   3.253   4.522
 2908TIP3   OH2 8680   3.187   7.013   3.011
 2908TIP3    H1 8681   3.281   6.995   3.009
 2908TIP3    H2 8682   3.167   7.022   3.104
 2909TIP3   OH2 8683   7.147   3.347   4.520
 2909TIP3    H1 8684   7.111   3.381   4.601
 2909TIP3    H2 8685   7.190   3.265   4.545
 2910TIP3   OH2 8686   3.476   0.980   2.870
 2910TIP3    H1 8687   3.474   0.972   2.774
 2910TIP3    H2 8688   3.392   0.943   2.898
 2911TIP3   OH2 8689   6.195   0.969   3.648
 2911TIP3    H1 8690   6.131   0.919   3.699
 2911TIP3    H2 8691   6.233   0.906   3.587
 2912TIP3   OH2 8692   6.071   4.410   3.757
 2912TIP3    H1 8693   5.976   4.411   3.744
 2912TIP3    H2 8694   6.106   4.383   3.672
 2913TIP3   OH2 8695   2.729   2.350   5.929
 2913TIP3    H1 8696   2.744   2.258   5.905
 2913TIP3    H2 8697   2.680   2.386   5.856
 2914TIP3   OH2 8698   7.116   6.183   1.263
 2914TIP3    H1 8699   7.175   6.109   1.282
 2914TIP3    H2 8700   7.050   6.146   1.205
 2915TIP3   OH2 8701   5.672   2.750   0.247
 2915TIP3    H1 8702   5.644   2.831   0.290
 2915TIP3    H2 8703   5.597   2.691   0.257
 2916TIP3   OH2 8704   7.064   3.542   2.594
 2916TIP3    H1 8705   7.065   3.578   2.506
 2916TIP3    H2 8706   6.973   3.548   2.621
 2917TIP3   OH2 8707   0.136   4.214   3.814
 2917TIP3    H1 8708   0.084   4.155   3.869
 2917TIP3    H2 8709   0.116   4.186   3.725
 2918TIP3   OH2 8710   7.923   3.916   3.911
 2918TIP3    H1 8711   7.903   3.938   3.820
 2918TIP3    H2 8712   7.905   3.997   3.960
 2919TIP3   OH2 8713   4.468   4.147   2.781
 2919TIP3    H1 8714   4.441   4.060   2.753
 2919TIP3    H2 8715   4.499   4.190   2.701
 2920TIP3   OH2 8716   6.474   4.530   4.360
 2920TIP3    H1 8717   6.437   4.485   4.437
 2920TIP3    H2 8718   6.405   4.589   4.332
 2921TIP3   OH2 8719   3.679   0.153   4.812
 2921TIP3    H1 8720   3.601   0.144   4.866
 2921TIP3    H2 8721   3.748   0.182   4.873
 2922TIP3   OH2 8722   4.420   4.712   2.832
 2922TIP3    H1 8723   4.441   4.619   2.836
 2922TIP3    H2 8724   4.486   4.748   2.772
 2923TIP3   OH2 8725   5.289   2.822   4.128
 2923TIP3    H1 8726   5.292   2.892   4.193
 2923TIP3    H2 8727   5.209   2.840   4.078
 2924TIP3   OH2 8728   2.496   2.050   5.158
 2924TIP3    H1 8729   2.433   2.111   5.197
 2924TIP3    H2 8730   2.572   2.055   5.215
 2925TIP3   OH2 8731   4.722   0.935   2.731
 2925TIP3    H1 8732   4.740   0.862   2.791
 2925TIP3    H2 8733   4.804   0.985   2.729
 2926TIP3   OH2 8734   2.058   1.873   3.738
 2926TIP3    H1 8735   2.063   1.778   3.735
 2926TIP3    H2 8736   2.106   1.902   3.661
 2927TIP3   OH2 8737   1.351   1.169   2.918
 2927TIP3    H1 8738   1.330   1.225   2.994
 2927TIP3    H2 8739   1.294   1.093   2.929
 2928TIP3   OH2 8740   3.448   0.811   3.714
 2928TIP3    H1 8741   3.488   0.811   3.627
 2928TIP3    H2 8742   3.461   0.723   3.747
 2929TIP3   OH2 8743   0.893   6.951   3.339
 2929TIP3    H1 8744   0.801   6.979   3.339
 2929TIP3    H2 8745   0.891   6.863   3.378
 2930TIP3   OH2 8746   4.411   1.467   0.356
 2930TIP3    H1 8747   4.319   1.488   0.368
 2930TIP3    H2 8748   4.458   1.535   0.404
 2931TIP3   OH2 8749   3.275   2.727   1.974
 2931TIP3    H1 8750   3.241   2.650   1.928
 2931TIP3    H2 8751   3.198   2.769   2.011
 2932TIP3   OH2 8752   7.455   2.000   6.284
 2932TIP3    H1 8753   7.524   1.943   6.318
 2932TIP3    H2 8754   7.396   2.014   6.359
 2933TIP3   OH2 8755   7.842   1.291   2.559
 2933TIP3    H1 8756   7.904   1.241   2.505
 2933TIP3    H2 8757   7.896   1.351   2.609
 2934TIP3   OH2 8758   2.676   3.315   4.013
 2934TIP3    H1 8759   2.747   3.268   4.058
 2934TIP3    H2 8760   2.718   3.392   3.977
 2935TIP3   OH2 8761   0.456   6.838   5.198
 2935TIP3    H1 8762   0.530   6.900   5.201
 2935TIP3    H2 8763   0.381   6.890   5.227
 2936TIP3   OH2 8764   0.952   1.124   2.716
 2936TIP3    H1 8765   1.039   1.142   2.681
 2936TIP3    H2 8766   0.959   1.036   2.754
 2937TIP3   OH2 8767   3.873   7.138   0.011
 2937TIP3    H1 8768   3.917   7.213   0.050
 2937TIP3    H2 8769   3.827   7.096   0.084
 2938TIP3   OH2 8770   5.172   6.318   0.919
 2938TIP3    H1 8771   5.086   6.277   0.915
 2938TIP3    H2 8772   5.157   6.408   0.889
 2939TIP3   OH2 8773   7.159   6.379   0.565
 2939TIP3    H1 8774   7.098   6.344   0.630
 2939TIP3    H2 8775   7.244   6.377   0.609
 2940TIP3   OH2 8776   5.693   6.744   6.451
 2940TIP3    H1 8777   5.628   6.785   6.393
 2940TIP3    H2 8778   5.761   6.712   6.391
 2941TIP3   OH2 8779   6.344   1.816   4.483
 2941TIP3    H1 8780   6.296   1.790   4.405
 2941TIP3    H2 8781   6.419   1.865   4.451
 2942TIP3   OH2 8782   7.520   3.903   4.781
 2942TIP3    H1 8783   7.547   3.978   4.726
 2942TIP3    H2 8784   7.598   3.848   4.786
 2943TIP3   OH2 8785   5.120   3.862   0.204
 2943TIP3    H1 8786   5.095   3.897   0.118
 2943TIP3    H2 8787   5.141   3.770   0.187
 2944TIP3   OH2 8788   1.635   2.336   3.113
 2944TIP3    H1 8789   1.550   2.374   3.089
 2944TIP3    H2 8790   1.644   2.356   3.206
 2945TIP3   OH2 8791   1.128   1.060   0.146
 2945TIP3    H1 8792   1.204   1.035   0.197
 2945TIP3    H2 8793   1.087   1.131   0.197
 2946TIP3   OH2 8794   3.036   5.868   1.440
 2946TIP3    H1 8795   3.089   5.902   1.368
 2946TIP3    H2 8796   3.076   5.784   1.462
 2947TIP3   OH2 8797   7.435   1.391   3.505
 2947TIP3    H1 8798   7.482   1.450   3.445
 2947TIP3    H2 8799   7.470   1.413   3.591
 2948TIP3   OH2 8800   7.930   4.678   4.594
 2948TIP3    H1 8801   7.850   4.637   4.625
 2948TIP3    H2 8802   7.933   4.660   4.501
 2949TIP3   OH2 8803   1.340   1.279   3.190
 2949TIP3    H1 8804   1.272   1.308   3.251
 2949TIP3    H2 8805   1.365   1.192   3.222
 2950TIP3   OH2 8806   3.979   7.567   0.131
 2950TIP3    H1 8807   3.999   7.551   0.223
 2950TIP3    H2 8808   4.064   7.561   0.086
 2951TIP3   OH2 8809   1.833   0.467   3.795
 2951TIP3    H1 8810   1.890   0.442   3.868
 2951TIP3    H2 8811   1.821   0.386   3.746
 2952TIP3   OH2 8812   1.951   1.113   3.160
 2952TIP3    H1 8813   1.958   1.050   3.088
 2952TIP3    H2 8814   1.876   1.082   3.212
 2953TIP3   OH2 8815   5.321   4.547   1.545
 2953TIP3    H1 8816   5.390   4.570   1.484
 2953TIP3    H2 8817   5.244   4.596   1.515
 2954TIP3   OH2 8818   6.774   1.669   0.613
 2954TIP3    H1 8819   6.740   1.586   0.581
 2954TIP3    H2 8820   6.813   1.648   0.698
 2955TIP3   OH2 8821   8.197   4.780   0.661
 2955TIP3    H1 8822   8.209   4.723   0.736
 2955TIP3    H2 8823   8.252   4.857   0.680
 2956TIP3   OH2 8824   7.675   5.610   1.713
 2956TIP3    H1 8825   7.648   5.567   1.794
 2956TIP3    H2 8826   7.596   5.657   1.683
 2957TIP3   OH2 8827   2.946   5.778   0.867
 2957TIP3    H1 8828   2.890   5.764   0.791
 2957TIP3    H2 8829   2.922   5.864   0.900
 2958TIP3   OH2 8830   7.920   6.923   4.315
 2958TIP3    H1 8831   7.949   7.011   4.293
 2958TIP3    H2 8832   7.908   6.924   4.410
 2959TIP3   OH2 8833   6.611   1.034   5.271
 2959TIP3    H1 8834   6.595   0.944   5.243
 2959TIP3    H2 8835   6.526   1.064   5.304
 2960TIP3   OH2 8836   3.232   5.981   1.263
 2960TIP3    H1 8837   3.223   5.995   1.169
 2960TIP3    H2 8838   3.293   5.908   1.271
 2961TIP3   OH2 8839   7.261   2.227   1.969
 2961TIP3    H1 8840   7.315   2.169   2.023
 2961TIP3    H2 8841   7.231   2.172   1.897
 2962TIP3   OH2 8842   2.216   3.378   0.755
 2962TIP3    H1 8843   2.237   3.390   0.848
 2962TIP3    H2 8844   2.178   3.290   0.750
 2963TIP3   OH2 8845   3.014   6.149   4.555
 2963TIP3    H1 8846   2.970   6.232   4.538
 2963TIP3    H2 8847   2.943   6.089   4.578
 2964TIP3   OH2 8848   0.504   5.731   6.544
 2964TIP3    H1 8849   0.588   5.697   6.514
 2964TIP3    H2 8850   0.509   5.727   6.640
 2965TIP3   OH2 8851   3.398   3.085   5.353
 2965TIP3    H1 8852   3.369   3.046   5.271
 2965TIP3    H2 8853   3.327   3.066   5.415
 2966TIP3   OH2 8854   8.189   4.469   0.684
 2966TIP3    H1 8855   8.145   4.413   0.748
 2966TIP3    H2 8856   8.249   4.522   0.736
 2967TIP3   OH2 8857   4.796   6.675   3.756
 2967TIP3    H1 8858   4.707   6.639   3.748
 2967TIP3    H2 8859   4.850   6.616   3.704
 2968TIP3   OH2 8860   8.324   6.644   0.942
 2968TIP3    H1 8861   8.272   6.630   1.021
 2968TIP3    H2 8862   8.306   6.734   0.916
 2969TIP3   OH2 8863   1.901   3.477   2.643
 2969TIP3    H1 8864   1.959   3.411   2.605
 2969TIP3    H2 8865   1.859   3.433   2.717
 2970TIP3   OH2 8866   1.981   6.496   1.801
 2970TIP3    H1 8867   2.011   6.586   1.815
 2970TIP3    H2 8868   1.897   6.506   1.757
 2971TIP3   OH2 8869   4.597   3.083   6.267
 2971TIP3    H1 8870   4.610   3.144   6.340
 2971TIP3    H2 8871   4.671   3.023   6.273
 2972TIP3   OH2 8872   1.164   0.671   1.216
 2972TIP3    H1 8873   1.139   0.653   1.125
 2972TIP3    H2 8874   1.208   0.756   1.211
 2973TIP3   OH2 8875   3.866   1.224   2.496
 2973TIP3    H1 8876   3.790   1.180   2.533
 2973TIP3    H2 8877   3.837   1.313   2.479
 2974TIP3   OH2 8878   8.113   7.466   3.634
 2974TIP3    H1 8879   8.120   7.373   3.613
 2974TIP3    H2 8880   8.199   7.502   3.613
 2975TIP3   OH2 8881   1.593   6.228   5.531
 2975TIP3    H1 8882   1.637   6.270   5.605
 2975TIP3    H2 8883   1.568   6.142   5.563
 2976TIP3   OH2 8884   3.523   0.737   1.290
 2976TIP3    H1 8885   3.604   0.781   1.264
 2976TIP3    H2 8886   3.483   0.707   1.208
 2977TIP3   OH2 8887   5.692   2.838   0.770
 2977TIP3    H1 8888   5.695   2.856   0.864
 2977TIP3    H2 8889   5.777   2.870   0.737
 2978TIP3   OH2 8890   7.811   6.607   5.290
 2978TIP3    H1 8891   7.731   6.660   5.288
 2978TIP3    H2 8892   7.788   6.528   5.242
 2979TIP3   OH2 8893   7.552   0.361   4.740
 2979TIP3    H1 8894   7.634   0.404   4.718
 2979TIP3    H2 8895   7.577   0.284   4.790
 2980TIP3   OH2 8896   3.515   0.232   5.708
 2980TIP3    H1 8897   3.610   0.221   5.704
 2980TIP3    H2 8898   3.486   0.166   5.772
 2981TIP3   OH2 8899   2.388   7.808   0.588
 2981TIP3    H1 8900   2.315   7.751   0.613
 2981TIP3    H2 8901   2.404   7.787   0.495
 2982TIP3   OH2 8902   4.508   6.369   1.668
 2982TIP3    H1 8903   4.437   6.431   1.654
 2982TIP3    H2 8904   4.576   6.396   1.605
 2983TIP3   OH2 8905   5.423   5.558   0.780
 2983TIP3    H1 8906   5.471   5.596   0.853
 2983TIP3    H2 8907   5.348   5.616   0.767
 2984TIP3   OH2 8908   1.576   0.665   6.108
 2984TIP3    H1 8909   1.489   0.628   6.125
 2984TIP3    H2 8910   1.576   0.684   6.014
 2985TIP3   OH2 8911   1.412   4.176   3.189
 2985TIP3    H1 8912   1.404   4.165   3.284
 2985TIP3    H2 8913   1.330   4.217   3.162
 2986TIP3   OH2 8914   3.598   7.501   6.067
 2986TIP3    H1 8915   3.603   7.454   5.984
 2986TIP3    H2 8916   3.681   7.548   6.073
 2987TIP3   OH2 8917   1.048   1.896   2.519
 2987TIP3    H1 8918   1.054   1.983   2.558
 2987TIP3    H2 8919   1.057   1.910   2.425
 2988TIP3   OH2 8920   7.223   2.520   1.474
 2988TIP3    H1 8921   7.285   2.541   1.404
 2988TIP3    H2 8922   7.259   2.564   1.551
 2989TIP3   OH2 8923   0.161   3.687   1.377
 2989TIP3    H1 8924   0.069   3.689   1.351
 2989TIP3    H2 8925   0.177   3.773   1.416
 2990TIP3   OH2 8926   3.821   5.539   0.560
 2990TIP3    H1 8927   3.865   5.620   0.583
 2990TIP3    H2 8928   3.880   5.470   0.590
 2991TIP3   OH2 8929   0.022   5.908   1.304
 2991TIP3    H1 8930   0.056   5.926   1.392
 2991TIP3    H2 8931   0.098   5.917   1.247
 2992TIP3   OH2 8932   2.922   4.342   3.199
 2992TIP3    H1 8933   2.991   4.329   3.134
 2992TIP3    H2 8934   2.878   4.423   3.172
 2993TIP3   OH2 8935   3.851   0.161   0.723
 2993TIP3    H1 8936   3.785   0.156   0.654
 2993TIP3    H2 8937   3.896   0.077   0.719
 2994TIP3   OH2 8938   2.605   6.323   3.929
 2994TIP3    H1 8939   2.566   6.408   3.910
 2994TIP3    H2 8940   2.571   6.265   3.860
 2995TIP3   OH2 8941   2.255   4.420   5.292
 2995TIP3    H1 8942   2.233   4.329   5.310
 2995TIP3    H2 8943   2.347   4.417   5.265
 2996TIP3   OH2 8944   0.042   4.410   5.818
 2996TIP3    H1 8945   0.040   4.394   5.723
 2996TIP3    H2 8946  -0.049   4.399   5.846
 2997TIP3   OH2 8947   2.615   4.730   3.370
 2997TIP3    H1 8948   2.696   4.698   3.410
 2997TIP3    H2 8949   2.643   4.805   3.316
 2998TIP3   OH2 8950   7.325   3.259   1.947
 2998TIP3    H1 8951   7.236   3.242   1.978
 2998TIP3    H2 8952   7.335   3.354   1.955
 2999TIP3   OH2 8953   1.225   5.226   0.228
 2999TIP3    H1 8954   1.277   5.271   0.295
 2999TIP3    H2 8955   1.244   5.273   0.147
 3000TIP3   OH2 8956   6.739   3.573   4.341
 3000TIP3    H1 8957   6.652   3.547   4.310
 3000TIP3    H2 8958   6.785   3.490   4.353
 3001TIP3   OH2 8959   3.002   2.955   3.057
 3001TIP3    H1 8960   3.024   3.048   3.058
 3001TIP3    H2 8961   2.916   2.951   3.100
 3002TIP3   OH2 8962   3.033   1.559   1.238
 3002TIP3    H1 8963   3.102   1.620   1.262
 3002TIP3    H2 8964   3.078   1.478   1.214
 3003TIP3   OH2 8965   6.265   2.425   0.361
 3003TIP3    H1 8966   6.262   2.508   0.408
 3003TIP3    H2 8967   6.178   2.414   0.323
 3004TIP3   OH2 8968   0.521   6.334   2.389
 3004TIP3    H1 8969   0.611   6.326   2.419
 3004TIP3    H2 8970   0.484   6.406   2.441
 3005TIP3   OH2 8971   2.999   7.280   3.003
 3005TIP3    H1 8972   3.090   7.307   3.012
 3005TIP3    H2 8973   3.001   7.185   3.004
 3006TIP3   OH2 8974   0.726   7.437   0.480
 3006TIP3    H1 8975   0.711   7.510   0.541
 3006TIP3    H2 8976   0.738   7.361   0.536
 3007TIP3   OH2 8977   7.342   4.339   3.242
 3007TIP3    H1 8978   7.360   4.412   3.302
 3007TIP3    H2 8979   7.429   4.311   3.212
 3008TIP3   OH2 8980   4.056   6.326   3.570
 3008TIP3    H1 8981   4.061   6.231   3.561
 3008TIP3    H2 8982   4.143   6.352   3.600
 3009TIP3   OH2 8983   1.129   6.582   2.871
 3009TIP3    H1 8984   1.179   6.655   2.909
 3009TIP3    H2 8985   1.151   6.507   2.927
 3010TIP3   OH2 8986   0.979   7.282   4.207
 3010TIP3    H1 8987   1.045   7.313   4.144
 3010TIP3    H2 8988   0.994   7.334   4.286
 3011TIP3   OH2 8989   1.487   6.121   4.756
 3011TIP3    H1 8990   1.431   6.047   4.782
 3011TIP3    H2 8991   1.442   6.198   4.792
 3012TIP3   OH2 8992   5.573   1.322   5.101
 3012TIP3    H1 8993   5.550   1.361   5.185
 3012TIP3    H2 8994   5.657   1.278   5.117
 3013TIP3   OH2 8995   5.135   6.873   1.585
 3013TIP3    H1 8996   5.049   6.910   1.604
 3013TIP3    H2 8997   5.178   6.867   1.670
 3014TIP3   OH2 8998   8.248   1.260   6.686
 3014TIP3    H1 8999   8.155   1.281   6.681
 3014TIP3    H2 9000   8.260   1.190   6.621
 3015TIP3   OH2 9001   7.546   0.967   3.944
 3015TIP3    H1 9002   7.485   0.981   4.017
 3015TIP3    H2 9003   7.511   0.892   3.897
 3016TIP3   OH2 9004   4.276   5.153   1.584
 3016TIP3    H1 9005   4.282   5.242   1.619
 3016TIP3    H2 9006   4.363   5.116   1.596
 3017TIP3   OH2 9007   3.223   4.691   1.339
 3017TIP3    H1 9008   3.308   4.647   1.341
 3017TIP3    H2 9009   3.234   4.767   1.397
 3018TIP3   OH2 9010   1.712   2.437   0.407
 3018TIP3    H1 9011   1.726   2.434   0.502
 3018TIP3    H2 9012   1.792   2.476   0.372
 3019TIP3   OH2 9013   2.767   3.038   6.301
 3019TIP3    H1 9014   2.744   2.976   6.370
 3019TIP3    H2 9015   2.848   3.080   6.333
 3020TIP3   OH2 9016   4.005   3.832   3.520
 3020TIP3    H1 9017   3.979   3.810   3.430
 3020TIP3    H2 9018   4.088   3.877   3.510
 3021TIP3   OH2 9019   6.737   1.464   2.897
 3021TIP3    H1 9020   6.826   1.443   2.925
 3021TIP3    H2 9021   6.698   1.380   2.874
 3022TIP3   OH2 9022   4.232   3.405   1.099
 3022TIP3    H1 9023   4.281   3.476   1.140
 3022TIP3    H2 9024   4.155   3.394   1.155
 3023TIP3   OH2 9025   4.397   5.094   6.058
 3023TIP3    H1 9026   4.355   5.153   6.120
 3023TIP3    H2 9027   4.363   5.119   5.973
 3024TIP3   OH2 9028   3.259   5.781   0.165
 3024TIP3    H1 9029   3.291   5.787   0.256
 3024TIP3    H2 9030   3.286   5.694   0.136
 3025TIP3   OH2 9031   7.579   7.163   1.314
 3025TIP3    H1 9032   7.633   7.228   1.270
 3025TIP3    H2 9033   7.549   7.207   1.393
 3026TIP3   OH2 9034   1.386   3.473   3.754
 3026TIP3    H1 9035   1.437   3.539   3.708
 3026TIP3    H2 9036   1.451   3.419   3.799
 3027TIP3   OH2 9037   5.468   2.301   3.593
 3027TIP3    H1 9038   5.419   2.319   3.673
 3027TIP3    H2 9039   5.469   2.205   3.586
 3028TIP3   OH2 9040   2.051   1.966   5.755
 3028TIP3    H1 9041   2.119   2.031   5.740
 3028TIP3    H2 9042   2.071   1.896   5.693
 3029TIP3   OH2 9043   6.668   2.439   1.473
 3029TIP3    H1 9044   6.613   2.494   1.529
 3029TIP3    H2 9045   6.616   2.360   1.459
 3030TIP3   OH2 9046   2.023   3.200   1.208
 3030TIP3    H1 9047   2.035   3.292   1.231
 3030TIP3    H2 9048   1.970   3.203   1.128
 3031TIP3   OH2 9049   3.099   7.363   6.492
 3031TIP3    H1 9050   3.108   7.394   6.583
 3031TIP3    H2 9051   3.044   7.285   6.499
 3032TIP3   OH2 9052   7.602   4.791   3.209
 3032TIP3    H1 9053   7.512   4.757   3.213
 3032TIP3    H2 9054   7.649   4.728   3.154
 3033TIP3   OH2 9055   5.081   5.086   5.948
 3033TIP3    H1 9056   5.034   5.114   5.869
 3033TIP3    H2 9057   5.109   4.996   5.929
 3034TIP3   OH2 9058   7.522   4.816   2.650
 3034TIP3    H1 9059   7.613   4.837   2.671
 3034TIP3    H2 9060   7.503   4.738   2.703
 3035TIP3   OH2 9061   7.544   0.609   6.378
 3035TIP3    H1 9062   7.486   0.560   6.320
 3035TIP3    H2 9063   7.518   0.700   6.367
 3036TIP3   OH2 9064   6.528   4.737   5.956
 3036TIP3    H1 9065   6.586   4.810   5.977
 3036TIP3    H2 9066   6.502   4.752   5.866
 3037TIP3   OH2 9067   5.690   2.516   5.928
 3037TIP3    H1 9068   5.659   2.469   5.850
 3037TIP3    H2 9069   5.740   2.451   5.977
 3038TIP3   OH2 9070   0.097   6.125   0.455
 3038TIP3    H1 9071   0.041   6.203   0.452
 3038TIP3    H2 9072   0.041   6.054   0.427
 3039TIP3   OH2 9073   2.706   0.031   4.077
 3039TIP3    H1 9074   2.626   0.073   4.111
 3039TIP3    H2 9075   2.771   0.102   4.076
 3040TIP3   OH2 9076   0.206   6.318   1.180
 3040TIP3    H1 9077   0.212   6.244   1.119
 3040TIP3    H2 9078   0.122   6.306   1.224
 3041TIP3   OH2 9079   8.094   1.843   1.049
 3041TIP3    H1 9080   8.127   1.925   1.013
 3041TIP3    H2 9081   8.169   1.805   1.095
 3042TIP3   OH2 9082   0.418   5.852   5.045
 3042TIP3    H1 9083   0.390   5.789   5.111
 3042TIP3    H2 9084   0.501   5.817   5.013
 3043TIP3   OH2 9085   6.285   1.940   5.415
 3043TIP3    H1 9086   6.281   2.023   5.368
 3043TIP3    H2 9087   6.194   1.910   5.418
 3044TIP3   OH2 9088   4.283   7.762   2.809
 3044TIP3    H1 9089   4.188   7.753   2.798
 3044TIP3    H2 9090   4.320   7.692   2.755
 3045TIP3   OH2 9091   0.671   3.572   5.554
 3045TIP3    H1 9092   0.697   3.615   5.636
 3045TIP3    H2 9093   0.675   3.479   5.574
 3046TIP3   OH2 9094   4.756   4.009   1.293
 3046TIP3    H1 9095   4.840   3.983   1.254
 3046TIP3    H2 9096   4.695   4.012   1.218
 3047TIP3   OH2 9097   2.660   2.368   0.546
 3047TIP3    H1 9098   2.603   2.355   0.471
 3047TIP3    H2 9099   2.670   2.280   0.584
 3048TIP3   OH2 9100   1.209   7.758   4.861
 3048TIP3    H1 9101   1.295   7.721   4.842
 3048TIP3    H2 9102   1.195   7.823   4.791
 3049TIP3   OH2 9103   4.154   6.495   6.119
 3049TIP3    H1 9104   4.181   6.570   6.172
 3049TIP3    H2 9105   4.139   6.425   6.182
 3050TIP3   OH2 9106   8.119   6.410   5.084
 3050TIP3    H1 9107   8.153   6.331   5.042
 3050TIP3    H2 9108   8.102   6.471   5.013
 3051TIP3   OH2 9109   5.839   6.462   0.516
 3051TIP3    H1 9110   5.805   6.505   0.437
 3051TIP3    H2 9111   5.762   6.426   0.559
 3052TIP3   OH2 9112   0.803   5.896   5.371
 3052TIP3    H1 9113   0.792   5.809   5.409
 3052TIP3    H2 9114   0.884   5.890   5.321
 3053TIP3   OH2 9115   4.962   3.500   2.063
 3053TIP3    H1 9116   4.918   3.425   2.023
 3053TIP3    H2 9117   5.004   3.465   2.141
 3054TIP3   OH2 9118   4.191   5.887   3.054
 3054TIP3    H1 9119   4.251   5.951   3.016
 3054TIP3    H2 9120   4.182   5.913   3.145
 3055TIP3   OH2 9121   0.172   2.797   4.056
 3055TIP3    H1 9122   0.235   2.861   4.023
 3055TIP3    H2 9123   0.087   2.827   4.025
 3056TIP3   OH2 9124   6.388   1.767   4.190
 3056TIP3    H1 9125   6.342   1.850   4.178
 3056TIP3    H2 9126   6.346   1.707   4.128
 3057TIP3   OH2 9127   5.921   1.103   5.579
 3057TIP3    H1 9128   5.873   1.107   5.496
 3057TIP3    H2 9129   5.853   1.090   5.645
 3058TIP3   OH2 9130   1.081   0.916   3.861
 3058TIP3    H1 9131   1.014   0.904   3.794
 3058TIP3    H2 9132   1.086   0.831   3.906
 3059TIP3   OH2 9133   5.522   4.266   3.398
 3059TIP3    H1 9134   5.602   4.297   3.356
 3059TIP3    H2 9135   5.461   4.252   3.326
 3060TIP3   OH2 9136   1.761   7.075   2.611
 3060TIP3    H1 9137   1.816   7.143   2.651
 3060TIP3    H2 9138   1.676   7.085   2.652
 3061TIP3   OH2 9139   7.636   0.520   2.440
 3061TIP3    H1 9140   7.681   0.442   2.472
 3061TIP3    H2 9141   7.613   0.499   2.349
 3062TIP3   OH2 9142   1.974   2.603   1.162
 3062TIP3    H1 9143   1.989   2.533   1.227
 3062TIP3    H2 9144   2.044   2.666   1.179
 3063TIP3   OH2 9145   3.952   4.906   3.659
 3063TIP3    H1 9146   3.969   4.813   3.676
 3063TIP3    H2 9147   3.919   4.909   3.569
 3064TIP3   OH2 9148   2.653   3.829   1.719
 3064TIP3    H1 9149   2.610   3.775   1.652
 3064TIP3    H2 9150   2.615   3.799   1.801
 3065TIP3   OH2 9151   2.877   6.556   3.358
 3065TIP3    H1 9152   2.897   6.513   3.441
 3065TIP3    H2 9153   2.902   6.492   3.291
 3066TIP3   OH2 9154   3.652   1.087   3.588
 3066TIP3    H1 9155   3.686   1.083   3.677
 3066TIP3    H2 9156   3.661   0.997   3.555
 3067TIP3   OH2 9157   2.203   0.079   3.169
 3067TIP3    H1 9158   2.169   0.043   3.087
 3067TIP3    H2 9159   2.137   0.144   3.195
 3068TIP3   OH2 9160   8.297   4.772   2.224
 3068TIP3    H1 9161   8.235   4.837   2.192
 3068TIP3    H2 9162   8.288   4.698   2.164
 3069TIP3   OH2 9163   5.467   2.569   0.319
 3069TIP3    H1 9164   5.486   2.561   0.412
 3069TIP3    H2 9165   5.505   2.490   0.280
 3070TIP3   OH2 9166   4.032   2.395   6.444
 3070TIP3    H1 9167   4.075   2.352   6.370
 3070TIP3    H2 9168   4.082   2.368   6.521
 3071TIP3   OH2 9169   6.657   0.821   4.411
 3071TIP3    H1 9170   6.575   0.777   4.435
 3071TIP3    H2 9171   6.724   0.753   4.420
 3072TIP3   OH2 9172   0.606   3.938   6.223
 3072TIP3    H1 9173   0.578   3.965   6.310
 3072TIP3    H2 9174   0.528   3.898   6.184
 3073TIP3   OH2 9175   8.281   4.482   4.174
 3073TIP3    H1 9176   8.203   4.509   4.126
 3073TIP3    H2 9177   8.354   4.518   4.123
 3074TIP3   OH2 9178   7.773   3.172   4.562
 3074TIP3    H1 9179   7.828   3.099   4.533
 3074TIP3    H2 9180   7.819   3.209   4.637
 3075TIP3   OH2 9181   7.973   3.664   5.506
 3075TIP3    H1 9182   7.995   3.575   5.533
 3075TIP3    H2 9183   8.050   3.693   5.456
 3076TIP3   OH2 9184   4.796   0.510   0.693
 3076TIP3    H1 9185   4.859   0.443   0.721
 3076TIP3    H2 9186   4.710   0.473   0.716
 3077TIP3   OH2 9187   6.511   5.380   0.361
 3077TIP3    H1 9188   6.488   5.326   0.285
 3077TIP3    H2 9189   6.599   5.351   0.385
 3078TIP3   OH2 9190   4.244   6.725   1.976
 3078TIP3    H1 9191   4.335   6.703   1.999
 3078TIP3    H2 9192   4.224   6.670   1.900
 3079TIP3   OH2 9193   6.034   1.669   0.484
 3079TIP3    H1 9194   6.087   1.641   0.410
 3079TIP3    H2 9195   6.091   1.659   0.560
 3080TIP3   OH2 9196   1.310   4.869   2.026
 3080TIP3    H1 9197   1.256   4.845   2.102
 3080TIP3    H2 9198   1.392   4.900   2.064
 3081TIP3   OH2 9199   6.526   4.108   6.191
 3081TIP3    H1 9200   6.541   4.110   6.096
 3081TIP3    H2 9201   6.604   4.065   6.227
 3082TIP3   OH2 9202   5.193   5.708   0.111
 3082TIP3    H1 9203   5.286   5.712   0.134
 3082TIP3    H2 9204   5.174   5.795   0.076
 3083TIP3   OH2 9205   2.694   7.663   0.127
 3083TIP3    H1 9206   2.782   7.669   0.164
 3083TIP3    H2 9207   2.708   7.671   0.032
 3084TIP3   OH2 9208   8.277   1.627   2.231
 3084TIP3    H1 9209   8.236   1.557   2.281
 3084TIP3    H2 9210   8.297   1.694   2.296
 3085TIP3   OH2 9211   4.259   2.368   4.397
 3085TIP3    H1 9212   4.248   2.445   4.453
 3085TIP3    H2 9213   4.177   2.362   4.347
 3086TIP3   OH2 9214   6.439   3.150   6.214
 3086TIP3    H1 9215   6.454   3.195   6.297
 3086TIP3    H2 9216   6.437   3.220   6.149
 3087TIP3   OH2 9217   4.870   5.634   5.131
 3087TIP3    H1 9218   4.813   5.590   5.068
 3087TIP3    H2 9219   4.885   5.721   5.093
 3088TIP3   OH2 9220   3.414   3.371   5.024
 3088TIP3    H1 9221   3.374   3.456   5.010
 3088TIP3    H2 9222   3.504   3.380   4.992
 3089TIP3   OH2 9223   3.396   6.615   4.125
 3089TIP3    H1 9224   3.400   6.590   4.218
 3089TIP3    H2 9225   3.303   6.627   4.107
 3090TIP3   OH2 9226   4.817   5.938   0.156
 3090TIP3    H1 9227   4.839   6.013   0.102
 3090TIP3    H2 9228   4.781   5.874   0.095
 3091TIP3   OH2 9229   4.726   2.976   2.571
 3091TIP3    H1 9230   4.780   2.983   2.650
 3091TIP3    H2 9231   4.692   3.064   2.557
 3092TIP3   OH2 9232   6.736   2.191   6.019
 3092TIP3    H1 9233   6.805   2.258   6.016
 3092TIP3    H2 9234   6.762   2.133   6.090
 3093TIP3   OH2 9235   4.950   4.408   1.614
 3093TIP3    H1 9236   4.875   4.448   1.658
 3093TIP3    H2 9237   4.919   4.321   1.589
 3094TIP3   OH2 9238   6.650   3.158   3.167
 3094TIP3    H1 9239   6.727   3.125   3.214
 3094TIP3    H2 9240   6.612   3.224   3.225
 3095TIP3   OH2 9241   4.964   0.799   2.468
 3095TIP3    H1 9242   5.056   0.827   2.462
 3095TIP3    H2 9243   4.967   0.718   2.520
 3096TIP3   OH2 9244  -0.011   4.723   3.488
 3096TIP3    H1 9245   0.065   4.780   3.494
 3096TIP3    H2 9246  -0.054   4.749   3.407
 3097TIP3   OH2 9247   5.951   1.227   0.603
 3097TIP3    H1 9248   5.947   1.240   0.508
 3097TIP3    H2 9249   5.998   1.304   0.635
 3098TIP3   OH2 9250   1.756   0.653   0.807
 3098TIP3    H1 9251   1.704   0.666   0.727
 3098TIP3    H2 9252   1.710   0.584   0.854
 3099TIP3   OH2 9253   8.195   6.822   1.841
 3099TIP3    H1 9254   8.285   6.851   1.829
 3099TIP3    H2 9255   8.148   6.859   1.766
 3100TIP3   OH2 9256   0.788   6.253   6.083
 3100TIP3    H1 9257   0.745   6.224   6.002
 3100TIP3    H2 9258   0.746   6.202   6.152
 3101TIP3   OH2 9259   3.256   4.710   2.477
 3101TIP3    H1 9260   3.232   4.672   2.392
 3101TIP3    H2 9261   3.333   4.763   2.459
 3102TIP3   OH2 9262   6.196   2.082   0.960
 3102TIP3    H1 9263   6.173   2.164   1.004
 3102TIP3    H2 9264   6.153   2.087   0.875
 3103TIP3   OH2 9265   7.973   4.797   2.054
 3103TIP3    H1 9266   7.907   4.856   2.017
 3103TIP3    H2 9267   7.926   4.717   2.073
 3104TIP3   OH2 9268   6.023   2.446   0.836
 3104TIP3    H1 9269   6.050   2.538   0.831
 3104TIP3    H2 9270   5.995   2.424   0.748
 3105TIP3   OH2 9271   2.858   5.598   1.909
 3105TIP3    H1 9272   2.925   5.634   1.851
 3105TIP3    H2 9273   2.815   5.530   1.857
 3106TIP3   OH2 9274   0.708   4.089   5.904
 3106TIP3    H1 9275   0.704   4.184   5.894
 3106TIP3    H2 9276   0.789   4.073   5.953
 3107TIP3   OH2 9277   1.805   7.438   3.242
 3107TIP3    H1 9278   1.729   7.482   3.205
 3107TIP3    H2 9279   1.820   7.363   3.185
 3108TIP3   OH2 9280   4.619   0.035   6.590
 3108TIP3    H1 9281   4.553   0.086   6.637
 3108TIP3    H2 9282   4.661   0.098   6.531
 3109TIP3   OH2 9283   7.487   7.745   3.092
 3109TIP3    H1 9284   7.518   7.664   3.132
 3109TIP3    H2 9285   7.465   7.720   3.002
 3110TIP3   OH2 9286   4.865   1.203   4.653
 3110TIP3    H1 9287   4.913   1.279   4.621
 3110TIP3    H2 9288   4.922   1.165   4.719
 3111TIP3   OH2 9289   7.819   7.628   4.778
 3111TIP3    H1 9290   7.903   7.604   4.816
 3111TIP3    H2 9291   7.765   7.654   4.853
 3112TIP3   OH2 9292   4.690   6.853   2.765
 3112TIP3    H1 9293   4.708   6.760   2.749
 3112TIP3    H2 9294   4.644   6.855   2.849
 3113TIP3   OH2 9295   4.518   1.678   2.880
 3113TIP3    H1 9296   4.426   1.705   2.881
 3113TIP3    H2 9297   4.564   1.749   2.925
 3114TIP3   OH2 9298   4.877   6.356   5.179
 3114TIP3    H1 9299   4.804   6.301   5.205
 3114TIP3    H2 9300   4.913   6.312   5.102
 3115TIP3   OH2 9301   6.038   5.538   4.097
 3115TIP3    H1 9302   6.038   5.464   4.035
 3115TIP3    H2 9303   6.072   5.501   4.178
 3116TIP3   OH2 9304   3.088   2.965   6.587
 3116TIP3    H1 9305   3.049   3.047   6.557
 3116TIP3    H2 9306   3.055   2.899   6.526
 3117TIP3   OH2 9307   5.333   2.693   5.169
 3117TIP3    H1 9308   5.329   2.649   5.084
 3117TIP3    H2 9309   5.249   2.672   5.210
 3118TIP3   OH2 9310   7.672   0.312   2.610
 3118TIP3    H1 9311   7.663   0.254   2.685
 3118TIP3    H2 9312   7.613   0.275   2.544
 3119TIP3   OH2 9313   6.170   4.443   0.285
 3119TIP3    H1 9314   6.251   4.391   0.289
 3119TIP3    H2 9315   6.100   4.378   0.293
 3120TIP3   OH2 9316   4.716   5.043   0.156
 3120TIP3    H1 9317   4.633   5.091   0.152
 3120TIP3    H2 9318   4.730   5.013   0.066
 3121TIP3   OH2 9319   1.307   4.145   3.450
 3121TIP3    H1 9320   1.256   4.086   3.506
 3121TIP3    H2 9321   1.343   4.210   3.510
 3122TIP3   OH2 9322   6.361   5.681   0.509
 3122TIP3    H1 9323   6.301   5.695   0.435
 3122TIP3    H2 9324   6.378   5.770   0.542
 3123TIP3   OH2 9325   1.595   0.542   3.922
 3123TIP3    H1 9326   1.672   0.526   3.866
 3123TIP3    H2 9327   1.632   0.567   4.007
 3124TIP3   OH2 9328   1.855   3.839   3.101
 3124TIP3    H1 9329   1.812   3.759   3.133
 3124TIP3    H2 9330   1.931   3.807   3.052
 3125TIP3   OH2 9331   1.414   0.372   4.604
 3125TIP3    H1 9332   1.352   0.358   4.533
 3125TIP3    H2 9333   1.500   0.356   4.565
 3126TIP3   OH2 9334   1.428   6.498   0.834
 3126TIP3    H1 9335   1.445   6.415   0.878
 3126TIP3    H2 9336   1.358   6.539   0.885
 3127TIP3   OH2 9337   7.942   7.381   0.300
 3127TIP3    H1 9338   7.990   7.320   0.243
 3127TIP3    H2 9339   8.010   7.440   0.334
 3128TIP3   OH2 9340   3.980   4.333   5.131
 3128TIP3    H1 9341   4.052   4.273   5.152
 3128TIP3    H2 9342   3.902   4.279   5.136
 3129TIP3   OH2 9343   2.443   5.967   3.281
 3129TIP3    H1 9344   2.395   5.903   3.333
 3129TIP3    H2 9345   2.535   5.946   3.294
 3130TIP3   OH2 9346   6.318   7.165   1.882
 3130TIP3    H1 9347   6.407   7.148   1.911
 3130TIP3    H2 9348   6.319   7.147   1.788
 3131TIP3   OH2 9349   1.236   0.224   5.424
 3131TIP3    H1 9350   1.296   0.192   5.491
 3131TIP3    H2 9351   1.180   0.150   5.404
 3132TIP3   OH2 9352   4.099   2.179   0.997
 3132TIP3    H1 9353   4.073   2.268   1.021
 3132TIP3    H2 9354   4.194   2.178   1.007
 3133TIP3   OH2 9355   4.529   5.854   5.429
 3133TIP3    H1 9356   4.445   5.866   5.385
 3133TIP3    H2 9357   4.578   5.795   5.373
 3134TIP3   OH2 9358   7.519   7.831   3.461
 3134TIP3    H1 9359   7.573   7.776   3.519
 3134TIP3    H2 9360   7.570   7.838   3.381
 3135TIP3   OH2 9361   2.391   2.356   6.551
 3135TIP3    H1 9362   2.395   2.310   6.467
 3135TIP3    H2 9363   2.442   2.435   6.537
 3136TIP3   OH2 9364   3.884   2.919   2.235
 3136TIP3    H1 9365   3.891   2.979   2.309
 3136TIP3    H2 9366   3.969   2.877   2.230
 3137TIP3   OH2 9367   1.002   0.912   6.367
 3137TIP3    H1 9368   0.990   0.833   6.420
 3137TIP3    H2 9369   1.085   0.898   6.321
 3138TIP3   OH2 9370   2.420   2.589   0.216
 3138TIP3    H1 9371   2.360   2.650   0.174
 3138TIP3    H2 9372   2.504   2.635   0.218
 3139TIP3   OH2 9373   2.807   6.342   2.116
 3139TIP3    H1 9374   2.786   6.360   2.208
 3139TIP3    H2 9375   2.808   6.429   2.075
 3140TIP3   OH2 9376   6.666   0.834   6.477
 3140TIP3    H1 9377   6.645   0.791   6.560
 3140TIP3    H2 9378   6.618   0.783   6.411
 3141TIP3   OH2 9379   6.530   7.530   0.821
 3141TIP3    H1 9380   6.443   7.568   0.813
 3141TIP3    H2 9381   6.524   7.469   0.895
 3142TIP3   OH2 9382   7.783   5.964   0.346
 3142TIP3    H1 9383   7.800   5.899   0.414
 3142TIP3    H2 9384   7.856   5.956   0.285
 3143TIP3   OH2 9385   7.424   7.577   1.840
 3143TIP3    H1 9386   7.463   7.496   1.806
 3143TIP3    H2 9387   7.343   7.586   1.790
 3144TIP3   OH2 9388   5.594   3.383   2.865
 3144TIP3    H1 9389   5.624   3.422   2.947
 3144TIP3    H2 9390   5.626   3.293   2.868
 3145TIP3   OH2 9391   2.827   6.842   1.629
 3145TIP3    H1 9392   2.740   6.825   1.665
 3145TIP3    H2 9393   2.811   6.876   1.541
 3146TIP3   OH2 9394   5.520   2.114   2.731
 3146TIP3    H1 9395   5.486   2.127   2.642
 3146TIP3    H2 9396   5.480   2.032   2.760
 3147TIP3   OH2 9397   2.778   4.087   5.186
 3147TIP3    H1 9398   2.862   4.042   5.196
 3147TIP3    H2 9399   2.786   4.136   5.105
 3148TIP3   OH2 9400   1.662   6.657   6.648
 3148TIP3    H1 9401   1.726   6.652   6.718
 3148TIP3    H2 9402   1.703   6.712   6.582
 3149TIP3   OH2 9403   3.319   3.970   2.662
 3149TIP3    H1 9404   3.408   3.988   2.634
 3149TIP3    H2 9405   3.291   4.049   2.709
 3150TIP3   OH2 9406   3.277   6.267   1.223
 3150TIP3    H1 9407   3.286   6.174   1.244
 3150TIP3    H2 9408   3.234   6.306   1.299
 3151TIP3   OH2 9409   6.060   6.746   4.427
 3151TIP3    H1 9410   6.070   6.689   4.503
 3151TIP3    H2 9411   6.144   6.740   4.382
 3152TIP3   OH2 9412   6.123   0.084   0.887
 3152TIP3    H1 9413   6.052   0.035   0.845
 3152TIP3    H2 9414   6.122   0.169   0.844
 3153TIP3   OH2 9415   1.366   4.571   6.660
 3153TIP3    H1 9416   1.458   4.543   6.655
 3153TIP3    H2 9417   1.324   4.505   6.715
 3154TIP3   OH2 9418   4.654   1.122   0.135
 3154TIP3    H1 9419   4.691   1.070   0.205
 3154TIP3    H2 9420   4.685   1.211   0.152
 3155TIP3   OH2 9421   1.828   0.195   3.650
 3155TIP3    H1 9422   1.853   0.147   3.571
 3155TIP3    H2 9423   1.895   0.171   3.714
 3156TIP3   OH2 9424   2.309   3.253   3.215
 3156TIP3    H1 9425   2.358   3.199   3.277
 3156TIP3    H2 9426   2.223   3.264   3.255
 3157TIP3   OH2 9427   5.457   0.823   2.565
 3157TIP3    H1 9428   5.482   0.789   2.479
 3157TIP3    H2 9429   5.498   0.910   2.568
 3158TIP3   OH2 9430   7.748   4.226   3.682
 3158TIP3    H1 9431   7.722   4.239   3.591
 3158TIP3    H2 9432   7.805   4.149   3.680
 3159TIP3   OH2 9433   5.684   0.318   1.843
 3159TIP3    H1 9434   5.768   0.309   1.798
 3159TIP3    H2 9435   5.667   0.413   1.844
 3160TIP3   OH2 9436   0.397   3.183   1.850
 3160TIP3    H1 9437   0.463   3.189   1.920
 3160TIP3    H2 9438   0.445   3.205   1.770
 3161TIP3   OH2 9439   7.593   7.722   1.689
 3161TIP3    H1 9440   7.552   7.722   1.602
 3161TIP3    H2 9441   7.525   7.689   1.748
 3162TIP3   OH2 9442   5.105   5.452   0.152
 3162TIP3    H1 9443   5.026   5.480   0.198
 3162TIP3    H2 9444   5.155   5.532   0.139
 3163TIP3   OH2 9445   0.687   2.043   6.197
 3163TIP3    H1 9446   0.756   2.045   6.131
 3163TIP3    H2 9447   0.675   1.950   6.215
 3164TIP3   OH2 9448   0.384   5.646   5.238
 3164TIP3    H1 9449   0.463   5.612   5.279
 3164TIP3    H2 9450   0.317   5.579   5.256
 3165TIP3   OH2 9451   1.369   7.069   6.695
 3165TIP3    H1 9452   1.390   7.149   6.743
 3165TIP3    H2 9453   1.273   7.069   6.690
 3166TIP3   OH2 9454   5.914   4.922   0.202
 3166TIP3    H1 9455   5.847   4.908   0.270
 3166TIP3    H2 9456   5.951   5.008   0.223
 3167TIP3   OH2 9457   4.379   4.569   0.064
 3167TIP3    H1 9458   4.458   4.591   0.015
 3167TIP3    H2 9459   4.314   4.547  -0.002
 3168TIP3   OH2 9460   5.023   5.175   6.738
 3168TIP3    H1 9461   5.014   5.093   6.689
 3168TIP3    H2 9462   5.039   5.242   6.672
 3169TIP3   OH2 9463   6.321   6.782   5.179
 3169TIP3    H1 9464   6.333   6.747   5.091
 3169TIP3    H2 9465   6.277   6.712   5.227
 3170TIP3   OH2 9466   0.663   3.987   0.343
 3170TIP3    H1 9467   0.685   4.073   0.307
 3170TIP3    H2 9468   0.587   3.959   0.292
 3171TIP3   OH2 9469   7.120   0.150   6.560
 3171TIP3    H1 9470   7.151   0.063   6.584
 3171TIP3    H2 9471   7.067   0.178   6.635
 3172TIP3   OH2 9472   8.100   2.347   5.889
 3172TIP3    H1 9473   8.032   2.372   5.952
 3172TIP3    H2 9474   8.182   2.358   5.937
 3173TIP3   OH2 9475   2.297   7.656   1.578
 3173TIP3    H1 9476   2.227   7.602   1.614
 3173TIP3    H2 9477   2.279   7.744   1.609
 3174TIP3   OH2 9478   6.957   5.908   2.680
 3174TIP3    H1 9479   6.869   5.922   2.714
 3174TIP3    H2 9480   7.009   5.980   2.717
 3175TIP3   OH2 9481   7.683   0.761   0.729
 3175TIP3    H1 9482   7.615   0.694   0.727
 3175TIP3    H2 9483   7.754   0.721   0.780
 3176TIP3   OH2 9484   0.288   7.151   6.043
 3176TIP3    H1 9485   0.224   7.098   6.091
 3176TIP3    H2 9486   0.360   7.091   6.025
 3177TIP3   OH2 9487   8.012   2.364   0.367
 3177TIP3    H1 9488   8.000   2.411   0.450
 3177TIP3    H2 9489   8.082   2.412   0.323
 3178TIP3   OH2 9490   8.063   2.733   4.426
 3178TIP3    H1 9491   8.135   2.749   4.364
 3178TIP3    H2 9492   8.091   2.655   4.475
 3179TIP3   OH2 9493   5.430   4.949   3.289
 3179TIP3    H1 9494   5.423   4.945   3.384
 3179TIP3    H2 9495   5.385   4.870   3.258
 3180TIP3   OH2 9496   0.659   0.640   1.673
 3180TIP3    H1 9497   0.615   0.696   1.737
 3180TIP3    H2 9498   0.640   0.681   1.589
 3181TIP3   OH2 9499   8.257   0.942   0.545
 3181TIP3    H1 9500   8.327   0.882   0.518
 3181TIP3    H2 9501   8.176   0.893   0.528
 3182TIP3   OH2 9502   2.145   3.347   6.595
 3182TIP3    H1 9503   2.216   3.318   6.538
 3182TIP3    H2 9504   2.131   3.439   6.572
 3183TIP3   OH2 9505   2.861   5.742   5.120
 3183TIP3    H1 9506   2.864   5.649   5.097
 3183TIP3    H2 9507   2.947   5.759   5.159
 3184TIP3   OH2 9508   0.826   2.312   1.671
 3184TIP3    H1 9509   0.883   2.261   1.613
 3184TIP3    H2 9510   0.749   2.256   1.683
 3185TIP3   OH2 9511   3.641   0.842   3.435
 3185TIP3    H1 9512   3.683   0.903   3.374
 3185TIP3    H2 9513   3.622   0.765   3.381
 3186TIP3   OH2 9514   1.195   3.559   3.927
 3186TIP3    H1 9515   1.242   3.526   3.850
 3186TIP3    H2 9516   1.263   3.564   3.995
 3187TIP3   OH2 9517   4.644   4.859   6.141
 3187TIP3    H1 9518   4.620   4.903   6.223
 3187TIP3    H2 9519   4.738   4.843   6.149
 3188TIP3   OH2 9520   7.523   5.714   3.086
 3188TIP3    H1 9521   7.454   5.674   3.033
 3188TIP3    H2 9522   7.488   5.714   3.175
 3189TIP3   OH2 9523   7.005   6.541   1.835
 3189TIP3    H1 9524   6.919   6.584   1.833
 3189TIP3    H2 9525   7.057   6.596   1.893
 3190TIP3   OH2 9526   7.272   4.302   0.242
 3190TIP3    H1 9527   7.181   4.291   0.215
 3190TIP3    H2 9528   7.292   4.220   0.288
 3191TIP3   OH2 9529   6.644   5.505   4.890
 3191TIP3    H1 9530   6.722   5.467   4.931
 3191TIP3    H2 9531   6.633   5.455   4.809
 3192TIP3   OH2 9532   2.834   7.587   4.203
 3192TIP3    H1 9533   2.866   7.657   4.145
 3192TIP3    H2 9534   2.854   7.618   4.291
 3193TIP3   OH2 9535   7.966   1.330   0.689
 3193TIP3    H1 9536   8.047   1.283   0.671
 3193TIP3    H2 9537   7.902   1.293   0.628
 3194TIP3   OH2 9538   4.642   7.100   1.391
 3194TIP3    H1 9539   4.651   7.195   1.386
 3194TIP3    H2 9540   4.584   7.086   1.466
 3195TIP3   OH2 9541   6.258   7.392   2.722
 3195TIP3    H1 9542   6.207   7.385   2.803
 3195TIP3    H2 9543   6.320   7.320   2.726
 3196TIP3   OH2 9544   2.332   2.465   1.126
 3196TIP3    H1 9545   2.340   2.480   1.220
 3196TIP3    H2 9546   2.327   2.553   1.088
 3197TIP3   OH2 9547   7.137   2.084   1.791
 3197TIP3    H1 9548   7.146   2.018   1.722
 3197TIP3    H2 9549   7.054   2.064   1.833
 3198TIP3   OH2 9550   1.652   0.393   4.989
 3198TIP3    H1 9551   1.584   0.326   4.994
 3198TIP3    H2 9552   1.681   0.404   5.080
 3199TIP3   OH2 9553   0.931   6.308   2.041
 3199TIP3    H1 9554   0.935   6.342   1.952
 3199TIP3    H2 9555   1.012   6.259   2.053
 3200TIP3   OH2 9556   7.346   0.531   1.167
 3200TIP3    H1 9557   7.253   0.547   1.179
 3200TIP3    H2 9558   7.364   0.561   1.077
 3201TIP3   OH2 9559   2.006   4.338   4.787
 3201TIP3    H1 9560   1.961   4.254   4.777
 3201TIP3    H2 9561   2.099   4.315   4.786
 3202TIP3   OH2 9562   4.261   5.550   5.572
 3202TIP3    H1 9563   4.198   5.616   5.542
 3202TIP3    H2 9564   4.224   5.467   5.544
 3203TIP3   OH2 9565   7.536   6.717   5.266
 3203TIP3    H1 9566   7.498   6.733   5.180
 3203TIP3    H2 9567   7.504   6.630   5.291
 3204TIP3   OH2 9568   1.121   4.873   3.452
 3204TIP3    H1 9569   1.140   4.885   3.545
 3204TIP3    H2 9570   1.028   4.851   3.450
 3205TIP3   OH2 9571   5.477   0.965   4.311
 3205TIP3    H1 9572   5.462   0.942   4.403
 3205TIP3    H2 9573   5.396   0.938   4.266
 3206TIP3   OH2 9574   0.689   3.130   1.924
 3206TIP3    H1 9575   0.703   3.145   2.017
 3206TIP3    H2 9576   0.700   3.035   1.913
 3207TIP3   OH2 9577   6.117   3.901   1.643
 3207TIP3    H1 9578   6.081   3.817   1.673
 3207TIP3    H2 9579   6.103   3.960   1.717
 3208TIP3   OH2 9580   2.405   3.508   1.578
 3208TIP3    H1 9581   2.432   3.597   1.551
 3208TIP3    H2 9582   2.468   3.451   1.534
 3209TIP3   OH2 9583   7.920   2.164   2.020
 3209TIP3    H1 9584   7.957   2.244   2.058
 3209TIP3    H2 9585   7.904   2.186   1.928
 3210TIP3   OH2 9586   7.531   5.627   3.344
 3210TIP3    H1 9587   7.459   5.586   3.392
 3210TIP3    H2 9588   7.588   5.554   3.320
 3211TIP3   OH2 9589   6.236   2.219   3.187
 3211TIP3    H1 9590   6.303   2.254   3.129
 3211TIP3    H2 9591   6.216   2.133   3.151
 3212TIP3   OH2 9592   2.194   3.664   0.637
 3212TIP3    H1 9593   2.252   3.675   0.562
 3212TIP3    H2 9594   2.198   3.570   0.657
 3213TIP3   OH2 9595   5.940   0.636   0.295
 3213TIP3    H1 9596   5.988   0.559   0.266
 3213TIP3    H2 9597   5.848   0.611   0.287
 3214TIP3   OH2 9598   7.313   0.670   1.691
 3214TIP3    H1 9599   7.368   0.609   1.741
 3214TIP3    H2 9600   7.354   0.755   1.703
 3215TIP3   OH2 9601   5.626   5.335   0.070
 3215TIP3    H1 9602   5.576   5.367   0.145
 3215TIP3    H2 9603   5.581   5.253   0.045
 3216TIP3   OH2 9604   5.111   2.563   0.736
 3216TIP3    H1 9605   5.068   2.478   0.724
 3216TIP3    H2 9606   5.149   2.559   0.823
 3217TIP3   OH2 9607   6.568   5.676   5.181
 3217TIP3    H1 9608   6.573   5.585   5.153
 3217TIP3    H2 9609   6.523   5.674   5.265
 3218TIP3   OH2 9610   5.310   6.839   2.280
 3218TIP3    H1 9611   5.287   6.895   2.207
 3218TIP3    H2 9612   5.257   6.760   2.267
 3219TIP3   OH2 9613   4.991   3.972   1.159
 3219TIP3    H1 9614   5.017   4.050   1.110
 3219TIP3    H2 9615   4.998   3.900   1.096
 3220TIP3   OH2 9616   3.171   7.665   1.539
 3220TIP3    H1 9617   3.266   7.662   1.549
 3220TIP3    H2 9618   3.157   7.647   1.445
 3221TIP3   OH2 9619   0.980   0.134   1.378
 3221TIP3    H1 9620   1.004   0.142   1.471
 3221TIP3    H2 9621   1.042   0.191   1.332
 3222TIP3   OH2 9622   3.818   6.330   3.235
 3222TIP3    H1 9623   3.777   6.263   3.290
 3222TIP3    H2 9624   3.874   6.380   3.295
 3223TIP3   OH2 9625   2.329   3.118   1.861
 3223TIP3    H1 9626   2.285   3.166   1.932
 3223TIP3    H2 9627   2.392   3.061   1.905
 3224TIP3   OH2 9628   6.544   0.827   0.185
 3224TIP3    H1 9629   6.519   0.916   0.158
 3224TIP3    H2 9630   6.581   0.788   0.106
 3225TIP3   OH2 9631   4.147   4.342   5.416
 3225TIP3    H1 9632   4.195   4.323   5.496
 3225TIP3    H2 9633   4.055   4.329   5.439
 3226TIP3   OH2 9634   3.611   5.615   3.871
 3226TIP3    H1 9635   3.576   5.547   3.928
 3226TIP3    H2 9636   3.702   5.590   3.857
 3227TIP3   OH2 9637   6.235   6.901   4.731
 3227TIP3    H1 9638   6.242   6.836   4.661
 3227TIP3    H2 9639   6.321   6.899   4.774
 3228TIP3   OH2 9640   5.404   4.317   6.318
 3228TIP3    H1 9641   5.496   4.341   6.303
 3228TIP3    H2 9642   5.354   4.392   6.285
 3229TIP3   OH2 9643   5.298   0.899   2.771
 3229TIP3    H1 9644   5.334   0.877   2.685
 3229TIP3    H2 9645   5.348   0.976   2.798
 3230TIP3   OH2 9646   3.069   0.116   3.946
 3230TIP3    H1 9647   2.994   0.147   3.996
 3230TIP3    H2 9648   3.117   0.060   4.007
 3231TIP3   OH2 9649   5.853   1.399   2.604
 3231TIP3    H1 9650   5.844   1.370   2.695
 3231TIP3    H2 9651   5.845   1.494   2.609
 3232TIP3   OH2 9652   3.696   2.729   2.169
 3232TIP3    H1 9653   3.751   2.790   2.218
 3232TIP3    H2 9654   3.624   2.782   2.137
 3233TIP3   OH2 9655   0.080   3.990   0.912
 3233TIP3    H1 9656   0.014   3.933   0.873
 3233TIP3    H2 9657   0.065   4.075   0.871
 3234TIP3   OH2 9658   7.039   6.424   3.773
 3234TIP3    H1 9659   6.985   6.365   3.824
 3234TIP3    H2 9660   6.977   6.472   3.717
 3235TIP3   OH2 9661   3.212   1.241   4.536
 3235TIP3    H1 9662   3.225   1.335   4.525
 3235TIP3    H2 9663   3.250   1.202   4.457
 3236TIP3   OH2 9664  -0.011   6.201   5.745
 3236TIP3    H1 9665   0.020   6.211   5.835
 3236TIP3    H2 9666   0.067   6.174   5.696
 3237TIP3   OH2 9667   6.809   1.061   6.505
 3237TIP3    H1 9668   6.764   0.978   6.519
 3237TIP3    H2 9669   6.870   1.069   6.578
 3238TIP3   OH2 9670   2.509   0.822   0.450
 3238TIP3    H1 9671   2.473   0.751   0.396
 3238TIP3    H2 9672   2.434   0.856   0.499
 3239TIP3   OH2 9673   3.919   5.056   3.872
 3239TIP3    H1 9674   3.964   4.999   3.934
 3239TIP3    H2 9675   3.953   5.031   3.787
 3240TIP3   OH2 9676   7.191   4.238   1.729
 3240TIP3    H1 9677   7.229   4.249   1.641
 3240TIP3    H2 9678   7.258   4.191   1.778
 3241TIP3   OH2 9679   8.022   7.240   5.185
 3241TIP3    H1 9680   8.032   7.152   5.146
 3241TIP3    H2 9681   8.102   7.286   5.161
 3242TIP3   OH2 9682   2.303   1.612   6.246
 3242TIP3    H1 9683   2.315   1.686   6.306
 3242TIP3    H2 9684   2.335   1.536   6.294
 3243TIP3   OH2 9685   2.434   0.428   1.262
 3243TIP3    H1 9686   2.382   0.350   1.278
 3243TIP3    H2 9687   2.440   0.434   1.167
 3244TIP3   OH2 9688   6.915   1.158   3.948
 3244TIP3    H1 9689   6.943   1.250   3.948
 3244TIP3    H2 9690   6.856   1.152   4.023
 3245TIP3   OH2 9691   3.059   1.790   4.641
 3245TIP3    H1 9692   3.144   1.748   4.650
 3245TIP3    H2 9693   3.076   1.882   4.663
 3246TIP3   OH2 9694   2.436   0.688   1.528
 3246TIP3    H1 9695   2.399   0.697   1.616
 3246TIP3    H2 9696   2.522   0.729   1.534
 3247TIP3   OH2 9697   5.092   0.231   0.033
 3247TIP3    H1 9698   5.184   0.229   0.005
 3247TIP3    H2 9699   5.092   0.185   0.116
 3248TIP3   OH2 9700   5.098   4.824   2.497
 3248TIP3    H1 9701   5.094   4.778   2.413
 3248TIP3    H2 9702   5.140   4.908   2.477
 3249TIP3   OH2 9703   3.480   7.659   3.995
 3249TIP3    H1 9704   3.510   7.666   4.086
 3249TIP3    H2 9705   3.446   7.746   3.973
 3250TIP3   OH2 9706   6.342   1.443   0.092
 3250TIP3    H1 9707   6.283   1.368   0.105
 3250TIP3    H2 9708   6.427   1.403   0.074
 3251TIP3   OH2 9709   5.826   3.359   3.116
 3251TIP3    H1 9710   5.824   3.326   3.206
 3251TIP3    H2 9711   5.819   3.454   3.125
 3252TIP3   OH2 9712   4.694   7.417   1.764
 3252TIP3    H1 9713   4.600   7.401   1.758
 3252TIP3    H2 9714   4.723   7.429   1.673
 3253TIP3   OH2 9715   1.695   5.339   2.973
 3253TIP3    H1 9716   1.655   5.417   3.012
 3253TIP3    H2 9717   1.625   5.299   2.922
 3254TIP3   OH2 9718   7.434   5.002   1.298
 3254TIP3    H1 9719   7.372   5.072   1.276
 3254TIP3    H2 9720   7.515   5.048   1.318
 3255TIP3   OH2 9721   6.419   2.926   5.337
 3255TIP3    H1 9722   6.393   2.903   5.426
 3255TIP3    H2 9723   6.515   2.930   5.340
 3256TIP3   OH2 9724   7.522   0.394   3.026
 3256TIP3    H1 9725   7.529   0.481   2.988
 3256TIP3    H2 9726   7.607   0.353   3.009
 3257TIP3   OH2 9727   0.827   4.707   4.215
 3257TIP3    H1 9728   0.788   4.696   4.128
 3257TIP3    H2 9729   0.863   4.620   4.236
 3258TIP3   OH2 9730   8.033   1.600   3.107
 3258TIP3    H1 9731   8.113   1.551   3.124
 3258TIP3    H2 9732   7.965   1.552   3.154
 3259TIP3   OH2 9733   5.736   3.575   1.162
 3259TIP3    H1 9734   5.817   3.616   1.191
 3259TIP3    H2 9735   5.668   3.614   1.216
 3260TIP3   OH2 9736   3.770   2.963   0.812
 3260TIP3    H1 9737   3.793   2.895   0.749
 3260TIP3    H2 9738   3.810   3.043   0.777
 3261TIP3   OH2 9739   6.808   2.600   1.756
 3261TIP3    H1 9740   6.862   2.658   1.704
 3261TIP3    H2 9741   6.868   2.533   1.789
 3262TIP3   OH2 9742   7.184   4.019   6.531
 3262TIP3    H1 9743   7.230   4.093   6.571
 3262TIP3    H2 9744   7.237   3.943   6.553
 3263TIP3   OH2 9745   6.234   5.155   3.833
 3263TIP3    H1 9746   6.257   5.174   3.742
 3263TIP3    H2 9747   6.318   5.130   3.874
 3264TIP3   OH2 9748   4.635   5.829   4.847
 3264TIP3    H1 9749   4.711   5.846   4.903
 3264TIP3    H2 9750   4.658   5.867   4.763
 3265TIP3   OH2 9751   8.187   2.496   2.799
 3265TIP3    H1 9752   8.104   2.468   2.837
 3265TIP3    H2 9753   8.177   2.482   2.705
 3266TIP3   OH2 9754   4.966   6.540   3.974
 3266TIP3    H1 9755   4.975   6.534   4.069
 3266TIP3    H2 9756   4.885   6.589   3.960
 3267TIP3   OH2 9757   1.826   4.242   1.586
 3267TIP3    H1 9758   1.793   4.243   1.676
 3267TIP3    H2 9759   1.878   4.162   1.581
 3268TIP3   OH2 9760   6.808   7.066   4.557
 3268TIP3    H1 9761   6.764   6.982   4.573
 3268TIP3    H2 9762   6.804   7.111   4.642
 3269TIP3   OH2 9763   5.627   3.069   2.755
 3269TIP3    H1 9764   5.551   3.121   2.728
 3269TIP3    H2 9765   5.644   3.095   2.845
 3270TIP3   OH2 9766   2.464   2.748   3.413
 3270TIP3    H1 9767   2.394   2.758   3.348
 3270TIP3    H2 9768   2.430   2.684   3.475
 3271TIP3   OH2 9769   0.232   2.787   2.078
 3271TIP3    H1 9770   0.239   2.830   1.993
 3271TIP3    H2 9771   0.162   2.834   2.123
 3272TIP3   OH2 9772   5.893   1.095   0.168
 3272TIP3    H1 9773   5.825   1.121   0.106
 3272TIP3    H2 9774   5.891   1.163   0.236
 3273TIP3   OH2 9775   2.125   0.640   4.863
 3273TIP3    H1 9776   2.118   0.596   4.779
 3273TIP3    H2 9777   2.041   0.684   4.875
 3274TIP3   OH2 9778   4.607   1.180   5.828
 3274TIP3    H1 9779   4.584   1.210   5.916
 3274TIP3    H2 9780   4.701   1.194   5.821
 3275TIP3   OH2 9781   4.695   1.481   2.929
 3275TIP3    H1 9782   4.630   1.546   2.899
 3275TIP3    H2 9783   4.675   1.402   2.879
 3276TIP3   OH2 9784   8.303   4.110   5.743
 3276TIP3    H1 9785   8.230   4.059   5.707
 3276TIP3    H2 9786   8.288   4.199   5.712
 3277TIP3   OH2 9787   0.498   0.901   3.490
 3277TIP3    H1 9788   0.518   0.808   3.480
 3277TIP3    H2 9789   0.414   0.902   3.536
 3278TIP3   OH2 9790   3.678   4.021   5.698
 3278TIP3    H1 9791   3.716   4.075   5.767
 3278TIP3    H2 9792   3.751   4.003   5.638
 3279TIP3   OH2 9793   5.024   0.590   4.869
 3279TIP3    H1 9794   5.056   0.561   4.954
 3279TIP3    H2 9795   5.092   0.563   4.807
 3280TIP3   OH2 9796   1.184   3.916   5.248
 3280TIP3    H1 9797   1.140   3.999   5.227
 3280TIP3    H2 9798   1.275   3.931   5.222
 3281TIP3   OH2 9799   1.643   4.519   6.713
 3281TIP3    H1 9800   1.680   4.597   6.755
 3281TIP3    H2 9801   1.688   4.513   6.629
 3282TIP3   OH2 9802   0.019   6.809   5.256
 3282TIP3    H1 9803   0.060   6.752   5.321
 3282TIP3    H2 9804  -0.073   6.785   5.257
 3283TIP3   OH2 9805   5.347   7.060   4.301
 3283TIP3    H1 9806   5.283   7.007   4.349
 3283TIP3    H2 9807   5.384   7.118   4.368
 3284TIP3   OH2 9808   0.348   3.475   0.000
 3284TIP3    H1 9809   0.310   3.517   0.077
 3284TIP3    H2 9810   0.341   3.381   0.018
 3285TIP3   OH2 9811   1.167   6.720   0.471
 3285TIP3    H1 9812   1.186   6.809   0.500
 3285TIP3    H2 9813   1.085   6.698   0.515
 3286TIP3   OH2 9814   6.905   5.181   0.120
 3286TIP3    H1 9815   6.866   5.157   0.036
 3286TIP3    H2 9816   6.982   5.126   0.128
 3287TIP3   OH2 9817   6.175   0.726   2.460
 3287TIP3    H1 9818   6.270   0.719   2.468
 3287TIP3    H2 9819   6.157   0.820   2.463
 3288TIP3   OH2 9820   4.250   3.814   1.660
 3288TIP3    H1 9821   4.324   3.755   1.647
 3288TIP3    H2 9822   4.288   3.900   1.672
 3289TIP3   OH2 9823   3.708   6.131   5.290
 3289TIP3    H1 9824   3.797   6.137   5.256
 3289TIP3    H2 9825   3.691   6.037   5.297
 3290TIP3   OH2 9826   7.864   1.458   1.684
 3290TIP3    H1 9827   7.838   1.436   1.595
 3290TIP3    H2 9828   7.876   1.553   1.683
 3291TIP3   OH2 9829   0.359   3.189   0.359
 3291TIP3    H1 9830   0.436   3.230   0.398
 3291TIP3    H2 9831   0.365   3.097   0.384
 3292TIP3   OH2 9832   0.627   6.292   3.265
 3292TIP3    H1 9833   0.690   6.332   3.326
 3292TIP3    H2 9834   0.666   6.306   3.179
 3293TIP3   OH2 9835   2.856   1.639   2.447
 3293TIP3    H1 9836   2.951   1.635   2.445
 3293TIP3    H2 9837   2.834   1.665   2.536
 3294TIP3   OH2 9838   4.080   7.135   6.537
 3294TIP3    H1 9839   4.091   7.150   6.444
 3294TIP3    H2 9840   3.997   7.087   6.544
 3295TIP3   OH2 9841   5.834   0.177   5.242
 3295TIP3    H1 9842   5.762   0.169   5.304
 3295TIP3    H2 9843   5.798   0.232   5.172
 3296TIP3   OH2 9844   0.372   0.738   6.635
 3296TIP3    H1 9845   0.390   0.674   6.704
 3296TIP3    H2 9846   0.293   0.705   6.592
 3297TIP3   OH2 9847   4.193   7.135   0.659
 3297TIP3    H1 9848   4.194   7.117   0.564
 3297TIP3    H2 9849   4.124   7.200   0.670
 3298TIP3   OH2 9850   4.276   5.579   3.806
 3298TIP3    H1 9851   4.255   5.510   3.868
 3298TIP3    H2 9852   4.202   5.582   3.746
 3299TIP3   OH2 9853   2.556   5.972   5.801
 3299TIP3    H1 9854   2.635   6.016   5.832
 3299TIP3    H2 9855   2.509   5.947   5.880
 3300TIP3   OH2 9856   2.925   5.759   3.525
 3300TIP3    H1 9857   2.886   5.819   3.461
 3300TIP3    H2 9858   2.893   5.673   3.500
 3301TIP3   OH2 9859   4.576   7.062   6.336
 3301TIP3    H1 9860   4.628   7.014   6.273
 3301TIP3    H2 9861   4.617   7.043   6.421
 3302TIP3   OH2 9862   7.501   2.546   5.127
 3302TIP3    H1 9863   7.536   2.595   5.052
 3302TIP3    H2 9864   7.459   2.612   5.181
 3303TIP3   OH2 9865   4.988   7.370   1.918
 3303TIP3    H1 9866   5.013   7.459   1.892
 3303TIP3    H2 9867   4.973   7.324   1.835
 3304TIP3   OH2 9868   5.930   7.341   0.297
 3304TIP3    H1 9869   5.852   7.352   0.243
 3304TIP3    H2 9870   5.931   7.248   0.320
 3305TIP3   OH2 9871   7.457   5.007   4.685
 3305TIP3    H1 9872   7.513   4.931   4.696
 3305TIP3    H2 9873   7.392   4.999   4.756
 3306TIP3   OH2 9874   3.590   0.516   6.076
 3306TIP3    H1 9875   3.631   0.439   6.035
 3306TIP3    H2 9876   3.542   0.480   6.151
 3307TIP3   OH2 9877   1.028   3.046   0.836
 3307TIP3    H1 9878   0.949   3.082   0.795
 3307TIP3    H2 9879   1.053   2.973   0.780
 3308TIP3   OH2 9880   6.669   3.714   0.246
 3308TIP3    H1 9881   6.752   3.755   0.220
 3308TIP3    H2 9882   6.602   3.779   0.222
 3309TIP3   OH2 9883   1.258   5.749   6.521
 3309TIP3    H1 9884   1.296   5.821   6.471
 3309TIP3    H2 9885   1.313   5.743   6.599
 3310TIP3   OH2 9886   5.248   6.506   3.469
 3310TIP3    H1 9887   5.317   6.442   3.453
 3310TIP3    H2 9888   5.294   6.589   3.482
 3311TIP3   OH2 9889   2.797   3.438   5.514
 3311TIP3    H1 9890   2.735   3.377   5.472
 3311TIP3    H2 9891   2.744   3.483   5.579
 3312TIP3   OH2 9892   0.406   3.841   4.800
 3312TIP3    H1 9893   0.444   3.922   4.833
 3312TIP3    H2 9894   0.462   3.772   4.837
 3313TIP3   OH2 9895   4.400   1.397   2.484
 3313TIP3    H1 9896   4.356   1.354   2.558
 3313TIP3    H2 9897   4.329   1.428   2.429
 3314TIP3   OH2 9898   7.149   0.431   4.577
 3314TIP3    H1 9899   7.098   0.379   4.515
 3314TIP3    H2 9900   7.239   0.399   4.567
 3315TIP3   OH2 9901   6.895   6.389   1.325
 3315TIP3    H1 9902   6.837   6.369   1.399
 3315TIP3    H2 9903   6.915   6.303   1.286
 3316TIP3   OH2 9904   6.359   6.689   1.616
 3316TIP3    H1 9905   6.293   6.641   1.566
 3316TIP3    H2 9906   6.312   6.761   1.657
 3317TIP3   OH2 9907   0.692   6.984   1.355
 3317TIP3    H1 9908   0.715   7.040   1.429
 3317TIP3    H2 9909   0.728   6.898   1.378
 3318TIP3   OH2 9910   3.833   5.347   5.412
 3318TIP3    H1 9911   3.893   5.357   5.485
 3318TIP3    H2 9912   3.866   5.273   5.362
 3319TIP3   OH2 9913   2.288   3.730   0.884
 3319TIP3    H1 9914   2.322   3.644   0.909
 3319TIP3    H2 9915   2.234   3.712   0.807
 3320TIP3   OH2 9916   0.897   1.948   1.290
 3320TIP3    H1 9917   0.976   1.901   1.262
 3320TIP3    H2 9918   0.842   1.880   1.329
 3321TIP3   OH2 9919   0.388   7.415   5.901
 3321TIP3    H1 9920   0.466   7.382   5.947
 3321TIP3    H2 9921   0.349   7.338   5.861
 3322TIP3   OH2 9922   4.884   4.458   0.001
 3322TIP3    H1 9923   4.952   4.483  -0.061
 3322TIP3    H2 9924   4.910   4.501   0.083
 3323TIP3   OH2 9925   4.508   5.343   1.340
 3323TIP3    H1 9926   4.452   5.407   1.296
 3323TIP3    H2 9927   4.490   5.355   1.433
 3324TIP3   OH2 9928   1.898   3.592   0.532
 3324TIP3    H1 9929   1.894   3.562   0.622
 3324TIP3    H2 9930   1.872   3.684   0.536
 3325TIP3   OH2 9931   1.046   3.263   4.816
 3325TIP3    H1 9932   1.132   3.249   4.856
 3325TIP3    H2 9933   1.063   3.261   4.722
 3326TIP3   OH2 9934   5.897   1.691   6.556
 3326TIP3    H1 9935   5.813   1.668   6.518
 3326TIP3    H2 9936   5.880   1.772   6.604
 3327TIP3   OH2 9937   7.564   3.139   2.105
 3327TIP3    H1 9938   7.529   3.125   2.193
 3327TIP3    H2 9939   7.541   3.230   2.085
 3328TIP3   OH2 9940   0.088   5.875   4.104
 3328TIP3    H1 9941   0.152   5.925   4.055
 3328TIP3    H2 9942   0.011   5.870   4.047
 3329TIP3   OH2 9943   4.295   1.721   1.575
 3329TIP3    H1 9944   4.280   1.679   1.659
 3329TIP3    H2 9945   4.326   1.650   1.518
 3330TIP3   OH2 9946   3.333   1.707   4.679
 3330TIP3    H1 9947   3.356   1.749   4.762
 3330TIP3    H2 9948   3.353   1.772   4.612
 3331TIP3   OH2 9949   2.226   3.104   5.912
 3331TIP3    H1 9950   2.178   3.186   5.923
 3331TIP3    H2 9951   2.218   3.060   5.996
 3332TIP3   OH2 9952   1.115   1.127   5.045
 3332TIP3    H1 9953   1.072   1.130   4.959
 3332TIP3    H2 9954   1.046   1.101   5.105
 3333TIP3   OH2 9955   3.065   3.737   4.241
 3333TIP3    H1 9956   3.077   3.694   4.326
 3333TIP3    H2 9957   3.129   3.809   4.242
 3334TIP3   OH2 9958   3.520   3.478   1.704
 3334TIP3    H1 9959   3.545   3.391   1.733
 3334TIP3    H2 9960   3.557   3.486   1.616
 3335TIP3   OH2 9961   1.878   4.128   6.348
 3335TIP3    H1 9962   1.878   4.039   6.382
 3335TIP3    H2 9963   1.791   4.140   6.310
 3336TIP3   OH2 9964   0.043   3.147   4.182
 3336TIP3    H1 9965  -0.039   3.163   4.228
 3336TIP3    H2 9966   0.017   3.130   4.091
 3337TIP3   OH2 9967   1.212   0.955   1.143
 3337TIP3    H1 9968   1.123   0.927   1.121
 3337TIP3    H2 9969   1.234   1.018   1.075
 3338TIP3   OH2 9970   5.809   6.608   0.929
 3338TIP3    H1 9971   5.759   6.661   0.867
 3338TIP3    H2 9972   5.748   6.592   1.001
 3339TIP3   OH2 9973   5.467   3.279   6.543
 3339TIP3    H1 9974   5.376   3.308   6.534
 3339TIP3    H2 9975   5.480   3.218   6.471
 3340TIP3   OH2 9976   3.307   5.593   4.885
 3340TIP3    H1 9977   3.258   5.532   4.940
 3340TIP3    H2 9978   3.380   5.541   4.851
 3341TIP3   OH2 9979   0.853   4.318   0.138
 3341TIP3    H1 9980   0.815   4.393   0.185
 3341TIP3    H2 9981   0.926   4.290   0.193
 3342TIP3   OH2 9982   1.033   3.942   2.779
 3342TIP3    H1 9983   1.010   3.884   2.707
 3342TIP3    H2 9984   1.025   4.030   2.743
 3343TIP3   OH2 9985   6.470   4.506   2.057
 3343TIP3    H1 9986   6.401   4.539   2.000
 3343TIP3    H2 9987   6.519   4.585   2.084
 3344TIP3   OH2 9988   4.086   4.285   2.895
 3344TIP3    H1 9989   4.170   4.278   2.939
 3344TIP3    H2 9990   4.027   4.322   2.961
 3345TIP3   OH2 9991   5.249   1.351   0.944
 3345TIP3    H1 9992   5.218   1.296   1.015
 3345TIP3    H2 9993   5.200   1.320   0.867
 3346TIP3   OH2 9994   2.887   5.506   3.991
 3346TIP3    H1 9995   2.971   5.549   4.011
 3346TIP3    H2 9996   2.847   5.492   4.077
 3347TIP3   OH2 9997   1.939   4.733   2.745
 3347TIP3    H1 9998   1.987   4.808   2.779
 3347TIP3    H2 9999   1.852   4.740   2.784
 3348TIP3   OH210000   2.657   4.815   5.346
 3348TIP3    H110001   2.717   4.847   5.413
 3348TIP3    H210002   2.673   4.720   5.343
 3349TIP3   OH210003   5.022   6.674   1.296
 3349TIP3    H110004   5.056   6.739   1.235
 3349TIP3    H210005   5.073   6.595   1.277
 3350TIP3   OH210006   7.769   4.635   3.058
 3350TIP3    H110007   7.734   4.634   2.969
 3350TIP3    H210008   7.792   4.544   3.077
 3351TIP3   OH210009   3.205   1.466   4.749
 3351TIP3    H110010   3.230   1.553   4.717
 3351TIP3    H210011   3.244   1.461   4.836
 3352TIP3   OH210012   7.967   1.592   5.720
 3352TIP3    H110013   8.038   1.639   5.762
 3352TIP3    H210014   7.933   1.653   5.654
 3353TIP3   OH210015   8.115   7.090   3.324
 3353TIP3    H110016   8.204   7.103   3.357
 3353TIP3    H210017   8.084   7.179   3.304
 3354TIP3   OH210018   4.911   7.622   1.738
 3354TIP3    H110019   4.874   7.648   1.823
 3354TIP3    H210020   5.005   7.623   1.751
 3355TIP3   OH210021   0.271   7.626   3.156
 3355TIP3    H110022   0.332   7.592   3.221
 3355TIP3    H210023   0.226   7.549   3.122
 3356TIP3   OH210024   6.340   2.633   3.008
 3356TIP3    H110025   6.251   2.655   2.980
 3356TIP3    H210026   6.331   2.552   3.058
 3357TIP3   OH210027   5.456   7.687   4.462
 3357TIP3    H110028   5.437   7.594   4.446
 3357TIP3    H210029   5.444   7.698   4.556
 3358TIP3   OH210030   6.567   2.941   0.117
 3358TIP3    H110031   6.484   2.925   0.073
 3358TIP3    H210032   6.614   2.858   0.111
 3359TIP3   OH210033   7.575   4.871   3.830
 3359TIP3    H110034   7.590   4.937   3.898
 3359TIP3    H210035   7.644   4.887   3.766
 3360TIP3   OH210036   4.108   5.759   5.471
 3360TIP3    H110037   4.016   5.742   5.493
 3360TIP3    H210038   4.108   5.848   5.436
 3361TIP3   OH210039   2.197   1.510   1.828
 3361TIP3    H110040   2.200   1.545   1.739
 3361TIP3    H210041   2.271   1.551   1.873
 3362TIP3   OH210042   2.202   2.340   1.965
 3362TIP3    H110043   2.264   2.408   1.993
 3362TIP3    H210044   2.166   2.306   2.047
 3363TIP3   OH210045   8.255   1.564   0.961
 3363TIP3    H110046   8.303   1.495   1.008
 3363TIP3    H210047   8.279   1.645   1.006
 3364TIP3   OH210048   0.075   2.185   4.841
 3364TIP3    H110049   0.152   2.236   4.865
 3364TIP3    H210050   0.017   2.247   4.797
 3365TIP3   OH210051   2.574   2.726   6.137
 3365TIP3    H110052   2.594   2.737   6.044
 3365TIP3    H210053   2.526   2.805   6.161
 3366TIP3   OH210054   3.650   6.261   1.245
 3366TIP3    H110055   3.683   6.201   1.178
 3366TIP3    H210056   3.595   6.323   1.197
 3367TIP3   OH210057   2.338   3.978   0.991
 3367TIP3    H110058   2.342   3.896   0.941
 3367TIP3    H210059   2.430   4.005   0.999
 3368TIP3   OH210060   0.092   3.200   0.450
 3368TIP3    H110061   0.170   3.208   0.397
 3368TIP3    H210062   0.124   3.191   0.540
 3369TIP3   OH210063   0.272   0.137   5.582
 3369TIP3    H110064   0.312   0.179   5.658
 3369TIP3    H210065   0.200   0.085   5.618
 3370TIP3   OH210066   1.089   7.245   5.596
 3370TIP3    H110067   1.037   7.195   5.659
 3370TIP3    H210068   1.102   7.330   5.636
 3371TIP3   OH210069   3.521   7.663   6.480
 3371TIP3    H110070   3.608   7.634   6.452
 3371TIP3    H210071   3.476   7.684   6.398
 3372TIP3   OH210072   2.161   0.796   1.324
 3372TIP3    H110073   2.172   0.878   1.276
 3372TIP3    H210074   2.228   0.799   1.393
 3373TIP3   OH210075   5.307   1.247   0.223
 3373TIP3    H110076   5.315   1.203   0.138
 3373TIP3    H210077   5.273   1.179   0.281
 3374TIP3   OH210078   4.997   0.396   3.371
 3374TIP3    H110079   4.986   0.396   3.276
 3374TIP3    H210080   5.065   0.331   3.388
 3375TIP3   OH210081   5.446   6.743   4.281
 3375TIP3    H110082   5.432   6.831   4.315
 3375TIP3    H210083   5.358   6.712   4.259
 3376TIP3   OH210084   7.358   0.051   3.214
 3376TIP3    H110085   7.298   0.043   3.141
 3376TIP3    H210086   7.374   0.145   3.222
 3377TIP3   OH210087   7.440   1.333   2.995
 3377TIP3    H110088   7.410   1.310   3.083
 3377TIP3    H210089   7.406   1.421   2.980
 3378TIP3   OH210090   5.927   3.173   4.170
 3378TIP3    H110091   6.002   3.229   4.189
 3378TIP3    H210092   5.872   3.225   4.112
 3379TIP3   OH210093   4.200   1.193   6.553
 3379TIP3    H110094   4.118   1.164   6.594
 3379TIP3    H210095   4.264   1.126   6.577
 3380TIP3   OH210096   4.907   7.470   0.112
 3380TIP3    H110097   4.951   7.547   0.147
 3380TIP3    H210098   4.905   7.485   0.017
 3381TIP3   OH210099   2.259   4.706   3.739
 3381TIP3    H110100   2.282   4.765   3.667
 3381TIP3    H210101   2.326   4.637   3.735
 3382TIP3   OH210102   1.469   0.996   6.314
 3382TIP3    H110103   1.475   1.080   6.360
 3382TIP3    H210104   1.530   1.005   6.241
 3383TIP3   OH210105   5.262   0.535   0.487
 3383TIP3    H110106   5.300   0.614   0.448
 3383TIP3    H210107   5.251   0.557   0.579
 3384TIP3   OH210108   5.083   5.483   1.650
 3384TIP3    H110109   4.992   5.502   1.628
 3384TIP3    H210110   5.134   5.531   1.585
 3385TIP3   OH210111   6.435   5.662   5.963
 3385TIP3    H110112   6.405   5.748   5.991
 3385TIP3    H210113   6.416   5.605   6.038
 3386TIP3   OH210114   3.456   3.786   5.332
 3386TIP3    H110115   3.406   3.851   5.381
 3386TIP3    H210116   3.393   3.715   5.316
 3387TIP3   OH210117   4.215   1.299   4.881
 3387TIP3    H110118   4.291   1.344   4.919
 3387TIP3    H210119   4.200   1.225   4.940
 3388TIP3   OH210120   2.477   0.889   2.220
 3388TIP3    H110121   2.548   0.931   2.269
 3388TIP3    H210122   2.397   0.922   2.262
 3389TIP3   OH210123   1.206   0.769   5.079
 3389TIP3    H110124   1.238   0.722   5.156
 3389TIP3    H210125   1.127   0.721   5.053
 3390TIP3   OH210126   2.579   3.178   1.644
 3390TIP3    H110127   2.645   3.182   1.575
 3390TIP3    H210128   2.507   3.128   1.605
 3391TIP3   OH210129   3.625   7.174   5.656
 3391TIP3    H110130   3.713   7.150   5.625
 3391TIP3    H210131   3.612   7.120   5.733
 3392TIP3   OH210132   4.732   0.545   2.498
 3392TIP3    H110133   4.827   0.556   2.509
 3392TIP3    H210134   4.717   0.562   2.405
 3393TIP3   OH210135   7.747   3.584   0.191
 3393TIP3    H110136   7.721   3.499   0.226
 3393TIP3    H210137   7.665   3.629   0.173
 3394TIP3   OH210138   5.328   3.296   3.524
 3394TIP3    H110139   5.329   3.240   3.446
 3394TIP3    H210140   5.337   3.234   3.597
 3395TIP3   OH210141   2.602   4.989   2.228
 3395TIP3    H110142   2.649   4.924   2.279
 3395TIP3    H210143   2.558   4.939   2.159
 3396TIP3   OH210144   6.660   4.994   2.327
 3396TIP3    H110145   6.734   5.013   2.271
 3396TIP3    H210146   6.612   5.076   2.333
 3397TIP3   OH210147   7.318   2.065   6.523
 3397TIP3    H110148   7.324   2.158   6.546
 3397TIP3    H210149   7.319   2.019   6.607
 3398TIP3   OH210150   4.291   2.783   5.810
 3398TIP3    H110151   4.366   2.799   5.867
 3398TIP3    H210152   4.216   2.818   5.858
 3399TIP3   OH210153   5.378   6.804   1.224
 3399TIP3    H110154   5.384   6.819   1.318
 3399TIP3    H210155   5.325   6.877   1.191
 3400TIP3   OH210156   2.656   2.713   1.295
 3400TIP3    H110157   2.740   2.723   1.251
 3400TIP3    H210158   2.672   2.743   1.385
 3401TIP3   OH210159   3.480   4.751   2.111
 3401TIP3    H110160   3.506   4.817   2.047
 3401TIP3    H210161   3.542   4.679   2.098
 3402TIP3   OH210162   7.234   3.000   5.581
 3402TIP3    H110163   7.241   3.053   5.502
 3402TIP3    H210164   7.324   2.981   5.605
 3403TIP3   OH210165   6.288   7.084   5.656
 3403TIP3    H110166   6.260   7.077   5.747
 3403TIP3    H210167   6.272   7.176   5.633
 3404TIP3   OH210168   1.943   1.127   5.745
 3404TIP3    H110169   1.904   1.214   5.737
 3404TIP3    H210170   2.023   1.131   5.692
 3405TIP3   OH210171   4.645   4.839   2.172
 3405TIP3    H110172   4.697   4.889   2.109
 3405TIP3    H210173   4.679   4.750   2.166
 3406TIP3   OH210174   0.068   7.570   5.851
 3406TIP3    H110175   0.007   7.516   5.801
 3406TIP3    H210176   0.105   7.630   5.787
 3407TIP3   OH210177   2.102   3.578   6.459
 3407TIP3    H110178   2.098   3.584   6.363
 3407TIP3    H210179   2.183   3.623   6.483
 3408TIP3   OH210180   3.594   3.546   4.771
 3408TIP3    H110181   3.588   3.507   4.684
 3408TIP3    H210182   3.507   3.583   4.786
 3409TIP3   OH210183   2.012   7.412   5.619
 3409TIP3    H110184   2.092   7.419   5.671
 3409TIP3    H210185   1.949   7.467   5.664
 3410TIP3   OH210186   5.266   7.810   1.477
 3410TIP3    H110187   5.172   7.825   1.464
 3410TIP3    H210188   5.273   7.782   1.568
 3411TIP3   OH210189   3.575   5.533   4.755
 3411TIP3    H110190   3.631   5.610   4.756
 3411TIP3    H210191   3.635   5.459   4.743
 3412TIP3   OH210192   7.385   0.330   1.614
 3412TIP3    H110193   7.455   0.386   1.581
 3412TIP3    H210194   7.304   0.377   1.590
 3413TIP3   OH210195   4.297   7.791   3.823
 3413TIP3    H110196   4.251   7.709   3.842
 3413TIP3    H210197   4.340   7.814   3.905
 3414TIP3   OH210198   4.807   7.726   6.506
 3414TIP3    H110199   4.792   7.779   6.428
 3414TIP3    H210200   4.736   7.752   6.566
 3415TIP3   OH210201   2.731   2.754   4.817
 3415TIP3    H110202   2.720   2.831   4.762
 3415TIP3    H210203   2.789   2.696   4.767
 3416TIP3   OH210204   1.037   4.732   2.017
 3416TIP3    H110205   0.942   4.739   2.009
 3416TIP3    H210206   1.056   4.762   2.106
 3417TIP3   OH210207   0.473   7.537   2.531
 3417TIP3    H110208   0.506   7.465   2.477
 3417TIP3    H210209   0.541   7.603   2.528
 3418TIP3   OH210210   3.307   2.270   3.883
 3418TIP3    H110211   3.326   2.321   3.805
 3418TIP3    H210212   3.267   2.332   3.944
 3419TIP3   OH210213   5.050   0.020   6.390
 3419TIP3    H110214   4.985  -0.006   6.455
 3419TIP3    H210215   5.006   0.086   6.336
 3420TIP3   OH210216   3.966   2.450   1.894
 3420TIP3    H110217   3.876   2.455   1.927
 3420TIP3    H210218   3.975   2.359   1.863
 3421TIP3   OH210219   0.154   1.596   6.624
 3421TIP3    H110220   0.171   1.638   6.540
 3421TIP3    H210221   0.194   1.654   6.689
 3422TIP3   OH210222   3.606   1.859   1.212
 3422TIP3    H110223   3.604   1.933   1.150
 3422TIP3    H210224   3.538   1.800   1.181
 3423TIP3   OH210225   1.004   0.469   4.092
 3423TIP3    H110226   1.035   0.397   4.036
 3423TIP3    H210227   1.023   0.439   4.181
 3424TIP3   OH210228   5.439   3.357   5.007
 3424TIP3    H110229   5.417   3.383   5.096
 3424TIP3    H210230   5.527   3.390   4.992
 3425TIP3   OH210231   6.672   4.238   2.007
 3425TIP3    H110232   6.680   4.313   2.066
 3425TIP3    H210233   6.579   4.237   1.983
 3426TIP3   OH210234   3.352   4.191   4.148
 3426TIP3    H110235   3.362   4.237   4.231
 3426TIP3    H210236   3.258   4.196   4.130
 3427TIP3   OH210237   1.806   0.747   3.835
 3427TIP3    H110238   1.862   0.737   3.911
 3427TIP3    H210239   1.819   0.667   3.785
 3428TIP3   OH210240   3.146   5.046   4.186
 3428TIP3    H110241   3.154   5.038   4.091
 3428TIP3    H210242   3.095   5.126   4.199
 3429TIP3   OH210243   5.646   0.713   4.330
 3429TIP3    H110244   5.635   0.619   4.347
 3429TIP3    H210245   5.627   0.755   4.414
 3430TIP3   OH210246   2.743   0.853   0.662
 3430TIP3    H110247   2.684   0.829   0.591
 3430TIP3    H210248   2.777   0.939   0.637
 3431TIP3   OH210249   6.888   4.429   4.548
 3431TIP3    H110250   6.833   4.483   4.491
 3431TIP3    H210251   6.909   4.486   4.622
 3432TIP3   OH210252   7.379   5.566   0.952
 3432TIP3    H110253   7.469   5.535   0.951
 3432TIP3    H210254   7.344   5.544   0.866
 3433TIP3   OH210255   3.439   5.535   4.081
 3433TIP3    H110256   3.482   5.456   4.111
 3433TIP3    H210257   3.352   5.506   4.054
 3434TIP3   OH210258   1.180   0.812   6.723
 3434TIP3    H110259   1.141   0.725   6.724
 3434TIP3    H210260   1.261   0.802   6.674
 3435TIP3   OH210261   2.533   5.278   1.062
 3435TIP3    H110262   2.624   5.248   1.055
 3435TIP3    H210263   2.494   5.219   1.127
 3436TIP3   OH210264   2.431   0.163   1.049
 3436TIP3    H110265   2.419   0.097   0.981
 3436TIP3    H210266   2.460   0.241   1.003
 3437TIP3   OH210267   3.673   4.415   3.511
 3437TIP3    H110268   3.646   4.439   3.600
 3437TIP3    H210269   3.605   4.354   3.481
 3438TIP3   OH210270   1.852   0.644   2.583
 3438TIP3    H110271   1.797   0.644   2.505
 3438TIP3    H210272   1.937   0.611   2.553
 3439TIP3   OH210273   5.234   1.986   6.529
 3439TIP3    H110274   5.174   2.052   6.494
 3439TIP3    H210275   5.321   2.022   6.515
 3440TIP3   OH210276   3.272   6.543   0.294
 3440TIP3    H110277   3.291   6.634   0.315
 3440TIP3    H210278   3.178   6.533   0.309
 3441TIP3   OH210279   1.645   1.658   1.899
 3441TIP3    H110280   1.662   1.715   1.974
 3441TIP3    H210281   1.645   1.570   1.935
 3442TIP3   OH210282   7.350   2.046   1.010
 3442TIP3    H110283   7.356   1.967   1.064
 3442TIP3    H210284   7.333   2.116   1.073
 3443TIP3   OH210285   5.409   0.101   0.872
 3443TIP3    H110286   5.495   0.120   0.835
 3443TIP3    H210287   5.426   0.086   0.965
 3444TIP3   OH210288   1.587   2.405   4.650
 3444TIP3    H110289   1.544   2.332   4.694
 3444TIP3    H210290   1.665   2.423   4.702
 3445TIP3   OH210291   3.055   5.546   4.255
 3445TIP3    H110292   3.127   5.609   4.264
 3445TIP3    H210293   3.007   5.552   4.338
 3446TIP3   OH210294   2.449   6.125   5.108
 3446TIP3    H110295   2.533   6.168   5.091
 3446TIP3    H210296   2.469   6.060   5.176
 3447TIP3   OH210297   3.836   4.371   2.365
 3447TIP3    H110298   3.916   4.409   2.401
 3447TIP3    H210299   3.772   4.375   2.436
 3448TIP3   OH210300   6.680   2.450   6.222
 3448TIP3    H110301   6.674   2.444   6.127
 3448TIP3    H210302   6.638   2.370   6.254
 3449TIP3   OH210303   8.160   5.784   3.992
 3449TIP3    H110304   8.217   5.708   4.000
 3449TIP3    H210305   8.080   5.749   3.951
 3450TIP3   OH210306   3.989   2.031   2.975
 3450TIP3    H110307   3.959   2.056   3.063
 3450TIP3    H210308   4.008   2.115   2.932
 3451TIP3   OH210309   1.167   2.869   5.029
 3451TIP3    H110310   1.091   2.921   5.053
 3451TIP3    H210311   1.145   2.834   4.943
 3452TIP3   OH210312   5.883   7.020   1.661
 3452TIP3    H110313   5.889   7.060   1.574
 3452TIP3    H210314   5.889   7.094   1.722
 3453TIP3   OH210315   7.784   0.312   4.139
 3453TIP3    H110316   7.842   0.238   4.156
 3453TIP3    H210317   7.708   0.273   4.095
 3454TIP3   OH210318   1.838   3.318   4.435
 3454TIP3    H110319   1.875   3.289   4.518
 3454TIP3    H210320   1.915   3.346   4.384
 3455TIP3   OH210321   2.308   2.824   2.431
 3455TIP3    H110322   2.311   2.737   2.472
 3455TIP3    H210323   2.399   2.852   2.427
 3456TIP3   OH210324   1.973   7.300   2.235
 3456TIP3    H110325   1.901   7.276   2.293
 3456TIP3    H210326   2.036   7.229   2.243
 3457TIP3   OH210327   2.718   5.172   6.330
 3457TIP3    H110328   2.651   5.153   6.395
 3457TIP3    H210329   2.682   5.245   6.279
 3458TIP3   OH210330   0.596   2.882   0.512
 3458TIP3    H110331   0.594   2.818   0.440
 3458TIP3    H210332   0.506   2.882   0.546
 3459TIP3   OH210333   6.143   0.093   2.326
 3459TIP3    H110334   6.216   0.073   2.385
 3459TIP3    H210335   6.069   0.046   2.362
 3460TIP3   OH210336   8.124   5.015   5.910
 3460TIP3    H110337   8.060   5.060   5.856
 3460TIP3    H210338   8.157   4.944   5.855
 3461TIP3   OH210339   5.587   7.825   1.476
 3461TIP3    H110340   5.682   7.830   1.482
 3461TIP3    H210341   5.567   7.732   1.486
 3462TIP3   OH210342   0.317   7.498   3.593
 3462TIP3    H110343   0.376   7.556   3.641
 3462TIP3    H210344   0.325   7.414   3.638
 3463TIP3   OH210345   4.886   4.684   0.752
 3463TIP3    H110346   4.821   4.676   0.822
 3463TIP3    H210347   4.910   4.593   0.731
 3464TIP3   OH210348   2.109   2.301   1.113
 3464TIP3    H110349   2.095   2.279   1.205
 3464TIP3    H210350   2.177   2.368   1.115
 3465TIP3   OH210351   4.404   0.259   1.714
 3465TIP3    H110352   4.359   0.247   1.798
 3465TIP3    H210353   4.468   0.328   1.731
 3466TIP3   OH210354   1.175   3.121   5.979
 3466TIP3    H110355   1.123   3.202   5.977
 3466TIP3    H210356   1.232   3.128   5.903
 3467TIP3   OH210357   0.354   1.617   4.824
 3467TIP3    H110358   0.317   1.533   4.797
 3467TIP3    H210359   0.341   1.619   4.919
 3468TIP3   OH210360   7.722   5.371   3.844
 3468TIP3    H110361   7.762   5.437   3.787
 3468TIP3    H210362   7.795   5.334   3.893
 3469TIP3   OH210363   1.042   7.088   0.345
 3469TIP3    H110364   1.027   7.182   0.359
 3469TIP3    H210365   1.047   7.079   0.249
 3470TIP3   OH210366   4.302   4.261   4.939
 3470TIP3    H110367   4.356   4.189   4.906
 3470TIP3    H210368   4.274   4.231   5.026
 3471TIP3   OH210369   2.571   7.549   0.590
 3471TIP3    H110370   2.497   7.568   0.533
 3471TIP3    H210371   2.642   7.524   0.531
 3472TIP3   OH210372   2.734   1.266   4.492
 3472TIP3    H110373   2.743   1.258   4.587
 3472TIP3    H210374   2.811   1.221   4.457
 3473TIP3   OH210375   5.797   1.364   1.970
 3473TIP3    H110376   5.856   1.389   2.040
 3473TIP3    H210377   5.725   1.427   1.975
 3474TIP3   OH210378   5.458   3.941   6.075
 3474TIP3    H110379   5.413   3.859   6.054
 3474TIP3    H210380   5.537   3.940   6.021
 3475TIP3   OH210381   4.957   6.178   2.788
 3475TIP3    H110382   4.893   6.123   2.834
 3475TIP3    H210383   4.995   6.233   2.856
 3476TIP3   OH210384   6.155   2.204   0.505
 3476TIP3    H110385   6.106   2.277   0.466
 3476TIP3    H210386   6.209   2.171   0.433
 3477TIP3   OH210387   0.994   0.016   2.972
 3477TIP3    H110388   1.068  -0.033   3.010
 3477TIP3    H210389   1.003   0.104   3.007
 3478TIP3   OH210390   5.897   2.461   5.479
 3478TIP3    H110391   5.975   2.490   5.432
 3478TIP3    H210392   5.892   2.519   5.555
 3479TIP3   OH210393   7.229   0.783   3.635
 3479TIP3    H110394   7.219   0.689   3.624
 3479TIP3    H210395   7.321   0.796   3.659
 3480TIP3   OH210396   1.686   2.075   6.339
 3480TIP3    H110397   1.781   2.065   6.331
 3480TIP3    H210398   1.654   2.065   6.250
 3481TIP3   OH210399   8.097  -0.008   5.281
 3481TIP3    H110400   8.187  -0.027   5.254
 3481TIP3    H210401   8.084   0.084   5.261
 3482TIP3   OH210402   2.433   6.684   2.961
 3482TIP3    H110403   2.463   6.727   3.041
 3482TIP3    H210404   2.357   6.632   2.988
 3483TIP3   OH210405   3.625   1.886   0.049
 3483TIP3    H110406   3.573   1.848  -0.021
 3483TIP3    H210407   3.689   1.941   0.005
 3484TIP3   OH210408   3.809   5.468   4.390
 3484TIP3    H110409   3.755   5.529   4.340
 3484TIP3    H210410   3.856   5.523   4.453
 3485TIP3   OH210411   3.670   4.497   3.776
 3485TIP3    H110412   3.755   4.533   3.751
 3485TIP3    H210413   3.691   4.431   3.842
 3486TIP3   OH210414   2.741   4.075   1.733
 3486TIP3    H110415   2.676   4.124   1.682
 3486TIP3    H210416   2.692   4.003   1.772
 3487TIP3   OH210417   7.468   0.837   6.161
 3487TIP3    H110418   7.475   0.913   6.102
 3487TIP3    H210419   7.448   0.875   6.246
 3488TIP3   OH210420   5.273   7.472   3.602
 3488TIP3    H110421   5.246   7.479   3.693
 3488TIP3    H210422   5.193   7.445   3.556
 3489TIP3   OH210423   7.132   1.865   6.744
 3489TIP3    H110424   7.094   1.953   6.737
 3489TIP3    H210425   7.120   1.827   6.657
 3490TIP3   OH210426   2.489   1.563   2.261
 3490TIP3    H110427   2.415   1.510   2.289
 3490TIP3    H210428   2.566   1.517   2.296
 3491TIP3   OH210429   2.303   2.162   3.048
 3491TIP3    H110430   2.243   2.224   3.089
 3491TIP3    H210431   2.358   2.215   2.991
 3492TIP3   OH210432   4.285   2.480   0.492
 3492TIP3    H110433   4.355   2.545   0.494
 3492TIP3    H210434   4.310   2.419   0.423
 3493TIP3   OH210435   6.519   4.521   2.409
 3493TIP3    H110436   6.545   4.465   2.482
 3493TIP3    H210437   6.566   4.603   2.424
 3494TIP3   OH210438   7.456   6.892   4.198
 3494TIP3    H110439   7.534   6.850   4.161
 3494TIP3    H210440   7.490   6.969   4.244
 3495TIP3   OH210441   1.593   4.310   6.230
 3495TIP3    H110442   1.600   4.355   6.146
 3495TIP3    H210443   1.627   4.222   6.213
 3496TIP3   OH210444   7.822   2.693   4.310
 3496TIP3    H110445   7.910   2.716   4.337
 3496TIP3    H210446   7.833   2.630   4.239
 3497TIP3   OH210447   0.497   5.246   4.446
 3497TIP3    H110448   0.472   5.285   4.530
 3497TIP3    H210449   0.424   5.265   4.388
 3498TIP3   OH210450   0.752   6.836   5.403
 3498TIP3    H110451   0.746   6.743   5.423
 3498TIP3    H210452   0.840   6.847   5.366
 3499TIP3   OH210453   7.869   4.535   1.708
 3499TIP3    H110454   7.923   4.489   1.771
 3499TIP3    H210455   7.873   4.627   1.735
 3500TIP3   OH210456   2.042   4.606   4.273
 3500TIP3    H110457   2.092   4.570   4.199
 3500TIP3    H210458   2.106   4.657   4.322
 3501TIP3   OH210459   4.138   7.491   2.548
 3501TIP3    H110460   4.192   7.428   2.501
 3501TIP3    H210461   4.048   7.460   2.535
 3502TIP3   OH210462   0.185   6.651   1.610
 3502TIP3    H110463   0.222   6.577   1.658
 3502TIP3    H210464   0.144   6.706   1.677
 3503TIP3   OH210465   8.039   4.526   1.925
 3503TIP3    H110466   8.111   4.506   1.985
 3503TIP3    H210467   8.065   4.608   1.883
 3504TIP3   OH210468   1.867   6.824   5.238
 3504TIP3    H110469   1.920   6.899   5.265
 3504TIP3    H210470   1.827   6.851   5.156
 3505TIP3   OH210471   0.390   1.711   2.747
 3505TIP3    H110472   0.348   1.774   2.689
 3505TIP3    H210473   0.443   1.656   2.689
 3506TIP3   OH210474   1.870   5.947   1.039
 3506TIP3    H110475   1.805   5.989   0.983
 3506TIP3    H210476   1.848   5.975   1.127
 3507TIP3   OH210477   5.915   0.395   3.105
 3507TIP3    H110478   5.835   0.390   3.052
 3507TIP3    H210479   5.986   0.396   3.040
 3508TIP3   OH210480   4.316   1.613   5.574
 3508TIP3    H110481   4.378   1.641   5.506
 3508TIP3    H210482   4.355   1.534   5.611
 3509TIP3   OH210483   7.489   5.894   0.485
 3509TIP3    H110484   7.454   5.949   0.555
 3509TIP3    H210485   7.584   5.892   0.503
 3510TIP3   OH210486   5.360   5.784   4.749
 3510TIP3    H110487   5.433   5.726   4.728
 3510TIP3    H210488   5.314   5.796   4.666
 3511TIP3   OH210489   1.743   1.587   1.021
 3511TIP3    H110490   1.712   1.659   1.076
 3511TIP3    H210491   1.684   1.514   1.042
 3512TIP3   OH210492   0.149   6.235   5.153
 3512TIP3    H110493   0.179   6.289   5.225
 3512TIP3    H210494   0.223   6.178   5.131
 3513TIP3   OH210495   5.222   2.988   6.334
 3513TIP3    H110496   5.195   3.004   6.424
 3513TIP3    H210497   5.176   3.055   6.283
 3514TIP3   OH210498   5.004   1.437   4.196
 3514TIP3    H110499   4.974   1.524   4.223
 3514TIP3    H210500   5.056   1.406   4.269
 3515TIP3   OH210501   1.172   6.632   0.209
 3515TIP3    H110502   1.144   6.635   0.301
 3515TIP3    H210503   1.242   6.697   0.203
 3516TIP3   OH210504   2.008   5.153   5.052
 3516TIP3    H110505   1.922   5.117   5.029
 3516TIP3    H210506   2.069   5.080   5.037
 3517TIP3   OH210507   8.139   1.763   4.132
 3517TIP3    H110508   8.129   1.760   4.037
 3517TIP3    H210509   8.136   1.857   4.153
 3518TIP3   OH210510   6.189   4.032   6.038
 3518TIP3    H110511   6.154   4.100   6.096
 3518TIP3    H210512   6.179   4.068   5.950
 3519TIP3   OH210513   5.798   4.185   4.943
 3519TIP3    H110514   5.827   4.204   5.032
 3519TIP3    H210515   5.741   4.109   4.952
 3520TIP3   OH210516   0.600   6.199   4.309
 3520TIP3    H110517   0.596   6.259   4.235
 3520TIP3    H210518   0.628   6.115   4.270
 3521TIP3   OH210519   7.047   0.032   3.349
 3521TIP3    H110520   6.952   0.030   3.348
 3521TIP3    H210521   7.073   0.037   3.257
 3522TIP3   OH210522   8.010   3.905   1.180
 3522TIP3    H110523   8.026   3.999   1.172
 3522TIP3    H210524   7.919   3.899   1.210
 3523TIP3   OH210525   6.979   0.277   1.057
 3523TIP3    H110526   6.994   0.182   1.064
 3523TIP3    H210527   6.939   0.301   1.140
 3524TIP3   OH210528   0.156   7.776   5.706
 3524TIP3    H110529   0.132   7.817   5.623
 3524TIP3    H210530   0.150   7.847   5.770
 3525TIP3   OH210531   3.925   4.515   6.597
 3525TIP3    H110532   3.929   4.604   6.562
 3525TIP3    H210533   3.888   4.463   6.526
 3526TIP3   OH210534   7.003   4.761   5.057
 3526TIP3    H110535   6.984   4.827   5.124
 3526TIP3    H210536   6.941   4.690   5.074
 3527TIP3   OH210537   5.037   5.864   0.306
 3527TIP3    H110538   4.973   5.881   0.237
 3527TIP3    H210539   5.099   5.803   0.267
 3528TIP3   OH210540   1.101   5.353   0.535
 3528TIP3    H110541   1.086   5.333   0.443
 3528TIP3    H210542   1.023   5.400   0.564
 3529TIP3   OH210543   5.057   6.034   3.268
 3529TIP3    H110544   5.001   6.108   3.292
 3529TIP3    H210545   5.086   5.998   3.352
 3530TIP3   OH210546   2.674   1.863   0.508
 3530TIP3    H110547   2.624   1.824   0.579
 3530TIP3    H210548   2.667   1.800   0.436
 3531TIP3   OH210549   1.641   6.565   1.790
 3531TIP3    H110550   1.557   6.578   1.746
 3531TIP3    H210551   1.622   6.500   1.858
 3532TIP3   OH210552   6.307   6.696   2.244
 3532TIP3    H110553   6.254   6.761   2.291
 3532TIP3    H210554   6.243   6.635   2.207
 3533TIP3   OH210555   4.689   6.131   0.541
 3533TIP3    H110556   4.700   6.098   0.631
 3533TIP3    H210557   4.703   6.225   0.548
 3534TIP3   OH210558   2.692   1.520   5.277
 3534TIP3    H110559   2.692   1.603   5.229
 3534TIP3    H210560   2.715   1.454   5.213
 3535TIP3   OH210561   6.489   1.361   0.399
 3535TIP3    H110562   6.528   1.373   0.485
 3535TIP3    H210563   6.554   1.397   0.338
 3536TIP3   OH210564   4.824   4.408   3.484
 3536TIP3    H110565   4.863   4.465   3.418
 3536TIP3    H210566   4.877   4.422   3.563
 3537TIP3   OH210567   6.077   2.717   0.757
 3537TIP3    H110568   6.034   2.799   0.735
 3537TIP3    H210569   6.142   2.740   0.823
 3538TIP3   OH210570   5.486   0.263   3.916
 3538TIP3    H110571   5.504   0.238   4.007
 3538TIP3    H210572   5.518   0.353   3.909
 3539TIP3   OH210573   3.599   3.167   0.977
 3539TIP3    H110574   3.652   3.092   0.949
 3539TIP3    H210575   3.553   3.136   1.054
 3540TIP3   OH210576   6.420   1.343   3.974
 3540TIP3    H110577   6.509   1.307   3.972
 3540TIP3    H210578   6.377   1.304   3.898
 3541TIP3   OH210579   2.302   4.947   1.037
 3541TIP3    H110580   2.367   4.879   1.056
 3541TIP3    H210581   2.332   4.987   0.955
 3542TIP3   OH210582   7.183   5.334   1.528
 3542TIP3    H110583   7.274   5.315   1.551
 3542TIP3    H210584   7.170   5.292   1.443
 3543TIP3   OH210585   8.083   3.267   5.989
 3543TIP3    H110586   8.102   3.195   5.930
 3543TIP3    H210587   8.112   3.236   6.075
 3544TIP3   OH210588   0.928   6.894   2.039
 3544TIP3    H110589   0.988   6.824   2.013
 3544TIP3    H210590   0.841   6.854   2.033
 3545TIP3   OH210591   7.783   2.579   2.114
 3545TIP3    H110592   7.743   2.540   2.192
 3545TIP3    H210593   7.726   2.652   2.092
 3546TIP3   OH210594   4.763   1.756   3.589
 3546TIP3    H110595   4.775   1.813   3.665
 3546TIP3    H210596   4.749   1.816   3.516
 3547TIP3   OH210597   7.750   6.754   2.512
 3547TIP3    H110598   7.657   6.769   2.528
 3547TIP3    H210599   7.766   6.664   2.538
 3548TIP3   OH210600   4.447   4.980   4.560
 3548TIP3    H110601   4.514   4.914   4.578
 3548TIP3    H210602   4.455   5.043   4.632
 3549TIP3   OH210603   6.614   1.743   1.112
 3549TIP3    H110604   6.566   1.782   1.040
 3549TIP3    H210605   6.555   1.678   1.149
 3550TIP3   OH210606   4.307   6.487   3.238
 3550TIP3    H110607   4.343   6.530   3.315
 3550TIP3    H210608   4.372   6.421   3.214
 3551TIP3   OH210609   1.659   6.929   3.275
 3551TIP3    H110610   1.713   6.852   3.290
 3551TIP3    H210611   1.689   6.993   3.340
 3552TIP3   OH210612   6.188   7.599   1.308
 3552TIP3    H110613   6.278   7.574   1.327
 3552TIP3    H210614   6.137   7.565   1.381
 3553TIP3   OH210615   0.517   4.637   2.039
 3553TIP3    H110616   0.483   4.717   1.998
 3553TIP3    H210617   0.439   4.590   2.068
 3554TIP3   OH210618   4.588   3.034   4.474
 3554TIP3    H110619   4.635   3.118   4.469
 3554TIP3    H210620   4.649   2.976   4.520
 3555TIP3   OH210621   0.562   4.075   1.198
 3555TIP3    H110622   0.502   4.110   1.133
 3555TIP3    H210623   0.517   4.087   1.281
 3556TIP3   OH210624   5.883   6.309   3.043
 3556TIP3    H110625   5.815   6.314   3.111
 3556TIP3    H210626   5.910   6.218   3.043
 3557TIP3   OH210627   8.247   3.181   0.719
 3557TIP3    H110628   8.340   3.202   0.722
 3557TIP3    H210629   8.241   3.108   0.657
 3558TIP3   OH210630   5.981   7.661   6.223
 3558TIP3    H110631   6.030   7.667   6.141
 3558TIP3    H210632   5.901   7.710   6.207
 3559TIP3   OH210633   7.869   5.601   6.531
 3559TIP3    H110634   7.811   5.529   6.555
 3559TIP3    H210635   7.810   5.674   6.509
 3560TIP3   OH210636   3.435   2.084   0.804
 3560TIP3    H110637   3.424   2.027   0.728
 3560TIP3    H210638   3.458   2.169   0.767
 3561TIP3   OH210639   0.321   5.590   6.421
 3561TIP3    H110640   0.238   5.564   6.462
 3561TIP3    H210641   0.359   5.652   6.482
 3562TIP3   OH210642   6.586   4.652   3.751
 3562TIP3    H110643   6.580   4.617   3.662
 3562TIP3    H210644   6.677   4.640   3.777
 3563TIP3   OH210645   2.879   0.189   2.317
 3563TIP3    H110646   2.908   0.205   2.227
 3563TIP3    H210647   2.915   0.104   2.339
 3564TIP3   OH210648   2.920   4.266   5.358
 3564TIP3    H110649   2.840   4.311   5.332
 3564TIP3    H210650   2.890   4.183   5.394
 3565TIP3   OH210651   2.155   2.872   2.786
 3565TIP3    H110652   2.107   2.868   2.869
 3565TIP3    H210653   2.199   2.787   2.780
 3566TIP3   OH210654   3.993   7.424   6.679
 3566TIP3    H110655   3.968   7.339   6.644
 3566TIP3    H210656   3.992   7.412   6.774
 3567TIP3   OH210657   2.871   6.620   6.079
 3567TIP3    H110658   2.852   6.710   6.051
 3567TIP3    H210659   2.858   6.567   6.001
 3568TIP3   OH210660   0.959   7.753   5.965
 3568TIP3    H110661   0.936   7.773   6.056
 3568TIP3    H210662   1.008   7.830   5.935
 3569TIP3   OH210663   2.397   6.270   2.646
 3569TIP3    H110664   2.381   6.223   2.564
 3569TIP3    H210665   2.396   6.363   2.620
 3570TIP3   OH210666   3.556   2.008   4.319
 3570TIP3    H110667   3.606   2.089   4.330
 3570TIP3    H210668   3.622   1.939   4.325
 3571TIP3   OH210669   0.934   1.975   0.187
 3571TIP3    H110670   0.920   1.882   0.165
 3571TIP3    H210671   0.850   2.016   0.169
 3572TIP3   OH210672   1.292   0.773   1.600
 3572TIP3    H110673   1.210   0.814   1.569
 3572TIP3    H210674   1.265   0.720   1.674
 3573TIP3   OH210675   1.800   5.976   1.299
 3573TIP3    H110676   1.708   5.989   1.323
 3573TIP3    H210677   1.826   6.059   1.260
 3574TIP3   OH210678   7.870   0.410   1.504
 3574TIP3    H110679   7.892   0.344   1.570
 3574TIP3    H210680   7.798   0.459   1.542
 3575TIP3   OH210681   6.589   5.833   3.245
 3575TIP3    H110682   6.614   5.742   3.261
 3575TIP3    H210683   6.672   5.880   3.239
 3576TIP3   OH210684   3.317   1.671   3.430
 3576TIP3    H110685   3.337   1.763   3.411
 3576TIP3    H210686   3.289   1.635   3.346
 3577TIP3   OH210687   2.786   3.256   3.293
 3577TIP3    H110688   2.745   3.182   3.249
 3577TIP3    H210689   2.868   3.222   3.327
 3578TIP3   OH210690   1.712   3.956   1.667
 3578TIP3    H110691   1.645   3.988   1.727
 3578TIP3    H210692   1.715   3.862   1.682
 3579TIP3   OH210693   4.250   3.988   2.138
 3579TIP3    H110694   4.292   3.994   2.224
 3579TIP3    H210695   4.303   3.924   2.090
 3580TIP3   OH210696   1.727   0.210   0.952
 3580TIP3    H110697   1.802   0.222   0.894
 3580TIP3    H210698   1.675   0.142   0.910
 3581TIP3   OH210699   1.043   1.687   0.079
 3581TIP3    H110700   1.080   1.643   0.156
 3581TIP3    H210701   1.119   1.716   0.029
 3582TIP3   OH210702   6.537   2.078   5.859
 3582TIP3    H110703   6.612   2.119   5.902
 3582TIP3    H210704   6.510   2.008   5.919
 3583TIP3   OH210705   7.344   7.316   1.018
 3583TIP3    H110706   7.370   7.256   0.947
 3583TIP3    H210707   7.284   7.377   0.975
 3584TIP3   OH210708   0.831   7.124   4.699
 3584TIP3    H110709   0.897   7.173   4.748
 3584TIP3    H210710   0.800   7.185   4.632
 3585TIP3   OH210711   2.663   0.776   3.828
 3585TIP3    H110712   2.670   0.810   3.738
 3585TIP3    H210713   2.754   0.756   3.852
 3586TIP3   OH210714   0.451   2.690   6.260
 3586TIP3    H110715   0.535   2.723   6.289
 3586TIP3    H210716   0.433   2.615   6.317
 3587TIP3   OH210717   5.796   5.050   3.533
 3587TIP3    H110718   5.703   5.059   3.555
 3587TIP3    H210719   5.836   5.131   3.566
 3588TIP3   OH210720   7.611   1.066   3.589
 3588TIP3    H110721   7.577   1.074   3.500
 3588TIP3    H210722   7.638   0.974   3.595
 3589TIP3   OH210723   0.181   2.230   1.479
 3589TIP3    H110724   0.193   2.223   1.384
 3589TIP3    H210725   0.268   2.252   1.513
 3590TIP3   OH210726   7.578   2.002   3.749
 3590TIP3    H110727   7.552   1.937   3.814
 3590TIP3    H210728   7.533   1.975   3.669
 3591TIP3   OH210729   7.267   7.510   6.084
 3591TIP3    H110730   7.265   7.451   6.009
 3591TIP3    H210731   7.354   7.498   6.123
 3592TIP3   OH210732   4.350   5.329   0.307
 3592TIP3    H110733   4.334   5.235   0.299
 3592TIP3    H210734   4.328   5.365   0.221
 3593TIP3   OH210735   1.348   5.509   5.591
 3593TIP3    H110736   1.281   5.454   5.550
 3593TIP3    H210737   1.319   5.598   5.577
 3594TIP3   OH210738   4.869   5.847   1.793
 3594TIP3    H110739   4.774   5.848   1.785
 3594TIP3    H210740   4.894   5.939   1.798
 3595TIP3   OH210741   4.170   7.011   5.586
 3595TIP3    H110742   4.194   6.919   5.575
 3595TIP3    H210743   4.245   7.060   5.553
 3596TIP3   OH210744   7.329   4.145   4.554
 3596TIP3    H110745   7.347   4.088   4.478
 3596TIP3    H210746   7.415   4.174   4.583
 3597TIP3   OH210747   7.254   2.701   2.996
 3597TIP3    H110748   7.200   2.632   2.957
 3597TIP3    H210749   7.206   2.728   3.074
 3598TIP3   OH210750   3.619   1.092   2.287
 3598TIP3    H110751   3.532   1.064   2.261
 3598TIP3    H210752   3.621   1.186   2.268
 3599TIP3   OH210753   6.685   1.004   4.661
 3599TIP3    H110754   6.719   0.934   4.606
 3599TIP3    H210755   6.593   0.982   4.673
 3600TIP3   OH210756   3.831   3.282   1.423
 3600TIP3    H110757   3.806   3.199   1.464
 3600TIP3    H210758   3.850   3.258   1.332
 3601TIP3   OH210759   0.642   2.569   5.240
 3601TIP3    H110760   0.610   2.655   5.266
 3601TIP3    H210761   0.572   2.509   5.268
 3602TIP3   OH210762   1.860   2.768   5.491
 3602TIP3    H110763   1.881   2.857   5.461
 3602TIP3    H210764   1.798   2.781   5.562
 3603TIP3   OH210765   7.074   1.743   4.257
 3603TIP3    H110766   6.982   1.724   4.239
 3603TIP3    H210767   7.118   1.730   4.173
 3604TIP3   OH210768   2.478   7.641   6.466
 3604TIP3    H110769   2.557   7.640   6.412
 3604TIP3    H210770   2.426   7.712   6.431
 3605TIP3   OH210771   5.612   7.787   5.662
 3605TIP3    H110772   5.566   7.778   5.579
 3605TIP3    H210773   5.547   7.767   5.728
 3606TIP3   OH210774   8.177   1.486   1.610
 3606TIP3    H110775   8.115   1.557   1.592
 3606TIP3    H210776   8.201   1.498   1.702
 3607TIP3   OH210777   7.945   7.253   6.615
 3607TIP3    H110778   7.875   7.301   6.569
 3607TIP3    H210779   7.908   7.167   6.632
 3608TIP3   OH210780   0.591   6.260   3.859
 3608TIP3    H110781   0.582   6.180   3.911
 3608TIP3    H210782   0.525   6.250   3.790
 3609TIP3   OH210783   8.178   0.012   3.322
 3609TIP3    H110784   8.129   0.015   3.404
 3609TIP3    H210785   8.161   0.096   3.280
 3610TIP3   OH210786   1.886   4.329   1.334
 3610TIP3    H110787   1.888   4.287   1.419
 3610TIP3    H210788   1.843   4.413   1.349
 3611TIP3   OH210789   0.746   6.556   5.064
 3611TIP3    H110790   0.821   6.616   5.068
 3611TIP3    H210791   0.691   6.581   5.138
 3612TIP3   OH210792   6.229   1.893   1.563
 3612TIP3    H110793   6.237   1.882   1.468
 3612TIP3    H210794   6.139   1.922   1.577
 3613TIP3   OH210795   6.931   1.442   6.435
 3613TIP3    H110796   6.977   1.407   6.359
 3613TIP3    H210797   6.849   1.476   6.401
 3614TIP3   OH210798   7.895   0.020   4.815
 3614TIP3    H110799   7.825   0.082   4.833
 3614TIP3    H210800   7.864  -0.029   4.738
 3615TIP3   OH210801   6.353   5.968   5.138
 3615TIP3    H110802   6.432   5.943   5.090
 3615TIP3    H210803   6.298   5.890   5.135
 3616TIP3   OH210804   1.523   4.194   2.148
 3616TIP3    H110805   1.593   4.259   2.152
 3616TIP3    H210806   1.480   4.209   2.064
 3617TIP3   OH210807   5.372   2.085   2.470
 3617TIP3    H110808   5.400   2.000   2.436
 3617TIP3    H210809   5.277   2.085   2.461
 3618TIP3   OH210810   1.361   3.847   4.706
 3618TIP3    H110811   1.270   3.873   4.717
 3618TIP3    H210812   1.378   3.857   4.612
 3619TIP3   OH210813   5.926   4.115   4.577
 3619TIP3    H110814   5.851   4.172   4.597
 3619TIP3    H210815   5.991   4.175   4.540
 3620TIP3   OH210816   1.640   3.449   3.880
 3620TIP3    H110817   1.621   3.543   3.886
 3620TIP3    H210818   1.712   3.443   3.817
 3621TIP3   OH210819   5.784   1.744   0.546
 3621TIP3    H110820   5.879   1.729   0.540
 3621TIP3    H210821   5.760   1.715   0.634
 3622TIP3   OH210822   8.065   2.709   0.905
 3622TIP3    H110823   8.078   2.634   0.964
 3622TIP3    H210824   8.028   2.777   0.961
 3623TIP3   OH210825   6.175   3.948   0.855
 3623TIP3    H110826   6.191   4.038   0.884
 3623TIP3    H210827   6.126   3.908   0.927
 3624TIP3   OH210828   3.117   6.907   2.269
 3624TIP3    H110829   3.128   6.853   2.347
 3624TIP3    H210830   3.168   6.863   2.201
 3625TIP3   OH210831   1.810   3.705   4.483
 3625TIP3    H110832   1.901   3.683   4.500
 3625TIP3    H210833   1.810   3.745   4.396
 3626TIP3   OH210834   0.595   1.606   2.569
 3626TIP3    H110835   0.647   1.667   2.517
 3626TIP3    H210836   0.581   1.531   2.511
 3627TIP3   OH210837   7.670   1.040   6.484
 3627TIP3    H110838   7.583   1.011   6.456
 3627TIP3    H210839   7.731   0.985   6.436
 3628TIP3   OH210840   1.392   1.308   4.384
 3628TIP3    H110841   1.409   1.234   4.442
 3628TIP3    H210842   1.350   1.268   4.307
 3629TIP3   OH210843   5.456   5.115   1.160
 3629TIP3    H110844   5.366   5.138   1.183
 3629TIP3    H210845   5.504   5.126   1.242
 3630TIP3   OH210846   3.771   0.546   1.670
 3630TIP3    H110847   3.760   0.515   1.760
 3630TIP3    H210848   3.865   0.539   1.654
 3631TIP3   OH210849   0.108   3.358   1.311
 3631TIP3    H110850   0.019   3.326   1.322
 3631TIP3    H210851   0.137   3.380   1.400
 3632TIP3   OH210852   5.369   5.366   0.408
 3632TIP3    H110853   5.320   5.439   0.446
 3632TIP3    H210854   5.445   5.357   0.466
 3633TIP3   OH210855   3.712   3.298   3.569
 3633TIP3    H110856   3.747   3.210   3.551
 3633TIP3    H210857   3.618   3.286   3.574
 3634TIP3   OH210858   1.112   1.710   6.507
 3634TIP3    H110859   1.051   1.638   6.527
 3634TIP3    H210860   1.195   1.666   6.488
 3635TIP3   OH210861   1.476   1.384   5.043
 3635TIP3    H110862   1.488   1.374   5.137
 3635TIP3    H210863   1.382   1.397   5.032
 3636TIP3   OH210864   8.076   7.599   2.726
 3636TIP3    H110865   8.137   7.539   2.683
 3636TIP3    H210866   7.994   7.551   2.733
 3637TIP3   OH210867   0.599   0.393   3.434
 3637TIP3    H110868   0.668   0.335   3.401
 3637TIP3    H210869   0.590   0.369   3.526
 3638TIP3   OH210870   1.840   5.099   2.796
 3638TIP3    H110871   1.856   5.035   2.726
 3638TIP3    H210872   1.916   5.092   2.853
 3639TIP3   OH210873   1.962   2.788   1.896
 3639TIP3    H110874   1.946   2.785   1.802
 3639TIP3    H210875   2.053   2.761   1.906
 3640TIP3   OH210876   6.228   7.362   3.590
 3640TIP3    H110877   6.244   7.323   3.676
 3640TIP3    H210878   6.215   7.455   3.608
 3641TIP3   OH210879   1.036   7.691   5.057
 3641TIP3    H110880   1.067   7.735   5.136
 3641TIP3    H210881   1.094   7.722   4.987
 3642TIP3   OH210882   7.269   2.444   5.446
 3642TIP3    H110883   7.362   2.430   5.462
 3642TIP3    H210884   7.236   2.359   5.420
 3643TIP3   OH210885   8.054   5.293   3.370
 3643TIP3    H110886   7.958   5.297   3.369
 3643TIP3    H210887   8.080   5.310   3.280
 3644TIP3   OH210888   2.111   0.999   0.477
 3644TIP3    H110889   2.150   0.918   0.510
 3644TIP3    H210890   2.137   1.066   0.540
 3645TIP3   OH210891   4.618   4.482   4.711
 3645TIP3    H110892   4.684   4.419   4.742
 3645TIP3    H210893   4.537   4.433   4.708
 3646TIP3   OH210894   1.867   4.286   6.651
 3646TIP3    H110895   1.810   4.321   6.584
 3646TIP3    H210896   1.953   4.322   6.631
 3647TIP3   OH210897   0.849   0.322   1.832
 3647TIP3    H110898   0.819   0.324   1.741
 3647TIP3    H210899   0.911   0.250   1.835
 3648TIP3   OH210900   5.451   5.635   2.766
 3648TIP3    H110901   5.460   5.724   2.733
 3648TIP3    H210902   5.539   5.597   2.759
 3649TIP3   OH210903   6.024   2.218   3.373
 3649TIP3    H110904   6.057   2.137   3.412
 3649TIP3    H210905   6.091   2.243   3.310
 3650TIP3   OH210906   1.512   4.103   5.950
 3650TIP3    H110907   1.424   4.092   5.988
 3650TIP3    H210908   1.517   4.196   5.928
 3651TIP3   OH210909   6.072   1.398   1.454
 3651TIP3    H110910   6.155   1.421   1.495
 3651TIP3    H210911   6.060   1.305   1.473
 3652TIP3   OH210912   2.211   3.758   3.327
 3652TIP3    H110913   2.252   3.706   3.257
 3652TIP3    H210914   2.282   3.778   3.387
 3653TIP3   OH210915   6.632   0.219   6.698
 3653TIP3    H110916   6.655   0.168   6.620
 3653TIP3    H210917   6.542   0.247   6.684
 3654TIP3   OH210918   5.076   5.768   6.628
 3654TIP3    H110919   4.990   5.762   6.670
 3654TIP3    H210920   5.134   5.799   6.698
 3655TIP3   OH210921   1.725   6.581   2.933
 3655TIP3    H110922   1.770   6.582   2.848
 3655TIP3    H210923   1.654   6.645   2.923
 3656TIP3   OH210924   3.035   5.566   6.146
 3656TIP3    H110925   3.003   5.654   6.126
 3656TIP3    H210926   3.043   5.565   6.242
 3657TIP3   OH210927   6.217   0.872   4.413
 3657TIP3    H110928   6.149   0.930   4.378
 3657TIP3    H210929   6.279   0.931   4.455
 3658TIP3   OH210930   6.359   2.087   0.249
 3658TIP3    H110931   6.393   2.021   0.188
 3658TIP3    H210932   6.281   2.121   0.207
 3659TIP3   OH210933   2.347   2.162   4.195
 3659TIP3    H110934   2.439   2.175   4.170
 3659TIP3    H210935   2.302   2.147   4.112
 3660TIP3   OH210936   2.067   6.384   1.133
 3660TIP3    H110937   2.150   6.364   1.175
 3660TIP3    H210938   2.086   6.378   1.039
 3661TIP3   OH210939   2.015   7.600   4.746
 3661TIP3    H110940   2.051   7.542   4.813
 3661TIP3    H210941   2.065   7.579   4.667
 3662TIP3   OH210942   1.934   7.509   1.075
 3662TIP3    H110943   2.003   7.509   1.009
 3662TIP3    H210944   1.907   7.600   1.083
 3663TIP3   OH210945   5.407   7.012   0.683
 3663TIP3    H110946   5.371   6.967   0.606
 3663TIP3    H210947   5.501   6.994   0.678
 3664TIP3   OH210948   0.080   1.976   0.209
 3664TIP3    H110949   0.085   1.974   0.304
 3664TIP3    H210950   0.095   1.886   0.182
 3665TIP3   OH210951   8.012   1.362   4.784
 3665TIP3    H110952   7.989   1.407   4.702
 3665TIP3    H210953   8.019   1.433   4.849
 3666TIP3   OH210954   0.816   6.901   1.636
 3666TIP3    H110955   0.788   6.990   1.660
 3666TIP3    H210956   0.892   6.885   1.691
 3667TIP3   OH210957   4.716   3.926   4.810
 3667TIP3    H110958   4.747   3.840   4.784
 3667TIP3    H210959   4.641   3.909   4.866
 3668TIP3   OH210960   7.264   0.513   3.637
 3668TIP3    H110961   7.199   0.445   3.656
 3668TIP3    H210962   7.347   0.466   3.635
 3669TIP3   OH210963   6.968   5.286   4.230
 3669TIP3    H110964   6.888   5.296   4.281
 3669TIP3    H210965   6.946   5.221   4.164
 3670TIP3   OH210966   3.696   6.692   0.865
 3670TIP3    H110967   3.770   6.632   0.856
 3670TIP3    H210968   3.641   6.674   0.789
 3671TIP3   OH210969   8.096   4.041   0.147
 3671TIP3    H110970   8.073   3.973   0.084
 3671TIP3    H210971   8.012   4.079   0.172
 3672TIP3   OH210972   1.283   1.950   4.975
 3672TIP3    H110973   1.342   2.012   5.019
 3672TIP3    H210974   1.318   1.864   4.997
 3673TIP3   OH210975   5.935   4.750   1.043
 3673TIP3    H110976   5.890   4.830   1.018
 3673TIP3    H210977   5.986   4.773   1.120
 3674TIP3   OH210978   7.604   1.108   5.612
 3674TIP3    H110979   7.696   1.085   5.596
 3674TIP3    H210980   7.608   1.186   5.667
 3675TIP3   OH210981   3.001   1.677   0.850
 3675TIP3    H110982   3.010   1.599   0.796
 3675TIP3    H210983   3.049   1.745   0.802
 3676TIP3   OH210984   6.205   1.519   0.668
 3676TIP3    H110985   6.253   1.590   0.712
 3676TIP3    H210986   6.166   1.469   0.739
 3677TIP3   OH210987   6.078   3.344   0.959
 3677TIP3    H110988   6.020   3.386   0.895
 3677TIP3    H210989   6.040   3.366   1.044
 3678TIP3   OH210990   2.986   6.352   1.053
 3678TIP3    H110991   2.926   6.376   0.983
 3678TIP3    H210992   3.064   6.406   1.036
 3679TIP3   OH210993   6.452   3.507   3.924
 3679TIP3    H110994   6.537   3.496   3.966
 3679TIP3    H210995   6.424   3.596   3.947
 3680TIP3   OH210996   6.915   2.878   3.022
 3680TIP3    H110997   6.827   2.885   2.985
 3680TIP3    H210998   6.933   2.966   3.055
 3681TIP3   OH210999   0.883   3.529   4.584
 3681TIP3    H111000   0.833   3.590   4.528
 3681TIP3    H211001   0.932   3.475   4.522
 3682TIP3   OH211002   5.159   6.592   2.295
 3682TIP3    H111003   5.077   6.576   2.247
 3682TIP3    H211004   5.185   6.506   2.328
 3683TIP3   OH211005   7.748   4.196   0.956
 3683TIP3    H111006   7.737   4.255   0.881
 3683TIP3    H211007   7.755   4.109   0.916
 3684TIP3   OH211008   2.077   5.655   3.104
 3684TIP3    H111009   2.077   5.627   3.195
 3684TIP3    H211010   1.985   5.670   3.083
 3685TIP3   OH211011   0.051   5.588   5.009
 3685TIP3    H111012   0.137   5.566   5.045
 3685TIP3    H211013   0.069   5.637   4.929
 3686TIP3   OH211014   2.725   3.543   3.845
 3686TIP3    H111015   2.651   3.601   3.825
 3686TIP3    H211016   2.787   3.599   3.893
 3687TIP3   OH211017   3.135   2.187   4.313
 3687TIP3    H111018   3.079   2.251   4.268
 3687TIP3    H211019   3.220   2.194   4.270
 3688TIP3   OH211020   0.664   0.911   5.097
 3688TIP3    H111021   0.672   0.826   5.141
 3688TIP3    H211022   0.580   0.945   5.127
 3689TIP3   OH211023   7.931   6.820   5.716
 3689TIP3    H111024   7.857   6.848   5.770
 3689TIP3    H211025   7.893   6.756   5.655
 3690TIP3   OH211026   4.813   4.203   1.478
 3690TIP3    H111027   4.798   4.144   1.404
 3690TIP3    H211028   4.736   4.260   1.479
 3691TIP3   OH211029   6.937   4.327   1.834
 3691TIP3    H111030   6.896   4.269   1.898
 3691TIP3    H211031   7.000   4.272   1.788
 3692TIP3   OH211032   4.905   1.694   1.487
 3692TIP3    H111033   4.940   1.664   1.571
 3692TIP3    H211034   4.845   1.625   1.459
 3693TIP3   OH211035   3.958   4.096   4.701
 3693TIP3    H111036   3.878   4.146   4.686
 3693TIP3    H211037   3.956   4.028   4.633
 3694TIP3   OH211038   0.229   2.393   2.793
 3694TIP3    H111039   0.182   2.429   2.869
 3694TIP3    H211040   0.321   2.396   2.817
 3695TIP3   OH211041   7.376   3.674   0.982
 3695TIP3    H111042   7.456   3.642   1.024
 3695TIP3    H211043   7.306   3.640   1.038
 3696TIP3   OH211044   7.924   7.026   0.688
 3696TIP3    H111045   7.963   7.087   0.751
 3696TIP3    H211046   7.840   7.003   0.727
 3697TIP3   OH211047   6.975   2.517   4.991
 3697TIP3    H111048   6.953   2.599   5.036
 3697TIP3    H211049   6.898   2.498   4.937
 3698TIP3   OH211050   6.166   3.570   0.050
 3698TIP3    H111051   6.232   3.528  -0.005
 3698TIP3    H211052   6.089   3.514   0.043
 3699TIP3   OH211053   7.100   4.516   4.252
 3699TIP3    H111054   7.120   4.482   4.339
 3699TIP3    H211055   7.184   4.545   4.218
 3700TIP3   OH211056   1.575   5.852   3.276
 3700TIP3    H111057   1.579   5.866   3.370
 3700TIP3    H211058   1.665   5.863   3.246
 3701TIP3   OH211059   1.122   3.017   4.204
 3701TIP3    H111060   1.184   3.052   4.269
 3701TIP3    H211061   1.173   2.952   4.155
 3702TIP3   OH211062   7.009   2.216   4.882
 3702TIP3    H111063   7.023   2.147   4.947
 3702TIP3    H211064   7.076   2.282   4.903
 3703TIP3   OH211065   3.281   7.389   1.530
 3703TIP3    H111066   3.188   7.390   1.549
 3703TIP3    H211067   3.287   7.386   1.435
 3704TIP3   OH211068   6.936   4.419   6.794
 3704TIP3    H111069   6.850   4.376   6.795
 3704TIP3    H211070   6.936   4.472   6.715
 3705TIP3   OH211071   1.723   2.827   5.177
 3705TIP3    H111072   1.713   2.878   5.097
 3705TIP3    H211073   1.669   2.873   5.241
 3706TIP3   OH211074   2.859   5.632   0.639
 3706TIP3    H111075   2.815   5.706   0.596
 3706TIP3    H211076   2.893   5.579   0.567
 3707TIP3   OH211077   0.670   7.036   3.729
 3707TIP3    H111078   0.585   6.993   3.740
 3707TIP3    H211079   0.721   7.006   3.804
 3708TIP3   OH211080   0.675   1.408   4.248
 3708TIP3    H111081   0.590   1.415   4.293
 3708TIP3    H211082   0.662   1.452   4.165
 3709TIP3   OH211083   5.928   1.647   5.499
 3709TIP3    H111084   5.987   1.703   5.448
 3709TIP3    H211085   5.953   1.664   5.590
 3710TIP3   OH211086   2.880   2.914   5.942
 3710TIP3    H111087   2.795   2.957   5.938
 3710TIP3    H211088   2.863   2.823   5.917
 3711TIP3   OH211089   5.965   4.806   5.537
 3711TIP3    H111090   5.995   4.810   5.446
 3711TIP3    H211091   6.003   4.884   5.578
 3712TIP3   OH211092   2.818   6.350   4.574
 3712TIP3    H111093   2.740   6.381   4.529
 3712TIP3    H211094   2.785   6.306   4.653
 3713TIP3   OH211095   5.943   4.291   6.470
 3713TIP3    H111096   5.917   4.260   6.383
 3713TIP3    H211097   5.864   4.334   6.505
 3714TIP3   OH211098   2.360   7.492   0.401
 3714TIP3    H111099   2.279   7.444   0.384
 3714TIP3    H211100   2.407   7.490   0.318
 3715TIP3   OH211101   5.195   2.573   6.471
 3715TIP3    H111102   5.133   2.539   6.408
 3715TIP3    H211103   5.145   2.581   6.553
 3716TIP3   OH211104   7.683   1.539   4.409
 3716TIP3    H111105   7.771   1.574   4.421
 3716TIP3    H211106   7.625   1.606   4.445
 3717TIP3   OH211107   2.731   6.947   0.013
 3717TIP3    H111108   2.724   6.998   0.094
 3717TIP3    H211109   2.824   6.950  -0.010
 3718TIP3   OH211110   5.342   7.785   2.171
 3718TIP3    H111111   5.279   7.848   2.137
 3718TIP3    H211112   5.373   7.823   2.253
 3719TIP3   OH211113   8.169   1.626   6.679
 3719TIP3    H111114   8.205   1.586   6.757
 3719TIP3    H211115   8.236   1.613   6.612
 3720TIP3   OH211116   0.581   6.123   0.954
 3720TIP3    H111117   0.508   6.096   0.898
 3720TIP3    H211118   0.550   6.203   0.996
 3721TIP3   OH211119   8.223   4.363   4.451
 3721TIP3    H111120   8.306   4.342   4.494
 3721TIP3    H211121   8.248   4.392   4.363
 3722TIP3   OH211122   4.180   3.329   5.394
 3722TIP3    H111123   4.154   3.403   5.340
 3722TIP3    H211124   4.110   3.265   5.383
 3723TIP3   OH211125   1.282   7.304   3.223
 3723TIP3    H111126   1.202   7.317   3.275
 3723TIP3    H211127   1.296   7.209   3.223
 3724TIP3   OH211128   0.226   5.116   1.081
 3724TIP3    H111129   0.304   5.140   1.032
 3724TIP3    H211130   0.176   5.197   1.088
 3725TIP3   OH211131   0.915   3.874   1.005
 3725TIP3    H111132   0.936   3.937   0.936
 3725TIP3    H211133   0.975   3.801   0.991
 3726TIP3   OH211134   7.257   4.566   6.704
 3726TIP3    H111135   7.296   4.598   6.785
 3726TIP3    H211136   7.177   4.618   6.694
 3727TIP3   OH211137   6.567   0.527   5.518
 3727TIP3    H111138   6.571   0.601   5.578
 3727TIP3    H211139   6.474   0.516   5.499
 3728TIP3   OH211140   1.994   3.510   3.681
 3728TIP3    H111141   1.944   3.429   3.697
 3728TIP3    H211142   2.036   3.495   3.596
 3729TIP3   OH211143   0.620   0.383   3.714
 3729TIP3    H111144   0.595   0.400   3.805
 3729TIP3    H211145   0.709   0.348   3.720
 3730TIP3   OH211146   2.079   1.333   3.874
 3730TIP3    H111147   1.984   1.330   3.890
 3730TIP3    H211148   2.108   1.243   3.886
 3731TIP3   OH211149   7.730   2.179   2.532
 3731TIP3    H111150   7.790   2.111   2.563
 3731TIP3    H211151   7.750   2.255   2.585
 3732TIP3   OH211152   1.715   3.225   4.890
 3732TIP3    H111153   1.634   3.208   4.843
 3732TIP3    H211154   1.757   3.140   4.898
 3733TIP3   OH211155   4.316   6.639   4.784
 3733TIP3    H111156   4.329   6.724   4.826
 3733TIP3    H211157   4.399   6.621   4.740
 3734TIP3   OH211158   8.100   0.201   4.896
 3734TIP3    H111159   8.036   0.142   4.856
 3734TIP3    H211160   8.180   0.188   4.846
 3735TIP3   OH211161   7.288   6.434   3.177
 3735TIP3    H111162   7.309   6.412   3.086
 3735TIP3    H211163   7.354   6.499   3.201
 3736TIP3   OH211164   0.065   3.863   5.848
 3736TIP3    H111165   0.091   3.952   5.826
 3736TIP3    H211166   0.138   3.829   5.900
 3737TIP3   OH211167   0.689   5.627   6.212
 3737TIP3    H111168   0.713   5.602   6.122
 3737TIP3    H211169   0.659   5.717   6.204
 3738TIP3   OH211170   4.703   2.116   0.444
 3738TIP3    H111171   4.704   2.195   0.390
 3738TIP3    H211172   4.678   2.046   0.384
 3739TIP3   OH211173   1.098   7.319   2.933
 3739TIP3    H111174   1.149   7.240   2.915
 3739TIP3    H211175   1.007   7.289   2.934
 3740TIP3   OH211176   7.423   1.592   2.479
 3740TIP3    H111177   7.341   1.555   2.512
 3740TIP3    H211178   7.442   1.665   2.537
 3741TIP3   OH211179   4.092   3.033   5.856
 3741TIP3    H111180   4.069   2.950   5.897
 3741TIP3    H211181   4.027   3.044   5.786
 3742TIP3   OH211182   0.643   0.679   0.464
 3742TIP3    H111183   0.702   0.678   0.389
 3742TIP3    H211184   0.612   0.589   0.471
 3743TIP3   OH211185   2.984   0.408   0.248
 3743TIP3    H111186   2.908   0.463   0.264
 3743TIP3    H211187   2.988   0.400   0.152
 3744TIP3   OH211188   0.234   3.699   1.946
 3744TIP3    H111189   0.179   3.626   1.974
 3744TIP3    H211190   0.243   3.688   1.852
 3745TIP3   OH211191   4.409   7.143   1.567
 3745TIP3    H111192   4.418   7.093   1.648
 3745TIP3    H211193   4.345   7.094   1.516
 3746TIP3   OH211194   3.681   7.305   5.061
 3746TIP3    H111195   3.639   7.229   5.021
 3746TIP3    H211196   3.648   7.306   5.151
 3747TIP3   OH211197   3.308   3.927   4.925
 3747TIP3    H111198   3.322   4.014   4.962
 3747TIP3    H211199   3.274   3.944   4.837
 3748TIP3   OH211200   0.898   7.833   1.355
 3748TIP3    H111201   0.815   7.799   1.322
 3748TIP3    H211202   0.958   7.760   1.349
 3749TIP3   OH211203   0.980   4.075   0.843
 3749TIP3    H111204   0.948   4.084   0.753
 3749TIP3    H211205   0.905   4.099   0.898
 3750TIP3   OH211206   8.221   6.307   1.542
 3750TIP3    H111207   8.237   6.290   1.449
 3750TIP3    H211208   8.213   6.402   1.547
 3751TIP3   OH211209   7.927   2.393   2.909
 3751TIP3    H111210   7.970   2.425   2.989
 3751TIP3    H211211   7.845   2.354   2.939
 3752TIP3   OH211212   6.688   6.120   3.404
 3752TIP3    H111213   6.715   6.116   3.312
 3752TIP3    H211214   6.671   6.213   3.419
 3753TIP3   OH211215   4.351   6.389   0.046
 3753TIP3    H111216   4.260   6.404   0.022
 3753TIP3    H211217   4.351   6.302   0.086
 3754TIP3   OH211218   1.856   4.123   2.970
 3754TIP3    H111219   1.851   4.123   2.874
 3754TIP3    H211220   1.912   4.198   2.991
 3755TIP3   OH211221   7.446   0.708   2.475
 3755TIP3    H111222   7.500   0.630   2.466
 3755TIP3    H211223   7.502   0.772   2.519
 3756TIP3   OH211224   4.578   3.858   1.819
 3756TIP3    H111225   4.546   3.900   1.739
 3756TIP3    H211226   4.580   3.927   1.884
 3757TIP3   OH211227   7.839   6.247   0.887
 3757TIP3    H111228   7.789   6.226   0.966
 3757TIP3    H211229   7.874   6.163   0.857
 3758TIP3   OH211230   8.189   6.386   2.334
 3758TIP3    H111231   8.200   6.338   2.252
 3758TIP3    H211232   8.239   6.467   2.322
 3759TIP3   OH211233   7.588   6.916   6.403
 3759TIP3    H111234   7.544   6.942   6.484
 3759TIP3    H211235   7.605   6.999   6.358
 3760TIP3   OH211236   7.034   4.374   2.321
 3760TIP3    H111237   6.964   4.369   2.385
 3760TIP3    H211238   7.092   4.442   2.354
 3761TIP3   OH211239   2.836   2.279   3.833
 3761TIP3    H111240   2.841   2.209   3.898
 3761TIP3    H211241   2.909   2.263   3.774
 3762TIP3   OH211242   7.819   1.187   5.246
 3762TIP3    H111243   7.877   1.262   5.252
 3762TIP3    H211244   7.746   1.217   5.192
 3763TIP3   OH211245   6.734   3.585   6.628
 3763TIP3    H111246   6.691   3.622   6.550
 3763TIP3    H211247   6.716   3.648   6.697
 3764TIP3   OH211248   5.049   1.519   1.283
 3764TIP3    H111249   4.992   1.461   1.333
 3764TIP3    H211250   5.006   1.604   1.285
 3765TIP3   OH211251   3.904   7.247   4.243
 3765TIP3    H111252   3.988   7.206   4.262
 3765TIP3    H211253   3.840   7.195   4.290
 3766TIP3   OH211254   8.224   3.535   1.565
 3766TIP3    H111255   8.312   3.550   1.531
 3766TIP3    H211256   8.174   3.611   1.536
 3767TIP3   OH211257   6.330   0.520   3.510
 3767TIP3    H111258   6.259   0.517   3.445
 3767TIP3    H211259   6.307   0.452   3.573
 3768TIP3   OH211260   5.556   2.220   1.324
 3768TIP3    H111261   5.553   2.131   1.290
 3768TIP3    H211262   5.497   2.219   1.400
 3769TIP3   OH211263   7.314   1.933   4.034
 3769TIP3    H111264   7.270   1.848   4.035
 3769TIP3    H211265   7.265   1.985   3.971
 3770TIP3   OH211266   1.988   1.865   4.004
 3770TIP3    H111267   1.981   1.957   4.028
 3770TIP3    H211268   2.025   1.866   3.915
 3771TIP3   OH211269   5.825   0.937   4.261
 3771TIP3    H111270   5.756   1.003   4.257
 3771TIP3    H211271   5.794   0.874   4.326
 3772TIP3   OH211272   1.889   1.881   2.809
 3772TIP3    H111273   1.808   1.849   2.849
 3772TIP3    H211274   1.909   1.819   2.740
 3773TIP3   OH211275   1.346   5.633   5.286
 3773TIP3    H111276   1.338   5.684   5.367
 3773TIP3    H211277   1.256   5.622   5.256
 3774TIP3   OH211278   3.047   1.907   6.334
 3774TIP3    H111279   3.108   1.867   6.396
 3774TIP3    H211280   2.961   1.870   6.357
 3775TIP3   OH211281   0.982   5.936   2.202
 3775TIP3    H111282   0.944   5.890   2.277
 3775TIP3    H211283   0.906   5.961   2.148
 3776TIP3   OH211284   4.388   0.882   5.571
 3776TIP3    H111285   4.371   0.867   5.478
 3776TIP3    H211286   4.301   0.892   5.610
 3777TIP3   OH211287   8.005   5.316   1.539
 3777TIP3    H111288   7.929   5.339   1.486
 3777TIP3    H211289   7.981   5.343   1.628
 3778TIP3   OH211290   6.084   6.702   0.387
 3778TIP3    H111291   6.022   6.749   0.331
 3778TIP3    H211292   6.108   6.625   0.336
 3779TIP3   OH211293   4.583   6.203   2.577
 3779TIP3    H111294   4.511   6.262   2.552
 3779TIP3    H211295   4.661   6.246   2.543
 3780TIP3   OH211296   0.460   1.826   4.676
 3780TIP3    H111297   0.432   1.745   4.719
 3780TIP3    H211298   0.454   1.893   4.744
 3781TIP3   OH211299   1.582   3.786   3.659
 3781TIP3    H111300   1.489   3.807   3.656
 3781TIP3    H211301   1.591   3.708   3.603
 3782TIP3   OH211302   3.603   1.289   4.917
 3782TIP3    H111303   3.630   1.262   4.829
 3782TIP3    H211304   3.675   1.263   4.974
 3783TIP3   OH211305   2.415   1.866   6.038
 3783TIP3    H111306   2.461   1.782   6.034
 3783TIP3    H211307   2.482   1.930   6.061
 3784TIP3   OH211308   0.953   0.806   5.820
 3784TIP3    H111309   1.018   0.737   5.835
 3784TIP3    H211310   0.912   0.819   5.905
 3785TIP3   OH211311   6.214   1.350   0.458
 3785TIP3    H111312   6.225   1.388   0.544
 3785TIP3    H211313   6.293   1.374   0.410
 3786TIP3   OH211314   0.370   1.400   5.980
 3786TIP3    H111315   0.372   1.407   5.885
 3786TIP3    H211316   0.440   1.458   6.011
 3787TIP3   OH211317   3.702   7.616   0.987
 3787TIP3    H111318   3.727   7.529   0.956
 3787TIP3    H211319   3.776   7.646   1.039
 3788TIP3   OH211320   7.396   3.039   6.562
 3788TIP3    H111321   7.413   3.132   6.576
 3788TIP3    H211322   7.354   3.034   6.476
 3789TIP3   OH211323   1.749   6.801   1.907
 3789TIP3    H111324   1.689   6.726   1.901
 3789TIP3    H211325   1.808   6.790   1.832
 3790TIP3   OH211326   5.592   0.247   0.708
 3790TIP3    H111327   5.614   0.339   0.696
 3790TIP3    H211328   5.501   0.240   0.682
 3791TIP3   OH211329   7.148   0.956   1.082
 3791TIP3    H111330   7.078   0.955   1.148
 3791TIP3    H211331   7.223   0.916   1.126
 3792TIP3   OH211332   4.695   0.079   0.398
 3792TIP3    H111333   4.616   0.131   0.384
 3792TIP3    H211334   4.766   0.144   0.399
 3793TIP3   OH211335   0.837   6.387   3.409
 3793TIP3    H111336   0.929   6.413   3.411
 3793TIP3    H211337   0.798   6.433   3.484
 3794TIP3   OH211338   2.247   5.430   3.033
 3794TIP3    H111339   2.279   5.350   2.990
 3794TIP3    H211340   2.152   5.419   3.034
 3795TIP3   OH211341   5.074   0.248   2.251
 3795TIP3    H111342   5.049   0.156   2.251
 3795TIP3    H211343   5.015   0.289   2.188
 3796TIP3   OH211344   1.641   5.498   0.035
 3796TIP3    H111345   1.616   5.587   0.011
 3796TIP3    H211346   1.736   5.495   0.021
 3797TIP3   OH211347   1.179   5.113   2.172
 3797TIP3    H111348   1.214   5.056   2.103
 3797TIP3    H211349   1.256   5.153   2.212
 3798TIP3   OH211350   5.094   1.392   6.630
 3798TIP3    H111351   5.062   1.317   6.580
 3798TIP3    H211352   5.096   1.362   6.721
 3799TIP3   OH211353   2.882   0.139   5.916
 3799TIP3    H111354   2.858   0.231   5.914
 3799TIP3    H211355   2.812   0.097   5.965
 3800TIP3   OH211356   4.827   4.695   2.490
 3800TIP3    H111357   4.893   4.706   2.559
 3800TIP3    H211358   4.823   4.781   2.447
 3801TIP3   OH211359   5.006   0.076   6.005
 3801TIP3    H111360   4.987   0.150   5.948
 3801TIP3    H211361   5.101   0.074   6.012
 3802TIP3   OH211362   2.508   4.765   4.606
 3802TIP3    H111363   2.419   4.749   4.637
 3802TIP3    H211364   2.508   4.733   4.516
 3803TIP3   OH211365   3.601   4.532   4.153
 3803TIP3    H111366   3.682   4.580   4.138
 3803TIP3    H211367   3.553   4.585   4.217
 3804TIP3   OH211368   6.186   4.029   0.578
 3804TIP3    H111369   6.270   4.013   0.535
 3804TIP3    H211370   6.197   3.994   0.667
 3805TIP3   OH211371   6.354   5.719   1.654
 3805TIP3    H111372   6.258   5.718   1.655
 3805TIP3    H211373   6.380   5.628   1.667
 3806TIP3   OH211374   7.662   5.502   0.931
 3806TIP3    H111375   7.720   5.426   0.935
 3806TIP3    H211376   7.678   5.540   0.845
 3807TIP3   OH211377   1.551   2.765   4.879
 3807TIP3    H111378   1.493   2.689   4.881
 3807TIP3    H211379   1.632   2.733   4.838
 3808TIP3   OH211380   5.366   0.416   0.175
 3808TIP3    H111381   5.363   0.328   0.137
 3808TIP3    H211382   5.414   0.405   0.257
 3809TIP3   OH211383   8.056   5.480   5.648
 3809TIP3    H111384   7.972   5.516   5.617
 3809TIP3    H211385   8.035   5.391   5.676
 3810TIP3   OH211386   2.416   1.129   2.598
 3810TIP3    H111387   2.468   1.148   2.676
 3810TIP3    H211388   2.394   1.036   2.607
 3811TIP3   OH211389   0.321   7.610   0.082
 3811TIP3    H111390   0.382   7.677   0.114
 3811TIP3    H211391   0.377   7.537   0.056
 3812TIP3   OH211392   7.589   3.771   2.892
 3812TIP3    H111393   7.619   3.788   2.803
 3812TIP3    H211394   7.496   3.751   2.884
 3813TIP3   OH211395   3.895   7.370   5.322
 3813TIP3    H111396   3.871   7.456   5.286
 3813TIP3    H211397   3.891   7.382   5.417
 3814TIP3   OH211398   7.309   5.966   1.901
 3814TIP3    H111399   7.213   5.969   1.897
 3814TIP3    H211400   7.335   5.912   1.827
 3815TIP3   OH211401   1.395   6.360   4.509
 3815TIP3    H111402   1.358   6.328   4.591
 3815TIP3    H211403   1.329   6.337   4.443
 3816TIP3   OH211404   0.138   3.599   1.083
 3816TIP3    H111405   0.157   3.561   1.169
 3816TIP3    H211406   0.043   3.599   1.077
 3817TIP3   OH211407   4.587   1.605   0.561
 3817TIP3    H111408   4.547   1.649   0.636
 3817TIP3    H211409   4.660   1.555   0.597
 3818TIP3   OH211410   0.196   7.745   0.319
 3818TIP3    H111411   0.268   7.792   0.361
 3818TIP3    H211412   0.212   7.653   0.338
 3819TIP3   OH211413   3.331   1.728   4.190
 3819TIP3    H111414   3.399   1.748   4.125
 3819TIP3    H211415   3.307   1.813   4.227
 3820TIP3   OH211416   3.781   0.272   2.338
 3820TIP3    H111417   3.711   0.308   2.393
 3820TIP3    H211418   3.857   0.327   2.356
 3821TIP3   OH211419   1.764   6.568   2.230
 3821TIP3    H111420   1.828   6.610   2.172
 3821TIP3    H211421   1.685   6.560   2.177
 3822TIP3   OH211422   5.613   7.194   2.877
 3822TIP3    H111423   5.629   7.114   2.927
 3822TIP3    H211424   5.700   7.230   2.860
 3823TIP3   OH211425   5.985   2.420   0.398
 3823TIP3    H111426   5.959   2.495   0.345
 3823TIP3    H211427   5.948   2.438   0.485
 3824TIP3   OH211428   5.754   1.204   4.796
 3824TIP3    H111429   5.744   1.110   4.812
 3824TIP3    H211430   5.747   1.214   4.701
 3825TIP3   OH211431   7.879   3.497   1.692
 3825TIP3    H111432   7.957   3.459   1.733
 3825TIP3    H211433   7.857   3.435   1.622
 3826TIP3   OH211434   2.500   3.726   3.804
 3826TIP3    H111435   2.457   3.809   3.822
 3826TIP3    H211436   2.430   3.668   3.774
 3827TIP3   OH211437   3.974   7.482   4.341
 3827TIP3    H111438   3.946   7.408   4.286
 3827TIP3    H211439   4.067   7.494   4.320
 3828TIP3   OH211440   1.656   1.686   0.776
 3828TIP3    H111441   1.733   1.637   0.749
 3828TIP3    H211442   1.643   1.662   0.868
 3829TIP3   OH211443   6.520   2.313   3.726
 3829TIP3    H111444   6.528   2.219   3.743
 3829TIP3    H211445   6.543   2.323   3.633
 3830TIP3   OH211446   1.571   5.475   4.539
 3830TIP3    H111447   1.581   5.551   4.481
 3830TIP3    H211448   1.577   5.511   4.627
 3831TIP3   OH211449   8.235   2.481   4.093
 3831TIP3    H111450   8.167   2.510   4.033
 3831TIP3    H211451   8.254   2.391   4.067
 3832TIP3   OH211452   1.889   6.410   0.314
 3832TIP3    H111453   1.896   6.315   0.323
 3832TIP3    H211454   1.868   6.440   0.403
 3833TIP3   OH211455   5.769   4.963   1.770
 3833TIP3    H111456   5.832   4.960   1.841
 3833TIP3    H211457   5.811   5.017   1.702
 3834TIP3   OH211458   5.175   2.809   6.134
 3834TIP3    H111459   5.185   2.862   6.214
 3834TIP3    H211460   5.084   2.819   6.110
 3835TIP3   OH211461   5.007   0.391   3.087
 3835TIP3    H111462   5.071   0.336   3.042
 3835TIP3    H211463   4.970   0.447   3.018
 3836TIP3   OH211464   0.678   6.687   3.290
 3836TIP3    H111465   0.611   6.647   3.346
 3836TIP3    H211466   0.631   6.756   3.243
 3837TIP3   OH211467   0.689   7.267   6.582
 3837TIP3    H111468   0.699   7.178   6.616
 3837TIP3    H211469   0.755   7.318   6.629
 3838TIP3   OH211470   0.222   6.352   4.028
 3838TIP3    H111471   0.196   6.404   3.952
 3838TIP3    H211472   0.259   6.416   4.089
 3839TIP3   OH211473   4.917   3.208   0.601
 3839TIP3    H111474   4.930   3.131   0.545
 3839TIP3    H211475   4.950   3.281   0.549
 3840TIP3   OH211476   0.614   6.083   2.213
 3840TIP3    H111477   0.660   6.164   2.236
 3840TIP3    H211478   0.532   6.088   2.261
 3841TIP3   OH211479   7.904   5.507   4.840
 3841TIP3    H111480   7.968   5.570   4.807
 3841TIP3    H211481   7.930   5.492   4.931
 3842TIP3   OH211482   3.088   5.923   5.864
 3842TIP3    H111483   3.034   5.888   5.793
 3842TIP3    H211484   3.051   6.010   5.881
 3843TIP3   OH211485   3.252   7.382   3.033
 3843TIP3    H111486   3.264   7.373   3.127
 3843TIP3    H211487   3.305   7.457   3.008
 3844TIP3   OH211488   3.806   0.226   1.274
 3844TIP3    H111489   3.776   0.302   1.323
 3844TIP3    H211490   3.755   0.153   1.310
 3845TIP3   OH211491   2.109   0.393   5.743
 3845TIP3    H111492   2.034   0.373   5.799
 3845TIP3    H211493   2.143   0.307   5.717
 3846TIP3   OH211494   5.916   2.104   6.747
 3846TIP3    H111495   5.856   2.029   6.750
 3846TIP3    H211496   5.992   2.072   6.699
 3847TIP3   OH211497   7.638   7.043   4.977
 3847TIP3    H111498   7.550   7.009   4.990
 3847TIP3    H211499   7.672   7.057   5.066
 3848TIP3   OH211500   0.943   2.945   2.480
 3848TIP3    H111501   0.903   2.900   2.405
 3848TIP3    H211502   0.870   2.958   2.541
 3849TIP3   OH211503   1.276   7.479   6.402
 3849TIP3    H111504   1.337   7.498   6.330
 3849TIP3    H211505   1.192   7.512   6.372
 3850TIP3   OH211506   6.651   0.883   4.095
 3850TIP3    H111507   6.588   0.926   4.036
 3850TIP3    H211508   6.715   0.843   4.036
 3851TIP3   OH211509   7.696   3.842   5.464
 3851TIP3    H111510   7.640   3.900   5.412
 3851TIP3    H211511   7.745   3.791   5.400
 3852TIP3   OH211512   5.175   7.687   2.537
 3852TIP3    H111513   5.206   7.596   2.543
 3852TIP3    H211514   5.080   7.681   2.544
 3853TIP3   OH211515   0.536   5.854   6.113
 3853TIP3    H111516   0.468   5.804   6.066
 3853TIP3    H211517   0.489   5.897   6.184
 3854TIP3   OH211518   0.099   1.650   1.560
 3854TIP3    H111519   0.135   1.563   1.575
 3854TIP3    H211520   0.007   1.643   1.585
 3855TIP3   OH211521   1.916   3.477   5.016
 3855TIP3    H111522   1.832   3.513   5.045
 3855TIP3    H211523   1.954   3.439   5.096
 3856TIP3   OH211524   6.096   4.534   1.604
 3856TIP3    H111525   6.151   4.544   1.682
 3856TIP3    H211526   6.051   4.618   1.595
 3857TIP3   OH211527   5.857   6.760   3.097
 3857TIP3    H111528   5.804   6.839   3.097
 3857TIP3    H211529   5.843   6.721   3.010
 3858TIP3   OH211530   2.307   5.487   2.252
 3858TIP3    H111531   2.322   5.414   2.192
 3858TIP3    H211532   2.394   5.509   2.286
 3859TIP3   OH211533   4.486   5.071   0.984
 3859TIP3    H111534   4.527   5.017   0.917
 3859TIP3    H211535   4.456   5.009   1.050
 3860TIP3   OH211536   2.599   7.429   0.254
 3860TIP3    H111537   2.592   7.481   0.174
 3860TIP3    H211538   2.683   7.455   0.292
 3861TIP3   OH211539   1.087   7.651   0.080
 3861TIP3    H111540   1.161   7.676   0.135
 3861TIP3    H211541   1.047   7.734   0.054
 3862TIP3   OH211542   7.062   6.589   1.266
 3862TIP3    H111543   7.024   6.657   1.322
 3862TIP3    H211544   7.012   6.510   1.287
 3863TIP3   OH211545   0.207   2.674   2.666
 3863TIP3    H111546   0.199   2.609   2.596
 3863TIP3    H211547   0.212   2.622   2.746
 3864TIP3   OH211548   3.760   5.213   4.318
 3864TIP3    H111549   3.769   5.293   4.369
 3864TIP3    H211550   3.737   5.146   4.382
 3865TIP3   OH211551   5.152   3.376   0.948
 3865TIP3    H111552   5.166   3.416   1.034
 3865TIP3    H211553   5.230   3.397   0.898
 3866TIP3   OH211554   0.668   2.323   6.587
 3866TIP3    H111555   0.614   2.282   6.654
 3866TIP3    H211556   0.714   2.251   6.545
 3867TIP3   OH211557   2.298   6.371   1.552
 3867TIP3    H111558   2.277   6.463   1.567
 3867TIP3    H211559   2.232   6.322   1.601
 3868TIP3   OH211560   6.934   5.329   1.648
 3868TIP3    H111561   7.021   5.353   1.614
 3868TIP3    H211562   6.909   5.252   1.598
 3869TIP3   OH211563   3.886   1.948   6.608
 3869TIP3    H111564   3.964   1.993   6.641
 3869TIP3    H211565   3.820   2.017   6.601
 3870TIP3   OH211566   7.234   2.414   2.228
 3870TIP3    H111567   7.158   2.380   2.275
 3870TIP3    H211568   7.244   2.356   2.153
 3871TIP3   OH211569   2.045   3.979   3.264
 3871TIP3    H111570   1.969   3.927   3.240
 3871TIP3    H211571   2.115   3.914   3.277
 3872TIP3   OH211572   4.800   1.195   2.570
 3872TIP3    H111573   4.753   1.220   2.649
 3872TIP3    H211574   4.884   1.162   2.600
 3873TIP3   OH211575   0.211   1.928   6.279
 3873TIP3    H111576   0.276   1.947   6.347
 3873TIP3    H211577   0.221   1.835   6.261
 3874TIP3   OH211578   4.058   4.577   0.394
 3874TIP3    H111579   4.088   4.577   0.485
 3874TIP3    H211580   3.966   4.602   0.399
 3875TIP3   OH211581  -0.002   5.547   4.540
 3875TIP3    H111582  -0.035   5.636   4.525
 3875TIP3    H211583   0.059   5.556   4.612
 3876TIP3   OH211584   7.851   2.506   1.573
 3876TIP3    H111585   7.832   2.518   1.480
 3876TIP3    H211586   7.801   2.575   1.616
 3877TIP3   OH211587   3.391   3.145   2.658
 3877TIP3    H111588   3.473   3.193   2.666
 3877TIP3    H211589   3.412   3.056   2.687
 3878TIP3   OH211590   2.105   2.050   2.720
 3878TIP3    H111591   2.049   1.980   2.754
 3878TIP3    H211592   2.164   2.070   2.793
 3879TIP3   OH211593   7.853   3.648   1.276
 3879TIP3    H111594   7.822   3.709   1.210
 3879TIP3    H211595   7.887   3.573   1.227
 3880TIP3   OH211596   0.422   3.361   5.749
 3880TIP3    H111597   0.491   3.392   5.807
 3880TIP3    H211598   0.345   3.413   5.771
 3881TIP3   OH211599   7.265   3.107   1.559
 3881TIP3    H111600   7.217   3.067   1.487
 3881TIP3    H211601   7.202   3.165   1.601
 3882TIP3   OH211602   0.210   5.268   3.459
 3882TIP3    H111603   0.167   5.222   3.531
 3882TIP3    H211604   0.183   5.359   3.470
 3883TIP3   OH211605   7.543   4.053   2.037
 3883TIP3    H111606   7.619   4.103   2.067
 3883TIP3    H211607   7.523   3.993   2.109
 3884TIP3   OH211608   6.439   3.223   3.522
 3884TIP3    H111609   6.394   3.175   3.452
 3884TIP3    H211610   6.498   3.158   3.561
 3885TIP3   OH211611   1.200   3.606   0.191
 3885TIP3    H111612   1.178   3.692   0.154
 3885TIP3    H211613   1.138   3.594   0.262
 3886TIP3   OH211614   0.536   1.138   5.889
 3886TIP3    H111615   0.531   1.221   5.841
 3886TIP3    H211616   0.588   1.081   5.833
 3887TIP3   OH211617   1.794   1.354   6.764
 3887TIP3    H111618   1.726   1.421   6.758
 3887TIP3    H211619   1.820   1.338   6.674
 3888TIP3   OH211620   6.076   1.243   6.091
 3888TIP3    H111621   6.134   1.195   6.032
 3888TIP3    H211622   6.020   1.294   6.033
 3889TIP3   OH211623   1.497   0.938   1.606
 3889TIP3    H111624   1.412   0.894   1.610
 3889TIP3    H211625   1.526   0.927   1.515
 3890TIP3   OH211626   0.036   6.075   0.719
 3890TIP3    H111627   0.064   6.134   0.649
 3890TIP3    H211628  -0.045   6.114   0.753
 3891TIP3   OH211629   1.232   7.085   4.063
 3891TIP3    H111630   1.308   7.079   4.006
 3891TIP3    H211631   1.180   7.007   4.042
 3892TIP3   OH211632   4.144   3.283   3.235
 3892TIP3    H111633   4.137   3.197   3.195
 3892TIP3    H211634   4.054   3.306   3.259
 3893TIP3   OH211635   0.747   0.676   0.833
 3893TIP3    H111636   0.731   0.771   0.826
 3893TIP3    H211637   0.817   0.659   0.771
 3894TIP3   OH211638   1.464   7.196   2.411
 3894TIP3    H111639   1.465   7.101   2.404
 3894TIP3    H211640   1.371   7.220   2.405
 3895TIP3   OH211641   8.156   5.658   2.821
 3895TIP3    H111642   8.214   5.606   2.765
 3895TIP3    H211643   8.198   5.744   2.826
 3896TIP3   OH211644   2.589   0.309   6.438
 3896TIP3    H111645   2.639   0.336   6.515
 3896TIP3    H211646   2.512   0.365   6.438
 3897TIP3   OH211647   2.884   3.328   5.232
 3897TIP3    H111648   2.969   3.297   5.203
 3897TIP3    H211649   2.900   3.419   5.260
 3898TIP3   OH211650   4.800   6.018   4.711
 3898TIP3    H111651   4.875   5.963   4.735
 3898TIP3    H211652   4.805   6.093   4.771
 3899TIP3   OH211653   1.715   4.391   3.953
 3899TIP3    H111654   1.631   4.349   3.971
 3899TIP3    H211655   1.694   4.484   3.943
 3900TIP3   OH211656   3.746   0.494   4.106
 3900TIP3    H111657   3.655   0.505   4.131
 3900TIP3    H211658   3.778   0.583   4.091
 3901TIP3   OH211659   3.707   5.009   1.039
 3901TIP3    H111660   3.673   5.007   1.128
 3901TIP3    H211661   3.786   4.955   1.042
 3902TIP3   OH211662   1.529   4.719   5.992
 3902TIP3    H111663   1.545   4.628   5.966
 3902TIP3    H211664   1.616   4.760   5.991
 3903TIP3   OH211665   1.041   3.391   5.957
 3903TIP3    H111666   1.000   3.443   6.026
 3903TIP3    H211667   1.124   3.435   5.940
 3904TIP3   OH211668   7.805   3.247   0.901
 3904TIP3    H111669   7.838   3.335   0.883
 3904TIP3    H211670   7.810   3.238   0.996
 3905TIP3   OH211671   4.854   5.621   5.503
 3905TIP3    H111672   4.916   5.603   5.432
 3905TIP3    H211673   4.768   5.624   5.460
 3906TIP3   OH211674   7.024   6.427   3.289
 3906TIP3    H111675   7.105   6.386   3.259
 3906TIP3    H211676   6.956   6.362   3.270
 3907TIP3   OH211677   2.716   5.560   1.366
 3907TIP3    H111678   2.770   5.580   1.290
 3907TIP3    H211679   2.648   5.501   1.333
 3908TIP3   OH211680   7.873   2.557   5.088
 3908TIP3    H111681   7.958   2.590   5.114
 3908TIP3    H211682   7.829   2.534   5.170
 3909TIP3   OH211683   5.667   4.694   6.397
 3909TIP3    H111684   5.656   4.625   6.331
 3909TIP3    H211685   5.621   4.769   6.361
 3910TIP3   OH211686   7.852   0.168   4.519
 3910TIP3    H111687   7.775   0.223   4.506
 3910TIP3    H211688   7.924   0.230   4.529
 3911TIP3   OH211689   5.246   2.087   3.989
 3911TIP3    H111690   5.275   2.175   3.962
 3911TIP3    H211691   5.271   2.031   3.916
 3912TIP3   OH211692   7.197   0.347   0.035
 3912TIP3    H111693   7.283   0.342  -0.007
 3912TIP3    H211694   7.165   0.434   0.012
 3913TIP3   OH211695   5.696   4.029   0.993
 3913TIP3    H111696   5.657   3.982   0.918
 3913TIP3    H211697   5.696   4.121   0.966
 3914TIP3   OH211698   4.680   0.139   1.255
 3914TIP3    H111699   4.609   0.194   1.287
 3914TIP3    H211700   4.713   0.186   1.178
 3915TIP3   OH211701   0.407   1.929   1.674
 3915TIP3    H111702   0.326   1.930   1.725
 3915TIP3    H211703   0.476   1.914   1.738
 3916TIP3   OH211704   5.674   7.329   6.807
 3916TIP3    H111705   5.664   7.235   6.792
 3916TIP3    H211706   5.664   7.369   6.721
 3917TIP3   OH211707   7.469   4.887   4.285
 3917TIP3    H111708   7.553   4.842   4.282
 3917TIP3    H211709   7.425   4.850   4.361
 3918TIP3   OH211710   0.732   0.855   2.030
 3918TIP3    H111711   0.682   0.917   2.082
 3918TIP3    H211712   0.745   0.780   2.088
 3919TIP3   OH211713   3.633   2.832   3.975
 3919TIP3    H111714   3.589   2.906   3.933
 3919TIP3    H211715   3.569   2.801   4.040
 3920TIP3   OH211716   2.945   7.528   6.324
 3920TIP3    H111717   3.010   7.498   6.388
 3920TIP3    H211718   2.902   7.448   6.294
 3921TIP3   OH211719   3.611   4.473   5.124
 3921TIP3    H111720   3.534   4.504   5.171
 3921TIP3    H211721   3.588   4.480   5.031
 3922TIP3   OH211722   7.666   0.593   3.314
 3922TIP3    H111723   7.740   0.553   3.360
 3922TIP3    H211724   7.702   0.620   3.229
 3923TIP3   OH211725   4.394   4.013   0.828
 3923TIP3    H111726   4.426   4.039   0.742
 3923TIP3    H211727   4.315   4.065   0.842
 3924TIP3   OH211728   3.845   7.335   3.341
 3924TIP3    H111729   3.863   7.241   3.338
 3924TIP3    H211730   3.894   7.366   3.417
 3925TIP3   OH211731   7.901   6.960   6.312
 3925TIP3    H111732   7.935   6.873   6.333
 3925TIP3    H211733   7.899   7.005   6.396
 3926TIP3   OH211734   1.539   7.093   5.625
 3926TIP3    H111735   1.570   7.184   5.622
 3926TIP3    H211736   1.614   7.044   5.660
 3927TIP3   OH211737   4.635   5.589   1.820
 3927TIP3    H111738   4.681   5.607   1.902
 3927TIP3    H211739   4.571   5.660   1.812
 3928TIP3   OH211740   6.371   2.321   5.576
 3928TIP3    H111741   6.349   2.336   5.483
 3928TIP3    H211742   6.367   2.226   5.586
 3929TIP3   OH211743   7.885   7.852   2.929
 3929TIP3    H111744   7.927   7.791   2.989
 3929TIP3    H211745   7.837   7.796   2.868
 3930TIP3   OH211746   2.235   4.111   4.448
 3930TIP3    H111747   2.199   4.188   4.405
 3930TIP3    H211748   2.160   4.054   4.463
 3931TIP3   OH211749   4.823   5.926   2.590
 3931TIP3    H111750   4.751   5.956   2.645
 3931TIP3    H211751   4.832   5.833   2.611
 3932TIP3   OH211752   5.662   4.430   4.841
 3932TIP3    H111753   5.716   4.441   4.763
 3932TIP3    H211754   5.666   4.337   4.860
 3933TIP3   OH211755   1.131   4.006   4.699
 3933TIP3    H111756   1.086   4.047   4.773
 3933TIP3    H211757   1.134   4.074   4.632
 3934TIP3   OH211758   5.590   7.344   6.192
 3934TIP3    H111759   5.656   7.396   6.240
 3934TIP3    H211760   5.624   7.340   6.103
 3935TIP3   OH211761   6.601   1.804   3.545
 3935TIP3    H111762   6.646   1.826   3.627
 3935TIP3    H211763   6.618   1.710   3.534
 3936TIP3   OH211764   3.816   0.573   4.580
 3936TIP3    H111765   3.885   0.541   4.639
 3936TIP3    H211766   3.824   0.668   4.584
 3937TIP3   OH211767   8.001   0.416   4.449
 3937TIP3    H111768   8.050   0.494   4.423
 3937TIP3    H211769   7.915   0.427   4.408
 3938TIP3   OH211770   1.068   2.527   3.318
 3938TIP3    H111771   1.048   2.443   3.360
 3938TIP3    H211772   1.019   2.526   3.236
 3939TIP3   OH211773   5.650   7.245   3.404
 3939TIP3    H111774   5.632   7.338   3.391
 3939TIP3    H211775   5.732   7.229   3.358
 3940TIP3   OH211776   3.850   3.586   2.122
 3940TIP3    H111777   3.934   3.623   2.094
 3940TIP3    H211778   3.872   3.504   2.166
 3941TIP3   OH211779   5.346   6.033   1.483
 3941TIP3    H111780   5.388   5.984   1.411
 3941TIP3    H211781   5.334   5.968   1.552
 3942TIP3   OH211782   5.902   3.628   4.789
 3942TIP3    H111783   5.928   3.578   4.711
 3942TIP3    H211784   5.908   3.719   4.761
 3943TIP3   OH211785   7.559   2.539   3.439
 3943TIP3    H111786   7.633   2.493   3.480
 3943TIP3    H211787   7.600   2.599   3.376
 3944TIP3   OH211788   3.826   5.047   6.410
 3944TIP3    H111789   3.868   5.123   6.450
 3944TIP3    H211790   3.772   5.009   6.480
 3945TIP3   OH211791   0.481   0.197   6.698
 3945TIP3    H111792   0.390   0.175   6.715
 3945TIP3    H211793   0.484   0.217   6.605
 3946TIP3   OH211794   3.906   3.373   3.349
 3946TIP3    H111795   3.848   3.373   3.425
 3946TIP3    H211796   3.856   3.417   3.280
 3947TIP3   OH211797   0.205   3.385   6.741
 3947TIP3    H111798   0.238   3.338   6.665
 3947TIP3    H211799   0.279   3.383   6.803
 3948TIP3   OH211800   4.067   2.417   1.192
 3948TIP3    H111801   4.113   2.355   1.248
 3948TIP3    H211802   4.136   2.475   1.159
 3949TIP3   OH211803   3.681   3.197   2.249
 3949TIP3    H111804   3.636   3.120   2.287
 3949TIP3    H211805   3.689   3.176   2.156
 3950TIP3   OH211806   1.961   1.224   0.132
 3950TIP3    H111807   1.936   1.210   0.041
 3950TIP3    H211808   2.055   1.209   0.133
 3951TIP3   OH211809   7.861   0.674   2.476
 3951TIP3    H111810   7.775   0.651   2.440
 3951TIP3    H211811   7.916   0.684   2.399
 3952TIP3   OH211812   0.371   6.889   0.172
 3952TIP3    H111813   0.378   6.826   0.244
 3952TIP3    H211814   0.426   6.853   0.103
 3953TIP3   OH211815   5.252   7.354   6.083
 3953TIP3    H111816   5.263   7.285   6.149
 3953TIP3    H211817   5.337   7.360   6.040
 3954TIP3   OH211818   6.409   3.931   6.589
 3954TIP3    H111819   6.392   3.840   6.614
 3954TIP3    H211820   6.323   3.965   6.564
 3955TIP3   OH211821   5.652   0.527   0.742
 3955TIP3    H111822   5.744   0.522   0.717
 3955TIP3    H211823   5.635   0.621   0.751
 3956TIP3   OH211824   2.364   1.338   6.311
 3956TIP3    H111825   2.294   1.285   6.351
 3956TIP3    H211826   2.433   1.276   6.291
 3957TIP3   OH211827   8.131   0.695   0.304
 3957TIP3    H111828   8.097   0.695   0.393
 3957TIP3    H211829   8.201   0.630   0.305
 3958TIP3   OH211830   0.963   2.531   1.930
 3958TIP3    H111831   0.970   2.528   1.834
 3958TIP3    H211832   0.905   2.459   1.952
 3959TIP3   OH211833   6.242   0.098   0.556
 3959TIP3    H111834   6.233   0.064   0.467
 3959TIP3    H211835   6.172   0.056   0.605
 3960TIP3   OH211836   0.095   3.740   6.331
 3960TIP3    H111837   0.106   3.651   6.365
 3960TIP3    H211838   0.005   3.743   6.300
 3961TIP3   OH211839   7.711   4.353   5.224
 3961TIP3    H111840   7.717   4.265   5.260
 3961TIP3    H211841   7.618   4.376   5.230
 3962TIP3   OH211842   6.625   7.757   0.975
 3962TIP3    H111843   6.647   7.699   0.902
 3962TIP3    H211844   6.695   7.743   1.039
 3963TIP3   OH211845   1.555   7.281   0.352
 3963TIP3    H111846   1.625   7.311   0.411
 3963TIP3    H211847   1.591   7.295   0.264
 3964TIP3   OH211848   1.402   4.372   5.465
 3964TIP3    H111849   1.432   4.282   5.477
 3964TIP3    H211850   1.468   4.425   5.512
 3965TIP3   OH211851   1.527   0.782   5.847
 3965TIP3    H111852   1.523   0.876   5.859
 3965TIP3    H211853   1.596   0.769   5.781
 3966TIP3   OH211854   5.903   6.542   3.835
 3966TIP3    H111855   5.965   6.551   3.908
 3966TIP3    H211856   5.845   6.618   3.845
 3967TIP3   OH211857   6.447   2.270   4.180
 3967TIP3    H111858   6.360   2.308   4.168
 3967TIP3    H211859   6.508   2.340   4.156
 3968TIP3   OH211860   4.600   4.350   6.615
 3968TIP3    H111861   4.546   4.284   6.571
 3968TIP3    H211862   4.569   4.434   6.582
 3969TIP3   OH211863   7.463   3.758   5.132
 3969TIP3    H111864   7.503   3.758   5.046
 3969TIP3    H211865   7.369   3.746   5.115
 3970TIP3   OH211866   0.516   0.717   0.019
 3970TIP3    H111867   0.545   0.645   0.075
 3970TIP3    H211868   0.430   0.742   0.055
 3971TIP3   OH211869   3.639   3.238   1.699
 3971TIP3    H111870   3.613   3.194   1.780
 3971TIP3    H211871   3.673   3.168   1.643
 3972TIP3   OH211872   0.953   6.347   4.925
 3972TIP3    H111873   0.899   6.424   4.943
 3972TIP3    H211874   1.033   6.362   4.976
 3973TIP3   OH211875   1.343   1.738   4.532
 3973TIP3    H111876   1.368   1.657   4.487
 3973TIP3    H211877   1.425   1.787   4.542
 3974TIP3   OH211878   7.523   7.448   6.189
 3974TIP3    H111879   7.607   7.459   6.145
 3974TIP3    H211880   7.541   7.469   6.281
 3975TIP3   OH211881   1.248   0.906   2.925
 3975TIP3    H111882   1.181   0.948   2.870
 3975TIP3    H211883   1.236   0.812   2.908
 3976TIP3   OH211884   3.129   5.225   3.120
 3976TIP3    H111885   3.064   5.169   3.079
 3976TIP3    H211886   3.078   5.288   3.170
 3977TIP3   OH211887   1.441   7.440   5.852
 3977TIP3    H111888   1.463   7.507   5.917
 3977TIP3    H211889   1.445   7.357   5.899
 3978TIP3   OH211890   5.644   2.132   1.787
 3978TIP3    H111891   5.621   2.185   1.863
 3978TIP3    H211892   5.716   2.077   1.816
 3979TIP3   OH211893   6.961   1.868   2.828
 3979TIP3    H111894   6.869   1.842   2.836
 3979TIP3    H211895   6.990   1.879   2.919
 3980TIP3   OH211896   3.113   3.376   1.694
 3980TIP3    H111897   3.097   3.467   1.667
 3980TIP3    H211898   3.142   3.333   1.614
 3981TIP3   OH211899   1.550   3.931   1.431
 3981TIP3    H111900   1.529   3.838   1.425
 3981TIP3    H211901   1.609   3.937   1.506
 3982TIP3   OH211902   3.450   3.644   2.360
 3982TIP3    H111903   3.431   3.663   2.452
 3982TIP3    H211904   3.534   3.599   2.361
 3983TIP3   OH211905   5.096   2.945   1.014
 3983TIP3    H111906   5.065   3.035   1.004
 3983TIP3    H211907   5.075   2.903   0.931
 3984TIP3   OH211908   4.925   4.349   4.564
 3984TIP3    H111909   4.955   4.426   4.612
 3984TIP3    H211910   4.896   4.288   4.632
 3985TIP3   OH211911   0.438   2.231   1.577
 3985TIP3    H111912   0.522   2.187   1.568
 3985TIP3    H211913   0.403   2.198   1.660
 3986TIP3   OH211914   1.690   7.421   1.346
 3986TIP3    H111915   1.709   7.513   1.367
 3986TIP3    H211916   1.761   7.372   1.387
 3987TIP3   OH211917   7.400   2.913   5.863
 3987TIP3    H111918   7.364   2.845   5.806
 3987TIP3    H211919   7.324   2.948   5.909
 3988TIP3   OH211920   4.641   4.812   2.695
 3988TIP3    H111921   4.708   4.873   2.726
 3988TIP3    H211922   4.640   4.824   2.600
 3989TIP3   OH211923   7.645   5.007   4.087
 3989TIP3    H111924   7.601   4.974   4.165
 3989TIP3    H211925   7.684   5.090   4.115
 3990TIP3   OH211926   3.913   6.522   0.912
 3990TIP3    H111927   3.911   6.475   0.828
 3990TIP3    H211928   4.006   6.523   0.936
 3991TIP3   OH211929   6.014   5.816   4.095
 3991TIP3    H111930   5.938   5.813   4.154
 3991TIP3    H211931   6.024   5.725   4.065
 3992TIP3   OH211932   3.335   4.343   4.688
 3992TIP3    H111933   3.428   4.321   4.688
 3992TIP3    H211934   3.331   4.430   4.729
 3993TIP3   OH211935   8.186   7.561   2.163
 3993TIP3    H111936   8.181   7.465   2.172
 3993TIP3    H211937   8.221   7.591   2.247
 3994TIP3   OH211938   3.541   2.347   0.712
 3994TIP3    H111939   3.625   2.301   0.721
 3994TIP3    H211940   3.540   2.378   0.622
 3995TIP3   OH211941   5.588   7.535   1.175
 3995TIP3    H111942   5.532   7.561   1.248
 3995TIP3    H211943   5.673   7.574   1.196
 3996TIP3   OH211944   1.252   3.528   2.304
 3996TIP3    H111945   1.324   3.469   2.328
 3996TIP3    H211946   1.288   3.616   2.318
 3997TIP3   OH211947   8.100   2.207   6.139
 3997TIP3    H111948   8.184   2.248   6.122
 3997TIP3    H211949   8.057   2.265   6.202
 3998TIP3   OH211950   3.306   1.773   6.751
 3998TIP3    H111951   3.390   1.818   6.753
 3998TIP3    H211952   3.322   1.690   6.797
 3999TIP3   OH211953   1.845   4.631   5.586
 3999TIP3    H111954   1.927   4.604   5.543
 3999TIP3    H211955   1.860   4.613   5.679
 4000TIP3   OH211956   6.270   3.500   6.292
 4000TIP3    H111957   6.185   3.465   6.318
 4000TIP3    H211958   6.282   3.577   6.348
 4001TIP3   OH211959   3.725   4.280   0.948
 4001TIP3    H111960   3.746   4.206   0.891
 4001TIP3    H211961   3.648   4.251   0.996
 4002TIP3   OH211962   3.743   3.300   5.501
 4002TIP3    H111963   3.695   3.268   5.424
 4002TIP3    H211964   3.744   3.395   5.491
 4003TIP3   OH211965   6.619   3.757   6.439
 4003TIP3    H111966   6.536   3.795   6.470
 4003TIP3    H211967   6.661   3.829   6.392
 4004TIP3   OH211968   6.248   2.052   6.105
 4004TIP3    H111969   6.216   2.075   6.019
 4004TIP3    H211970   6.324   1.995   6.089
 4005TIP3   OH211971   2.711   2.190   1.014
 4005TIP3    H111972   2.735   2.216   0.925
 4005TIP3    H211973   2.621   2.220   1.025
 4006TIP3   OH211974   1.013   4.103   2.513
 4006TIP3    H111975   1.000   4.019   2.470
 4006TIP3    H211976   1.092   4.139   2.473
 4007TIP3   OH211977   3.123   6.536   0.835
 4007TIP3    H111978   3.134   6.489   0.753
 4007TIP3    H211979   3.178   6.488   0.897
 4008TIP3   OH211980   0.012   6.091   4.692
 4008TIP3    H111981   0.051   6.035   4.625
 4008TIP3    H211982   0.087   6.134   4.734
 4009TIP3   OH211983   6.063   1.585   5.729
 4009TIP3    H111984   6.062   1.663   5.786
 4009TIP3    H211985   6.144   1.593   5.679
 4010TIP3   OH211986   6.453   7.583   6.377
 4010TIP3    H111987   6.389   7.654   6.384
 4010TIP3    H211988   6.407   7.506   6.410
 4011TIP3   OH211989   1.529   4.555   0.536
 4011TIP3    H111990   1.624   4.569   0.540
 4011TIP3    H211991   1.501   4.550   0.627
 4012TIP3   OH211992   5.266   1.725   4.373
 4012TIP3    H111993   5.289   1.639   4.339
 4012TIP3    H211994   5.238   1.775   4.296
 4013TIP3   OH211995   3.055   4.383   5.106
 4013TIP3    H111996   3.081   4.320   5.173
 4013TIP3    H211997   3.052   4.332   5.025
 4014TIP3   OH211998   4.890   4.722   5.412
 4014TIP3    H111999   4.867   4.683   5.496
 4014TIP3    H212000   4.818   4.783   5.394
 4015TIP3   OH212001   5.808   7.783   2.614
 4015TIP3    H112002   5.854   7.779   2.530
 4015TIP3    H212003   5.812   7.693   2.647
 4016TIP3   OH212004   3.154   6.711   6.132
 4016TIP3    H112005   3.068   6.706   6.090
 4016TIP3    H212006   3.215   6.679   6.064
 4017TIP3   OH212007   4.927   2.263   1.265
 4017TIP3    H112008   4.839   2.244   1.231
 4017TIP3    H212009   4.984   2.258   1.188
 4018TIP3   OH212010   5.347   5.568   6.759
 4018TIP3    H112011   5.367   5.661   6.744
 4018TIP3    H212012   5.354   5.528   6.673
 4019TIP3   OH212013   5.074   3.119   1.955
 4019TIP3    H112014   5.067   3.103   2.049
 4019TIP3    H212015   4.996   3.171   1.934
 4020TIP3   OH212016   3.157   1.292   2.967
 4020TIP3    H112017   3.176   1.351   2.895
 4020TIP3    H212018   3.242   1.257   2.994
 4021TIP3   OH212019   4.410   4.337   0.691
 4021TIP3    H112020   4.384   4.290   0.770
 4021TIP3    H212021   4.481   4.395   0.720
 4022TIP3   OH212022   2.993   7.770   6.669
 4022TIP3    H112023   3.063   7.715   6.704
 4022TIP3    H212024   3.035   7.856   6.657
 4023TIP3   OH212025   3.609   2.961   2.393
 4023TIP3    H112026   3.656   2.963   2.477
 4023TIP3    H212027   3.553   2.884   2.399
 4024TIP3   OH212028   6.740   4.413   2.225
 4024TIP3    H112029   6.811   4.477   2.237
 4024TIP3    H212030   6.666   4.451   2.273
 4025TIP3   OH212031   2.331   6.731   1.799
 4025TIP3    H112032   2.336   6.824   1.776
 4025TIP3    H212033   2.363   6.727   1.890
 4026TIP3   OH212034   0.509   3.889   5.660
 4026TIP3    H112035   0.559   3.831   5.718
 4026TIP3    H212036   0.504   3.972   5.707
 4027TIP3   OH212037   1.761   1.537   4.305
 4027TIP3    H112038   1.856   1.527   4.309
 4027TIP3    H212039   1.732   1.470   4.243
 4028TIP3   OH212040   7.018   1.967   2.210
 4028TIP3    H112041   7.026   1.936   2.120
 4028TIP3    H212042   6.924   1.981   2.223
 4029TIP3   OH212043   3.341   5.026   0.357
 4029TIP3    H112044   3.432   5.016   0.329
 4029TIP3    H212045   3.325   4.950   0.413
 4030TIP3   OH212046   1.233   1.081   3.733
 4030TIP3    H112047   1.188   1.028   3.798
 4030TIP3    H212048   1.208   1.042   3.649
 4031TIP3   OH212049   8.168   5.066   4.326
 4031TIP3    H112050   8.188   5.034   4.414
 4031TIP3    H212051   8.075   5.047   4.314
 4032TIP3   OH212052   2.209   3.194   1.611
 4032TIP3    H112053   2.248   3.160   1.691
 4032TIP3    H212054   2.261   3.156   1.541
 4033TIP3   OH212055   3.614   7.618   0.239
 4033TIP3    H112056   3.585   7.529   0.261
 4033TIP3    H212057   3.659   7.649   0.318
 4034TIP3   OH212058   8.292   4.195   4.168
 4034TIP3    H112059   8.233   4.183   4.093
 4034TIP3    H212060   8.296   4.290   4.180
 4035TIP3   OH212061   5.731   5.080   1.371
 4035TIP3    H112062   5.701   5.135   1.444
 4035TIP3    H212063   5.753   5.142   1.301
 4036TIP3   OH212064   6.483   6.066   1.811
 4036TIP3    H112065   6.530   6.069   1.727
 4036TIP3    H212066   6.391   6.079   1.787
 4037TIP3   OH212067   1.830   6.645   3.859
 4037TIP3    H112068   1.819   6.738   3.882
 4037TIP3    H212069   1.852   6.603   3.942
 4038TIP3   OH212070   5.594   0.721   2.371
 4038TIP3    H112071   5.641   0.682   2.298
 4038TIP3    H212072   5.641   0.691   2.449
 4039TIP3   OH212073   7.726   6.002   2.239
 4039TIP3    H112074   7.664   6.006   2.167
 4039TIP3    H212075   7.757   5.912   2.241
 4040TIP3   OH212076   3.054   2.490   4.570
 4040TIP3    H112077   3.138   2.503   4.613
 4040TIP3    H212078   3.063   2.535   4.486
 4041TIP3   OH212079   1.841   0.729   5.171
 4041TIP3    H112080   1.774   0.755   5.234
 4041TIP3    H212081   1.918   0.781   5.195
 4042TIP3   OH212082   7.159   1.929   3.623
 4042TIP3    H112083   7.154   1.988   3.699
 4042TIP3    H212084   7.109   1.852   3.650
 4043TIP3   OH212085   4.908   2.411   0.468
 4043TIP3    H112086   4.983   2.392   0.411
 4043TIP3    H212087   4.848   2.338   0.453
 4044TIP3   OH212088   0.455   3.592   0.357
 4044TIP3    H112089   0.546   3.565   0.341
 4044TIP3    H212090   0.402   3.523   0.318
 4045TIP3   OH212091   2.193   4.066   1.351
 4045TIP3    H112092   2.165   4.080   1.260
 4045TIP3    H212093   2.117   4.027   1.394
 4046TIP3   OH212094   3.054   1.173   4.774
 4046TIP3    H112095   3.082   1.195   4.685
 4046TIP3    H212096   3.135   1.147   4.818
 4047TIP3   OH212097   5.177   6.375   5.780
 4047TIP3    H112098   5.188   6.466   5.752
 4047TIP3    H212099   5.243   6.363   5.849
 4048TIP3   OH212100   0.618   1.585   3.604
 4048TIP3    H112101   0.621   1.500   3.558
 4048TIP3    H212102   0.525   1.598   3.624
 4049TIP3   OH212103   3.551   0.491   5.677
 4049TIP3    H112104   3.542   0.396   5.672
 4049TIP3    H212105   3.508   0.515   5.759
 4050TIP3   OH212106   5.387   0.552   2.636
 4050TIP3    H112107   5.357   0.566   2.546
 4050TIP3    H212108   5.410   0.640   2.667
 4051TIP3   OH212109   7.968   1.441   2.724
 4051TIP3    H112110   7.974   1.532   2.695
 4051TIP3    H212111   7.929   1.445   2.811
 4052TIP3   OH212112   5.140   3.258   4.128
 4052TIP3    H112113   5.080   3.327   4.157
 4052TIP3    H212114   5.157   3.279   4.036
 4053TIP3   OH212115   4.355   6.126   0.810
 4053TIP3    H112116   4.305   6.092   0.884
 4053TIP3    H212117   4.393   6.208   0.843
 4054TIP3   OH212118   6.897   3.735   1.544
 4054TIP3    H112119   6.953   3.697   1.612
 4054TIP3    H212120   6.958   3.778   1.484
 4055TIP3   OH212121   6.805   2.189   4.695
 4055TIP3    H112122   6.844   2.215   4.778
 4055TIP3    H212123   6.848   2.106   4.673
 4056TIP3   OH212124   2.908   5.762   3.781
 4056TIP3    H112125   2.934   5.773   3.690
 4056TIP3    H212126   2.830   5.707   3.777
 4057TIP3   OH212127   8.198   3.622   3.996
 4057TIP3    H112128   8.200   3.630   3.900
 4057TIP3    H212129   8.145   3.545   4.013
 4058TIP3   OH212130   1.503   1.543   4.416
 4058TIP3    H112131   1.581   1.541   4.360
 4058TIP3    H212132   1.478   1.451   4.425
 4059TIP3   OH212133   2.740   4.248   4.971
 4059TIP3    H112134   2.648   4.224   4.978
 4059TIP3    H212135   2.739   4.343   4.962
 4060TIP3   OH212136   3.700   1.129   4.666
 4060TIP3    H112137   3.606   1.111   4.664
 4060TIP3    H212138   3.731   1.104   4.579
 4061TIP3   OH212139   5.076   4.012   5.916
 4061TIP3    H112140   5.053   4.024   5.824
 4061TIP3    H212141   5.040   3.926   5.938
 4062TIP3   OH212142   5.582   4.506   6.197
 4062TIP3    H112143   5.653   4.494   6.134
 4062TIP3    H212144   5.504   4.519   6.142
 4063TIP3   OH212145   0.403   1.921   4.426
 4063TIP3    H112146   0.340   1.851   4.413
 4063TIP3    H212147   0.441   1.905   4.512
 4064TIP3   OH212148   2.475   6.258   3.450
 4064TIP3    H112149   2.409   6.242   3.382
 4064TIP3    H212150   2.554   6.214   3.417
 4065TIP3   OH212151   7.488   2.822   4.567
 4065TIP3    H112152   7.553   2.755   4.589
 4065TIP3    H212153   7.442   2.839   4.649
 4066TIP3   OH212154   3.615   4.229   1.787
 4066TIP3    H112155   3.702   4.252   1.820
 4066TIP3    H212156   3.563   4.309   1.798
 4067TIP3   OH212157   4.175   4.700   3.111
 4067TIP3    H112158   4.195   4.631   3.174
 4067TIP3    H212159   4.260   4.741   3.092
 4068TIP3   OH212160   4.791   5.456   0.075
 4068TIP3    H112161   4.815   5.503   0.156
 4068TIP3    H212162   4.699   5.433   0.087
 4069TIP3   OH212163   5.041   6.136   5.007
 4069TIP3    H112164   5.027   6.092   5.091
 4069TIP3    H212165   5.101   6.208   5.028
 4070TIP3   OH212166   6.908   7.366   5.477
 4070TIP3    H112167   6.868   7.287   5.513
 4070TIP3    H212168   6.942   7.338   5.391
 4071TIP3   OH212169   0.749   0.071   4.429
 4071TIP3    H112170   0.806   0.146   4.413
 4071TIP3    H212171   0.713   0.049   4.343
 4072TIP3   OH212172   7.350   0.911   1.300
 4072TIP3    H112173   7.389   0.957   1.226
 4072TIP3    H212174   7.405   0.832   1.310
 4073TIP3   OH212175   6.099   4.700   5.266
 4073TIP3    H112176   6.006   4.721   5.254
 4073TIP3    H212177   6.141   4.729   5.185
 4074TIP3   OH212178   5.849   0.940   2.964
 4074TIP3    H112179   5.916   0.883   2.926
 4074TIP3    H212180   5.788   0.881   3.007
 4075TIP3   OH212181   2.271   7.108   0.256
 4075TIP3    H112182   2.258   7.184   0.200
 4075TIP3    H212183   2.209   7.043   0.223
 4076TIP3   OH212184   0.466   5.667   3.850
 4076TIP3    H112185   0.556   5.697   3.857
 4076TIP3    H212186   0.469   5.592   3.790
 4077TIP3   OH212187   3.324   2.924   4.451
 4077TIP3    H112188   3.340   2.939   4.545
 4077TIP3    H212189   3.351   2.833   4.437
 4078TIP3   OH212190   7.749   5.153   6.537
 4078TIP3    H112191   7.733   5.208   6.613
 4078TIP3    H212192   7.668   5.104   6.524
 4079TIP3   OH212193   5.231   6.772   1.823
 4079TIP3    H112194   5.304   6.725   1.782
 4079TIP3    H212195   5.185   6.706   1.875
 4080TIP3   OH212196   4.494   5.391   6.203
 4080TIP3    H112197   4.552   5.452   6.248
 4080TIP3    H212198   4.408   5.432   6.209
 4081TIP3   OH212199   7.682   0.277   5.528
 4081TIP3    H112200   7.675   0.372   5.537
 4081TIP3    H212201   7.770   0.257   5.557
 4082TIP3   OH212202   3.939   5.937   1.075
 4082TIP3    H112203   3.855   5.964   1.114
 4082TIP3    H212204   3.957   6.003   1.008
 4083TIP3   OH212205   5.547   7.682   1.943
 4083TIP3    H112206   5.526   7.737   2.018
 4083TIP3    H212207   5.641   7.696   1.929
 4084TIP3   OH212208   1.715   4.891   6.310
 4084TIP3    H112209   1.619   4.889   6.307
 4084TIP3    H212210   1.738   4.962   6.249
 4085TIP3   OH212211   0.242   0.852   4.741
 4085TIP3    H112212   0.221   0.818   4.828
 4085TIP3    H212213   0.220   0.945   4.745
 4086TIP3   OH212214   3.401   6.684   4.868
 4086TIP3    H112215   3.339   6.743   4.910
 4086TIP3    H212216   3.476   6.682   4.929
 4087TIP3   OH212217   2.516   6.759   4.778
 4087TIP3    H112218   2.512   6.715   4.693
 4087TIP3    H212219   2.575   6.705   4.831
 4088TIP3   OH212220   1.240   1.472   2.131
 4088TIP3    H112221   1.311   1.420   2.168
 4088TIP3    H212222   1.188   1.410   2.080
 4089TIP3   OH212223   3.499   5.301   1.457
 4089TIP3    H112224   3.409   5.291   1.488
 4089TIP3    H212225   3.549   5.235   1.505
 4090TIP3   OH212226   1.303   2.846   0.497
 4090TIP3    H112227   1.385   2.892   0.515
 4090TIP3    H212228   1.259   2.840   0.582
 4091TIP3   OH212229   3.618   6.984   0.610
 4091TIP3    H112230   3.700   7.030   0.590
 4091TIP3    H212231   3.557   7.054   0.634
 4092TIP3   OH212232   7.985   6.028   0.743
 4092TIP3    H112233   7.934   5.992   0.670
 4092TIP3    H212234   8.011   5.952   0.794
 4093TIP3   OH212235   6.015   6.258   0.037
 4093TIP3    H112236   6.055   6.344   0.027
 4093TIP3    H212237   5.995   6.251   0.131
 4094TIP3   OH212238   2.276   4.998   3.127
 4094TIP3    H112239   2.366   4.980   3.101
 4094TIP3    H212240   2.280   5.008   3.223
 4095TIP3   OH212241   2.716   5.997   6.599
 4095TIP3    H112242   2.625   6.008   6.573
 4095TIP3    H212243   2.766   6.018   6.520
 4096TIP3   OH212244   3.744   2.857   5.486
 4096TIP3    H112245   3.730   2.855   5.392
 4096TIP3    H212246   3.657   2.841   5.523
 4097TIP3   OH212247   7.224   3.255   0.950
 4097TIP3    H112248   7.304   3.283   0.995
 4097TIP3    H212249   7.160   3.324   0.970
 4098TIP3   OH212250   3.755   3.693   2.914
 4098TIP3    H112251   3.733   3.782   2.887
 4098TIP3    H212252   3.699   3.637   2.861
 4099TIP3   OH212253   5.278   5.678   5.418
 4099TIP3    H112254   5.347   5.703   5.357
 4099TIP3    H212255   5.240   5.599   5.380
 4100TIP3   OH212256   0.777   2.226   4.957
 4100TIP3    H112257   0.853   2.268   4.997
 4100TIP3    H212258   0.811   2.183   4.879
 4101TIP3   OH212259   1.723   0.847   1.754
 4101TIP3    H112260   1.655   0.796   1.710
 4101TIP3    H212261   1.709   0.937   1.724
 4102TIP3   OH212262   4.822   5.334   4.743
 4102TIP3    H112263   4.903   5.364   4.702
 4102TIP3    H212264   4.840   5.333   4.836
 4103TIP3   OH212265   7.453   3.317   1.585
 4103TIP3    H112266   7.381   3.254   1.595
 4103TIP3    H212267   7.478   3.310   1.493
 4104TIP3   OH212268   5.701   6.603   1.755
 4104TIP3    H112269   5.700   6.625   1.849
 4104TIP3    H212270   5.695   6.688   1.711
 4105TIP3   OH212271   3.945   2.646   6.375
 4105TIP3    H112272   3.920   2.647   6.283
 4105TIP3    H212273   3.971   2.556   6.392
 4106TIP3   OH212274   3.265   7.156   6.344
 4106TIP3    H112275   3.198   7.189   6.405
 4106TIP3    H212276   3.220   7.089   6.293
 4107TIP3   OH212277   6.044   2.805   5.351
 4107TIP3    H112278   6.078   2.885   5.391
 4107TIP3    H212279   5.950   2.819   5.345
 4108TIP3   OH212280   3.168   5.508   2.792
 4108TIP3    H112281   3.219   5.428   2.801
 4108TIP3    H212282   3.231   5.575   2.769
 4109TIP3   OH212283   6.643   5.181   1.327
 4109TIP3    H112284   6.580   5.157   1.395
 4109TIP3    H212285   6.699   5.104   1.319
 4110TIP3   OH212286   7.266   5.357   0.036
 4110TIP3    H112287   7.305   5.444   0.036
 4110TIP3    H212288   7.300   5.315  -0.043
 4111TIP3   OH212289   1.134   0.197   3.332
 4111TIP3    H112290   1.081   0.209   3.253
 4111TIP3    H212291   1.150   0.102   3.336
 4112TIP3   OH212292   6.435   1.576   1.231
 4112TIP3    H112293   6.421   1.561   1.325
 4112TIP3    H212294   6.400   1.498   1.189
 4113TIP3   OH212295   4.669   5.211   1.155
 4113TIP3    H112296   4.609   5.202   1.081
 4113TIP3    H212297   4.619   5.261   1.220
 4114TIP3   OH212298   7.500   5.011   6.562
 4114TIP3    H112299   7.500   4.942   6.628
 4114TIP3    H212300   7.416   5.057   6.576
 4115TIP3   OH212301   7.928   3.665   3.797
 4115TIP3    H112302   7.939   3.745   3.849
 4115TIP3    H212303   7.850   3.623   3.834
 4116TIP3   OH212304   2.103   4.076   1.095
 4116TIP3    H112305   2.035   4.029   1.046
 4116TIP3    H212306   2.184   4.056   1.049
 4117TIP3   OH212307   1.404   1.611   1.428
 4117TIP3    H112308   1.468   1.605   1.499
 4117TIP3    H212309   1.334   1.665   1.463
 4118TIP3   OH212310   7.117   1.542   6.074
 4118TIP3    H112311   7.166   1.517   5.995
 4118TIP3    H212312   7.052   1.605   6.042
 4119TIP3   OH212313   6.741   4.817   1.690
 4119TIP3    H112314   6.773   4.817   1.600
 4119TIP3    H212315   6.780   4.738   1.729
 4120TIP3   OH212316   4.586   4.286   2.596
 4120TIP3    H112317   4.561   4.377   2.578
 4120TIP3    H212318   4.592   4.245   2.509
 4121TIP3   OH212319   0.815   0.735   5.589
 4121TIP3    H112320   0.783   0.818   5.555
 4121TIP3    H212321   0.886   0.759   5.648
 4122TIP3   OH212322   5.380   4.119   1.337
 4122TIP3    H112323   5.406   4.170   1.260
 4122TIP3    H212324   5.449   4.054   1.348
 4123TIP3   OH212325   1.708   1.357   4.094
 4123TIP3    H112326   1.735   1.367   4.003
 4123TIP3    H212327   1.758   1.283   4.127
 4124TIP3   OH212328   3.095   4.725   5.273
 4124TIP3    H112329   3.037   4.699   5.202
 4124TIP3    H212330   3.150   4.649   5.290
 4125TIP3   OH212331   4.183   2.179   4.937
 4125TIP3    H112332   4.173   2.274   4.935
 4125TIP3    H212333   4.178   2.156   5.030
 4126TIP3   OH212334   2.579   3.241   3.018
 4126TIP3    H112335   2.528   3.302   3.070
 4126TIP3    H212336   2.578   3.160   3.069
 4127TIP3   OH212337   6.761   0.134   5.908
 4127TIP3    H112338   6.691   0.198   5.922
 4127TIP3    H212339   6.773   0.094   5.994
 4128TIP3   OH212340   3.173   5.667   0.576
 4128TIP3    H112341   3.128   5.606   0.519
 4128TIP3    H212342   3.241   5.706   0.521
 4129TIP3   OH212343   0.227   4.057   3.039
 4129TIP3    H112344   0.210   4.102   3.121
 4129TIP3    H212345   0.245   3.966   3.064
 4130TIP3   OH212346   0.493   7.060   3.504
 4130TIP3    H112347   0.414   7.020   3.542
 4130TIP3    H212348   0.544   7.090   3.579
 4131TIP3   OH212349   0.347   6.104   6.576
 4131TIP3    H112350   0.299   6.084   6.657
 4131TIP3    H212351   0.338   6.198   6.566
 4132TIP3   OH212352   5.320   1.162   3.618
 4132TIP3    H112353   5.309   1.083   3.566
 4132TIP3    H212354   5.398   1.205   3.582
 4133TIP3   OH212355   0.535   4.063   6.605
 4133TIP3    H112356   0.602   4.105   6.551
 4133TIP3    H212357   0.456   4.066   6.551
 4134TIP3   OH212358   3.386   0.534   0.475
 4134TIP3    H112359   3.365   0.516   0.567
 4134TIP3    H212360   3.439   0.459   0.447
 4135TIP3   OH212361   6.051   1.059   1.894
 4135TIP3    H112362   6.137   1.095   1.873
 4135TIP3    H212363   6.022   1.017   1.813
 4136TIP3   OH212364   5.810   4.862   6.557
 4136TIP3    H112365   5.778   4.810   6.483
 4136TIP3    H212366   5.780   4.814   6.634
 4137TIP3   OH212367   6.499   1.086   6.396
 4137TIP3    H112368   6.524   1.008   6.446
 4137TIP3    H212369   6.530   1.069   6.308
 4138TIP3   OH212370   0.374   1.749   2.203
 4138TIP3    H112371   0.333   1.667   2.230
 4138TIP3    H212372   0.301   1.808   2.184
 4139TIP3   OH212373   3.360   3.826   3.604
 4139TIP3    H112374   3.311   3.865   3.677
 4139TIP3    H212375   3.451   3.826   3.634
 4140TIP3   OH212376   7.012   7.589   1.194
 4140TIP3    H112377   6.997   7.619   1.104
 4140TIP3    H212378   7.009   7.669   1.246
 4141TIP3   OH212379   0.876   0.830   4.222
 4141TIP3    H112380   0.963   0.802   4.253
 4141TIP3    H212381   0.870   0.922   4.248
 4142TIP3   OH212382   7.828   7.120   5.669
 4142TIP3    H112383   7.811   7.173   5.747
 4142TIP3    H212384   7.922   7.099   5.673
 4143TIP3   OH212385   7.194   1.915   5.585
 4143TIP3    H112386   7.219   1.934   5.676
 4143TIP3    H212387   7.262   1.856   5.554
 4144TIP3   OH212388   0.546   3.584   1.647
 4144TIP3    H112389   0.611   3.561   1.580
 4144TIP3    H212390   0.522   3.674   1.626
 4145TIP3   OH212391   0.877   2.786   6.585
 4145TIP3    H112392   0.848   2.782   6.676
 4145TIP3    H212393   0.879   2.695   6.556
 4146TIP3   OH212394   3.154   5.171   6.096
 4146TIP3    H112395   3.239   5.167   6.053
 4146TIP3    H212396   3.172   5.207   6.183
 4147TIP3   OH212397   7.401   0.296   2.793
 4147TIP3    H112398   7.430   0.379   2.755
 4147TIP3    H212399   7.455   0.286   2.871
 4148TIP3   OH212400   2.299   6.908   5.012
 4148TIP3    H112401   2.279   6.943   4.926
 4148TIP3    H212402   2.282   6.814   5.005
 4149TIP3   OH212403   1.544   3.917   1.159
 4149TIP3    H112404   1.560   3.933   1.066
 4149TIP3    H212405   1.562   3.823   1.170
 4150TIP3   OH212406   4.819   0.093   6.218
 4150TIP3    H112407   4.748   0.029   6.225
 4150TIP3    H212408   4.857   0.078   6.132
 4151TIP3   OH212409   7.101   2.977   0.927
 4151TIP3    H112410   7.102   2.912   0.998
 4151TIP3    H212411   7.147   3.052   0.964
 4152TIP3   OH212412   6.740   7.422   6.115
 4152TIP3    H112413   6.722   7.474   6.194
 4152TIP3    H212414   6.831   7.442   6.094
 4153TIP3   OH212415   2.410   2.929   6.201
 4153TIP3    H112416   2.380   2.973   6.281
 4153TIP3    H212417   2.332   2.888   6.165
 4154TIP3   OH212418   4.205   3.922   5.341
 4154TIP3    H112419   4.125   3.870   5.335
 4154TIP3    H212420   4.275   3.858   5.352
 4155TIP3   OH212421   7.624   6.214   5.683
 4155TIP3    H112422   7.673   6.136   5.711
 4155TIP3    H212423   7.673   6.287   5.722
 4156TIP3   OH212424   2.548   0.822   3.400
 4156TIP3    H112425   2.572   0.734   3.373
 4156TIP3    H212426   2.613   0.847   3.465
 4157TIP3   OH212427   0.849   0.875   6.114
 4157TIP3    H112428   0.828   0.959   6.073
 4157TIP3    H212429   0.907   0.897   6.187
 4158TIP3   OH212430   0.899   0.869   2.298
 4158TIP3    H112431   0.827   0.808   2.312
 4158TIP3    H212432   0.975   0.826   2.337
 4159TIP3   OH212433   5.150   0.701   3.479
 4159TIP3    H112434   5.101   0.632   3.523
 4159TIP3    H212435   5.093   0.729   3.407
 4160TIP3   OH212436   1.443   2.989   0.234
 4160TIP3    H112437   1.467   2.911   0.283
 4160TIP3    H212438   1.473   3.062   0.289
 4161TIP3   OH212439   0.816   5.222   2.747
 4161TIP3    H112440   0.759   5.156   2.787
 4161TIP3    H212441   0.840   5.184   2.662
 4162TIP3   OH212442   2.862   3.664   5.783
 4162TIP3    H112443   2.772   3.630   5.782
 4162TIP3    H212444   2.852   3.758   5.799
 4163TIP3   OH212445   4.634   5.848   4.518
 4163TIP3    H112446   4.727   5.845   4.496
 4163TIP3    H212447   4.620   5.936   4.553
 4164TIP3   OH212448   0.816   4.105   4.791
 4164TIP3    H112449   0.745   4.166   4.811
 4164TIP3    H212450   0.796   4.027   4.843
 4165TIP3   OH212451   3.856   2.834   1.673
 4165TIP3    H112452   3.938   2.792   1.699
 4165TIP3    H212453   3.843   2.903   1.738
 4166TIP3   OH212454   2.531   6.643   1.997
 4166TIP3    H112455   2.466   6.573   1.986
 4166TIP3    H212456   2.604   6.616   1.940
 4167TIP3   OH212457   5.379   4.796   1.991
 4167TIP3    H112458   5.457   4.761   1.947
 4167TIP3    H212459   5.408   4.878   2.030
 4168TIP3   OH212460   0.139   6.472   5.684
 4168TIP3    H112461   0.142   6.557   5.727
 4168TIP3    H212462   0.051   6.439   5.701
 4169TIP3   OH212463   1.863   3.072   3.049
 4169TIP3    H112464   1.911   3.098   3.128
 4169TIP3    H212465   1.930   3.064   2.982
 4170TIP3   OH212466   2.016   4.329   0.357
 4170TIP3    H112467   2.077   4.396   0.326
 4170TIP3    H212468   2.049   4.247   0.319
 4171TIP3   OH212469   5.979   2.539   5.154
 4171TIP3    H112470   5.978   2.621   5.203
 4171TIP3    H212471   5.931   2.559   5.073
 4172TIP3   OH212472   4.695   5.441   3.736
 4172TIP3    H112473   4.634   5.452   3.664
 4172TIP3    H212474   4.707   5.346   3.744
 4173TIP3   OH212475   4.971   5.097   4.358
 4173TIP3    H112476   4.962   5.193   4.359
 4173TIP3    H212477   5.064   5.082   4.375
 4174TIP3   OH212478   3.087   2.589   5.284
 4174TIP3    H112479   3.112   2.680   5.269
 4174TIP3    H212480   3.003   2.594   5.329
 4175TIP3   OH212481   7.422   1.793   3.150
 4175TIP3    H112482   7.396   1.877   3.189
 4175TIP3    H212483   7.511   1.808   3.117
 4176TIP3   OH212484   4.645   3.054   6.705
 4176TIP3    H112485   4.584   3.096   6.645
 4176TIP3    H212486   4.703   3.124   6.734
 4177TIP3   OH212487   2.328   4.909   1.534
 4177TIP3    H112488   2.240   4.941   1.553
 4177TIP3    H212489   2.385   4.983   1.553
 4178TIP3   OH212490   7.891   1.369   5.467
 4178TIP3    H112491   7.798   1.382   5.489
 4178TIP3    H212492   7.930   1.337   5.549
 4179TIP3   OH212493   1.672   4.154   4.164
 4179TIP3    H112494   1.591   4.184   4.122
 4179TIP3    H212495   1.650   4.148   4.257
 4180TIP3   OH212496   5.268   5.846   6.463
 4180TIP3    H112497   5.184   5.830   6.506
 4180TIP3    H212498   5.275   5.777   6.397
 4181TIP3   OH212499   0.932   1.030   5.660
 4181TIP3    H112500   0.999   1.040   5.594
 4181TIP3    H212501   0.953   0.947   5.704
 4182TIP3   OH212502   0.053   6.378  -0.008
 4182TIP3    H112503   0.074   6.290   0.022
 4182TIP3    H212504   0.060   6.433   0.070
 4183TIP3   OH212505   6.075   7.152   3.456
 4183TIP3    H112506   6.108   7.230   3.501
 4183TIP3    H212507   6.092   7.080   3.516
 4184TIP3   OH212508   7.211   5.870   0.311
 4184TIP3    H112509   7.282   5.903   0.366
 4184TIP3    H212510   7.219   5.919   0.229
 4185TIP3   OH212511   2.507   5.549   2.598
 4185TIP3    H112512   2.511   5.547   2.503
 4185TIP3    H212513   2.427   5.501   2.620
 4186TIP3   OH212514   4.947   6.103   1.885
 4186TIP3    H112515   4.898   6.185   1.886
 4186TIP3    H212516   4.955   6.078   1.977
 4187TIP3   OH212517   4.418   3.613   0.163
 4187TIP3    H112518   4.447   3.565   0.086
 4187TIP3    H212519   4.497   3.621   0.217
 4188TIP3   OH212520   3.453   2.278   2.250
 4188TIP3    H112521   3.521   2.239   2.196
 4188TIP3    H212522   3.481   2.261   2.340
 4189TIP3   OH212523   4.803   3.360   0.300
 4189TIP3    H112524   4.835   3.307   0.227
 4189TIP3    H212525   4.727   3.313   0.333
 4190TIP3   OH212526   7.236   4.441   1.068
 4190TIP3    H112527   7.266   4.452   1.158
 4190TIP3    H212528   7.307   4.476   1.014
 4191TIP3   OH212529   5.726   7.351   0.091
 4191TIP3    H112530   5.635   7.381   0.096
 4191TIP3    H212531   5.732   7.305   0.007
 4192TIP3   OH212532   2.430   5.144   1.298
 4192TIP3    H112533   2.471   5.178   1.378
 4192TIP3    H212534   2.338   5.130   1.322
 4193TIP3   OH212535   1.327   5.950   0.308
 4193TIP3    H112536   1.396   6.016   0.304
 4193TIP3    H212537   1.276   5.963   0.229
 4194TIP3   OH212538   3.652   4.499   2.108
 4194TIP3    H112539   3.672   4.409   2.082
 4194TIP3    H212540   3.693   4.508   2.194
 4195TIP3   OH212541   1.114   3.499   3.061
 4195TIP3    H112542   1.141   3.567   2.999
 4195TIP3    H212543   1.093   3.547   3.141
 4196TIP3   OH212544   4.177   2.629   3.239
 4196TIP3    H112545   4.173   2.666   3.327
 4196TIP3    H212546   4.230   2.549   3.248
 4197TIP3   OH212547   2.969   1.633   2.934
 4197TIP3    H112548   3.015   1.709   2.900
 4197TIP3    H212549   3.023   1.558   2.908
 4198TIP3   OH212550   8.211   0.901   0.157
 4198TIP3    H112551   8.136   0.960   0.164
 4198TIP3    H212552   8.186   0.824   0.209
 4199TIP3   OH212553   6.806   3.777   4.916
 4199TIP3    H112554   6.876   3.842   4.911
 4199TIP3    H212555   6.805   3.736   4.829
 4200TIP3   OH212556   4.436   1.406   0.746
 4200TIP3    H112557   4.447   1.400   0.651
 4200TIP3    H212558   4.342   1.412   0.760
 4201TIP3   OH212559   2.780   3.863   0.465
 4201TIP3    H112560   2.794   3.777   0.424
 4201TIP3    H212561   2.687   3.864   0.487
 4202TIP3   OH212562   2.070   3.115   0.097
 4202TIP3    H112563   2.089   3.209   0.098
 4202TIP3    H212564   1.974   3.110   0.097
 4203TIP3   OH212565   5.785   7.722   4.822
 4203TIP3    H112566   5.803   7.815   4.839
 4203TIP3    H212567   5.713   7.699   4.880
 4204TIP3   OH212568   5.661   0.571   6.677
 4204TIP3    H112569   5.593   0.571   6.745
 4204TIP3    H212570   5.662   0.662   6.645
 4205TIP3   OH212571   3.505   2.877   2.042
 4205TIP3    H112572   3.486   2.970   2.031
 4205TIP3    H212573   3.423   2.833   2.020
 4206TIP3   OH212574   6.155   1.475   1.056
 4206TIP3    H112575   6.177   1.566   1.034
 4206TIP3    H212576   6.240   1.433   1.070
 4207TIP3   OH212577   3.879   1.173   6.406
 4207TIP3    H112578   3.931   1.206   6.332
 4207TIP3    H212579   3.932   1.100   6.440
 4208TIP3   OH212580   0.169   7.805   5.240
 4208TIP3    H112581   0.176   7.775   5.150
 4208TIP3    H212582   0.146   7.727   5.290
 4209TIP3   OH212583   0.801   0.604   2.157
 4209TIP3    H112584   0.850   0.557   2.225
 4209TIP3    H212585   0.756   0.535   2.108
 4210TIP3   OH212586   0.756   2.012   2.285
 4210TIP3    H112587   0.694   1.946   2.315
 4210TIP3    H212588   0.705   2.069   2.228
 4211TIP3   OH212589   6.419   4.838   5.721
 4211TIP3    H112590   6.335   4.824   5.676
 4211TIP3    H212591   6.407   4.919   5.769
 4212TIP3   OH212592   1.926   4.663   1.530
 4212TIP3    H112593   1.977   4.610   1.591
 4212TIP3    H212594   1.835   4.648   1.555
 4213TIP3   OH212595   4.333   4.355   1.236
 4213TIP3    H112596   4.387   4.428   1.267
 4213TIP3    H212597   4.244   4.389   1.234
 4214TIP3   OH212598   7.552   4.786   6.099
 4214TIP3    H112599   7.607   4.849   6.054
 4214TIP3    H212600   7.535   4.825   6.185
 4215TIP3   OH212601   2.616   6.147   1.283
 4215TIP3    H112602   2.601   6.193   1.366
 4215TIP3    H212603   2.698   6.184   1.250
 4216TIP3   OH212604   2.233   4.978   2.414
 4216TIP3    H112605   2.144   4.953   2.438
 4216TIP3    H212606   2.281   4.975   2.497
 4217TIP3   OH212607   6.086   2.654   2.943
 4217TIP3    H112608   6.046   2.567   2.933
 4217TIP3    H212609   6.018   2.715   2.915
 4218TIP3   OH212610   7.141   2.035   4.239
 4218TIP3    H112611   7.127   1.942   4.256
 4218TIP3    H212612   7.206   2.037   4.169
 4219TIP3   OH212613   0.264   4.787   2.313
 4219TIP3    H112614   0.172   4.768   2.293
 4219TIP3    H212615   0.278   4.877   2.284
 4220TIP3   OH212616   3.441   6.721   1.952
 4220TIP3    H112617   3.516   6.765   1.912
 4220TIP3    H212618   3.376   6.791   1.964
 4221TIP3   OH212619   3.876   5.624   5.331
 4221TIP3    H112620   3.875   5.638   5.425
 4221TIP3    H212621   3.836   5.537   5.319
 4222TIP3   OH212622   6.956   4.840   3.873
 4222TIP3    H112623   7.038   4.792   3.886
 4222TIP3    H212624   6.973   4.926   3.911
 4223TIP3   OH212625   0.560   6.622   1.155
 4223TIP3    H112626   0.628   6.643   1.091
 4223TIP3    H212627   0.527   6.706   1.184
 4224TIP3   OH212628   8.220   7.276   5.464
 4224TIP3    H112629   8.251   7.188   5.487
 4224TIP3    H212630   8.192   7.268   5.373
 4225TIP3   OH212631   6.377   2.274   6.266
 4225TIP3    H112632   6.317   2.220   6.213
 4225TIP3    H212633   6.399   2.218   6.341
 4226TIP3   OH212634   3.244   5.348   4.313
 4226TIP3    H112635   3.337   5.365   4.294
 4226TIP3    H212636   3.198   5.422   4.274
 4227TIP3   OH212637   5.055   2.697   2.170
 4227TIP3    H112638   5.085   2.607   2.158
 4227TIP3    H212639   4.969   2.699   2.128
 4228TIP3   OH212640   6.193   4.452   5.399
 4228TIP3    H112641   6.204   4.379   5.338
 4228TIP3    H212642   6.156   4.522   5.345
 4229TIP3   OH212643   5.011   3.783   2.547
 4229TIP3    H112644   4.948   3.854   2.536
 4229TIP3    H212645   5.090   3.812   2.501
 4230TIP3   OH212646   6.342   1.180   4.954
 4230TIP3    H112647   6.323   1.231   4.875
 4230TIP3    H212648   6.333   1.089   4.927
 4231TIP3   OH212649   0.958   6.739   4.656
 4231TIP3    H112650   0.940   6.645   4.648
 4231TIP3    H212651   0.989   6.764   4.569
 4232TIP3   OH212652   6.882   5.335   1.232
 4232TIP3    H112653   6.803   5.285   1.249
 4232TIP3    H212654   6.953   5.283   1.270
 4233TIP3   OH212655   0.691   0.018   6.599
 4233TIP3    H112656   0.631   0.076   6.646
 4233TIP3    H212657   0.636  -0.053   6.566
 4234TIP3   OH212658   7.603   7.043   1.747
 4234TIP3    H112659   7.681   7.093   1.770
 4234TIP3    H212660   7.535   7.109   1.735
 4235TIP3   OH212661   2.414   7.315   1.590
 4235TIP3    H112662   2.370   7.344   1.670
 4235TIP3    H212663   2.376   7.229   1.571
 4236TIP3   OH212664   3.141   6.259   2.287
 4236TIP3    H112665   3.126   6.261   2.192
 4236TIP3    H212666   3.227   6.217   2.296
 4237TIP3   OH212667   6.199   5.975   0.646
 4237TIP3    H112668   6.195   6.061   0.687
 4237TIP3    H212669   6.163   5.988   0.559
 4238TIP3   OH212670   3.968   7.072   3.273
 4238TIP3    H112671   3.987   7.070   3.179
 4238TIP3    H212672   3.980   6.981   3.302
 4239TIP3   OH212673   5.917   2.211   5.360
 4239TIP3    H112674   5.980   2.231   5.291
 4239TIP3    H212675   5.910   2.292   5.410
 4240TIP3   OH212676   7.072   6.867   4.796
 4240TIP3    H112677   7.110   6.893   4.712
 4240TIP3    H212678   7.089   6.941   4.854
 4241TIP3   OH212679   2.284   1.947   6.266
 4241TIP3    H112680   2.337   1.912   6.194
 4241TIP3    H212681   2.334   2.021   6.299
 4242TIP3   OH212682   3.480   2.666   0.631
 4242TIP3    H112683   3.460   2.709   0.548
 4242TIP3    H212684   3.440   2.721   0.698
 4243TIP3   OH212685   6.607   4.116  -0.018
 4243TIP3    H112686   6.525   4.159   0.008
 4243TIP3    H212687   6.624   4.052   0.052
 4244TIP3   OH212688   5.257   5.057   6.154
 4244TIP3    H112689   5.195   5.055   6.081
 4244TIP3    H212690   5.300   4.971   6.150
 4245TIP3   OH212691   8.005   6.565   4.436
 4245TIP3    H112692   7.953   6.523   4.504
 4245TIP3    H212693   7.941   6.602   4.375
 4246TIP3   OH212694   5.317   3.069   2.926
 4246TIP3    H112695   5.375   3.024   2.987
 4246TIP3    H212696   5.235   3.081   2.975
 4247TIP3   OH212697   4.908   2.594   3.988
 4247TIP3    H112698   4.953   2.625   4.067
 4247TIP3    H212699   4.884   2.504   4.008
 4248TIP3   OH212700   0.114   3.284   1.806
 4248TIP3    H112701   0.197   3.241   1.829
 4248TIP3    H212702   0.096   3.342   1.880
 4249TIP3   OH212703   5.157   3.458   1.827
 4249TIP3    H112704   5.118   3.470   1.914
 4249TIP3    H212705   5.097   3.501   1.767
 4250TIP3   OH212706   5.872   3.862   6.397
 4250TIP3    H112707   5.946   3.866   6.337
 4250TIP3    H212708   5.912   3.863   6.484
 4251TIP3   OH212709   2.330   0.616   3.184
 4251TIP3    H112710   2.376   0.539   3.151
 4251TIP3    H212711   2.398   0.672   3.220
 4252TIP3   OH212712   7.749   3.192   5.739
 4252TIP3    H112713   7.799   3.111   5.742
 4252TIP3    H212714   7.803   3.255   5.788
 4253TIP3   OH212715   6.234   6.946   1.652
 4253TIP3    H112716   6.183   6.887   1.707
 4253TIP3    H212717   6.171   7.013   1.624
 4254TIP3   OH212718   7.626   6.151   0.211
 4254TIP3    H112719   7.674   6.075   0.244
 4254TIP3    H212720   7.544   6.151   0.259
 4255TIP3   OH212721   6.741   4.927   5.948
 4255TIP3    H112722   6.765   5.002   5.892
 4255TIP3    H212723   6.823   4.880   5.960
 4256TIP3   OH212724   0.749   7.770   3.518
 4256TIP3    H112725   0.752   7.829   3.442
 4256TIP3    H212726   0.656   7.763   3.540
 4257TIP3   OH212727   5.732   4.958   0.437
 4257TIP3    H112728   5.661   5.013   0.469
 4257TIP3    H212729   5.789   4.946   0.513
 4258TIP3   OH212730   4.444   3.736   5.196
 4258TIP3    H112731   4.464   3.669   5.131
 4258TIP3    H212732   4.516   3.732   5.259
 4259TIP3   OH212733   3.647   0.394   1.460
 4259TIP3    H112734   3.588   0.354   1.524
 4259TIP3    H212735   3.682   0.471   1.505
 4260TIP3   OH212736   4.385   0.524   6.573
 4260TIP3    H112737   4.453   0.591   6.568
 4260TIP3    H212738   4.325   0.546   6.501
 4261TIP3   OH212739   8.278   3.425   4.933
 4261TIP3    H112740   8.275   3.476   4.852
 4261TIP3    H212741   8.300   3.336   4.904
 4262TIP3   OH212742   3.040   4.715   3.988
 4262TIP3    H112743   3.108   4.707   3.921
 4262TIP3    H212744   3.061   4.646   4.051
 4263TIP3   OH212745   5.844   2.872   6.101
 4263TIP3    H112746   5.868   2.811   6.171
 4263TIP3    H212747   5.839   2.818   6.022
 4264TIP3   OH212748   1.338   6.737   4.056
 4264TIP3    H112749   1.250   6.764   4.030
 4264TIP3    H212750   1.327   6.700   4.144
 4265TIP3   OH212751   4.733   5.828   0.607
 4265TIP3    H112752   4.659   5.797   0.554
 4265TIP3    H212753   4.756   5.752   0.662
 4266TIP3   OH212754   7.093   4.889   0.841
 4266TIP3    H112755   7.118   4.981   0.847
 4266TIP3    H212756   7.175   4.843   0.825
 4267TIP3   OH212757   7.362   7.165   3.497
 4267TIP3    H112758   7.347   7.174   3.591
 4267TIP3    H212759   7.423   7.092   3.489
 4268TIP3   OH212760   5.600   1.642   4.296
 4268TIP3    H112761   5.533   1.578   4.319
 4268TIP3    H212762   5.668   1.632   4.363
 4269TIP3   OH212763   6.505   2.761   3.502
 4269TIP3    H112764   6.521   2.718   3.586
 4269TIP3    H212765   6.570   2.722   3.443
 4270TIP3   OH212766   2.737   2.334   2.904
 4270TIP3    H112767   2.806   2.280   2.865
 4270TIP3    H212768   2.750   2.421   2.866
 4271TIP3   OH212769   3.331   5.715   1.573
 4271TIP3    H112770   3.421   5.683   1.585
 4271TIP3    H212771   3.279   5.636   1.558
 4272TIP3   OH212772   2.548   6.959   1.200
 4272TIP3    H112773   2.607   6.888   1.174
 4272TIP3    H212774   2.463   6.933   1.167
 4273TIP3   OH212775   3.712   2.603   4.377
 4273TIP3    H112776   3.649   2.548   4.331
 4273TIP3    H212777   3.729   2.676   4.317
 4274TIP3   OH212778   2.860   1.016   5.197
 4274TIP3    H112779   2.887   1.104   5.173
 4274TIP3    H212780   2.941   0.966   5.200
 4275TIP3   OH212781   5.612   1.258   2.988
 4275TIP3    H112782   5.611   1.272   3.082
 4275TIP3    H212783   5.703   1.269   2.962
 4276TIP3   OH212784   0.085   1.300   5.852
 4276TIP3    H112785   0.125   1.333   5.932
 4276TIP3    H212786   0.098   1.205   5.856
 4277TIP3   OH212787   3.205   7.569   4.302
 4277TIP3    H112788   3.262   7.641   4.330
 4277TIP3    H212789   3.200   7.578   4.207
 4278TIP3   OH212790   4.544   5.768   6.752
 4278TIP3    H112791   4.556   5.813   6.835
 4278TIP3    H212792   4.538   5.838   6.687
 4279TIP3   OH212793   4.826   2.921   2.296
 4279TIP3    H112794   4.824   2.826   2.284
 4279TIP3    H212795   4.764   2.937   2.368
 4280TIP3   OH212796   2.964   1.292   6.062
 4280TIP3    H112797   2.991   1.317   5.974
 4280TIP3    H212798   3.046   1.279   6.110
 4281TIP3   OH212799   6.588   4.312   2.611
 4281TIP3    H112800   6.645   4.361   2.669
 4281TIP3    H212801   6.646   4.252   2.564
 4282TIP3   OH212802   4.142   0.642   5.617
 4282TIP3    H112803   4.233   0.629   5.590
 4282TIP3    H212804   4.115   0.722   5.573
 4283TIP3   OH212805   7.753   1.769   1.664
 4283TIP3    H112806   7.780   1.837   1.602
 4283TIP3    H212807   7.660   1.755   1.646
 4284TIP3   OH212808   3.522   6.646   0.043
 4284TIP3    H112809   3.435   6.617   0.016
 4284TIP3    H212810   3.544   6.591   0.118
 4285TIP3   OH212811   0.684   3.102   6.467
 4285TIP3    H112812   0.608   3.112   6.410
 4285TIP3    H212813   0.647   3.093   6.555
 4286TIP3   OH212814   3.729   4.622   1.864
 4286TIP3    H112815   3.758   4.649   1.951
 4286TIP3    H212816   3.779   4.542   1.846
 4287TIP3   OH212817   7.573   1.138   1.201
 4287TIP3    H112818   7.533   1.215   1.241
 4287TIP3    H212819   7.643   1.113   1.262
 4288TIP3   OH212820   6.992   1.137   1.919
 4288TIP3    H112821   6.981   1.125   1.825
 4288TIP3    H212822   7.076   1.095   1.939
 4289TIP3   OH212823   1.695   1.828   3.520
 4289TIP3    H112824   1.759   1.759   3.539
 4289TIP3    H212825   1.725   1.902   3.573
 4290TIP3   OH212826   1.428   2.708   6.334
 4290TIP3    H112827   1.367   2.657   6.387
 4290TIP3    H212828   1.479   2.758   6.398
 4291TIP3   OH212829   7.711   7.811   6.769
 4291TIP3    H112830   7.638   7.751   6.781
 4291TIP3    H212831   7.674   7.898   6.782
 4292TIP3   OH212832   5.972   0.390   0.135
 4292TIP3    H112833   6.010   0.469   0.097
 4292TIP3    H212834   5.891   0.376   0.087
 4293TIP3   OH212835   8.038   6.049   6.193
 4293TIP3    H112836   8.036   6.124   6.252
 4293TIP3    H212837   7.947   6.019   6.189
 4294TIP3   OH212838   4.510   0.211   3.972
 4294TIP3    H112839   4.527   0.185   3.881
 4294TIP3    H212840   4.446   0.282   3.965
 4295TIP3   OH212841   1.245   0.844   6.278
 4295TIP3    H112842   1.272   0.772   6.335
 4295TIP3    H212843   1.315   0.909   6.287
 4296TIP3   OH212844   7.024   6.879   2.339
 4296TIP3    H112845   7.090   6.856   2.405
 4296TIP3    H212846   7.070   6.937   2.278
 4297TIP3   OH212847   7.894   1.028   5.654
 4297TIP3    H112848   7.911   1.005   5.563
 4297TIP3    H212849   7.948   1.106   5.669
 4298TIP3   OH212850   1.068   6.192   6.093
 4298TIP3    H112851   0.975   6.169   6.088
 4298TIP3    H212852   1.109   6.137   6.025
 4299TIP3   OH212853   2.432   1.247   4.717
 4299TIP3    H112854   2.346   1.207   4.704
 4299TIP3    H212855   2.488   1.174   4.743
 4300TIP3   OH212856   6.276   4.319   2.645
 4300TIP3    H112857   6.364   4.281   2.640
 4300TIP3    H212858   6.256   4.322   2.739
 4301TIP3   OH212859   1.140   2.763   2.544
 4301TIP3    H112860   1.109   2.680   2.506
 4301TIP3    H212861   1.081   2.829   2.506
 4302TIP3   OH212862   0.801   0.705   5.267
 4302TIP3    H112863   0.720   0.660   5.292
 4302TIP3    H212864   0.852   0.639   5.221
 4303TIP3   OH212865   1.728   0.233   2.253
 4303TIP3    H112866   1.727   0.138   2.266
 4303TIP3    H212867   1.812   0.262   2.290
 4304TIP3   OH212868   6.518   2.666   4.756
 4304TIP3    H112869   6.441   2.665   4.812
 4304TIP3    H212870   6.521   2.755   4.721
 4305TIP3   OH212871   6.861   2.172   5.201
 4305TIP3    H112872   6.802   2.220   5.143
 4305TIP3    H212873   6.804   2.139   5.270
 4306TIP3   OH212874   4.622   7.115   3.312
 4306TIP3    H112875   4.599   7.207   3.300
 4306TIP3    H212876   4.702   7.103   3.260
 4307TIP3   OH212877   3.687   2.397   0.020
 4307TIP3    H112878   3.620   2.465   0.024
 4307TIP3    H212879   3.770   2.444   0.028
 4308TIP3   OH212880   6.962   7.607   2.607
 4308TIP3    H112881   6.877   7.639   2.637
 4308TIP3    H212882   6.995   7.555   2.681
 4309TIP3   OH212883   7.725   3.321   1.501
 4309TIP3    H112884   7.736   3.279   1.586
 4309TIP3    H212885   7.684   3.254   1.446
 4310TIP3   OH212886   5.552   6.194   5.215
 4310TIP3    H112887   5.573   6.170   5.306
 4310TIP3    H212888   5.498   6.122   5.183
 4311TIP3   OH212889   5.507   0.367   5.013
 4311TIP3    H112890   5.563   0.305   4.965
 4311TIP3    H212891   5.446   0.311   5.061
 4312TIP3   OH212892   7.713   5.530   5.315
 4312TIP3    H112893   7.752   5.467   5.376
 4312TIP3    H212894   7.753   5.613   5.339
 4313TIP3   OH212895   6.351   6.257   2.559
 4313TIP3    H112896   6.351   6.180   2.616
 4313TIP3    H212897   6.260   6.269   2.536
 4314TIP3   OH212898   3.818   0.304   3.577
 4314TIP3    H112899   3.780   0.388   3.606
 4314TIP3    H212900   3.756   0.238   3.608
 4315TIP3   OH212901   2.506   7.004   5.736
 4315TIP3    H112902   2.470   7.026   5.650
 4315TIP3    H212903   2.452   7.053   5.798
 4316TIP3   OH212904   5.504   2.703   3.635
 4316TIP3    H112905   5.455   2.638   3.685
 4316TIP3    H212906   5.577   2.655   3.597
 4317TIP3   OH212907   5.771   1.493   6.163
 4317TIP3    H112908   5.784   1.560   6.096
 4317TIP3    H212909   5.825   1.521   6.237
 4318TIP3   OH212910   7.735   7.557   3.100
 4318TIP3    H112911   7.690   7.472   3.098
 4318TIP3    H212912   7.732   7.588   3.010
 4319TIP3   OH212913   8.256   2.224   3.968
 4319TIP3    H112914   8.163   2.242   3.982
 4319TIP3    H212915   8.270   2.138   4.008
 4320TIP3   OH212916   3.432   6.145   5.533
 4320TIP3    H112917   3.460   6.166   5.622
 4320TIP3    H212918   3.410   6.052   5.537
 4321TIP3   OH212919   3.112   0.548   4.890
 4321TIP3    H112920   3.037   0.605   4.874
 4321TIP3    H212921   3.177   0.575   4.825
 4322TIP3   OH212922   3.029   7.471   5.618
 4322TIP3    H112923   3.045   7.421   5.539
 4322TIP3    H212924   3.024   7.562   5.589
 4323TIP3   OH212925   0.716   2.886   6.244
 4323TIP3    H112926   0.732   2.971   6.203
 4323TIP3    H212927   0.748   2.898   6.334
 4324TIP3   OH212928   5.426   6.616   6.744
 4324TIP3    H112929   5.503   6.653   6.789
 4324TIP3    H212930   5.398   6.685   6.684
 4325TIP3   OH212931   3.267   5.789   0.810
 4325TIP3    H112932   3.225   5.749   0.733
 4325TIP3    H212933   3.212   5.762   0.884
 4326TIP3   OH212934   5.935   5.718   2.374
 4326TIP3    H112935   5.850   5.689   2.407
 4326TIP3    H212936   5.917   5.801   2.331
 4327TIP3   OH212937   8.146   3.011   3.013
 4327TIP3    H112938   8.145   3.103   2.987
 4327TIP3    H212939   8.054   2.988   3.026
 4328TIP3   OH212940   4.301   2.608   2.802
 4328TIP3    H112941   4.310   2.696   2.767
 4328TIP3    H212942   4.388   2.587   2.836
 4329TIP3   OH212943   6.782   6.548   6.637
 4329TIP3    H112944   6.750   6.607   6.705
 4329TIP3    H212945   6.812   6.607   6.567
 4330TIP3   OH212946   4.196   3.134   1.075
 4330TIP3    H112947   4.225   3.222   1.050
 4330TIP3    H212948   4.276   3.088   1.098
 4331TIP3   OH212949   2.403   4.233   3.297
 4331TIP3    H112950   2.423   4.325   3.278
 4331TIP3    H212951   2.451   4.214   3.378
 4332TIP3   OH212952   4.092   7.021   5.863
 4332TIP3    H112953   4.118   7.108   5.894
 4332TIP3    H212954   4.124   7.017   5.773
 4333TIP3   OH212955   4.445   6.664   5.803
 4333TIP3    H112956   4.532   6.678   5.767
 4333TIP3    H212957   4.451   6.694   5.893
 4334TIP3   OH212958   4.233   1.178   4.088
 4334TIP3    H112959   4.138   1.189   4.090
 4334TIP3    H212960   4.267   1.265   4.070
 4335TIP3   OH212961   6.150   3.712   2.242
 4335TIP3    H112962   6.138   3.716   2.337
 4335TIP3    H212963   6.137   3.801   2.212
 4336TIP3   OH212964   4.549   3.850   2.956
 4336TIP3    H112965   4.496   3.786   3.002
 4336TIP3    H212966   4.521   3.934   2.993
 4337TIP3   OH212967   3.920   2.477   6.159
 4337TIP3    H112968   3.830   2.453   6.140
 4337TIP3    H212969   3.950   2.523   6.081
 4338TIP3   OH212970   3.082   3.304   5.926
 4338TIP3    H112971   3.163   3.352   5.937
 4338TIP3    H212972   3.027   3.361   5.872
 4339TIP3   OH212973   1.853   4.377   4.556
 4339TIP3    H112974   1.828   4.289   4.528
 4339TIP3    H212975   1.882   4.366   4.646
 4340TIP3   OH212976   0.394   2.861   3.837
 4340TIP3    H112977   0.385   2.954   3.857
 4340TIP3    H212978   0.364   2.853   3.747
 4341TIP3   OH212979   7.497   4.433   6.620
 4341TIP3    H112980   7.575   4.455   6.671
 4341TIP3    H212981   7.428   4.488   6.657
 4342TIP3   OH212982   6.355   0.435   6.155
 4342TIP3    H112983   6.275   0.414   6.107
 4342TIP3    H212984   6.325   0.491   6.227
 4343TIP3   OH212985   1.456   2.735   5.475
 4343TIP3    H112986   1.368   2.750   5.510
 4343TIP3    H212987   1.461   2.791   5.398
 4344TIP3   OH212988   5.958   2.404   6.329
 4344TIP3    H112989   5.969   2.364   6.415
 4344TIP3    H212990   5.929   2.493   6.347
 4345TIP3   OH212991   6.072   4.966   6.519
 4345TIP3    H112992   6.121   4.914   6.583
 4345TIP3    H212993   5.984   4.930   6.521
 4346TIP3   OH212994   3.443   1.461   3.017
 4346TIP3    H112995   3.381   1.491   3.084
 4346TIP3    H212996   3.428   1.366   3.012
 4347TIP3   OH212997   4.782   5.223   1.674
 4347TIP3    H112998   4.792   5.213   1.769
 4347TIP3    H212999   4.699   5.181   1.654
 4348TIP3   OH213000   7.412   7.192   2.393
 4348TIP3    H113001   7.484   7.256   2.393
 4348TIP3    H213002   7.342   7.236   2.346
 4349TIP3   OH213003   5.087   0.749   5.253
 4349TIP3    H113004   5.168   0.753   5.203
 4349TIP3    H213005   5.104   0.804   5.330
 4350TIP3   OH213006   6.634   3.581   2.921
 4350TIP3    H113007   6.548   3.621   2.934
 4350TIP3    H213008   6.619   3.513   2.856
 4351TIP3   OH213009   6.820   1.249   3.611
 4351TIP3    H113010   6.914   1.260   3.623
 4351TIP3    H213011   6.796   1.178   3.671
 4352TIP3   OH213012   7.296   6.535   0.943
 4352TIP3    H113013   7.220   6.477   0.953
 4352TIP3    H213014   7.327   6.549   1.033
 4353TIP3   OH213015   1.801   7.731   5.991
 4353TIP3    H113016   1.874   7.712   5.933
 4353TIP3    H213017   1.841   7.750   6.075
 4354TIP3   OH213018   4.159   1.425   6.380
 4354TIP3    H113019   4.160   1.351   6.442
 4354TIP3    H213020   4.079   1.473   6.401
 4355TIP3   OH213021   3.732   6.302   0.385
 4355TIP3    H113022   3.755   6.224   0.333
 4355TIP3    H213023   3.639   6.315   0.370
 4356TIP3   OH213024   2.290   3.908   2.273
 4356TIP3    H113025   2.288   3.836   2.210
 4356TIP3    H213026   2.348   3.877   2.343
 4357TIP3   OH213027   5.722   0.308   6.275
 4357TIP3    H113028   5.750   0.353   6.195
 4357TIP3    H213029   5.665   0.237   6.245
 4358TIP3   OH213030   7.114   6.866   4.418
 4358TIP3    H113031   7.158   6.841   4.337
 4358TIP3    H213032   7.022   6.848   4.402
 4359TIP3   OH213033   6.949   1.406   2.670
 4359TIP3    H113034   6.938   1.449   2.755
 4359TIP3    H213035   6.889   1.452   2.612
 4360TIP3   OH213036   2.682   3.469   6.079
 4360TIP3    H113037   2.672   3.454   5.985
 4360TIP3    H213038   2.772   3.500   6.088
 4361TIP3   OH213039   2.665   2.703   3.760
 4361TIP3    H113040   2.740   2.722   3.703
 4361TIP3    H213041   2.705   2.674   3.842
 4362TIP3   OH213042   5.344   1.544   6.731
 4362TIP3    H113043   5.367   1.451   6.738
 4362TIP3    H213044   5.252   1.544   6.706
 4363TIP3   OH213045   3.097   5.496   3.750
 4363TIP3    H113046   3.025   5.552   3.721
 4363TIP3    H213047   3.065   5.407   3.736
 4364TIP3   OH213048   2.634   1.690   4.190
 4364TIP3    H113049   2.566   1.625   4.205
 4364TIP3    H213050   2.712   1.639   4.167
 4365TIP3   OH213051   4.191   5.653   1.614
 4365TIP3    H113052   4.212   5.568   1.653
 4365TIP3    H213053   4.235   5.652   1.529
 4366TIP3   OH213054   7.143   6.309   5.503
 4366TIP3    H113055   7.152   6.238   5.440
 4366TIP3    H213056   7.233   6.327   5.533
 4367TIP3   OH213057   1.988   4.720   2.473
 4367TIP3    H113058   1.983   4.703   2.567
 4367TIP3    H213059   1.974   4.815   2.465
 4368TIP3   OH213060   1.644   4.752   4.922
 4368TIP3    H113061   1.719   4.708   4.962
 4368TIP3    H213062   1.672   4.770   4.832
 4369TIP3   OH213063   1.051   0.260   2.147
 4369TIP3    H113064   1.136   0.292   2.119
 4369TIP3    H213065   1.033   0.185   2.091
 4370TIP3   OH213066   2.505   6.120   4.566
 4370TIP3    H113067   2.556   6.092   4.642
 4370TIP3    H213068   2.480   6.210   4.585
 4371TIP3   OH213069   0.435   2.403   2.155
 4371TIP3    H113070   0.448   2.363   2.069
 4371TIP3    H213071   0.435   2.497   2.138
 4372TIP3   OH213072   7.966   7.134   4.182
 4372TIP3    H113073   8.041   7.174   4.139
 4372TIP3    H213074   7.890   7.164   4.132
 4373TIP3   OH213075   4.455   3.515   5.013
 4373TIP3    H113076   4.457   3.424   5.043
 4373TIP3    H213077   4.505   3.515   4.931
 4374TIP3   OH213078   0.939   2.771   5.956
 4374TIP3    H113079   1.023   2.777   5.910
 4374TIP3    H213080   0.959   2.799   6.045
 4375TIP3   OH213081   4.374   2.145   6.470
 4375TIP3    H113082   4.467   2.122   6.480
 4375TIP3    H213083   4.329   2.060   6.466
 4376TIP3   OH213084   7.966   6.049   4.532
 4376TIP3    H113085   7.888   6.077   4.485
 4376TIP3    H213086   7.963   6.096   4.615
 4377TIP3   OH213087   5.456   4.463   5.518
 4377TIP3    H113088   5.418   4.550   5.529
 4377TIP3    H213089   5.480   4.435   5.606
 4378TIP3   OH213090   2.060   2.244   2.167
 4378TIP3    H113091   2.000   2.175   2.192
 4378TIP3    H213092   2.133   2.237   2.230
 4379TIP3   OH213093   4.313   2.476   2.261
 4379TIP3    H113094   4.225   2.469   2.223
 4379TIP3    H213095   4.361   2.532   2.200
 4380TIP3   OH213096   7.497   7.175   2.049
 4380TIP3    H113097   7.500   7.114   2.123
 4380TIP3    H213098   7.484   7.261   2.089
 4381TIP3   OH213099   5.171   0.738   5.653
 4381TIP3    H113100   5.207   0.825   5.671
 4381TIP3    H213101   5.225   0.678   5.705
 4382TIP3   OH213102   5.956   4.479   3.095
 4382TIP3    H113103   5.943   4.443   3.182
 4382TIP3    H213104   5.870   4.476   3.054
 4383TIP3   OH213105   1.414   0.335   3.880
 4383TIP3    H113106   1.322   0.359   3.868
 4383TIP3    H213107   1.463   0.414   3.858
 4384TIP3   OH213108   3.557   3.109   3.330
 4384TIP3    H113109   3.558   3.091   3.236
 4384TIP3    H213110   3.517   3.195   3.338
 4385TIP3   OH213111   5.886   2.877   3.707
 4385TIP3    H113112   5.900   2.785   3.683
 4385TIP3    H213113   5.944   2.926   3.649
 4386TIP3   OH213114   8.089   0.934   2.685
 4386TIP3    H113115   8.108   0.857   2.738
 4386TIP3    H213116   8.133   1.006   2.729
 4387TIP3   OH213117   3.038   3.583   4.766
 4387TIP3    H113118   2.954   3.597   4.810
 4387TIP3    H213119   3.079   3.512   4.817
 4388TIP3   OH213120   6.013   0.608   4.184
 4388TIP3    H113121   6.020   0.596   4.279
 4388TIP3    H213122   6.093   0.568   4.149
 4389TIP3   OH213123   2.967   1.885   3.363
 4389TIP3    H113124   3.026   1.960   3.368
 4389TIP3    H213125   2.879   1.922   3.377
 4390TIP3   OH213126   4.244   5.091   5.547
 4390TIP3    H113127   4.281   5.027   5.607
 4390TIP3    H213128   4.177   5.042   5.499
 4391TIP3   OH213129   7.236   7.376   5.848
 4391TIP3    H113130   7.321   7.331   5.846
 4391TIP3    H213131   7.174   7.309   5.820
 4392TIP3   OH213132   1.529   3.959   5.505
 4392TIP3    H113133   1.589   3.885   5.510
 4392TIP3    H213134   1.565   4.024   5.566
 4393TIP3   OH213135   7.952   4.592   1.427
 4393TIP3    H113136   8.025   4.532   1.411
 4393TIP3    H213137   7.935   4.583   1.521
 4394TIP3   OH213138   3.023   4.341   2.468
 4394TIP3    H113139   2.992   4.410   2.409
 4394TIP3    H213140   3.117   4.334   2.449
 4395TIP3   OH213141   4.539   7.635   4.743
 4395TIP3    H113142   4.464   7.640   4.802
 4395TIP3    H213143   4.546   7.542   4.721
 4396TIP3   OH213144   4.420   0.980   6.177
 4396TIP3    H113145   4.489   0.990   6.242
 4396TIP3    H213146   4.454   0.915   6.115
 4397TIP3   OH213147   2.846   4.657   3.485
 4397TIP3    H113148   2.871   4.705   3.564
 4397TIP3    H213149   2.868   4.566   3.505
 4398TIP3   OH213150   3.513   3.264   0.697
 4398TIP3    H113151   3.488   3.347   0.736
 4398TIP3    H213152   3.563   3.219   0.765
 4399TIP3   OH213153   5.162   0.427   3.615
 4399TIP3    H113154   5.213   0.349   3.637
 4399TIP3    H213155   5.074   0.407   3.647
 4400TIP3   OH213156   2.365   5.618   4.385
 4400TIP3    H113157   2.403   5.692   4.432
 4400TIP3    H213158   2.272   5.620   4.408
 4401TIP3   OH213159   6.478   2.894   1.599
 4401TIP3    H113160   6.462   2.904   1.505
 4401TIP3    H213161   6.496   2.801   1.611
 4402TIP3   OH213162   6.909   2.059   0.238
 4402TIP3    H113163   6.838   2.119   0.215
 4402TIP3    H213164   6.958   2.047   0.156
 4403TIP3   OH213165   0.285   1.685   3.222
 4403TIP3    H113166   0.341   1.743   3.170
 4403TIP3    H213167   0.319   1.597   3.204
 4404TIP3   OH213168   7.089   2.601   2.086
 4404TIP3    H113169   7.142   2.541   2.139
 4404TIP3    H213170   7.023   2.545   2.045
 4405TIP3   OH213171   2.434   4.118   4.200
 4405TIP3    H113172   2.417   4.032   4.163
 4405TIP3    H213173   2.422   4.179   4.126
 4406TIP3   OH213174   0.960   0.104   5.132
 4406TIP3    H113175   0.937   0.023   5.086
 4406TIP3    H213176   0.965   0.079   5.224
 4407TIP3   OH213177   7.911   0.705   0.152
 4407TIP3    H113178   7.885   0.614   0.169
 4407TIP3    H213179   8.001   0.710   0.185
 4408TIP3   OH213180   3.517   1.586   5.996
 4408TIP3    H113181   3.549   1.528   6.066
 4408TIP3    H213182   3.578   1.659   5.996
 4409TIP3   OH213183   0.291   3.820   3.300
 4409TIP3    H113184   0.315   3.804   3.209
 4409TIP3    H213185   0.334   3.750   3.349
 4410TIP3   OH213186   4.894   3.460   1.359
 4410TIP3    H113187   4.922   3.383   1.309
 4410TIP3    H213188   4.799   3.463   1.347
 4411TIP3   OH213189   0.326   6.519   4.876
 4411TIP3    H113190   0.345   6.606   4.913
 4411TIP3    H213191   0.398   6.504   4.814
 4412TIP3   OH213192   2.411   3.037   5.501
 4412TIP3    H113193   2.350   3.053   5.429
 4412TIP3    H213194   2.473   2.972   5.466
 4413TIP3   OH213195   4.190   7.680   5.893
 4413TIP3    H113196   4.107   7.708   5.930
 4413TIP3    H213197   4.209   7.746   5.825
 4414TIP3   OH213198   6.740   2.198   2.122
 4414TIP3    H113199   6.660   2.247   2.104
 4414TIP3    H213200   6.711   2.120   2.168
 4415TIP3   OH213201   6.394   5.569   4.962
 4415TIP3    H113202   6.358   5.602   4.879
 4415TIP3    H213203   6.487   5.556   4.944
 4416TIP3   OH213204   4.922   7.068   0.799
 4416TIP3    H113205   4.837   7.089   0.759
 4416TIP3    H213206   4.964   7.010   0.736
 4417TIP3   OH213207   1.843   1.876   4.742
 4417TIP3    H113208   1.917   1.840   4.693
 4417TIP3    H213209   1.773   1.812   4.730
 4418TIP3   OH213210   3.331   4.351   4.369
 4418TIP3    H113211   3.361   4.434   4.406
 4418TIP3    H213212   3.261   4.322   4.427
 4419TIP3   OH213213   7.768   7.549   0.827
 4419TIP3    H113214   7.692   7.532   0.882
 4419TIP3    H213215   7.837   7.495   0.863
 4420TIP3   OH213216   1.518   5.207   6.427
 4420TIP3    H113217   1.605   5.216   6.387
 4420TIP3    H213218   1.469   5.152   6.366
 4421TIP3   OH213219   3.447   1.772   0.863
 4421TIP3    H113220   3.385   1.846   0.868
 4421TIP3    H213221   3.440   1.729   0.948
 4422TIP3   OH213222   3.462   6.656   5.572
 4422TIP3    H113223   3.513   6.634   5.494
 4422TIP3    H213224   3.384   6.700   5.538
 4423TIP3   OH213225   4.777   1.132   2.007
 4423TIP3    H113226   4.839   1.146   2.078
 4423TIP3    H213227   4.785   1.210   1.952
 4424TIP3   OH213228   4.294   7.753   0.764
 4424TIP3    H113229   4.350   7.741   0.687
 4424TIP3    H213230   4.259   7.841   0.755
 4425TIP3   OH213231   0.072   0.068   4.111
 4425TIP3    H113232  -0.011   0.105   4.139
 4425TIP3    H213233   0.091  -0.001   4.174
 4426TIP3   OH213234   2.784   1.221   4.778
 4426TIP3    H113235   2.773   1.282   4.850
 4426TIP3    H213236   2.877   1.199   4.779
 4427TIP3   OH213237   6.398   3.856   2.230
 4427TIP3    H113238   6.336   3.925   2.251
 4427TIP3    H213239   6.343   3.782   2.202
 4428TIP3   OH213240   5.125   3.354   0.442
 4428TIP3    H113241   5.132   3.293   0.369
 4428TIP3    H213242   5.179   3.316   0.511
 4429TIP3   OH213243   4.260   7.355   1.246
 4429TIP3    H113244   4.184   7.364   1.188
 4429TIP3    H213245   4.223   7.341   1.333
 4430TIP3   OH213246   6.339   2.059   5.687
 4430TIP3    H113247   6.413   2.057   5.749
 4430TIP3    H213248   6.337   1.970   5.651
 4431TIP3   OH213249   8.002   0.079   2.706
 4431TIP3    H113250   7.925   0.086   2.762
 4431TIP3    H213251   7.991  -0.004   2.660
 4432TIP3   OH213252   8.008   7.227   0.059
 4432TIP3    H113253   8.021   7.145   0.106
 4432TIP3    H213254   7.948   7.205  -0.011
 4433TIP3   OH213255   3.663   1.403   2.696
 4433TIP3    H113256   3.583   1.354   2.675
 4433TIP3    H213257   3.636   1.495   2.694
 4434TIP3   OH213258   3.090   2.744   5.780
 4434TIP3    H113259   3.078   2.698   5.864
 4434TIP3    H213260   3.099   2.836   5.804
 4435TIP3   OH213261   1.993   0.646   2.914
 4435TIP3    H113262   1.976   0.580   2.982
 4435TIP3    H213263   2.086   0.665   2.922
 4436TIP3   OH213264   0.756   1.195   2.888
 4436TIP3    H113265   0.836   1.193   2.835
 4436TIP3    H213266   0.704   1.267   2.850
 4437TIP3   OH213267   4.505   4.246   0.446
 4437TIP3    H113268   4.582   4.299   0.429
 4437TIP3    H213269   4.472   4.277   0.531
 4438TIP3   OH213270   3.943   4.742   6.468
 4438TIP3    H113271   3.929   4.799   6.392
 4438TIP3    H213272   3.970   4.802   6.537
 4439TIP3   OH213273   7.574   5.096   3.563
 4439TIP3    H113274   7.641   5.065   3.624
 4439TIP3    H213275   7.615   5.088   3.476
 4440TIP3   OH213276   2.253   5.808   3.405
 4440TIP3    H113277   2.276   5.783   3.494
 4440TIP3    H213278   2.159   5.827   3.409
 4441TIP3   OH213279   6.258   5.638   6.354
 4441TIP3    H113280   6.189   5.670   6.295
 4441TIP3    H213281   6.319   5.592   6.297
 4442TIP3   OH213282   5.350   1.110   5.352
 4442TIP3    H113283   5.359   1.090   5.259
 4442TIP3    H213284   5.401   1.190   5.365
 4443TIP3   OH213285   0.422   7.813   1.662
 4443TIP3    H113286   0.370   7.832   1.584
 4443TIP3    H213287   0.436   7.719   1.659
 4444TIP3   OH213288   8.301   4.634   5.196
 4444TIP3    H113289   8.277   4.623   5.288
 4444TIP3    H213290   8.318   4.727   5.187
 4445TIP3   OH213291   7.622   0.379   5.180
 4445TIP3    H113292   7.534   0.394   5.145
 4445TIP3    H213293   7.660   0.466   5.187
 4446TIP3   OH213294   7.799   3.659   6.506
 4446TIP3    H113295   7.890   3.633   6.517
 4446TIP3    H213296   7.802   3.754   6.490
 4447TIP3   OH213297   5.830   5.085   3.880
 4447TIP3    H113298   5.834   4.993   3.852
 4447TIP3    H213299   5.753   5.120   3.835
 4448TIP3   OH213300   4.092   3.089   2.358
 4448TIP3    H113301   4.164   3.084   2.295
 4448TIP3    H213302   4.123   3.039   2.434
 4449TIP3   OH213303   2.073   6.042   4.690
 4449TIP3    H113304   2.058   6.110   4.625
 4449TIP3    H213305   2.133   6.083   4.753
 4450TIP3   OH213306   0.739   2.775   2.842
 4450TIP3    H113307   0.760   2.846   2.782
 4450TIP3    H213308   0.686   2.815   2.910
 4451TIP3   OH213309   0.220   3.913   1.595
 4451TIP3    H113310   0.182   4.001   1.598
 4451TIP3    H213311   0.297   3.917   1.652
 4452TIP3   OH213312   1.023   4.737   5.518
 4452TIP3    H113313   0.940   4.730   5.567
 4452TIP3    H213314   1.086   4.690   5.573
 4453TIP3   OH213315   0.151   7.527   4.699
 4453TIP3    H113316   0.122   7.576   4.622
 4453TIP3    H213317   0.134   7.436   4.676
 4454TIP3   OH213318   0.766   4.012   5.314
 4454TIP3    H113319   0.696   3.993   5.378
 4454TIP3    H213320   0.846   3.986   5.359
 4455TIP3   OH213321   1.188   4.372   6.498
 4455TIP3    H113322   1.258   4.316   6.532
 4455TIP3    H213323   1.129   4.385   6.571
 4456TIP3   OH213324   7.127   6.665   0.509
 4456TIP3    H113325   7.121   6.570   0.517
 4456TIP3    H213326   7.154   6.696   0.595
 4457TIP3   OH213327   3.802   1.404   4.562
 4457TIP3    H113328   3.721   1.447   4.586
 4457TIP3    H213329   3.791   1.314   4.592
 4458TIP3   OH213330   6.857   7.181   2.191
 4458TIP3    H113331   6.839   7.088   2.189
 4458TIP3    H213332   6.834   7.209   2.280
 4459TIP3   OH213333   5.159   7.195   0.913
 4459TIP3    H113334   5.152   7.261   0.844
 4459TIP3    H213335   5.099   7.126   0.887
 4460TIP3   OH213336   6.310   0.141   2.681
 4460TIP3    H113337   6.317   0.094   2.764
 4460TIP3    H213338   6.366   0.091   2.621
 4461TIP3   OH213339   7.714   0.039   2.815
 4461TIP3    H113340   7.629   0.040   2.859
 4461TIP3    H213341   7.770  -0.013   2.873
 4462TIP3   OH213342   1.779   7.508   2.863
 4462TIP3    H113343   1.785   7.539   2.954
 4462TIP3    H213344   1.686   7.490   2.851
 4463TIP3   OH213345   1.005   0.843   5.367
 4463TIP3    H113346   0.921   0.801   5.352
 4463TIP3    H213347   1.045   0.793   5.438
 4464TIP3   OH213348   0.691   4.599   4.503
 4464TIP3    H113349   0.778   4.565   4.523
 4464TIP3    H213350   0.653   4.534   4.444
 4465TIP3   OH213351   7.454   5.477   3.674
 4465TIP3    H113352   7.541   5.449   3.647
 4465TIP3    H213353   7.399   5.399   3.665
 4466TIP3   OH213354   5.613   1.768   2.583
 4466TIP3    H113355   5.665   1.827   2.528
 4466TIP3    H213356   5.602   1.817   2.665
 4467TIP3   OH213357   3.240   6.576   2.935
 4467TIP3    H113358   3.267   6.503   2.991
 4467TIP3    H213359   3.271   6.654   2.981
 4468TIP3   OH213360   5.393   3.535   0.546
 4468TIP3    H113361   5.460   3.580   0.494
 4468TIP3    H213362   5.426   3.445   0.554
 4469TIP3   OH213363   4.823   6.024   2.950
 4469TIP3    H113364   4.831   5.929   2.946
 4469TIP3    H213365   4.746   6.040   3.004
 4470TIP3   OH213366   2.531   5.567   6.622
 4470TIP3    H113367   2.487   5.647   6.593
 4470TIP3    H213368   2.462   5.501   6.621
 4471TIP3   OH213369   6.611   4.544   3.489
 4471TIP3    H113370   6.703   4.570   3.496
 4471TIP3    H213371   6.613   4.460   3.444
 4472TIP3   OH213372   6.247   3.498   5.799
 4472TIP3    H113373   6.271   3.533   5.713
 4472TIP3    H213374   6.253   3.572   5.859
 4473TIP3   OH213375   0.418   4.606   3.736
 4473TIP3    H113376   0.340   4.644   3.777
 4473TIP3    H213377   0.489   4.665   3.760
 4474TIP3   OH213378   7.417   2.336   0.700
 4474TIP3    H113379   7.352   2.403   0.718
 4474TIP3    H213380   7.464   2.368   0.623
 4475TIP3   OH213381   1.691   3.697   1.600
 4475TIP3    H113382   1.732   3.643   1.668
 4475TIP3    H213383   1.630   3.638   1.556
 4476TIP3   OH213384   7.189   5.619   1.613
 4476TIP3    H113385   7.100   5.634   1.644
 4476TIP3    H213386   7.192   5.526   1.590
 4477TIP3   OH213387   1.254   6.606   1.324
 4477TIP3    H113388   1.192   6.676   1.347
 4477TIP3    H213389   1.230   6.532   1.379
 4478TIP3   OH213390   7.738   6.295   0.462
 4478TIP3    H113391   7.714   6.214   0.417
 4478TIP3    H213392   7.833   6.302   0.448
 4479TIP3   OH213393   6.002   0.292   3.912
 4479TIP3    H113394   5.990   0.261   4.002
 4479TIP3    H213395   5.917   0.279   3.870
 4480TIP3   OH213396   7.186   6.397   2.140
 4480TIP3    H113397   7.150   6.311   2.119
 4480TIP3    H213398   7.124   6.459   2.102
 4481TIP3   OH213399   6.702   0.186   4.849
 4481TIP3    H113400   6.664   0.257   4.797
 4481TIP3    H213401   6.749   0.132   4.785
 4482TIP3   OH213402   0.656   5.000   6.336
 4482TIP3    H113403   0.736   4.991   6.388
 4482TIP3    H213404   0.666   4.936   6.266
 4483TIP3   OH213405   1.561   5.657   4.319
 4483TIP3    H113406   1.639   5.616   4.283
 4483TIP3    H213407   1.493   5.644   4.252
 4484TIP3   OH213408   3.391   7.499   0.887
 4484TIP3    H113409   3.405   7.562   0.957
 4484TIP3    H213410   3.421   7.415   0.923
 4485TIP3   OH213411   5.519   1.265   3.447
 4485TIP3    H113412   5.488   1.305   3.366
 4485TIP3    H213413   5.566   1.186   3.417
 4486TIP3   OH213414   8.078   5.813   4.480
 4486TIP3    H113415   8.039   5.893   4.513
 4486TIP3    H213416   8.019   5.783   4.411
 4487TIP3   OH213417   6.215   7.000   2.138
 4487TIP3    H113418   6.204   7.093   2.158
 4487TIP3    H213419   6.183   6.954   2.216
 4488TIP3   OH213420   3.741   4.731   5.113
 4488TIP3    H113421   3.728   4.643   5.078
 4488TIP3    H213422   3.830   4.731   5.147
 4489TIP3   OH213423   3.457   4.210   0.565
 4489TIP3    H113424   3.462   4.298   0.526
 4489TIP3    H213425   3.548   4.181   0.569
 4490TIP3   OH213426   5.860   4.622   4.654
 4490TIP3    H113427   5.912   4.685   4.604
 4490TIP3    H213428   5.908   4.539   4.644
 4491TIP3   OH213429   7.416   2.122   2.165
 4491TIP3    H113430   7.353   2.063   2.206
 4491TIP3    H213431   7.455   2.171   2.238
 4492TIP3   OH213432   3.482   6.015   4.756
 4492TIP3    H113433   3.423   6.056   4.693
 4492TIP3    H213434   3.457   6.053   4.841
 4493TIP3   OH213435   2.179   2.587   5.151
 4493TIP3    H113436   2.107   2.532   5.119
 4493TIP3    H213437   2.240   2.593   5.077
 4494TIP3   OH213438   4.086   2.986   3.381
 4494TIP3    H113439   4.130   3.051   3.434
 4494TIP3    H213440   4.132   2.904   3.400
 4495TIP3   OH213441   1.466   5.021   4.328
 4495TIP3    H113442   1.450   5.088   4.396
 4495TIP3    H213443   1.493   5.071   4.251
 4496TIP3   OH213444   1.281   3.091   2.317
 4496TIP3    H113445   1.318   3.006   2.339
 4496TIP3    H213446   1.356   3.146   2.295
 4497TIP3   OH213447   1.433   4.299   3.699
 4497TIP3    H113448   1.432   4.220   3.753
 4497TIP3    H213449   1.363   4.353   3.735
 4498TIP3   OH213450   2.507   5.890   2.843
 4498TIP3    H113451   2.441   5.898   2.774
 4498TIP3    H213452   2.474   5.946   2.914
 4499TIP3   OH213453   3.712   1.624   3.626
 4499TIP3    H113454   3.794   1.615   3.577
 4499TIP3    H213455   3.728   1.578   3.709
 4500TIP3   OH213456   4.172   0.276   2.966
 4500TIP3    H113457   4.109   0.288   2.895
 4500TIP3    H213458   4.188   0.182   2.969
 4501TIP3   OH213459   7.952   7.645   4.326
 4501TIP3    H113460   7.922   7.570   4.377
 4501TIP3    H213461   8.011   7.608   4.261
 4502TIP3   OH213462   7.851   4.181   3.428
 4502TIP3    H113463   7.892   4.207   3.345
 4502TIP3    H213464   7.792   4.110   3.404
 4503TIP3   OH213465   4.424   1.043   4.834
 4503TIP3    H113466   4.398   0.970   4.779
 4503TIP3    H213467   4.463   1.107   4.774
 4504TIP3   OH213468   1.086   2.095   3.425
 4504TIP3    H113469   1.155   2.028   3.429
 4504TIP3    H213470   1.077   2.115   3.332
 4505TIP3   OH213471   4.100   5.713   2.530
 4505TIP3    H113472   4.169   5.742   2.470
 4505TIP3    H213473   4.026   5.691   2.474
 4506TIP3   OH213474   5.224   7.210   4.981
 4506TIP3    H113475   5.142   7.181   4.941
 4506TIP3    H213476   5.206   7.210   5.075
 4507TIP3   OH213477   6.299   0.225   1.077
 4507TIP3    H113478   6.311   0.301   1.021
 4507TIP3    H213479   6.236   0.170   1.030
 4508TIP3   OH213480   4.814   6.615   2.807
 4508TIP3    H113481   4.900   6.598   2.769
 4508TIP3    H213482   4.814   6.568   2.890
 4509TIP3   OH213483   4.051   7.481   2.861
 4509TIP3    H113484   4.122   7.420   2.878
 4509TIP3    H213485   3.987   7.464   2.930
 4510TIP3   OH213486   6.558   1.047   0.525
 4510TIP3    H113487   6.645   1.011   0.542
 4510TIP3    H213488   6.558   1.066   0.431
 4511TIP3   OH213489   4.764   2.186   4.977
 4511TIP3    H113490   4.759   2.222   4.889
 4511TIP3    H213491   4.676   2.155   4.996
 4512TIP3   OH213492   2.161   5.013   3.633
 4512TIP3    H113493   2.142   5.102   3.602
 4512TIP3    H213494   2.213   4.975   3.563
 4513TIP3   OH213495   4.424   1.375   2.937
 4513TIP3    H113496   4.360   1.444   2.922
 4513TIP3    H213497   4.464   1.397   3.022
 4514TIP3   OH213498   1.276   6.638   5.529
 4514TIP3    H113499   1.365   6.672   5.542
 4514TIP3    H213500   1.231   6.706   5.479
 4515TIP3   OH213501   7.628   6.197   5.359
 4515TIP3    H113502   7.674   6.148   5.291
 4515TIP3    H213503   7.693   6.208   5.429
 4516TIP3   OH213504   2.078   2.346   2.652
 4516TIP3    H113505   2.062   2.254   2.631
 4516TIP3    H213506   2.171   2.359   2.632
 4517TIP3   OH213507   8.210   5.621   3.316
 4517TIP3    H113508   8.275   5.614   3.385
 4517TIP3    H213509   8.223   5.541   3.263
 4518TIP3   OH213510   1.886   3.295   1.594
 4518TIP3    H113511   1.957   3.357   1.580
 4518TIP3    H213512   1.884   3.283   1.689
 4519TIP3   OH213513   3.313   1.267   4.277
 4519TIP3    H113514   3.294   1.337   4.215
 4519TIP3    H213515   3.368   1.206   4.228
 4520TIP3   OH213516   4.728   6.371   6.341
 4520TIP3    H113517   4.696   6.365   6.431
 4520TIP3    H213518   4.817   6.336   6.345
 4521TIP3   OH213519   5.389   6.304   0.738
 4521TIP3    H113520   5.324   6.289   0.806
 4521TIP3    H213521   5.391   6.222   0.688
 4522TIP3   OH213522   1.788   3.951   3.536
 4522TIP3    H113523   1.729   3.903   3.593
 4522TIP3    H213524   1.832   3.884   3.485
 4523TIP3   OH213525   0.655   7.051   1.805
 4523TIP3    H113526   0.684   7.084   1.890
 4523TIP3    H213527   0.586   6.988   1.826
 4524TIP3   OH213528   3.394   0.312   2.765
 4524TIP3    H113529   3.331   0.274   2.703
 4524TIP3    H213530   3.378   0.264   2.846
 4525TIP3   OH213531   5.539   4.374   0.686
 4525TIP3    H113532   5.450   4.339   0.688
 4525TIP3    H213533   5.528   4.468   0.676
 4526TIP3   OH213534   5.094   2.586   4.973
 4526TIP3    H113535   5.095   2.681   4.961
 4526TIP3    H213536   5.041   2.572   5.052
 4527TIP3   OH213537   7.221   3.719   3.601
 4527TIP3    H113538   7.241   3.689   3.690
 4527TIP3    H213539   7.137   3.765   3.610
 4528TIP3   OH213540   2.687   1.262   2.687
 4528TIP3    H113541   2.709   1.170   2.669
 4528TIP3    H213542   2.771   1.305   2.700
 4529TIP3   OH213543   6.821   0.878   0.507
 4529TIP3    H113544   6.821   0.783   0.508
 4529TIP3    H213545   6.908   0.902   0.474
 4530TIP3   OH213546   0.008   4.983   0.133
 4530TIP3    H113547   0.044   4.895   0.149
 4530TIP3    H213548   0.085   5.038   0.118
 4531TIP3   OH213549   2.401   4.209   1.238
 4531TIP3    H113550   2.356   4.175   1.160
 4531TIP3    H213551   2.347   4.178   1.311
 4532TIP3   OH213552   7.851   1.608   0.353
 4532TIP3    H113553   7.853   1.646   0.265
 4532TIP3    H213554   7.943   1.602   0.379
 4533TIP3   OH213555   1.683   5.841   0.289
 4533TIP3    H113556   1.650   5.930   0.300
 4533TIP3    H213557   1.689   5.829   0.194
 4534TIP3   OH213558   1.486   4.390   4.468
 4534TIP3    H113559   1.476   4.472   4.420
 4534TIP3    H213560   1.464   4.413   4.559
 4535TIP3   OH213561   6.791   4.719   0.477
 4535TIP3    H113562   6.826   4.723   0.566
 4535TIP3    H213563   6.734   4.795   0.470
 4536TIP3   OH213564   2.539   5.177   0.299
 4536TIP3    H113565   2.634   5.174   0.307
 4536TIP3    H213566   2.509   5.219   0.379
 4537TIP3   OH213567   5.983   3.420   2.512
 4537TIP3    H113568   6.058   3.472   2.540
 4537TIP3    H213569   6.002   3.397   2.421
 4538TIP3   OH213570   7.580   7.323   1.783
 4538TIP3    H113571   7.645   7.278   1.838
 4538TIP3    H213572   7.618   7.322   1.695
 4539TIP3   OH213573   7.868   2.369   2.293
 4539TIP3    H113574   7.927   2.383   2.219
 4539TIP3    H213575   7.920   2.391   2.370
 4540TIP3   OH213576   8.145   7.344   1.858
 4540TIP3    H113577   8.153   7.278   1.926
 4540TIP3    H213578   8.071   7.398   1.885
 4541TIP3   OH213579   5.808   2.007   6.388
 4541TIP3    H113580   5.898   1.994   6.356
 4541TIP3    H213581   5.771   2.072   6.329
 4542TIP3   OH213582   0.685   7.450   2.147
 4542TIP3    H113583   0.780   7.461   2.145
 4542TIP3    H213584   0.659   7.474   2.235
 4543TIP3   OH213585   3.280   4.226   2.766
 4543TIP3    H113586   3.367   4.255   2.792
 4543TIP3    H213587   3.239   4.303   2.727
 4544TIP3   OH213588   6.196   2.512   5.374
 4544TIP3    H113589   6.205   2.459   5.294
 4544TIP3    H213590   6.171   2.598   5.342
 4545TIP3   OH213591   6.118   7.266   2.232
 4545TIP3    H113592   6.135   7.338   2.293
 4545TIP3    H213593   6.039   7.223   2.266
 4546TIP3   OH213594   4.060   2.323   4.186
 4546TIP3    H113595   4.127   2.378   4.145
 4546TIP3    H213596   3.991   2.317   4.120
 4547TIP3   OH213597   3.878   5.884   2.976
 4547TIP3    H113598   3.926   5.892   2.893
 4547TIP3    H213599   3.945   5.889   3.043
 4548TIP3   OH213600   6.755   1.685   1.575
 4548TIP3    H113601   6.764   1.592   1.557
 4548TIP3    H213602   6.827   1.706   1.634
 4549TIP3   OH213603   6.840   2.067   1.316
 4549TIP3    H113604   6.781   1.992   1.323
 4549TIP3    H213605   6.792   2.131   1.264
 4550TIP3   OH213606   6.657   6.297   4.183
 4550TIP3    H113607   6.592   6.236   4.219
 4550TIP3    H213608   6.741   6.256   4.202
 4551TIP3   OH213609   3.287   0.995   6.660
 4551TIP3    H113610   3.321   0.912   6.628
 4551TIP3    H213611   3.220   1.019   6.596
 4552TIP3   OH213612   1.726   2.638   1.942
 4552TIP3    H113613   1.743   2.574   2.011
 4552TIP3    H213614   1.801   2.698   1.945
 4553TIP3   OH213615   7.008   1.337   0.067
 4553TIP3    H113616   6.988   1.410   0.009
 4553TIP3    H213617   7.047   1.270   0.010
 4554TIP3   OH213618   5.641   4.315   6.745
 4554TIP3    H113619   5.606   4.253   6.682
 4554TIP3    H213620   5.691   4.377   6.692
 4555TIP3   OH213621   6.722   4.997   6.581
 4555TIP3    H113622   6.775   4.978   6.659
 4555TIP3    H213623   6.708   4.911   6.541
 4556TIP3   OH213624   5.846   2.345   0.636
 4556TIP3    H113625   5.771   2.394   0.669
 4556TIP3    H213626   5.811   2.257   0.618
 4557TIP3   OH213627   1.991   4.854   5.007
 4557TIP3    H113628   1.997   4.877   4.915
 4557TIP3    H213629   2.042   4.774   5.016
 4558TIP3   OH213630   4.299   3.343   1.885
 4558TIP3    H113631   4.378   3.386   1.917
 4558TIP3    H213632   4.258   3.307   1.963
 4559TIP3   OH213633   1.607   3.484   2.574
 4559TIP3    H113634   1.702   3.484   2.582
 4559TIP3    H213635   1.577   3.423   2.642
 4560TIP3   OH213636   3.838   6.733   3.133
 4560TIP3    H113637   3.818   6.763   3.045
 4560TIP3    H213638   3.875   6.810   3.177
 4561TIP3   OH213639   2.368   3.604   6.580
 4561TIP3    H113640   2.398   3.567   6.497
 4561TIP3    H213641   2.388   3.698   6.573
 4562TIP3   OH213642   0.969   5.658   0.290
 4562TIP3    H113643   0.889   5.612   0.318
 4562TIP3    H213644   0.976   5.732   0.349
 4563TIP3   OH213645   5.325   2.499   6.730
 4563TIP3    H113646   5.414   2.471   6.750
 4563TIP3    H213647   5.325   2.593   6.749
 4564TIP3   OH213648   1.450   0.256   3.314
 4564TIP3    H113649   1.469   0.280   3.224
 4564TIP3    H213650   1.357   0.232   3.314
 4565TIP3   OH213651   8.185   6.853   0.793
 4565TIP3    H113652   8.093   6.861   0.769
 4565TIP3    H213653   8.232   6.855   0.710
 4566TIP3   OH213654   5.419   6.257   3.384
 4566TIP3    H113655   5.354   6.200   3.343
 4566TIP3    H213656   5.393   6.261   3.476
 4567TIP3   OH213657   7.271   2.864   6.309
 4567TIP3    H113658   7.362   2.895   6.309
 4567TIP3    H213659   7.220   2.943   6.324
 4568TIP3   OH213660   2.893   7.047   3.470
 4568TIP3    H113661   2.919   7.128   3.514
 4568TIP3    H213662   2.892   6.981   3.540
 4569TIP3   OH213663   1.959   4.371   3.056
 4569TIP3    H113664   2.022   4.341   3.122
 4569TIP3    H213665   1.949   4.465   3.074
 4570TIP3   OH213666   4.801   5.302   6.452
 4570TIP3    H113667   4.863   5.375   6.454
 4570TIP3    H213668   4.735   5.325   6.518
 4571TIP3   OH213669   3.381   3.504   3.737
 4571TIP3    H113670   3.426   3.565   3.795
 4571TIP3    H213671   3.361   3.555   3.659
 4572TIP3   OH213672   4.418   2.239   5.810
 4572TIP3    H113673   4.386   2.325   5.838
 4572TIP3    H213674   4.390   2.231   5.719
 4573TIP3   OH213675   6.402   3.356   0.377
 4573TIP3    H113676   6.369   3.437   0.338
 4573TIP3    H213677   6.368   3.286   0.321
 4574TIP3   OH213678   0.944   7.526   2.148
 4574TIP3    H113679   0.982   7.519   2.235
 4574TIP3    H213680   1.006   7.582   2.100
 4575TIP3   OH213681   5.272   6.128   2.148
 4575TIP3    H113682   5.354   6.163   2.113
 4575TIP3    H213683   5.268   6.038   2.116
 4576TIP3   OH213684   7.272   3.464   2.301
 4576TIP3    H113685   7.247   3.371   2.297
 4576TIP3    H213686   7.207   3.508   2.247
 4577TIP3   OH213687   1.041   3.706   0.795
 4577TIP3    H113688   1.046   3.631   0.853
 4577TIP3    H213689   1.126   3.750   0.805
 4578TIP3   OH213690   5.666   0.173   3.526
 4578TIP3    H113691   5.687   0.080   3.530
 4578TIP3    H213692   5.676   0.196   3.433
 4579TIP3   OH213693   5.910   3.498   6.143
 4579TIP3    H113694   5.956   3.419   6.171
 4579TIP3    H213695   5.885   3.541   6.224
 4580TIP3   OH213696   1.462   6.580   2.706
 4580TIP3    H113697   1.415   6.663   2.704
 4580TIP3    H213698   1.526   6.586   2.635
 4581TIP3   OH213699   0.212   0.930   1.620
 4581TIP3    H113700   0.142   0.898   1.677
 4581TIP3    H213701   0.284   0.869   1.635
 4582TIP3   OH213702   4.237   4.044   4.037
 4582TIP3    H113703   4.190   4.002   3.966
 4582TIP3    H213704   4.215   4.137   4.028
 4583TIP3   OH213705   0.563   7.001   4.114
 4583TIP3    H113706   0.630   6.950   4.157
 4583TIP3    H213707   0.607   7.082   4.088
 4584TIP3   OH213708   6.313   7.210   6.251
 4584TIP3    H113709   6.277   7.121   6.244
 4584TIP3    H213710   6.257   7.263   6.195
 4585TIP3   OH213711   7.400   1.166   5.414
 4585TIP3    H113712   7.344   1.089   5.426
 4585TIP3    H213713   7.476   1.149   5.470
 4586TIP3   OH213714   5.640   3.378   4.236
 4586TIP3    H113715   5.550   3.347   4.243
 4586TIP3    H213716   5.692   3.312   4.282
 4587TIP3   OH213717   0.579   6.754   4.394
 4587TIP3    H113718   0.649   6.799   4.443
 4587TIP3    H213719   0.504   6.756   4.453
 4588TIP3   OH213720   1.639   5.783   2.296
 4588TIP3    H113721   1.677   5.713   2.350
 4588TIP3    H213722   1.713   5.818   2.247
 4589TIP3   OH213723   2.557   6.567   1.698
 4589TIP3    H113724   2.498   6.641   1.715
 4589TIP3    H213725   2.571   6.570   1.603
 4590TIP3   OH213726   5.126   4.840   5.816
 4590TIP3    H113727   5.118   4.755   5.773
 4590TIP3    H213728   5.219   4.860   5.813
 4591TIP3   OH213729   3.987   2.871   2.573
 4591TIP3    H113730   3.984   2.786   2.530
 4591TIP3    H213731   3.903   2.879   2.616
 4592TIP3   OH213732   3.108   5.524   6.439
 4592TIP3    H113733   3.063   5.490   6.517
 4592TIP3    H213734   3.147   5.606   6.468
 4593TIP3   OH213735   6.306   6.327   4.400
 4593TIP3    H113736   6.338   6.236   4.403
 4593TIP3    H213737   6.252   6.331   4.321
 4594TIP3   OH213738   7.779   5.610   3.600
 4594TIP3    H113739   7.773   5.624   3.506
 4594TIP3    H213740   7.709   5.663   3.637
 4595TIP3   OH213741   0.207   4.384   6.331
 4595TIP3    H113742   0.232   4.451   6.395
 4595TIP3    H213743   0.207   4.429   6.247
 4596TIP3   OH213744   4.330   6.986   6.277
 4596TIP3    H113745   4.418   7.014   6.302
 4596TIP3    H213746   4.288   7.064   6.242
 4597TIP3   OH213747   0.251   5.555   3.231
 4597TIP3    H113748   0.167   5.511   3.230
 4597TIP3    H213749   0.286   5.543   3.142
 4598TIP3   OH213750   1.951   6.425   0.800
 4598TIP3    H113751   1.887   6.496   0.808
 4598TIP3    H213752   2.015   6.458   0.738
 4599TIP3   OH213753   4.262   1.721   6.754
 4599TIP3    H113754   4.352   1.698   6.779
 4599TIP3    H213755   4.269   1.808   6.716
 4600TIP3   OH213756   5.356   3.613   2.026
 4600TIP3    H113757   5.402   3.688   1.989
 4600TIP3    H213758   5.264   3.628   2.003
 4601TIP3   OH213759   0.318   5.012   2.707
 4601TIP3    H113760   0.408   5.043   2.713
 4601TIP3    H213761   0.320   4.923   2.743
 4602TIP3   OH213762   6.520   6.767   4.128
 4602TIP3    H113763   6.588   6.699   4.126
 4602TIP3    H213764   6.462   6.744   4.056
 4603TIP3   OH213765   4.211   0.867   2.614
 4603TIP3    H113766   4.126   0.907   2.594
 4603TIP3    H213767   4.275   0.936   2.595
 4604TIP3   OH213768   7.220   5.160   3.862
 4604TIP3    H113769   7.251   5.102   3.792
 4604TIP3    H213770   7.300   5.184   3.910
 4605TIP3   OH213771   5.659   3.462   3.381
 4605TIP3    H113772   5.591   3.491   3.442
 4605TIP3    H213773   5.618   3.466   3.295
 4606TIP3   OH213774   6.621   5.343   2.036
 4606TIP3    H113775   6.611   5.369   2.127
 4606TIP3    H213776   6.693   5.398   2.004
 4607TIP3   OH213777   5.584   1.650   1.564
 4607TIP3    H113778   5.583   1.645   1.469
 4607TIP3    H213779   5.658   1.596   1.590
 4608TIP3   OH213780   3.652   5.379   5.035
 4608TIP3    H113781   3.730   5.383   4.979
 4608TIP3    H213782   3.578   5.382   4.975
 4609TIP3   OH213783   8.104   3.184   5.488
 4609TIP3    H113784   8.025   3.130   5.496
 4609TIP3    H213785   8.164   3.149   5.554
 4610TIP3   OH213786   8.165   1.154   4.132
 4610TIP3    H113787   8.176   1.091   4.203
 4610TIP3    H213788   8.249   1.151   4.085
 4611TIP3   OH213789   0.657   6.639   0.394
 4611TIP3    H113790   0.636   6.639   0.300
 4611TIP3    H213791   0.748   6.612   0.399
 4612TIP3   OH213792   0.592   6.704   6.287
 4612TIP3    H113793   0.510   6.707   6.238
 4612TIP3    H213794   0.573   6.751   6.368
 4613TIP3   OH213795   8.136   5.554   0.196
 4613TIP3    H113796   8.162   5.644   0.175
 4613TIP3    H213797   8.141   5.507   0.113
 4614TIP3   OH213798   0.347   3.700   3.939
 4614TIP3    H113799   0.424   3.686   3.885
 4614TIP3    H213800   0.309   3.613   3.951
 4615TIP3   OH213801   4.820   1.546   3.903
 4615TIP3    H113802   4.905   1.586   3.884
 4615TIP3    H213803   4.831   1.454   3.880
 4616TIP3   OH213804   0.312   0.525   5.644
 4616TIP3    H113805   0.222   0.526   5.612
 4616TIP3    H213806   0.350   0.444   5.610
 4617TIP3   OH213807   7.035   2.688   0.290
 4617TIP3    H113808   6.978   2.618   0.319
 4617TIP3    H213809   6.979   2.745   0.237
 4618TIP3   OH213810   0.026   2.819   5.949
 4618TIP3    H113811   0.109   2.786   5.982
 4618TIP3    H213812  -0.040   2.778   6.005
 4619TIP3   OH213813   3.091   6.599   1.219
 4619TIP3    H113814   3.185   6.595   1.198
 4619TIP3    H213815   3.081   6.678   1.271
 4620TIP3   OH213816   7.648   3.081   1.347
 4620TIP3    H113817   7.617   3.034   1.424
 4620TIP3    H213818   7.585   3.060   1.279
 4621TIP3   OH213819   8.184   4.836   1.380
 4621TIP3    H113820   8.124   4.808   1.312
 4621TIP3    H213821   8.263   4.864   1.333
 4622TIP3   OH213822   8.195   0.646   4.706
 4622TIP3    H113823   8.100   0.647   4.706
 4622TIP3    H213824   8.219   0.589   4.779
 4623TIP3   OH213825   7.339   5.424   2.613
 4623TIP3    H113826   7.338   5.499   2.554
 4623TIP3    H213827   7.268   5.441   2.675
 4624TIP3   OH213828   4.613   6.510   1.438
 4624TIP3    H113829   4.638   6.531   1.348
 4624TIP3    H213830   4.602   6.596   1.479
 4625TIP3   OH213831   1.021   6.040   0.758
 4625TIP3    H113832   1.075   6.025   0.835
 4625TIP3    H213833   0.931   6.026   0.788
 4626TIP3   OH213834   2.431   2.672   1.610
 4626TIP3    H113835   2.365   2.721   1.658
 4626TIP3    H213836   2.507   2.731   1.608
 4627TIP3   OH213837   6.178   0.764   5.015
 4627TIP3    H113838   6.118   0.836   4.993
 4627TIP3    H213839   6.218   0.791   5.098
 4628TIP3   OH213840   7.979   0.649   2.205
 4628TIP3    H113841   7.941   0.625   2.120
 4628TIP3    H213842   8.072   0.633   2.194
 4629TIP3   OH213843   1.863   7.703   4.959
 4629TIP3    H113844   1.918   7.689   5.036
 4629TIP3    H213845   1.921   7.690   4.884
 4630TIP3   OH213846   1.899   4.996   0.821
 4630TIP3    H113847   1.960   4.941   0.870
 4630TIP3    H213848   1.916   5.085   0.853
 4631TIP3   OH213849   5.129   1.589   6.392
 4631TIP3    H113850   5.098   1.499   6.384
 4631TIP3    H213851   5.154   1.598   6.484
 4632TIP3   OH213852   2.388   3.954   3.890
 4632TIP3    H113853   2.297   3.954   3.860
 4632TIP3    H213854   2.386   3.914   3.976
 4633TIP3   OH213855   6.368   4.548   1.376
 4633TIP3    H113856   6.440   4.602   1.408
 4633TIP3    H213857   6.313   4.532   1.452
 4634TIP3   OH213858   5.495   1.506   3.884
 4634TIP3    H113859   5.523   1.510   3.793
 4634TIP3    H213860   5.436   1.431   3.888
 4635TIP3   OH213861   3.947   7.012   4.616
 4635TIP3    H113862   3.878   7.056   4.666
 4635TIP3    H213863   3.959   6.929   4.661
 4636TIP3   OH213864   7.039   4.843   1.843
 4636TIP3    H113865   7.104   4.801   1.787
 4636TIP3    H213866   6.966   4.782   1.845
 4637TIP3   OH213867   1.790   7.563   5.746
 4637TIP3    H113868   1.733   7.620   5.797
 4637TIP3    H213869   1.846   7.623   5.696
 4638TIP3   OH213870   4.197   1.211   6.018
 4638TIP3    H113871   4.134   1.191   5.949
 4638TIP3    H213872   4.231   1.125   6.044
 4639TIP3   OH213873   7.867   0.050   3.906
 4639TIP3    H113874   7.866  -0.030   3.853
 4639TIP3    H213875   7.852   0.019   3.995
 4640TIP3   OH213876   2.234   6.782   2.600
 4640TIP3    H113877   2.189   6.785   2.684
 4640TIP3    H213878   2.317   6.826   2.616
 4641TIP3   OH213879   0.977   7.212   3.266
 4641TIP3    H113880   0.943   7.123   3.274
 4641TIP3    H213881   0.989   7.241   3.356
 4642TIP3   OH213882   6.827   1.370   0.318
 4642TIP3    H113883   6.876   1.373   0.236
 4642TIP3    H213884   6.812   1.462   0.341
 4643TIP3   OH213885   6.625   1.231   2.845
 4643TIP3    H113886   6.707   1.185   2.859
 4643TIP3    H213887   6.563   1.162   2.822
 4644TIP3   OH213888   7.984   4.539   4.880
 4644TIP3    H113889   7.998   4.492   4.798
 4644TIP3    H213890   8.049   4.502   4.940
 4645TIP3   OH213891   4.574   0.625   3.335
 4645TIP3    H113892   4.562   0.676   3.415
 4645TIP3    H213893   4.666   0.636   3.313
 4646TIP3   OH213894   4.264   4.092   0.531
 4646TIP3    H113895   4.348   4.119   0.497
 4646TIP3    H213896   4.211   4.172   0.532
 4647TIP3   OH213897   1.605   2.035   1.326
 4647TIP3    H113898   1.632   2.117   1.284
 4647TIP3    H213899   1.518   2.017   1.291
 4648TIP3   OH213900   6.231   5.472   0.280
 4648TIP3    H113901   6.321   5.455   0.308
 4648TIP3    H213902   6.231   5.455   0.186
 4649TIP3   OH213903   1.398   7.045   0.262
 4649TIP3    H113904   1.455   7.119   0.285
 4649TIP3    H213905   1.385   7.053   0.167
 4650TIP3   OH213906   0.473   4.824   3.936
 4650TIP3    H113907   0.473   4.907   3.985
 4650TIP3    H213908   0.416   4.766   3.987
 4651TIP3   OH213909   4.735   3.533   6.494
 4651TIP3    H113910   4.661   3.544   6.433
 4651TIP3    H213911   4.716   3.594   6.565
 4652TIP3   OH213912   0.590   4.821   3.658
 4652TIP3    H113913   0.532   4.895   3.677
 4652TIP3    H213914   0.670   4.840   3.708
 4653TIP3   OH213915   6.709   0.801   1.937
 4653TIP3    H113916   6.723   0.753   1.855
 4653TIP3    H213917   6.627   0.849   1.924
 4654TIP3   OH213918   6.720   1.738   2.878
 4654TIP3    H113919   6.633   1.734   2.839
 4654TIP3    H213920   6.748   1.647   2.885
 4655TIP3   OH213921   7.456   0.774   5.520
 4655TIP3    H113922   7.389   0.841   5.506
 4655TIP3    H213923   7.472   0.776   5.615
 4656TIP3   OH213924   6.544   7.086   5.123
 4656TIP3    H113925   6.517   7.049   5.039
 4656TIP3    H213926   6.473   7.065   5.183
 4657TIP3   OH213927   3.491   4.480   1.806
 4657TIP3    H113928   3.412   4.524   1.837
 4657TIP3    H213929   3.563   4.525   1.850
 4658TIP3   OH213930   4.023   4.619   0.738
 4658TIP3    H113931   3.937   4.593   0.770
 4658TIP3    H213932   4.024   4.591   0.646
 4659TIP3   OH213933   3.687   1.190   5.800
 4659TIP3    H113934   3.782   1.195   5.807
 4659TIP3    H213935   3.659   1.153   5.884
 4660TIP3   OH213936   7.439   4.089   6.199
 4660TIP3    H113937   7.472   4.102   6.110
 4660TIP3    H213938   7.467   4.167   6.247
 4661TIP3   OH213939   6.702   0.866   2.852
 4661TIP3    H113940   6.758   0.943   2.843
 4661TIP3    H213941   6.700   0.848   2.946
 4662TIP3   OH213942   4.845   2.050   6.769
 4662TIP3    H113943   4.790   1.984   6.727
 4662TIP3    H213944   4.790   2.085   6.840
 4663TIP3   OH213945   2.808   6.530   0.028
 4663TIP3    H113946   2.814   6.436   0.046
 4663TIP3    H213947   2.728   6.539  -0.024
 4664TIP3   OH213948   5.929   6.141   3.543
 4664TIP3    H113949   5.963   6.186   3.620
 4664TIP3    H213950   5.980   6.176   3.470
 4665TIP3   OH213951   5.226   4.696   2.685
 4665TIP3    H113952   5.301   4.669   2.632
 4665TIP3    H213953   5.165   4.735   2.622
 4666TIP3   OH213954   7.710   1.419   5.024
 4666TIP3    H113955   7.667   1.441   4.941
 4666TIP3    H213956   7.647   1.362   5.069
 4667TIP3   OH213957   3.453   1.928   2.084
 4667TIP3    H113958   3.504   1.982   2.024
 4667TIP3    H213959   3.383   1.986   2.114
 4668TIP3   OH213960   0.292   1.001   1.957
 4668TIP3    H113961   0.341   1.075   1.920
 4668TIP3    H213962   0.203   1.012   1.924
 4669TIP3   OH213963   5.048   4.081   1.577
 4669TIP3    H113964   4.962   4.091   1.537
 4669TIP3    H213965   5.099   4.031   1.513
 4670TIP3   OH213966   3.188   5.328   5.555
 4670TIP3    H113967   3.093   5.333   5.565
 4670TIP3    H213968   3.222   5.351   5.642
 4671TIP3   OH213969   1.238   1.841   3.484
 4671TIP3    H113970   1.220   1.769   3.423
 4671TIP3    H213971   1.240   1.799   3.570
 4672TIP3   OH213972   4.925   4.437   0.640
 4672TIP3    H113973   4.979   4.360   0.624
 4672TIP3    H213974   4.836   4.409   0.617
 4673TIP3   OH213975   7.008   6.548   4.184
 4673TIP3    H113976   7.076   6.497   4.228
 4673TIP3    H213977   7.039   6.639   4.190
 4674TIP3   OH213978   1.837   5.390   2.192
 4674TIP3    H113979   1.823   5.439   2.272
 4674TIP3    H213980   1.755   5.402   2.142
 4675TIP3   OH213981   1.371   4.629   3.082
 4675TIP3    H113982   1.435   4.559   3.076
 4675TIP3    H213983   1.346   4.631   3.175
 4676TIP3   OH213984   2.672   6.774   6.286
 4676TIP3    H113985   2.609   6.705   6.308
 4676TIP3    H213986   2.619   6.845   6.250
 4677TIP3   OH213987   2.756   4.538   5.818
 4677TIP3    H113988   2.713   4.477   5.878
 4677TIP3    H213989   2.808   4.482   5.760
 4678TIP3   OH213990   2.512   1.977   5.772
 4678TIP3    H113991   2.487   1.885   5.771
 4678TIP3    H213992   2.435   2.022   5.808
 4679TIP3   OH213993   0.252   4.774   1.546
 4679TIP3    H113994   0.313   4.848   1.551
 4679TIP3    H213995   0.277   4.718   1.619
 4680TIP3   OH213996   6.369   3.932   5.281
 4680TIP3    H113997   6.416   3.971   5.355
 4680TIP3    H213998   6.276   3.941   5.305
 4681TIP3   OH213999   0.332   6.660   6.203
 4681TIP3    H114000   0.262   6.638   6.142
 4681TIP3    H214001   0.327   6.593   6.272
 4682TIP3   OH214002   1.212   1.481   6.362
 4682TIP3    H114003   1.147   1.411   6.368
 4682TIP3    H214004   1.233   1.486   6.268
 4683TIP3   OH214005   7.927   1.535   2.226
 4683TIP3    H114006   7.932   1.515   2.133
 4683TIP3    H214007   7.834   1.547   2.244
 4684TIP3   OH214008   4.188   1.703   0.259
 4684TIP3    H114009   4.116   1.722   0.319
 4684TIP3    H214010   4.179   1.769   0.189
 4685TIP3   OH214011   5.652   1.786   6.458
 4685TIP3    H114012   5.701   1.861   6.425
 4685TIP3    H214013   5.592   1.762   6.387
 4686TIP3   OH214014   7.415   4.989   3.033
 4686TIP3    H114015   7.382   4.914   2.984
 4686TIP3    H214016   7.485   4.954   3.087
 4687TIP3   OH214017   5.792   3.113   0.032
 4687TIP3    H114018   5.719   3.055   0.016
 4687TIP3    H214019   5.762   3.199   0.002
 4688TIP3   OH214020   3.733   4.164   5.936
 4688TIP3    H114021   3.714   4.081   5.979
 4688TIP3    H214022   3.676   4.227   5.979
 4689TIP3   OH214023   4.251   0.894   1.714
 4689TIP3    H114024   4.261   0.844   1.633
 4689TIP3    H214025   4.338   0.893   1.753
 4690TIP3   OH214026   2.814   4.871   5.572
 4690TIP3    H114027   2.878   4.937   5.598
 4690TIP3    H214028   2.863   4.789   5.569
 4691TIP3   OH214029   7.236   6.615   0.154
 4691TIP3    H114030   7.212   6.616   0.061
 4691TIP3    H214031   7.189   6.690   0.191
 4692TIP3   OH214032   1.211   1.377   3.418
 4692TIP3    H114033   1.281   1.364   3.483
 4692TIP3    H214034   1.131   1.352   3.464
 4693TIP3   OH214035   2.210   4.409   1.356
 4693TIP3    H114036   2.152   4.485   1.346
 4693TIP3    H214037   2.192   4.355   1.279
 4694TIP3   OH214038   7.326   2.520   2.466
 4694TIP3    H114039   7.417   2.490   2.470
 4694TIP3    H214040   7.295   2.488   2.381
 4695TIP3   OH214041   2.512   1.567   5.483
 4695TIP3    H114042   2.434   1.512   5.477
 4695TIP3    H214043   2.564   1.542   5.406
 4696TIP3   OH214044   4.897   6.723   3.403
 4696TIP3    H114045   4.869   6.654   3.463
 4696TIP3    H214046   4.885   6.685   3.316
 4697TIP3   OH214047   3.205   6.874   0.243
 4697TIP3    H114048   3.271   6.939   0.217
 4697TIP3    H214049   3.129   6.895   0.190
 4698TIP3   OH214050   1.424   6.799   3.762
 4698TIP3    H114051   1.513   6.835   3.763
 4698TIP3    H214052   1.379   6.845   3.834
 4699TIP3   OH214053   7.317   4.887   0.138
 4699TIP3    H114054   7.351   4.898   0.050
 4699TIP3    H214055   7.386   4.921   0.195
 4700TIP3   OH214056   2.097   6.925   0.147
 4700TIP3    H114057   2.106   6.914   0.053
 4700TIP3    H214058   2.012   6.888   0.168
 4701TIP3   OH214059   2.663   0.272   0.207
 4701TIP3    H114060   2.713   0.193   0.185
 4701TIP3    H214061   2.720   0.344   0.180
 4702TIP3   OH214062   4.818   4.349   3.765
 4702TIP3    H114063   4.807   4.373   3.857
 4702TIP3    H214064   4.913   4.354   3.750
 4703TIP3   OH214065   3.314   1.454   5.521
 4703TIP3    H114066   3.278   1.369   5.547
 4703TIP3    H214067   3.400   1.458   5.563
 4704TIP3   OH214068   4.529   1.973   5.565
 4704TIP3    H114069   4.490   2.060   5.558
 4704TIP3    H214070   4.621   1.986   5.542
 4705TIP3   OH214071   8.117   3.213   0.354
 4705TIP3    H114072   8.111   3.217   0.259
 4705TIP3    H214073   8.209   3.191   0.371
 4706TIP3   OH214074   7.589   4.241   1.547
 4706TIP3    H114075   7.676   4.225   1.584
 4706TIP3    H214076   7.568   4.159   1.501
 4707TIP3   OH214077   0.321   1.358   6.590
 4707TIP3    H114078   0.273   1.441   6.595
 4707TIP3    H214079   0.271   1.306   6.527
 4708TIP3   OH214080   8.015   5.141   0.719
 4708TIP3    H114081   7.933   5.126   0.673
 4708TIP3    H214082   8.077   5.163   0.650
 4709TIP3   OH214083   1.495   0.759   3.806
 4709TIP3    H114084   1.541   0.677   3.827
 4709TIP3    H214085   1.533   0.786   3.722
 4710TIP3   OH214086   3.791   3.963   2.364
 4710TIP3    H114087   3.704   3.972   2.323
 4710TIP3    H214088   3.792   4.029   2.433
 4711TIP3   OH214089   7.007   7.493   2.876
 4711TIP3    H114090   7.029   7.545   2.953
 4711TIP3    H214091   6.911   7.490   2.875
 4712TIP3   OH214092   1.358   5.244   4.178
 4712TIP3    H114093   1.282   5.186   4.183
 4712TIP3    H214094   1.375   5.268   4.269
 4713TIP3   OH214095   7.116   6.068   3.831
 4713TIP3    H114096   7.064   5.989   3.815
 4713TIP3    H214097   7.051   6.139   3.830
 4714TIP3   OH214098   0.623   2.182   4.360
 4714TIP3    H114099   0.646   2.275   4.351
 4714TIP3    H214100   0.569   2.179   4.439
 4715TIP3   OH214101   6.978   4.056   4.444
 4715TIP3    H114102   6.916   4.082   4.512
 4715TIP3    H214103   7.027   3.984   4.483
 4716TIP3   OH214104   3.298   4.874   1.850
 4716TIP3    H114105   3.272   4.795   1.896
 4716TIP3    H214106   3.226   4.891   1.789
 4717TIP3   OH214107   6.453   2.688   0.779
 4717TIP3    H114108   6.453   2.592   0.783
 4717TIP3    H214109   6.394   2.715   0.850
 4718TIP3   OH214110   4.536   4.314   6.206
 4718TIP3    H114111   4.511   4.222   6.218
 4718TIP3    H214112   4.556   4.321   6.112
 4719TIP3   OH214113   3.265   2.369   5.802
 4719TIP3    H114114   3.210   2.419   5.742
 4719TIP3    H214115   3.268   2.423   5.882
 4720TIP3   OH214116   3.375  -0.007   2.798
 4720TIP3    H114117   3.310   0.022   2.862
 4720TIP3    H214118   3.345   0.029   2.715
 4721TIP3   OH214119   7.662   2.357   2.960
 4721TIP3    H114120   7.654   2.411   2.881
 4721TIP3    H214121   7.604   2.397   3.023
 4722TIP3   OH214122   0.265   3.206   3.049
 4722TIP3    H114123   0.187   3.258   3.070
 4722TIP3    H214124   0.262   3.197   2.953
 4723TIP3   OH214125   6.728   5.457   2.844
 4723TIP3    H114126   6.693   5.541   2.813
 4723TIP3    H214127   6.670   5.432   2.915
 4724TIP3   OH214128   5.691   4.316   2.509
 4724TIP3    H114129   5.654   4.395   2.468
 4724TIP3    H214130   5.702   4.340   2.601
 4725TIP3   OH214131   3.505   7.039   1.770
 4725TIP3    H114132   3.525   6.945   1.761
 4725TIP3    H214133   3.433   7.053   1.708
 4726TIP3   OH214134   3.047   4.401   1.454
 4726TIP3    H114135   2.971   4.433   1.405
 4726TIP3    H214136   3.022   4.313   1.482
 4727TIP3   OH214137   0.692   7.536   6.245
 4727TIP3    H114138   0.756   7.604   6.267
 4727TIP3    H214139   0.718   7.506   6.158
 4728TIP3   OH214140   1.393   5.115   3.776
 4728TIP3    H114141   1.305   5.097   3.741
 4728TIP3    H214142   1.452   5.094   3.704
 4729TIP3   OH214143   8.211   1.354   3.911
 4729TIP3    H114144   8.201   1.397   3.826
 4729TIP3    H214145   8.129   1.305   3.921
 4730TIP3   OH214146   5.857   7.195   1.438
 4730TIP3    H114147   5.778   7.218   1.388
 4730TIP3    H214148   5.925   7.186   1.371
 4731TIP3   OH214149   2.793   6.388   6.772
 4731TIP3    H114150   2.702   6.406   6.745
 4731TIP3    H214151   2.791   6.298   6.803
 4732TIP3   OH214152   2.354   0.788   1.764
 4732TIP3    H114153   2.344   0.713   1.822
 4732TIP3    H214154   2.412   0.848   1.811
 4733TIP3   OH214155   5.870   2.127   6.054
 4733TIP3    H114156   5.963   2.133   6.031
 4733TIP3    H214157   5.831   2.076   5.983
 4734TIP3   OH214158   6.896   5.304   2.607
 4734TIP3    H114159   6.859   5.219   2.587
 4734TIP3    H214160   6.820   5.360   2.625
 4735TIP3   OH214161   4.055   5.405   5.158
 4735TIP3    H114162   3.983   5.355   5.198
 4735TIP3    H214163   4.016   5.443   5.079
 4736TIP3   OH214164   1.788   5.236   4.517
 4736TIP3    H114165   1.837   5.306   4.560
 4736TIP3    H214166   1.850   5.163   4.513
 4737TIP3   OH214167   5.028   5.831   0.579
 4737TIP3    H114168   5.008   5.858   0.489
 4737TIP3    H214169   4.943   5.812   0.618
 4738TIP3   OH214170   0.552   4.476   1.397
 4738TIP3    H114171   0.576   4.560   1.437
 4738TIP3    H214172   0.618   4.463   1.328
 4739TIP3   OH214173   4.881   0.658   3.339
 4739TIP3    H114174   4.918   0.571   3.326
 4739TIP3    H214175   4.838   0.654   3.425
 4740TIP3   OH214176   5.825   7.641   4.575
 4740TIP3    H114177   5.811   7.664   4.667
 4740TIP3    H214178   5.920   7.644   4.564
 4741TIP3   OH214179   5.104   0.273   1.841
 4741TIP3    H114180   5.147   0.353   1.874
 4741TIP3    H214181   5.024   0.305   1.799
 4742TIP3   OH214182   0.948   1.442   3.846
 4742TIP3    H114183   0.937   1.502   3.773
 4742TIP3    H214184   1.038   1.454   3.875
 4743TIP3   OH214185   1.802   2.741   3.616
 4743TIP3    H114186   1.770   2.651   3.613
 4743TIP3    H214187   1.730   2.791   3.654
 4744TIP3   OH214188   5.831   3.849   4.236
 4744TIP3    H114189   5.906   3.823   4.290
 4744TIP3    H214190   5.775   3.771   4.235
 4745TIP3   OH214191   3.177   3.661   4.546
 4745TIP3    H114192   3.181   3.757   4.541
 4745TIP3    H214193   3.107   3.643   4.609
 4746TIP3   OH214194   5.230   5.520   2.622
 4746TIP3    H114195   5.291   5.570   2.677
 4746TIP3    H214196   5.246   5.429   2.646
 4747TIP3   OH214197   4.794   0.193   5.083
 4747TIP3    H114198   4.770   0.275   5.038
 4747TIP3    H214199   4.810   0.131   5.012
 4748TIP3   OH214200   4.658   3.099   4.119
 4748TIP3    H114201   4.625   3.066   4.035
 4748TIP3    H214202   4.726   3.037   4.144
 4749TIP3   OH214203   0.783   7.216   5.080
 4749TIP3    H114204   0.720   7.266   5.132
 4749TIP3    H214205   0.749   7.126   5.082
 4750TIP3   OH214206   4.264   3.068   6.563
 4750TIP3    H114207   4.202   3.099   6.628
 4750TIP3    H214208   4.348   3.106   6.589
 4751TIP3   OH214209   6.666   3.432   4.067
 4751TIP3    H114210   6.725   3.432   4.143
 4751TIP3    H214211   6.677   3.344   4.029
 4752TIP3   OH214212   3.318   0.701   0.265
 4752TIP3    H114213   3.262   0.770   0.302
 4752TIP3    H214214   3.339   0.644   0.339
 4753TIP3   OH214215   2.150   7.628   1.289
 4753TIP3    H114216   2.228   7.660   1.243
 4753TIP3    H214217   2.174   7.540   1.318
 4754TIP3   OH214218   7.722   3.750   5.217
 4754TIP3    H114219   7.750   3.668   5.177
 4754TIP3    H214220   7.627   3.751   5.204
 4755TIP3   OH214221   1.971   2.433   3.696
 4755TIP3    H114222   1.890   2.407   3.652
 4755TIP3    H214223   2.027   2.467   3.626
 4756TIP3   OH214224   3.527   2.597   1.148
 4756TIP3    H114225   3.527   2.521   1.090
 4756TIP3    H214226   3.477   2.568   1.224
 4757TIP3   OH214227   0.299   3.425   3.515
 4757TIP3    H114228   0.361   3.396   3.582
 4757TIP3    H214229   0.349   3.489   3.463
 4758TIP3   OH214230   5.794   0.563   1.811
 4758TIP3    H114231   5.865   0.622   1.835
 4758TIP3    H214232   5.805   0.547   1.718
 4759TIP3   OH214233   0.592   6.576   0.087
 4759TIP3    H114234   0.499   6.564   0.109
 4759TIP3    H214235   0.591   6.605  -0.004
 4760TIP3   OH214236   0.065   4.270   2.845
 4760TIP3    H114237   0.131   4.226   2.791
 4760TIP3    H214238   0.058   4.358   2.808
 4761TIP3   OH214239   8.146   7.605   6.318
 4761TIP3    H114240   8.229   7.582   6.275
 4761TIP3    H214241   8.167   7.683   6.370
 4762TIP3   OH214242   4.360   5.388   6.441
 4762TIP3    H114243   4.343   5.472   6.397
 4762TIP3    H214244   4.309   5.324   6.392
 4763TIP3   OH214245   6.591   0.409   0.686
 4763TIP3    H114246   6.557   0.370   0.605
 4763TIP3    H214247   6.639   0.486   0.657
 4764TIP3   OH214248   2.151   1.284   4.218
 4764TIP3    H114249   2.216   1.276   4.149
 4764TIP3    H214250   2.133   1.377   4.224
 4765TIP3   OH214251   1.147   3.907   2.397
 4765TIP3    H114252   1.236   3.872   2.384
 4765TIP3    H214253   1.098   3.875   2.322
 4766TIP3   OH214254   5.406   3.240   4.487
 4766TIP3    H114255   5.464   3.285   4.549
 4766TIP3    H214256   5.426   3.147   4.497
 4767TIP3   OH214257   6.765   6.564   6.147
 4767TIP3    H114258   6.757   6.629   6.216
 4767TIP3    H214259   6.852   6.577   6.110
 4768TIP3   OH214260   3.830   0.772   0.257
 4768TIP3    H114261   3.854   0.779   0.165
 4768TIP3    H214262   3.862   0.854   0.296
 4769TIP3   OH214263   6.154   2.015   3.506
 4769TIP3    H114264   6.130   2.005   3.598
 4769TIP3    H214265   6.218   2.086   3.505
 4770TIP3   OH214266   6.101   1.121   1.248
 4770TIP3    H114267   6.051   1.174   1.186
 4770TIP3    H214268   6.046   1.117   1.326
 4771TIP3   OH214269   3.226   3.190   2.435
 4771TIP3    H114270   3.305   3.183   2.489
 4771TIP3    H214271   3.155   3.198   2.499
 4772TIP3   OH214272   7.952   6.285   4.215
 4772TIP3    H114273   7.910   6.333   4.144
 4772TIP3    H214274   7.897   6.301   4.291
 4773TIP3   OH214275   2.693   4.421   0.298
 4773TIP3    H114276   2.738   4.500   0.267
 4773TIP3    H214277   2.742   4.348   0.261
 4774TIP3   OH214278   6.453   4.771   4.040
 4774TIP3    H114279   6.384   4.753   4.104
 4774TIP3    H214280   6.534   4.749   4.086
 4775TIP3   OH214281   3.962   6.021   4.717
 4775TIP3    H114282   3.963   5.928   4.693
 4775TIP3    H214283   3.887   6.057   4.669
 4776TIP3   OH214284   4.488   1.991   1.177
 4776TIP3    H114285   4.579   1.990   1.204
 4776TIP3    H214286   4.461   1.899   1.179
 4777TIP3   OH214287   3.579   6.608   2.566
 4777TIP3    H114288   3.569   6.669   2.639
 4777TIP3    H214289   3.612   6.662   2.494
 4778TIP3   OH214290   6.368   0.302   6.637
 4778TIP3    H114291   6.320   0.233   6.682
 4778TIP3    H214292   6.367   0.376   6.699
 4779TIP3   OH214293   1.495   2.223   5.505
 4779TIP3    H114294   1.483   2.294   5.443
 4779TIP3    H214295   1.568   2.250   5.559
 4780TIP3   OH214296   1.963   1.744   2.491
 4780TIP3    H114297   1.961   1.676   2.559
 4780TIP3    H214298   1.933   1.700   2.412
 4781TIP3   OH214299   3.920   2.715   5.626
 4781TIP3    H114300   3.851   2.762   5.579
 4781TIP3    H214301   4.000   2.763   5.605
 4782TIP3   OH214302   2.087   5.137   6.417
 4782TIP3    H114303   2.152   5.108   6.481
 4782TIP3    H214304   2.116   5.224   6.391
 4783TIP3   OH214305   0.920   2.047   4.770
 4783TIP3    H114306   0.839   2.009   4.806
 4783TIP3    H214307   0.989   1.989   4.803
 4784TIP3   OH214308   0.595   3.295   0.456
 4784TIP3    H114309   0.680   3.299   0.411
 4784TIP3    H214310   0.605   3.355   0.531
 4785TIP3   OH214311   8.062   6.878   2.382
 4785TIP3    H114312   8.043   6.818   2.310
 4785TIP3    H214313   8.141   6.924   2.356
 4786TIP3   OH214314   6.279   2.863   1.260
 4786TIP3    H114315   6.242   2.914   1.332
 4786TIP3    H214316   6.363   2.833   1.293
 4787TIP3   OH214317   4.533   6.380   4.440
 4787TIP3    H114318   4.624   6.375   4.468
 4787TIP3    H214319   4.531   6.451   4.376
 4788TIP3   OH214320   1.483   3.835   0.545
 4788TIP3    H114321   1.438   3.778   0.482
 4788TIP3    H214322   1.418   3.901   0.568
 4789TIP3   OH214323   7.433   6.691   2.224
 4789TIP3    H114324   7.453   6.785   2.215
 4789TIP3    H214325   7.517   6.647   2.213
 4790TIP3   OH214326   3.351   3.876   2.012
 4790TIP3    H114327   3.345   3.946   1.947
 4790TIP3    H214328   3.444   3.854   2.015
 4791TIP3   OH214329   4.428   6.458   2.142
 4791TIP3    H114330   4.377   6.510   2.205
 4791TIP3    H214331   4.383   6.374   2.138
 4792TIP3   OH214332   7.001   5.401   6.743
 4792TIP3    H114333   6.979   5.384   6.835
 4792TIP3    H214334   6.921   5.439   6.706
 4793TIP3   OH214335   5.821   2.885   1.023
 4793TIP3    H114336   5.795   2.802   1.062
 4793TIP3    H214337   5.913   2.874   0.999
 4794TIP3   OH214338   4.774   1.358   0.959
 4794TIP3    H114339   4.808   1.443   0.987
 4794TIP3    H214340   4.696   1.345   1.012
 4795TIP3   OH214341   2.775   6.758   0.225
 4795TIP3    H114342   2.699   6.787   0.175
 4795TIP3    H214343   2.795   6.671   0.191
 4796TIP3   OH214344   1.598   3.985   3.085
 4796TIP3    H114345   1.561   3.915   3.030
 4796TIP3    H214346   1.521   4.032   3.118
 4797TIP3   OH214347   5.918   6.020   3.087
 4797TIP3    H114348   5.909   5.941   3.140
 4797TIP3    H214349   6.012   6.038   3.086
 4798TIP3   OH214350   2.405   1.324   1.813
 4798TIP3    H114351   2.322   1.364   1.840
 4798TIP3    H214352   2.460   1.326   1.891
 4799TIP3   OH214353   2.452   3.371   6.723
 4799TIP3    H114354   2.413   3.459   6.722
 4799TIP3    H214355   2.438   3.339   6.634
 4800TIP3   OH214356   0.427   0.155   4.421
 4800TIP3    H114357   0.441   0.104   4.501
 4800TIP3    H214358   0.461   0.099   4.351
 4801TIP3   OH214359   1.325   2.214   6.315
 4801TIP3    H114360   1.350   2.306   6.325
 4801TIP3    H214361   1.377   2.183   6.241
 4802TIP3   OH214362   6.489   4.834   2.917
 4802TIP3    H114363   6.546   4.775   2.869
 4802TIP3    H214364   6.400   4.806   2.896
 4803TIP3   OH214365   6.256   7.248   5.920
 4803TIP3    H114366   6.173   7.204   5.903
 4803TIP3    H214367   6.247   7.335   5.882
 4804TIP3   OH214368   5.700   6.038   1.237
 4804TIP3    H114369   5.708   6.126   1.200
 4804TIP3    H214370   5.617   6.005   1.203
 4805TIP3   OH214371   7.744   4.270   6.155
 4805TIP3    H114372   7.759   4.337   6.222
 4805TIP3    H214373   7.830   4.228   6.145
 4806TIP3   OH214374   0.719   4.855   4.665
 4806TIP3    H114375   0.796   4.847   4.608
 4806TIP3    H214376   0.648   4.814   4.615
 4807TIP3   OH214377   5.004   2.091   5.644
 4807TIP3    H114378   5.083   2.039   5.658
 4807TIP3    H214379   4.998   2.146   5.722
 4808TIP3   OH214380   3.702   6.012   4.614
 4808TIP3    H114381   3.664   5.962   4.542
 4808TIP3    H214382   3.634   6.013   4.681
 4809TIP3   OH214383   3.100   1.554   5.071
 4809TIP3    H114384   3.136   1.577   5.157
 4809TIP3    H214385   3.170   1.504   5.028
 4810TIP3   OH214386   0.515   2.564   5.852
 4810TIP3    H114387   0.541   2.643   5.900
 4810TIP3    H214388   0.596   2.533   5.811
 4811TIP3   OH214389   1.512   5.326   3.960
 4811TIP3    H114390   1.485   5.266   3.891
 4811TIP3    H214391   1.464   5.297   4.037
 4812TIP3   OH214392   5.120   2.825   4.626
 4812TIP3    H114393   5.126   2.891   4.695
 4812TIP3    H214394   5.089   2.874   4.550
 4813TIP3   OH214395   0.963   0.448   2.321
 4813TIP3    H114396   0.928   0.397   2.394
 4813TIP3    H214397   1.000   0.383   2.262
 4814TIP3   OH214398   7.832   6.938   6.614
 4814TIP3    H114399   7.851   6.901   6.700
 4814TIP3    H214400   7.782   6.870   6.569
 4815TIP3   OH214401   5.644   3.031   3.954
 4815TIP3    H114402   5.651   2.938   3.930
 4815TIP3    H214403   5.732   3.065   3.944
 4816TIP3   OH214404   1.804   7.793   1.074
 4816TIP3    H114405   1.719   7.835   1.085
 4816TIP3    H214406   1.861   7.837   1.137
 4817TIP3   OH214407   0.264   1.481   2.817
 4817TIP3    H114408   0.178   1.495   2.857
 4817TIP3    H214409   0.307   1.566   2.824
 4818TIP3   OH214410   2.109   2.331   1.366
 4818TIP3    H114411   2.029   2.315   1.416
 4818TIP3    H214412   2.180   2.319   1.430
 4819TIP3   OH214413   3.650   1.866   0.714
 4819TIP3    H114414   3.606   1.915   0.644
 4819TIP3    H214415   3.579   1.843   0.774
 4820TIP3   OH214416   0.554   0.643   3.306
 4820TIP3    H114417   0.555   0.559   3.352
 4820TIP3    H214418   0.644   0.676   3.315
 4821TIP3   OH214419   0.166   6.329   4.413
 4821TIP3    H114420   0.242   6.273   4.433
 4821TIP3    H214421   0.197   6.387   4.343
 4822TIP3   OH214422   3.761   3.986   2.852
 4822TIP3    H114423   3.700   4.042   2.900
 4822TIP3    H214424   3.842   3.990   2.903
 4823TIP3   OH214425   6.593   2.925   4.582
 4823TIP3    H114426   6.641   2.906   4.501
 4823TIP3    H214427   6.510   2.963   4.552
 4824TIP3   OH214428   2.882   6.654   0.744
 4824TIP3    H114429   2.877   6.649   0.649
 4824TIP3    H214430   2.939   6.582   0.769
 4825TIP3   OH214431   3.887   6.330   1.502
 4825TIP3    H114432   3.819   6.263   1.514
 4825TIP3    H214433   3.888   6.346   1.407
 4826TIP3   OH214434   7.159   6.352   4.270
 4826TIP3    H114435   7.159   6.320   4.360
 4826TIP3    H214436   7.235   6.310   4.229
 4827TIP3   OH214437   2.570   6.690   0.587
 4827TIP3    H114438   2.549   6.601   0.614
 4827TIP3    H214439   2.659   6.684   0.550
 4828TIP3   OH214440   2.927   0.037   4.353
 4828TIP3    H114441   2.928   0.087   4.271
 4828TIP3    H214442   2.986  -0.036   4.337
 4829TIP3   OH214443   6.866   4.799   4.235
 4829TIP3    H114444   6.946   4.816   4.284
 4829TIP3    H214445   6.871   4.707   4.212
 4830TIP3   OH214446   7.151   7.276   3.106
 4830TIP3    H114447   7.205   7.287   3.028
 4830TIP3    H214448   7.202   7.315   3.177
 4831TIP3   OH214449   2.047   7.439   5.354
 4831TIP3    H114450   2.134   7.417   5.323
 4831TIP3    H214451   2.052   7.432   5.449
 4832TIP3   OH214452   3.501   3.151   5.629
 4832TIP3    H114453   3.498   3.156   5.534
 4832TIP3    H214454   3.418   3.191   5.658
 4833TIP3   OH214455   2.706   0.550   1.649
 4833TIP3    H114456   2.786   0.547   1.598
 4833TIP3    H214457   2.663   0.632   1.624
 4834TIP3   OH214458   3.935   6.425   2.791
 4834TIP3    H114459   3.866   6.371   2.753
 4834TIP3    H214460   3.945   6.391   2.880
 4835TIP3   OH214461   6.160   1.049   5.698
 4835TIP3    H114462   6.103   1.108   5.648
 4835TIP3    H214463   6.100   1.001   5.756
 4836TIP3   OH214464   4.615   7.145   0.231
 4836TIP3    H114465   4.561   7.089   0.175
 4836TIP3    H214466   4.571   7.230   0.230
 4837TIP3   OH214467   2.755   1.917   0.963
 4837TIP3    H114468   2.842   1.925   0.924
 4837TIP3    H214469   2.731   2.006   0.987
 4838TIP3   OH214470   0.900   3.036   3.993
 4838TIP3    H114471   0.879   3.110   3.935
 4838TIP3    H214472   0.993   3.050   4.015
 4839TIP3   OH214473   6.286   7.248   5.017
 4839TIP3    H114474   6.328   7.233   5.102
 4839TIP3    H214475   6.222   7.178   5.010
 4840TIP3   OH214476   5.952   0.639   3.666
 4840TIP3    H114477   5.889   0.568   3.678
 4840TIP3    H214478   5.986   0.627   3.578
 4841TIP3   OH214479   4.442   5.436   3.185
 4841TIP3    H114480   4.537   5.449   3.195
 4841TIP3    H214481   4.431   5.417   3.092
 4842TIP3   OH214482   7.236   3.749   0.712
 4842TIP3    H114483   7.270   3.660   0.703
 4842TIP3    H214484   7.272   3.780   0.795
 4843TIP3   OH214485   7.583   5.837   5.790
 4843TIP3    H114486   7.637   5.775   5.741
 4843TIP3    H214487   7.545   5.894   5.722
 4844TIP3   OH214488   0.829   7.407   5.399
 4844TIP3    H114489   0.762   7.427   5.334
 4844TIP3    H214490   0.787   7.426   5.483
 4845TIP3   OH214491   0.826   0.343   6.681
 4845TIP3    H114492   0.920   0.328   6.670
 4845TIP3    H214493   0.796   0.373   6.595
 4846TIP3   OH214494   4.588   2.792   4.211
 4846TIP3    H114495   4.668   2.807   4.261
 4846TIP3    H214496   4.614   2.812   4.120
 4847TIP3   OH214497   5.203   7.077   2.823
 4847TIP3    H114498   5.175   7.109   2.909
 4847TIP3    H214499   5.121   7.060   2.776
 4848TIP3   OH214500   2.345   1.483   4.846
 4848TIP3    H114501   2.387   1.502   4.930
 4848TIP3    H214502   2.381   1.398   4.820
 4849TIP3   OH214503   5.583   5.004   2.868
 4849TIP3    H114504   5.616   4.985   2.780
 4849TIP3    H214505   5.587   4.921   2.914
 4850TIP3   OH214506   7.287   5.135   6.659
 4850TIP3    H114507   7.347   5.138   6.733
 4850TIP3    H214508   7.204   5.107   6.696
 4851TIP3   OH214509   1.601   2.533   4.254
 4851TIP3    H114510   1.606   2.441   4.279
 4851TIP3    H214511   1.508   2.554   4.259
 4852TIP3   OH214512   5.194   7.348   4.463
 4852TIP3    H114513   5.257   7.390   4.404
 4852TIP3    H214514   5.114   7.401   4.453
 4853TIP3   OH214515   0.857   3.017   0.213
 4853TIP3    H114516   0.924   2.993   0.149
 4853TIP3    H214517   0.874   2.961   0.289
 4854TIP3   OH214518   6.022   7.474   3.906
 4854TIP3    H114519   5.939   7.522   3.913
 4854TIP3    H214520   6.083   7.538   3.868
 4855TIP3   OH214521   3.170   6.436   3.762
 4855TIP3    H114522   3.092   6.413   3.812
 4855TIP3    H214523   3.147   6.517   3.717
 4856TIP3   OH214524   2.690   2.273   3.190
 4856TIP3    H114525   2.629   2.200   3.186
 4856TIP3    H214526   2.708   2.294   3.098
 4857TIP3   OH214527   5.777   3.217   4.791
 4857TIP3    H114528   5.702   3.170   4.828
 4857TIP3    H214529   5.830   3.148   4.752
 4858TIP3   OH214530   6.224   6.461   6.748
 4858TIP3    H114531   6.163   6.421   6.810
 4858TIP3    H214532   6.168   6.490   6.675
 4859TIP3   OH214533   3.408   3.991   1.565
 4859TIP3    H114534   3.501   4.001   1.544
 4859TIP3    H214535   3.399   3.901   1.594
 4860TIP3   OH214536   6.573   5.776   1.924
 4860TIP3    H114537   6.513   5.708   1.894
 4860TIP3    H214538   6.533   5.858   1.895
 4861TIP3   OH214539   7.694   1.852   6.274
 4861TIP3    H114540   7.780   1.872   6.238
 4861TIP3    H214541   7.680   1.760   6.255
 4862TIP3   OH214542   0.631   0.512   5.315
 4862TIP3    H114543   0.679   0.431   5.302
 4862TIP3    H214544   0.594   0.505   5.403
 4863TIP3   OH214545   7.620   0.299   4.473
 4863TIP3    H114546   7.651   0.378   4.429
 4863TIP3    H214547   7.568   0.331   4.547
 4864TIP3   OH214548   6.400   4.792   2.133
 4864TIP3    H114549   6.395   4.814   2.226
 4864TIP3    H214550   6.315   4.752   2.114
 4865TIP3   OH214551   1.020   4.652   5.934
 4865TIP3    H114552   1.040   4.611   6.019
 4865TIP3    H214553   1.049   4.587   5.870
 4866TIP3   OH214554   3.873   0.525   6.264
 4866TIP3    H114555   3.836   0.442   6.234
 4866TIP3    H214556   3.959   0.529   6.223
 4867TIP3   OH214557   5.903   3.582   0.301
 4867TIP3    H114558   5.979   3.640   0.307
 4867TIP3    H214559   5.831   3.640   0.274
 4868TIP3   OH214560   4.760   5.642   4.261
 4868TIP3    H114561   4.813   5.690   4.325
 4868TIP3    H214562   4.693   5.705   4.234
 4869TIP3   OH214563   2.386   0.518   6.444
 4869TIP3    H114564   2.297   0.487   6.458
 4869TIP3    H214565   2.383   0.562   6.360
 4870TIP3   OH214566   6.872   0.206   3.859
 4870TIP3    H114567   6.878   0.186   3.952
 4870TIP3    H214568   6.947   0.161   3.819
 4871TIP3   OH214569   6.289   4.738   0.308
 4871TIP3    H114570   6.287   4.727   0.403
 4871TIP3    H214571   6.352   4.809   0.294
 4872TIP3   OH214572   0.118   1.073   2.976
 4872TIP3    H114573   0.145   1.021   2.900
 4872TIP3    H214574   0.179   1.048   3.045
 4873TIP3   OH214575   3.753   0.982   1.795
 4873TIP3    H114576   3.694   0.935   1.737
 4873TIP3    H214577   3.836   0.985   1.747
 4874TIP3   OH214578   1.293   6.372   0.156
 4874TIP3    H114579   1.224   6.324   0.201
 4874TIP3    H214580   1.278   6.464   0.180
 4875TIP3   OH214581   7.479   5.024   5.076
 4875TIP3    H114582   7.467   5.018   5.170
 4875TIP3    H214583   7.449   4.940   5.042
 4876TIP3   OH214584   7.613   5.148   2.083
 4876TIP3    H114585   7.566   5.207   2.024
 4876TIP3    H214586   7.543   5.101   2.129
 4877TIP3   OH214587   6.532   2.891   1.919
 4877TIP3    H114588   6.507   2.895   1.827
 4877TIP3    H214589   6.625   2.866   1.918
 4878TIP3   OH214590   0.616   5.533   4.992
 4878TIP3    H114591   0.685   5.497   5.047
 4878TIP3    H214592   0.638   5.626   4.983
 4879TIP3   OH214593   0.123   0.245   0.933
 4879TIP3    H114594   0.138   0.164   0.983
 4879TIP3    H214595   0.167   0.313   0.984
 4880TIP3   OH214596   3.360   3.166   2.153
 4880TIP3    H114597   3.360   3.100   2.223
 4880TIP3    H214598   3.346   3.249   2.198
 4881TIP3   OH214599   8.002   4.670   0.350
 4881TIP3    H114600   7.934   4.662   0.283
 4881TIP3    H214601   8.048   4.586   0.347
 4882TIP3   OH214602   7.132   7.037   0.875
 4882TIP3    H114603   7.106   7.127   0.857
 4882TIP3    H214604   7.197   7.017   0.807
 4883TIP3   OH214605   7.436   5.738   6.297
 4883TIP3    H114606   7.395   5.823   6.314
 4883TIP3    H214607   7.421   5.722   6.204
 4884TIP3   OH214608   7.348   3.499   2.600
 4884TIP3    H114609   7.309   3.496   2.513
 4884TIP3    H214610   7.274   3.493   2.660
 4885TIP3   OH214611   5.407   6.386   5.565
 4885TIP3    H114612   5.416   6.325   5.638
 4885TIP3    H214613   5.369   6.332   5.495
 4886TIP3   OH214614   4.177   7.544   1.652
 4886TIP3    H114615   4.186   7.535   1.747
 4886TIP3    H214616   4.085   7.525   1.635
 4887TIP3   OH214617   3.065   0.667   3.126
 4887TIP3    H114618   2.985   0.660   3.075
 4887TIP3    H214619   3.067   0.586   3.178
 4888TIP3   OH214620   8.121   0.896   5.144
 4888TIP3    H114621   8.068   0.853   5.077
 4888TIP3    H214622   8.165   0.824   5.189
 4889TIP3   OH214623   7.267   0.237   5.885
 4889TIP3    H114624   7.327   0.281   5.824
 4889TIP3    H214625   7.267   0.146   5.857
 4890TIP3   OH214626   6.778   1.716   2.030
 4890TIP3    H114627   6.719   1.753   1.964
 4890TIP3    H214628   6.743   1.628   2.047
 4891TIP3   OH214629   7.088   3.215   6.775
 4891TIP3    H114630   7.125   3.273   6.709
 4891TIP3    H214631   7.164   3.179   6.821
 4892TIP3   OH214632   3.488   7.572   2.962
 4892TIP3    H114633   3.482   7.586   2.867
 4892TIP3    H214634   3.534   7.488   2.970
 4893TIP3   OH214635   0.154   6.318   2.937
 4893TIP3    H114636   0.128   6.260   3.008
 4893TIP3    H214637   0.173   6.402   2.980
 4894TIP3   OH214638   4.281   5.529   0.880
 4894TIP3    H114639   4.195   5.542   0.841
 4894TIP3    H214640   4.295   5.434   0.876
 4895TIP3   OH214641   0.658   0.584   4.909
 4895TIP3    H114642   0.734   0.588   4.966
 4895TIP3    H214643   0.622   0.672   4.909
 4896TIP3   OH214644   1.457   7.736   0.872
 4896TIP3    H114645   1.489   7.714   0.960
 4896TIP3    H214646   1.365   7.709   0.873
 4897TIP3   OH214647   0.133   3.997   0.505
 4897TIP3    H114648   0.165   4.080   0.539
 4897TIP3    H214649   0.201   3.934   0.528
 4898TIP3   OH214650   1.289   7.679   2.260
 4898TIP3    H114651   1.371   7.725   2.277
 4898TIP3    H214652   1.228   7.717   2.323
 4899TIP3   OH214653   1.776   7.741   4.547
 4899TIP3    H114654   1.790   7.803   4.476
 4899TIP3    H214655   1.681   7.734   4.555
 4900TIP3   OH214656   0.800   2.585   1.598
 4900TIP3    H114657   0.713   2.569   1.561
 4900TIP3    H214658   0.826   2.502   1.636
 4901TIP3   OH214659   3.524   3.874   0.497
 4901TIP3    H114660   3.540   3.780   0.507
 4901TIP3    H214661   3.534   3.910   0.585
 4902TIP3   OH214662   1.321   7.752   0.199
 4902TIP3    H114663   1.390   7.730   0.262
 4902TIP3    H214664   1.336   7.844   0.177
 4903TIP3   OH214665   5.785   3.673   1.770
 4903TIP3    H114666   5.727   3.604   1.739
 4903TIP3    H214667   5.729   3.729   1.824
 4904TIP3   OH214668   3.902   6.980   2.518
 4904TIP3    H114669   3.827   7.008   2.570
 4904TIP3    H214670   3.972   7.040   2.544
 4905TIP3   OH214671   7.465   6.236   2.436
 4905TIP3    H114672   7.469   6.312   2.378
 4905TIP3    H214673   7.556   6.208   2.446
 4906TIP3   OH214674   7.647   5.848   5.122
 4906TIP3    H114675   7.701   5.927   5.114
 4906TIP3    H214676   7.683   5.788   5.056
 4907TIP3   OH214677   4.420   4.529   3.270
 4907TIP3    H114678   4.471   4.604   3.299
 4907TIP3    H214679   4.331   4.548   3.300
 4908TIP3   OH214680   8.089   0.463   5.397
 4908TIP3    H114681   8.130   0.414   5.468
 4908TIP3    H214682   8.109   0.412   5.318
 4909TIP3   OH214683   4.668   5.379   0.439
 4909TIP3    H114684   4.688   5.307   0.499
 4909TIP3    H214685   4.593   5.348   0.389
 4910TIP3   OH214686   2.389   3.949   3.192
 4910TIP3    H114687   2.378   4.035   3.152
 4910TIP3    H214688   2.457   3.961   3.258
 4911TIP3   OH214689   1.925   3.946   5.130
 4911TIP3    H114690   1.937   4.040   5.120
 4911TIP3    H214691   1.896   3.935   5.221
 4912TIP3   OH214692   6.089   1.431   4.570
 4912TIP3    H114693   6.118   1.453   4.482
 4912TIP3    H214694   5.995   1.450   4.570
 4913TIP3   OH214695   3.097   5.686   5.660
 4913TIP3    H114696   3.126   5.642   5.740
 4913TIP3    H214697   3.003   5.671   5.657
 4914TIP3   OH214698   5.191   2.692   3.547
 4914TIP3    H114699   5.160   2.752   3.614
 4914TIP3    H214700   5.239   2.747   3.485
 4915TIP3   OH214701   3.937   7.605   3.750
 4915TIP3    H114702   3.862   7.658   3.777
 4915TIP3    H214703   3.936   7.609   3.655
 4916TIP3   OH214704   2.548   5.586   2.336
 4916TIP3    H114705   2.604   5.593   2.259
 4916TIP3    H214706   2.526   5.676   2.358
 4917TIP3   OH214707   6.644   7.133   4.019
 4917TIP3    H114708   6.634   7.168   3.931
 4917TIP3    H214709   6.569   7.073   4.029
 4918TIP3   OH214710   5.916   5.336   2.808
 4918TIP3    H114711   5.966   5.403   2.856
 4918TIP3    H214712   5.845   5.385   2.767
 4919TIP3   OH214713   2.033   5.515   4.306
 4919TIP3    H114714   1.939   5.516   4.322
 4919TIP3    H214715   2.042   5.545   4.215
 4920TIP3   OH214716   3.850   2.207   0.303
 4920TIP3    H114717   3.913   2.172   0.367
 4920TIP3    H214718   3.878   2.298   0.289
 4921TIP3   OH214719   3.936   1.323   5.881
 4921TIP3    H114720   3.976   1.371   5.954
 4921TIP3    H214721   3.904   1.392   5.823
 4922TIP3   OH214722   5.238   4.123   3.603
 4922TIP3    H114723   5.277   4.057   3.659
 4922TIP3    H214724   5.214   4.077   3.523
 4923TIP3   OH214725   2.451   6.389   5.032
 4923TIP3    H114726   2.407   6.323   5.086
 4923TIP3    H214727   2.410   6.472   5.058
 4924TIP3   OH214728   0.672   5.785   4.397
 4924TIP3    H114729   0.701   5.694   4.406
 4924TIP3    H214730   0.644   5.810   4.486
 4925TIP3   OH214731   5.443   5.773   4.159
 4925TIP3    H114732   5.466   5.788   4.067
 4925TIP3    H214733   5.447   5.860   4.200
 4926TIP3   OH214734   2.752   4.099   6.207
 4926TIP3    H114735   2.743   4.193   6.222
 4926TIP3    H214736   2.754   4.061   6.295
 4927TIP3   OH214737   0.520   1.139   5.415
 4927TIP3    H114738   0.575   1.194   5.471
 4927TIP3    H214739   0.432   1.174   5.427
 4928TIP3   OH214740   7.325   4.502   2.618
 4928TIP3    H114741   7.322   4.548   2.534
 4928TIP3    H214742   7.366   4.418   2.598
 4929TIP3   OH214743   1.382   1.641   0.650
 4929TIP3    H114744   1.475   1.628   0.664
 4929TIP3    H214745   1.344   1.645   0.737
 4930TIP3   OH214746   3.519   6.201   6.652
 4930TIP3    H114747   3.502   6.283   6.699
 4930TIP3    H214748   3.446   6.192   6.592
 4931TIP3   OH214749   5.410   7.411   4.883
 4931TIP3    H114750   5.371   7.461   4.955
 4931TIP3    H214751   5.355   7.333   4.876
 4932TIP3   OH214752   3.700   5.290   3.538
 4932TIP3    H114753   3.762   5.324   3.602
 4932TIP3    H214754   3.695   5.357   3.470
 4933TIP3   OH214755   6.131   5.783   2.860
 4933TIP3    H114756   6.045   5.807   2.826
 4933TIP3    H214757   6.189   5.786   2.783
 4934TIP3   OH214758   1.653   5.672   6.139
 4934TIP3    H114759   1.577   5.673   6.197
 4934TIP3    H214760   1.631   5.737   6.071
 4935TIP3   OH214761   1.191   2.112   6.774
 4935TIP3    H114762   1.197   2.018   6.796
 4935TIP3    H214763   1.224   2.118   6.685
 4936TIP3   OH214764   7.001   3.827   2.012
 4936TIP3    H114765   7.067   3.868   1.956
 4936TIP3    H214766   6.957   3.900   2.055
 4937TIP3   OH214767   1.518   7.424   3.742
 4937TIP3    H114768   1.564   7.380   3.814
 4937TIP3    H214769   1.579   7.490   3.711
 4938TIP3   OH214770   6.745   1.375   1.611
 4938TIP3    H114771   6.690   1.414   1.678
 4938TIP3    H214772   6.709   1.288   1.597
 4939TIP3   OH214773   1.940   3.534   0.076
 4939TIP3    H114774   1.882   3.460   0.094
 4939TIP3    H214775   1.992   3.507   0.001
 4940TIP3   OH214776   2.866   5.160   1.918
 4940TIP3    H114777   2.830   5.175   2.005
 4940TIP3    H214778   2.834   5.073   1.893
 4941TIP3   OH214779   5.408   3.240   0.090
 4941TIP3    H114780   5.410   3.146   0.071
 4941TIP3    H214781   5.325   3.253   0.136
 4942TIP3   OH214782   1.720   0.824   4.225
 4942TIP3    H114783   1.747   0.825   4.317
 4942TIP3    H214784   1.632   0.860   4.226
 4943TIP3   OH214785   4.039   1.970   4.819
 4943TIP3    H114786   4.077   1.893   4.860
 4943TIP3    H214787   4.092   2.043   4.852
 4944TIP3   OH214788   1.480   3.789   5.006
 4944TIP3    H114789   1.503   3.712   4.954
 4944TIP3    H214790   1.470   3.859   4.942
 4945TIP3   OH214791   0.399   6.216   4.489
 4945TIP3    H114792   0.477   6.225   4.434
 4945TIP3    H214793   0.431   6.180   4.572
 4946TIP3   OH214794   7.935   5.551   4.012
 4946TIP3    H114795   7.959   5.532   3.921
 4946TIP3    H214796   7.997   5.501   4.064
 4947TIP3   OH214797   1.612   0.346   6.735
 4947TIP3    H114798   1.645   0.257   6.736
 4947TIP3    H214799   1.621   0.376   6.826
 4948TIP3   OH214800   3.539   6.407   0.657
 4948TIP3    H114801   3.513   6.403   0.566
 4948TIP3    H214802   3.486   6.477   0.695
 4949TIP3   OH214803   0.781   2.115   6.454
 4949TIP3    H114804   0.739   2.103   6.369
 4949TIP3    H214805   0.848   2.047   6.458
 4950TIP3   OH214806   0.262   5.467   3.919
 4950TIP3    H114807   0.330   5.502   3.976
 4950TIP3    H214808   0.291   5.488   3.830
 4951TIP3   OH214809   8.065   4.920   0.411
 4951TIP3    H114810   8.141   4.918   0.470
 4951TIP3    H214811   8.036   4.829   0.406
 4952TIP3   OH214812   7.983   3.077   3.722
 4952TIP3    H114813   7.958   3.146   3.660
 4952TIP3    H214814   8.009   3.124   3.801
 4953TIP3   OH214815   5.705   2.386   4.216
 4953TIP3    H114816   5.664   2.467   4.186
 4953TIP3    H214817   5.766   2.363   4.146
 4954TIP3   OH214818   5.862   3.270   3.395
 4954TIP3    H114819   5.782   3.322   3.401
 4954TIP3    H214820   5.909   3.289   3.477
 4955TIP3   OH214821   5.465   1.037   2.367
 4955TIP3    H114822   5.493   1.061   2.455
 4955TIP3    H214823   5.457   1.121   2.321
 4956TIP3   OH214824   5.623   7.496   2.777
 4956TIP3    H114825   5.559   7.455   2.836
 4956TIP3    H214826   5.692   7.527   2.835
 4957TIP3   OH214827   3.424   6.230   4.193
 4957TIP3    H114828   3.412   6.301   4.256
 4957TIP3    H214829   3.515   6.236   4.167
 4958TIP3   OH214830   7.149   3.848   0.385
 4958TIP3    H114831   7.179   3.938   0.374
 4958TIP3    H214832   7.229   3.798   0.403
 4959TIP3   OH214833   5.231   2.987   5.070
 4959TIP3    H114834   5.191   2.903   5.088
 4959TIP3    H214835   5.224   2.998   4.975
 4960TIP3   OH214836   6.237   0.227   5.727
 4960TIP3    H114837   6.224   0.199   5.637
 4960TIP3    H214838   6.332   0.233   5.737
 4961TIP3   OH214839   2.642   1.694   0.292
 4961TIP3    H114840   2.719   1.648   0.257
 4961TIP3    H214841   2.574   1.680   0.226
 4962TIP3   OH214842   5.270   5.070   4.373
 4962TIP3    H114843   5.330   5.012   4.420
 4962TIP3    H214844   5.321   5.105   4.300
 4963TIP3   OH214845   6.557   6.353   1.346
 4963TIP3    H114846   6.499   6.279   1.362
 4963TIP3    H214847   6.563   6.358   1.250
 4964TIP3   OH214848   2.417   2.473   6.094
 4964TIP3    H114849   2.485   2.418   6.132
 4964TIP3    H214850   2.463   2.552   6.064
 4965TIP3   OH214851   1.904   6.873   1.420
 4965TIP3    H114852   1.964   6.905   1.487
 4965TIP3    H214853   1.868   6.792   1.456
 4966TIP3   OH214854   4.180   7.556   2.033
 4966TIP3    H114855   4.135   7.639   2.047
 4966TIP3    H214856   4.158   7.503   2.110
 4967TIP3   OH214857   0.121   1.297   3.208
 4967TIP3    H114858   0.207   1.338   3.217
 4967TIP3    H214859   0.133   1.233   3.137
 4968TIP3   OH214860   2.222   7.157   1.119
 4968TIP3    H114861   2.231   7.100   1.196
 4968TIP3    H214862   2.304   7.207   1.116
 4969TIP3   OH214863   5.028   6.579   3.625
 4969TIP3    H114864   5.078   6.550   3.701
 4969TIP3    H214865   5.083   6.556   3.550
 4970TIP3   OH214866   7.130   0.925   4.192
 4970TIP3    H114867   7.053   0.968   4.230
 4970TIP3    H214868   7.145   0.848   4.247
 4971TIP3   OH214869   6.302   5.049   4.356
 4971TIP3    H114870   6.319   5.012   4.442
 4971TIP3    H214871   6.384   5.090   4.330
 4972TIP3   OH214872   0.601   5.056   2.306
 4972TIP3    H114873   0.658   4.994   2.352
 4972TIP3    H214874   0.657   5.133   2.290
 4973TIP3   OH214875   6.415   1.986   0.541
 4973TIP3    H114876   6.403   1.891   0.549
 4973TIP3    H214877   6.443   1.999   0.450
 4974TIP3   OH214878   8.153   7.149   6.256
 4974TIP3    H114879   8.175   7.210   6.326
 4974TIP3    H214880   8.135   7.066   6.302
 4975TIP3   OH214881   4.174   4.131   4.355
 4975TIP3    H114882   4.091   4.147   4.310
 4975TIP3    H214883   4.165   4.044   4.394
 4976TIP3   OH214884   6.675   7.314   3.221
 4976TIP3    H114885   6.719   7.323   3.306
 4976TIP3    H214886   6.708   7.231   3.187
 4977TIP3   OH214887   1.838   3.552   4.750
 4977TIP3    H114888   1.845   3.546   4.845
 4977TIP3    H214889   1.885   3.475   4.718
 4978TIP3   OH214890   6.443   6.979   5.907
 4978TIP3    H114891   6.475   7.064   5.937
 4978TIP3    H214892   6.518   6.939   5.864
 4979TIP3   OH214893   0.143   4.179   5.305
 4979TIP3    H114894   0.202   4.139   5.369
 4979TIP3    H214895   0.072   4.216   5.357
 4980TIP3   OH214896   5.792   2.224   0.320
 4980TIP3    H114897   5.752   2.203   0.405
 4980TIP3    H214898   5.836   2.308   0.335
 4981TIP3   OH214899   7.772   3.821   0.425
 4981TIP3    H114900   7.831   3.878   0.474
 4981TIP3    H214901   7.734   3.763   0.491
 4982TIP3   OH214902   2.168   1.009   5.860
 4982TIP3    H114903   2.075   1.022   5.844
 4982TIP3    H214904   2.189   0.929   5.812
 4983TIP3   OH214905   7.320   5.066   2.039
 4983TIP3    H114906   7.296   5.056   1.947
 4983TIP3    H214907   7.275   5.146   2.067
 4984TIP3   OH214908   0.007   5.415   3.153
 4984TIP3    H114909  -0.054   5.403   3.080
 4984TIP3    H214910   0.054   5.331   3.159
 4985TIP3   OH214911   3.565   7.650   4.382
 4985TIP3    H114912   3.480   7.695   4.381
 4985TIP3    H214913   3.551   7.573   4.437
 4986TIP3   OH214914   1.325   2.953   2.004
 4986TIP3    H114915   1.325   2.885   1.936
 4986TIP3    H214916   1.307   3.034   1.958
 4987TIP3   OH214917   0.885   2.772   5.266
 4987TIP3    H114918   0.890   2.841   5.199
 4987TIP3    H214919   0.950   2.707   5.238
 4988TIP3   OH214920  -0.002   1.825   3.194
 4988TIP3    H114921   0.090   1.798   3.187
 4988TIP3    H214922  -0.005   1.882   3.271
 4989TIP3   OH214923   5.578   0.051   4.436
 4989TIP3    H114924   5.599   0.040   4.528
 4989TIP3    H214925   5.651   0.101   4.400
 4990TIP3   OH214926   0.146   5.132   3.234
 4990TIP3    H114927   0.172   5.192   3.304
 4990TIP3    H214928   0.228   5.091   3.207
 4991TIP3   OH214929   7.740   5.245   4.187
 4991TIP3    H114930   7.808   5.312   4.184
 4991TIP3    H214931   7.686   5.268   4.263
 4992TIP3   OH214932   2.709   1.692   1.724
 4992TIP3    H114933   2.750   1.730   1.802
 4992TIP3    H214934   2.627   1.740   1.715
 4993TIP3   OH214935   1.780   1.966   0.254
 4993TIP3    H114936   1.863   1.984   0.297
 4993TIP3    H214937   1.728   1.921   0.320
 4994TIP3   OH214938   3.748   6.316   6.511
 4994TIP3    H114939   3.671   6.279   6.554
 4994TIP3    H214940   3.712   6.363   6.435
 4995TIP3   OH214941   3.959   4.065   3.177
 4995TIP3    H114942   3.964   4.121   3.254
 4995TIP3    H214943   4.035   4.007   3.183
 4996TIP3   OH214944   2.898   2.123   1.975
 4996TIP3    H114945   2.971   2.183   1.992
 4996TIP3    H214946   2.852   2.118   2.059
 4997TIP3   OH214947   2.331   5.254   2.074
 4997TIP3    H114948   2.415   5.301   2.075
 4997TIP3    H214949   2.350   5.169   2.114
 4998TIP3   OH214950   0.370   4.340   3.648
 4998TIP3    H114951   0.275   4.342   3.657
 4998TIP3    H214952   0.398   4.429   3.666
 4999TIP3   OH214953   6.497   6.591   1.870
 4999TIP3    H114954   6.410   6.561   1.896
 4999TIP3    H214955   6.499   6.580   1.775
 5000TIP3   OH214956   4.774   6.280   6.655
 5000TIP3    H114957   4.870   6.274   6.659
 5000TIP3    H214958   4.753   6.353   6.713
 5001TIP3   OH214959   5.370   0.022   5.769
 5001TIP3    H114960   5.426   0.081   5.719
 5001TIP3    H214961   5.393   0.038   5.860
 5002TIP3   OH214962   5.259   4.945   0.596
 5002TIP3    H114963   5.208   5.027   0.599
 5002TIP3    H214964   5.343   4.967   0.635
 5003TIP3   OH214965   2.207   2.801   1.987
 5003TIP3    H114966   2.223   2.833   1.898
 5003TIP3    H214967   2.275   2.735   2.001
 5004TIP3   OH214968   5.377   1.948   0.224
 5004TIP3    H114969   5.426   1.893   0.286
 5004TIP3    H214970   5.342   2.019   0.278
 5005TIP3   OH214971   7.349   1.879   5.822
 5005TIP3    H114972   7.395   1.917   5.897
 5005TIP3    H214973   7.405   1.807   5.793
 5006TIP3   OH214974   4.129   1.667   5.342
 5006TIP3    H114975   4.194   1.612   5.387
 5006TIP3    H214976   4.169   1.753   5.338
 5007TIP3   OH214977   0.622   5.018   0.587
 5007TIP3    H114978   0.714   5.038   0.602
 5007TIP3    H214979   0.619   4.922   0.584
 5008TIP3   OH214980   5.467   0.113   1.120
 5008TIP3    H114981   5.415   0.065   1.185
 5008TIP3    H214982   5.557   0.108   1.153
 5009TIP3   OH214983   5.208   1.964   0.674
 5009TIP3    H114984   5.246   2.052   0.666
 5009TIP3    H214985   5.275   1.912   0.717
 5010TIP3   OH214986   1.479   0.190   5.043
 5010TIP3    H114987   1.477   0.185   4.948
 5010TIP3    H214988   1.405   0.136   5.071
 5011TIP3   OH214989   5.065   3.957   5.613
 5011TIP3    H114990   5.121   3.896   5.661
 5011TIP3    H214991   5.106   3.964   5.527
 5012TIP3   OH214992   6.694   3.784   1.909
 5012TIP3    H114993   6.608   3.825   1.894
 5012TIP3    H214994   6.752   3.829   1.849
 5013TIP3   OH214995   1.217   1.276   4.098
 5013TIP3    H114996   1.129   1.278   4.136
 5013TIP3    H214997   1.237   1.182   4.089
 5014TIP3   OH214998   1.114   0.721   4.315
 5014TIP3    H114999   1.188   0.697   4.371
 5014TIP3    H215000   1.153   0.739   4.230
 5015TIP3   OH215001   4.067   5.871   0.708
 5015TIP3    H115002   4.014   5.949   0.726
 5015TIP3    H215003   4.055   5.856   0.614
 5016TIP3   OH215004   3.784   7.534   6.520
 5016TIP3    H115005   3.863   7.505   6.566
 5016TIP3    H215006   3.816   7.572   6.438
 5017TIP3   OH215007   1.275   4.960   0.914
 5017TIP3    H115008   1.310   4.984   0.828
 5017TIP3    H215009   1.232   4.876   0.901
 5018TIP3   OH215010   3.873   3.350   5.725
 5018TIP3    H115011   3.820   3.359   5.646
 5018TIP3    H215012   3.832   3.278   5.774
 5019TIP3   OH215013   0.806   1.474   5.072
 5019TIP3    H115014   0.778   1.412   5.006
 5019TIP3    H215015   0.768   1.442   5.154
 5020TIP3   OH215016   5.325   0.822   5.104
 5020TIP3    H115017   5.398   0.762   5.089
 5020TIP3    H215018   5.364   0.897   5.149
 5021TIP3   OH215019   6.820   5.164   5.530
 5021TIP3    H115020   6.755   5.103   5.565
 5021TIP3    H215021   6.795   5.174   5.438
 5022TIP3   OH215022   7.332   7.499   5.604
 5022TIP3    H115023   7.274   7.463   5.671
 5022TIP3    H215024   7.333   7.593   5.622
 5023TIP3   OH215025   4.887   4.460   4.021
 5023TIP3    H115026   4.977   4.460   4.052
 5023TIP3    H215027   4.854   4.373   4.043
 5024TIP3   OH215028   3.482   1.176   1.465
 5024TIP3    H115029   3.479   1.081   1.453
 5024TIP3    H215030   3.394   1.206   1.442
 5025TIP3   OH215031   3.517   3.997   4.294
 5025TIP3    H115032   3.513   3.936   4.221
 5025TIP3    H215033   3.460   4.070   4.269
 5026TIP3   OH215034   8.054   5.975   5.519
 5026TIP3    H115035   8.098   5.990   5.435
 5026TIP3    H215036   8.121   5.939   5.576
 5027TIP3   OH215037   1.861   6.580   3.569
 5027TIP3    H115038   1.825   6.603   3.655
 5027TIP3    H215039   1.946   6.625   3.566
 5028TIP3   OH215040   4.901   7.633   4.714
 5028TIP3    H115041   4.872   7.693   4.782
 5028TIP3    H215042   4.884   7.679   4.632
 5029TIP3   OH215043   7.571   6.092   0.720
 5029TIP3    H115044   7.628   6.050   0.783
 5029TIP3    H215045   7.586   6.186   0.732
 5030TIP3   OH215046   5.095   3.360   2.258
 5030TIP3    H115047   5.184   3.329   2.273
 5030TIP3    H215048   5.084   3.434   2.319
 5031TIP3   OH215049   1.731   0.979   3.259
 5031TIP3    H115050   1.715   0.931   3.340
 5031TIP3    H215051   1.653   0.962   3.206
 5032TIP3   OH215052   3.860   0.859   4.571
 5032TIP3    H115053   3.936   0.917   4.561
 5032TIP3    H215054   3.789   0.907   4.529
 5033TIP3   OH215055   3.416   5.383   0.361
 5033TIP3    H115056   3.486   5.319   0.375
 5033TIP3    H215057   3.436   5.455   0.419
 5034TIP3   OH215058   6.846   3.351   2.930
 5034TIP3    H115059   6.791   3.333   2.853
 5034TIP3    H215060   6.805   3.428   2.971
 5035TIP3   OH215061   5.079   6.387   1.596
 5035TIP3    H115062   5.136   6.316   1.624
 5035TIP3    H215063   5.136   6.464   1.593
 5036TIP3   OH215064   1.226   3.384   5.233
 5036TIP3    H115065   1.155   3.384   5.297
 5036TIP3    H215066   1.293   3.440   5.272
 5037TIP3   OH215067   7.979   5.671   6.012
 5037TIP3    H115068   7.883   5.667   6.015
 5037TIP3    H215069   8.007   5.594   6.061
 5038TIP3   OH215070   7.310   7.363   2.747
 5038TIP3    H115071   7.374   7.360   2.818
 5038TIP3    H215072   7.344   7.430   2.687
 5039TIP3   OH215073   2.994   6.542   4.649
 5039TIP3    H115074   2.927   6.487   4.608
 5039TIP3    H215075   3.073   6.522   4.599
 5040TIP3   OH215076   2.251   4.353   6.087
 5040TIP3    H115077   2.245   4.271   6.038
 5040TIP3    H215078   2.207   4.335   6.170
 5041TIP3   OH215079   0.480   1.914   4.136
 5041TIP3    H115080   0.408   1.908   4.073
 5041TIP3    H215081   0.445   1.966   4.209
 5042TIP3   OH215082   5.910   5.721   1.943
 5042TIP3    H115083   5.852   5.777   1.994
 5042TIP3    H215084   5.925   5.644   2.000
 5043TIP3   OH215085   7.599   0.079   6.227
 5043TIP3    H115086   7.605   0.031   6.145
 5043TIP3    H215087   7.551   0.159   6.205
 5044TIP3   OH215088   4.001   1.675   1.574
 5044TIP3    H115089   4.002   1.594   1.524
 5044TIP3    H215090   3.955   1.653   1.655
 5045TIP3   OH215091   8.004   6.542   2.876
 5045TIP3    H115092   7.998   6.549   2.780
 5045TIP3    H215093   8.046   6.458   2.892
 5046TIP3   OH215094   4.333   4.706   1.040
 5046TIP3    H115095   4.408   4.713   1.098
 5046TIP3    H215096   4.366   4.733   0.954
 5047TIP3   OH215097   5.777   2.482   1.808
 5047TIP3    H115098   5.701   2.485   1.866
 5047TIP3    H215099   5.740   2.481   1.720
 5048TIP3   OH215100   3.699   2.251   2.118
 5048TIP3    H115101   3.786   2.235   2.155
 5048TIP3    H215102   3.701   2.344   2.093
 5049TIP3   OH215103   6.857   2.503   0.454
 5049TIP3    H115104   6.837   2.447   0.379
 5049TIP3    H215105   6.772   2.539   0.481
 5050TIP3   OH215106   4.746   7.702   3.350
 5050TIP3    H115107   4.696   7.774   3.311
 5050TIP3    H215108   4.814   7.682   3.285
 5051TIP3   OH215109   3.613   5.335   3.936
 5051TIP3    H115110   3.578   5.303   4.019
 5051TIP3    H215111   3.580   5.273   3.871
 5052TIP3   OH215112   7.252   6.353   2.592
 5052TIP3    H115113   7.281   6.443   2.576
 5052TIP3    H215114   7.324   6.298   2.560
 5053TIP3   OH215115   4.968   5.420   5.679
 5053TIP3    H115116   5.008   5.492   5.728
 5053TIP3    H215117   4.899   5.461   5.628
 5054TIP3   OH215118   2.563   4.427   1.241
 5054TIP3    H115119   2.510   4.348   1.238
 5054TIP3    H215120   2.535   4.478   1.165
 5055TIP3   OH215121   0.432   6.090   5.207
 5055TIP3    H115122   0.475   6.153   5.149
 5055TIP3    H215123   0.422   6.011   5.154
 5056TIP3   OH215124   0.058   1.182   2.141
 5056TIP3    H115125   0.096   1.185   2.229
 5056TIP3    H215126   0.134   1.182   2.083
 5057TIP3   OH215127   8.221   6.711   3.046
 5057TIP3    H115128   8.249   6.800   3.024
 5057TIP3    H215129   8.190   6.675   2.963
 5058TIP3   OH215130   0.242   1.381   0.687
 5058TIP3    H115131   0.319   1.325   0.692
 5058TIP3    H215132   0.178   1.339   0.743
 5059TIP3   OH215133   1.382   3.537   4.456
 5059TIP3    H115134   1.441   3.610   4.476
 5059TIP3    H215135   1.382   3.483   4.534
 5060TIP3   OH215136   0.931   2.112   0.751
 5060TIP3    H115137   0.878   2.171   0.805
 5060TIP3    H215138   0.874   2.087   0.679
 5061TIP3   OH215139   6.743   5.442   3.199
 5061TIP3    H115140   6.773   5.513   3.143
 5061TIP3    H215141   6.717   5.485   3.280
 5062TIP3   OH215142   7.289   1.290   3.255
 5062TIP3    H115143   7.242   1.363   3.216
 5062TIP3    H215144   7.326   1.325   3.335
 5063TIP3   OH215145   4.682   3.558   4.308
 5063TIP3    H115146   4.631   3.480   4.286
 5063TIP3    H215147   4.650   3.625   4.246
 5064TIP3   OH215148   4.644   3.689   2.074
 5064TIP3    H115149   4.716   3.705   2.014
 5064TIP3    H215150   4.675   3.719   2.159
 5065TIP3   OH215151   7.002   5.240   0.488
 5065TIP3    H115152   7.060   5.166   0.473
 5065TIP3    H215153   7.046   5.293   0.555
 5066TIP3   OH215154   1.511   0.673   0.634
 5066TIP3    H115155   1.455   0.598   0.655
 5066TIP3    H215156   1.493   0.690   0.541
 5067TIP3   OH215157   2.192   4.196   5.595
 5067TIP3    H115158   2.179   4.190   5.500
 5067TIP3    H215159   2.285   4.182   5.608
 5068TIP3   OH215160   0.170   5.116   4.540
 5068TIP3    H115161   0.119   5.073   4.609
 5068TIP3    H215162   0.253   5.139   4.581
 5069TIP3   OH215163   0.528   5.396   1.540
 5069TIP3    H115164   0.464   5.457   1.575
 5069TIP3    H215165   0.577   5.446   1.475
 5070TIP3   OH215166   7.610   2.362   4.262
 5070TIP3    H115167   7.530   2.387   4.215
 5070TIP3    H215168   7.674   2.429   4.238
 5071TIP3   OH215169   1.780   2.320   2.390
 5071TIP3    H115170   1.797   2.384   2.460
 5071TIP3    H215171   1.727   2.252   2.433
 5072TIP3   OH215172   5.203   6.822   5.534
 5072TIP3    H115173   5.254   6.881   5.590
 5072TIP3    H215174   5.240   6.735   5.551
 5073TIP3   OH215175   7.084   6.462   5.247
 5073TIP3    H115176   7.150   6.473   5.178
 5073TIP3    H215177   7.021   6.400   5.210
 5074TIP3   OH215178   6.268   5.381   0.589
 5074TIP3    H115179   6.227   5.296   0.574
 5074TIP3    H215180   6.331   5.391   0.517
 5075TIP3   OH215181   1.093   3.807   6.361
 5075TIP3    H115182   1.039   3.753   6.420
 5075TIP3    H215183   1.130   3.874   6.417
 5076TIP3   OH215184   1.631   7.016   6.678
 5076TIP3    H115185   1.535   7.012   6.674
 5076TIP3    H215186   1.651   7.009   6.771
 5077TIP3   OH215187   0.923   0.625   1.367
 5077TIP3    H115188   0.949   0.715   1.347
 5077TIP3    H215189   0.958   0.573   1.295
 5078TIP3   OH215190   3.730   6.524   4.229
 5078TIP3    H115191   3.781   6.580   4.287
 5078TIP3    H215192   3.696   6.582   4.161
 5079TIP3   OH215193   2.258   2.867   3.239
 5079TIP3    H115194   2.193   2.926   3.200
 5079TIP3    H215195   2.330   2.867   3.176
 5080TIP3   OH215196   1.132   4.221   0.473
 5080TIP3    H115197   1.051   4.254   0.510
 5080TIP3    H215198   1.178   4.298   0.441
 5081TIP3   OH215199   7.852   4.181   5.850
 5081TIP3    H115200   7.777   4.136   5.811
 5081TIP3    H215201   7.876   4.126   5.925
 5082TIP3   OH215202   3.046   6.797   3.870
 5082TIP3    H115203   3.007   6.885   3.872
 5082TIP3    H215204   3.042   6.770   3.779
 5083TIP3   OH215205   4.297   0.865   1.347
 5083TIP3    H115206   4.291   0.864   1.252
 5083TIP3    H215207   4.391   0.868   1.365
 5084TIP3   OH215208   4.599   1.872   0.359
 5084TIP3    H115209   4.510   1.837   0.360
 5084TIP3    H215210   4.649   1.812   0.414
 5085TIP3   OH215211   3.507   3.376   1.183
 5085TIP3    H115212   3.581   3.435   1.169
 5085TIP3    H215213   3.446   3.397   1.113
 5086TIP3   OH215214   0.271   0.617   1.789
 5086TIP3    H115215   0.190   0.664   1.806
 5086TIP3    H215216   0.265   0.539   1.844
 5087TIP3   OH215217   4.213   7.225  -0.012
 5087TIP3    H115218   4.245   7.269   0.066
 5087TIP3    H215219   4.247   7.135  -0.005
 5088TIP3   OH215220   3.857   3.157   1.171
 5088TIP3    H115221   3.826   3.200   1.092
 5088TIP3    H215222   3.904   3.080   1.140
 5089TIP3   OH215223   3.971   0.746   2.487
 5089TIP3    H115224   3.998   0.692   2.561
 5089TIP3    H215225   3.997   0.696   2.410
 5090TIP3   OH215226   5.715   5.767   5.714
 5090TIP3    H115227   5.638   5.778   5.769
 5090TIP3    H215228   5.788   5.755   5.775
 5091TIP3   OH215229   1.772   3.000   4.103
 5091TIP3    H115230   1.681   3.002   4.072
 5091TIP3    H215231   1.822   2.964   4.030
 5092TIP3   OH215232   6.257   3.204   5.641
 5092TIP3    H115233   6.327   3.171   5.698
 5092TIP3    H215234   6.188   3.230   5.701
 5093TIP3   OH215235   4.273   0.759   6.410
 5093TIP3    H115236   4.252   0.778   6.318
 5093TIP3    H215237   4.278   0.846   6.451
 5094TIP3   OH215238   4.058   6.915   2.054
 5094TIP3    H115239   4.120   6.858   2.008
 5094TIP3    H215240   3.973   6.892   2.017
 5095TIP3   OH215241   1.509   3.137   4.721
 5095TIP3    H115242   1.544   3.057   4.682
 5095TIP3    H215243   1.452   3.106   4.792
 5096TIP3   OH215244   6.194   4.238   1.060
 5096TIP3    H115245   6.105   4.214   1.088
 5096TIP3    H215246   6.189   4.331   1.040
 5097TIP3   OH215247   2.676   4.982   3.596
 5097TIP3    H115248   2.628   5.061   3.567
 5097TIP3    H215249   2.631   4.910   3.552
 5098TIP3   OH215250   1.005   6.442   4.599
 5098TIP3    H115251   1.054   6.366   4.632
 5098TIP3    H215252   0.913   6.419   4.612
 5099TIP3   OH215253   2.246   1.932   1.644
 5099TIP3    H115254   2.200   1.913   1.562
 5099TIP3    H215255   2.186   1.991   1.691
 5100TIP3   OH215256   2.475   6.564   0.309
 5100TIP3    H115257   2.387   6.528   0.316
 5100TIP3    H215258   2.466   6.641   0.253
 5101TIP3   OH215259   4.347   0.133   1.113
 5101TIP3    H115260   4.252   0.143   1.116
 5101TIP3    H215261   4.382   0.221   1.126
 5102TIP3   OH215262   1.838   7.668   2.348
 5102TIP3    H115263   1.811   7.643   2.437
 5102TIP3    H215264   1.763   7.647   2.293
 5103TIP3   OH215265   2.281   2.239   5.489
 5103TIP3    H115266   2.303   2.182   5.415
 5103TIP3    H215267   2.329   2.321   5.471
 5104TIP3   OH215268   3.673   5.287   0.395
 5104TIP3    H115269   3.737   5.339   0.442
 5104TIP3    H215270   3.696   5.196   0.415
 5105TIP3   OH215271   6.276   1.264   4.688
 5105TIP3    H115272   6.204   1.319   4.655
 5105TIP3    H215273   6.353   1.321   4.685
 5106TIP3   OH215274   6.139   1.012   6.256
 5106TIP3    H115275   6.153   1.039   6.347
 5106TIP3    H215276   6.113   1.092   6.211
 5107TIP3   OH215277   7.042   1.567   5.337
 5107TIP3    H115278   7.022   1.556   5.244
 5107TIP3    H215279   7.114   1.506   5.353
 5108TIP3   OH215280   0.409   2.141   2.573
 5108TIP3    H115281   0.464   2.190   2.512
 5108TIP3    H215282   0.458   2.142   2.656
 5109TIP3   OH215283   2.506   1.880   4.412
 5109TIP3    H115284   2.548   1.832   4.341
 5109TIP3    H215285   2.419   1.842   4.419
 5110TIP3   OH215286   2.698   7.490   2.793
 5110TIP3    H115287   2.625   7.521   2.739
 5110TIP3    H215288   2.763   7.560   2.788
 5111TIP3   OH215289   4.733   7.811   0.291
 5111TIP3    H115290   4.799   7.744   0.278
 5111TIP3    H215291   4.779   7.884   0.333
 5112TIP3   OH215292   3.934   0.127   4.642
 5112TIP3    H115293   3.841   0.138   4.660
 5112TIP3    H215294   3.953   0.190   4.573
 5113TIP3   OH215295   7.418   2.737   1.272
 5113TIP3    H115296   7.483   2.703   1.210
 5113TIP3    H215297   7.470   2.781   1.339
 5114TIP3   OH215298   4.561   4.205   3.480
 5114TIP3    H115299   4.592   4.296   3.473
 5114TIP3    H215300   4.589   4.177   3.568
 5115TIP3   OH215301   3.078   2.233   1.620
 5115TIP3    H115302   3.052   2.143   1.640
 5115TIP3    H215303   3.162   2.244   1.663
 5116TIP3   OH215304   4.029   5.032   1.293
 5116TIP3    H115305   3.935   5.015   1.299
 5116TIP3    H215306   4.069   4.946   1.291
 5117TIP3   OH215307   4.177   6.064   2.518
 5117TIP3    H115308   4.221   6.146   2.541
 5117TIP3    H215309   4.101   6.092   2.467
 5118TIP3   OH215310   4.124   6.174   2.847
 5118TIP3    H115311   4.076   6.212   2.920
 5118TIP3    H215312   4.065   6.109   2.811
 5119TIP3   OH215313   7.056   5.630   0.816
 5119TIP3    H115314   6.970   5.590   0.803
 5119TIP3    H215315   7.091   5.587   0.895
 5120TIP3   OH215316   1.382   5.856   1.868
 5120TIP3    H115317   1.332   5.874   1.948
 5120TIP3    H215318   1.332   5.900   1.798
 5121TIP3   OH215319   3.180   2.476   2.554
 5121TIP3    H115320   3.088   2.478   2.579
 5121TIP3    H215321   3.182   2.512   2.465
 5122TIP3   OH215322   0.227   1.402   4.638
 5122TIP3    H115323   0.228   1.368   4.548
 5122TIP3    H215324   0.135   1.400   4.664
 5123TIP3   OH215325   7.655   7.734   3.731
 5123TIP3    H115326   7.617   7.686   3.804
 5123TIP3    H215327   7.714   7.671   3.689
 5124TIP3   OH215328   5.480   6.741   3.006
 5124TIP3    H115329   5.472   6.654   3.044
 5124TIP3    H215330   5.390   6.771   2.994
 5125TIP3   OH215331   0.927   4.537   1.206
 5125TIP3    H115332   0.913   4.487   1.286
 5125TIP3    H215333   0.859   4.605   1.208
 5126TIP3   OH215334   5.170   6.898   4.450
 5126TIP3    H115335   5.204   6.822   4.498
 5126TIP3    H215336   5.140   6.958   4.518
 5127TIP3   OH215337   5.171   7.562   1.771
 5127TIP3    H115338   5.239   7.629   1.769
 5127TIP3    H215339   5.206   7.495   1.831
 5128TIP3   OH215340   4.643   7.437   0.375
 5128TIP3    H115341   4.623   7.416   0.466
 5128TIP3    H215342   4.738   7.446   0.372
 5129TIP3   OH215343   4.075   5.326   5.575
 5129TIP3    H115344   4.025   5.318   5.657
 5129TIP3    H215345   4.118   5.241   5.565
 5130TIP3   OH215346   3.391   3.691   5.933
 5130TIP3    H115347   3.402   3.746   5.855
 5130TIP3    H215348   3.394   3.752   6.006
 5131TIP3   OH215349   6.458   2.337   1.663
 5131TIP3    H115350   6.488   2.288   1.587
 5131TIP3    H215351   6.365   2.314   1.671
 5132TIP3   OH215352   4.123   0.927   5.681
 5132TIP3    H115353   4.064   0.881   5.741
 5132TIP3    H215354   4.074   1.005   5.655
 5133TIP3   OH215355   5.991   5.247   5.720
 5133TIP3    H115356   5.908   5.291   5.740
 5133TIP3    H215357   6.057   5.294   5.771
 5134TIP3   OH215358   5.207   2.511   1.002
 5134TIP3    H115359   5.302   2.512   1.009
 5134TIP3    H215360   5.177   2.583   1.058
 5135TIP3   OH215361   5.016   6.088   6.594
 5135TIP3    H115362   5.015   6.077   6.690
 5135TIP3    H215363   4.943   6.033   6.563
 5136TIP3   OH215364   0.558   1.633   4.149
 5136TIP3    H115365   0.546   1.726   4.130
 5136TIP3    H215366   0.470   1.598   4.158
 5137TIP3   OH215367   7.997   5.224   3.655
 5137TIP3    H115368   8.032   5.146   3.699
 5137TIP3    H215369   8.041   5.224   3.569
 5138TIP3   OH215370   5.617   5.298   4.144
 5138TIP3    H115371   5.547   5.234   4.132
 5138TIP3    H215372   5.695   5.245   4.160
 5139TIP3   OH215373   6.211   3.738   3.109
 5139TIP3    H115374   6.157   3.817   3.099
 5139TIP3    H215375   6.283   3.749   3.047
 5140TIP3   OH215376   7.417   1.604   4.186
 5140TIP3    H115377   7.477   1.581   4.115
 5140TIP3    H215378   7.470   1.658   4.245
 5141TIP3   OH215379   5.344   5.101   6.705
 5141TIP3    H115380   5.297   5.071   6.627
 5141TIP3    H215381   5.289   5.171   6.741
 5142TIP3   OH215382   3.406   0.921   1.494
 5142TIP3    H115383   3.429   0.866   1.418
 5142TIP3    H215384   3.463   0.890   1.564
 5143TIP3   OH215385   4.566   0.384   0.789
 5143TIP3    H115386   4.624   0.308   0.795
 5143TIP3    H215387   4.478   0.346   0.782
 5144TIP3   OH215388   1.876   2.306   1.512
 5144TIP3    H115389   1.836   2.325   1.597
 5144TIP3    H215390   1.826   2.360   1.450
 5145TIP3   OH215391   5.388   2.483   5.780
 5145TIP3    H115392   5.358   2.506   5.692
 5145TIP3    H215393   5.353   2.553   5.836
 5146TIP3   OH215394   6.156   6.729   6.382
 5146TIP3    H115395   6.223   6.764   6.441
 5146TIP3    H215396   6.179   6.636   6.373
 5147TIP3   OH215397   5.424   5.339   6.224
 5147TIP3    H115398   5.499   5.290   6.259
 5147TIP3    H215399   5.369   5.273   6.183
 5148TIP3   OH215400   0.203   3.398   1.574
 5148TIP3    H115401   0.147   3.362   1.643
 5148TIP3    H215402   0.291   3.366   1.596
 5149TIP3   OH215403   6.162   5.671   0.949
 5149TIP3    H115404   6.222   5.598   0.936
 5149TIP3    H215405   6.135   5.697   0.861
 5150TIP3   OH215406   7.358   1.507   6.254
 5150TIP3    H115407   7.380   1.582   6.308
 5150TIP3    H215408   7.270   1.526   6.220
 5151TIP3   OH215409   7.182   0.971   2.014
 5151TIP3    H115410   7.240   0.897   2.032
 5151TIP3    H215411   7.113   0.964   2.080
 5152TIP3   OH215412   7.944   7.494   1.965
 5152TIP3    H115413   7.855   7.508   1.933
 5152TIP3    H215414   7.995   7.564   1.923
 5153TIP3   OH215415   2.389   5.783   6.543
 5153TIP3    H115416   2.325   5.779   6.614
 5153TIP3    H215417   2.351   5.844   6.480
 5154TIP3   OH215418   0.093   1.375   1.145
 5154TIP3    H115419   0.063   1.304   1.088
 5154TIP3    H215420   0.066   1.348   1.232
 5155TIP3   OH215421   1.420   5.653   6.279
 5155TIP3    H115422   1.391   5.725   6.335
 5155TIP3    H215423   1.347   5.637   6.220
 5156TIP3   OH215424   7.493   6.854   2.523
 5156TIP3    H115425   7.480   6.945   2.551
 5156TIP3    H215426   7.418   6.835   2.468
 5157TIP3   OH215427   6.144   5.917   2.037
 5157TIP3    H115428   6.232   5.951   2.054
 5157TIP3    H215429   6.157   5.850   1.970
 5158TIP3   OH215430   7.299   1.414   6.505
 5158TIP3    H115431   7.275   1.324   6.527
 5158TIP3    H215432   7.312   1.413   6.410
 5159TIP3   OH215433   6.556   0.141   4.206
 5159TIP3    H115434   6.566   0.069   4.144
 5159TIP3    H215435   6.525   0.100   4.286
 5160TIP3   OH215436   1.742   5.903   6.340
 5160TIP3    H115437   1.783   5.877   6.258
 5160TIP3    H215438   1.785   5.985   6.364
 5161TIP3   OH215439   1.234   6.807   3.001
 5161TIP3    H115440   1.165   6.841   3.057
 5161TIP3    H215441   1.235   6.866   2.926
 5162TIP3   OH215442   2.504   4.340   2.923
 5162TIP3    H115443   2.523   4.247   2.934
 5162TIP3    H215444   2.408   4.345   2.931
 5163TIP3   OH215445   2.950   7.232   2.243
 5163TIP3    H115446   2.992   7.226   2.329
 5163TIP3    H215447   2.864   7.270   2.261
 5164TIP3   OH215448   3.572   6.796   1.691
 5164TIP3    H115449   3.660   6.758   1.683
 5164TIP3    H215450   3.555   6.836   1.605
 5165TIP3   OH215451   3.648   6.011   0.257
 5165TIP3    H115452   3.667   5.933   0.204
 5165TIP3    H215453   3.576   6.054   0.212
 5166TIP3   OH215454   4.009   0.576   3.606
 5166TIP3    H115455   3.930   0.626   3.629
 5166TIP3    H215456   3.985   0.528   3.527
 5167TIP3   OH215457   1.971   7.042   1.645
 5167TIP3    H115458   1.909   7.087   1.587
 5167TIP3    H215459   1.959   7.083   1.730
 5168TIP3   OH215460   7.865   5.780   5.354
 5168TIP3    H115461   7.826   5.867   5.345
 5168TIP3    H215462   7.956   5.791   5.325
 5169TIP3   OH215463   7.853   6.781   0.526
 5169TIP3    H115464   7.760   6.797   0.516
 5169TIP3    H215465   7.890   6.866   0.550
 5170TIP3   OH215466   3.921   6.349   5.049
 5170TIP3    H115467   3.988   6.284   5.027
 5170TIP3    H215468   3.872   6.362   4.968
 5171TIP3   OH215469   6.706   2.861   4.041
 5171TIP3    H115470   6.654   2.804   4.097
 5171TIP3    H215471   6.645   2.928   4.011
 5172TIP3   OH215472   4.640   1.196   3.661
 5172TIP3    H115473   4.716   1.231   3.707
 5172TIP3    H215474   4.583   1.163   3.731
 5173TIP3   OH215475   2.181   7.491   4.951
 5173TIP3    H115476   2.176   7.583   4.974
 5173TIP3    H215477   2.124   7.447   5.014
 5174TIP3   OH215478   5.852   6.767   4.266
 5174TIP3    H115479   5.936   6.768   4.311
 5174TIP3    H215480   5.812   6.684   4.293
 5175TIP3   OH215481   3.222   5.132   3.928
 5175TIP3    H115482   3.289   5.066   3.946
 5175TIP3    H215483   3.200   5.120   3.836
 5176TIP3   OH215484   0.565   1.543   5.315
 5176TIP3    H115485   0.493   1.519   5.373
 5176TIP3    H215486   0.556   1.485   5.240
 5177TIP3   OH215487   1.566   2.020   6.575
 5177TIP3    H115488   1.597   2.050   6.489
 5177TIP3    H215489   1.471   2.020   6.568
 5178TIP3   OH215490   5.273   0.210   3.169
 5178TIP3    H115491   5.238   0.184   3.254
 5178TIP3    H215492   5.366   0.228   3.185
 5179TIP3   OH215493   0.194   7.234   5.784
 5179TIP3    H115494   0.132   7.306   5.773
 5179TIP3    H215495   0.202   7.223   5.879
 5180TIP3   OH215496   7.364   1.132   2.712
 5180TIP3    H115497   7.330   1.175   2.634
 5180TIP3    H215498   7.406   1.201   2.763
 5181TIP3   OH215499   3.169   3.393   6.252
 5181TIP3    H115500   3.247   3.416   6.202
 5181TIP3    H215501   3.108   3.465   6.236
 5182TIP3   OH215502   5.588   2.377   3.274
 5182TIP3    H115503   5.512   2.429   3.301
 5182TIP3    H215504   5.619   2.336   3.355
 5183TIP3   OH215505   3.298   2.958   0.709
 5183TIP3    H115506   3.211   2.956   0.749
 5183TIP3    H215507   3.357   2.923   0.777
 5184TIP3   OH215508   3.604   5.244   2.152
 5184TIP3    H115509   3.694   5.275   2.156
 5184TIP3    H215510   3.609   5.159   2.108
 5185TIP3   OH215511   2.072   5.482   0.478
 5185TIP3    H115512   2.006   5.536   0.434
 5185TIP3    H215513   2.092   5.413   0.416
 5186TIP3   OH215514   5.716   2.541   3.575
 5186TIP3    H115515   5.756   2.534   3.662
 5186TIP3    H215516   5.719   2.452   3.541
 5187TIP3   OH215517   4.227   5.033   6.468
 5187TIP3    H115518   4.160   5.011   6.532
 5187TIP3    H215519   4.257   4.949   6.435
 5188TIP3   OH215520   7.135   4.793   5.778
 5188TIP3    H115521   7.097   4.824   5.860
 5188TIP3    H215522   7.124   4.698   5.781
 5189TIP3   OH215523   7.133   3.075   3.625
 5189TIP3    H115524   7.225   3.048   3.621
 5189TIP3    H215525   7.134   3.158   3.671
 5190TIP3   OH215526   0.345   3.694   5.520
 5190TIP3    H115527   0.407   3.743   5.574
 5190TIP3    H215528   0.303   3.759   5.465
 5191TIP3   OH215529   2.220   2.180   4.886
 5191TIP3    H115530   2.284   2.246   4.859
 5191TIP3    H215531   2.192   2.139   4.804
 5192TIP3   OH215532   3.185   0.330   2.070
 5192TIP3    H115533   3.232   0.314   2.151
 5192TIP3    H215534   3.200   0.252   2.017
 5193TIP3   OH215535   4.080   1.886   3.327
 5193TIP3    H115536   4.054   1.870   3.418
 5193TIP3    H215537   4.171   1.917   3.334
 5194TIP3   OH215538   0.961   1.523   5.783
 5194TIP3    H115539   0.896   1.453   5.792
 5194TIP3    H215540   1.013   1.497   5.707
 5195TIP3   OH215541   1.847   2.167   1.840
 5195TIP3    H115542   1.807   2.253   1.827
 5195TIP3    H215543   1.939   2.179   1.816
 5196TIP3   OH215544   4.251   6.369   4.745
 5196TIP3    H115545   4.163   6.348   4.714
 5196TIP3    H215546   4.252   6.464   4.755
 5197TIP3   OH215547   0.358   6.218   1.434
 5197TIP3    H115548   0.358   6.311   1.413
 5197TIP3    H215549   0.448   6.200   1.462
 5198TIP3   OH215550   2.670   4.620   2.648
 5198TIP3    H115551   2.739   4.686   2.661
 5198TIP3    H215552   2.595   4.653   2.698
 5199TIP3   OH215553   3.254   0.915   1.951
 5199TIP3    H115554   3.323   0.969   1.988
 5199TIP3    H215555   3.232   0.958   1.868
 5200TIP3   OH215556   3.649   2.854   3.659
 5200TIP3    H115557   3.667   2.897   3.575
 5200TIP3    H215558   3.618   2.767   3.636
 5201TIP3   OH215559   5.771   2.152   0.036
 5201TIP3    H115560   5.829   2.176   0.109
 5201TIP3    H215561   5.685   2.184   0.063
 5202TIP3   OH215562   0.609   0.991   1.598
 5202TIP3    H115563   0.576   0.922   1.656
 5202TIP3    H215564   0.681   1.031   1.646
 5203TIP3   OH215565   3.071   0.751   6.591
 5203TIP3    H115566   3.036   0.814   6.528
 5203TIP3    H215567   3.040   0.781   6.676
 5204TIP3   OH215568   3.628   4.476   3.102
 5204TIP3    H115569   3.641   4.412   3.032
 5204TIP3    H215570   3.564   4.436   3.160
 5205TIP3   OH215571   0.044   3.461   3.721
 5205TIP3    H115572   0.131   3.433   3.747
 5205TIP3    H215573   0.016   3.396   3.657
 5206TIP3   OH215574   0.724   2.678   4.195
 5206TIP3    H115575   0.753   2.751   4.249
 5206TIP3    H215576   0.697   2.718   4.112
 5207TIP3   OH215577   5.443   5.894   2.644
 5207TIP3    H115578   5.452   5.895   2.549
 5207TIP3    H215579   5.352   5.920   2.659
 5208TIP3   OH215580   3.318   3.266   4.633
 5208TIP3    H115581   3.329   3.198   4.701
 5208TIP3    H215582   3.227   3.293   4.641
 5209TIP3   OH215583   0.035   7.780   6.660
 5209TIP3    H115584   0.106   7.731   6.701
 5209TIP3    H215585   0.009   7.844   6.726
 5210TIP3   OH215586   0.139   6.278   1.735
 5210TIP3    H115587   0.162   6.186   1.752
 5210TIP3    H215588   0.060   6.273   1.681
 5211TIP3   OH215589   5.863   7.225   1.830
 5211TIP3    H115590   5.940   7.230   1.887
 5211TIP3    H215591   5.788   7.222   1.890
 5212TIP3   OH215592   6.623   4.351   1.726
 5212TIP3    H115593   6.562   4.278   1.734
 5212TIP3    H215594   6.687   4.336   1.795
 5213TIP3   OH215595   3.449   0.237   4.124
 5213TIP3    H115596   3.439   0.150   4.163
 5213TIP3    H215597   3.462   0.295   4.198
 5214TIP3   OH215598   3.211   2.367   0.554
 5214TIP3    H115599   3.304   2.385   0.548
 5214TIP3    H215600   3.179   2.372   0.464
 5215TIP3   OH215601   4.110   6.165   4.475
 5215TIP3    H115602   4.173   6.113   4.527
 5215TIP3    H215603   4.025   6.142   4.511
 5216TIP3   OH215604   0.053   4.559   2.781
 5216TIP3    H115605   0.012   4.621   2.842
 5216TIP3    H215606   0.081   4.613   2.707
 5217TIP3   OH215607   1.703   4.175   1.180
 5217TIP3    H115608   1.673   4.217   1.099
 5217TIP3    H215609   1.752   4.243   1.226
 5218TIP3   OH215610   7.177   1.377   0.292
 5218TIP3    H115611   7.113   1.365   0.222
 5218TIP3    H215612   7.245   1.432   0.252
 5219TIP3   OH215613   5.993   5.304   1.432
 5219TIP3    H115614   6.047   5.354   1.370
 5219TIP3    H215615   5.905   5.309   1.396
 5220TIP3   OH215616   3.808   1.296   2.937
 5220TIP3    H115617   3.790   1.299   2.843
 5220TIP3    H215618   3.835   1.205   2.953
 5221TIP3   OH215619   5.316   0.376   5.844
 5221TIP3    H115620   5.360   0.329   5.915
 5221TIP3    H215621   5.362   0.348   5.764
 5222TIP3   OH215622   4.400   3.758   2.446
 5222TIP3    H115623   4.380   3.697   2.517
 5222TIP3    H215624   4.398   3.704   2.367
 5223TIP3   OH215625   3.917   2.739   3.603
 5223TIP3    H115626   3.900   2.714   3.694
 5223TIP3    H215627   3.862   2.815   3.587
 5224TIP3   OH215628   6.935   7.456   5.737
 5224TIP3    H115629   6.909   7.434   5.648
 5224TIP3    H215630   6.949   7.551   5.736
 5225TIP3   OH215631   6.658   4.143   3.024
 5225TIP3    H115632   6.689   4.090   3.097
 5225TIP3    H215633   6.653   4.083   2.950
 5226TIP3   OH215634   1.564   2.865   2.128
 5226TIP3    H115635   1.481   2.908   2.105
 5226TIP3    H215636   1.550   2.773   2.106
 5227TIP3   OH215637   1.494   0.911   3.133
 5227TIP3    H115638   1.409   0.900   3.091
 5227TIP3    H215639   1.474   0.927   3.225
 5228TIP3   OH215640   5.378   3.112   3.932
 5228TIP3    H115641   5.328   3.085   4.009
 5228TIP3    H215642   5.466   3.080   3.948
 5229TIP3   OH215643   7.933   3.440   4.278
 5229TIP3    H115644   7.976   3.370   4.327
 5229TIP3    H215645   7.949   3.419   4.186
 5230TIP3   OH215646   7.572   2.739   0.479
 5230TIP3    H115647   7.503   2.762   0.417
 5230TIP3    H215648   7.637   2.809   0.470
 5231TIP3   OH215649   5.176   0.551   4.647
 5231TIP3    H115650   5.204   0.603   4.572
 5231TIP3    H215651   5.133   0.475   4.609
 5232TIP3   OH215652   2.468   1.330   4.448
 5232TIP3    H115653   2.563   1.314   4.447
 5232TIP3    H215654   2.441   1.314   4.538
 5233TIP3   OH215655   2.175   5.129   0.658
 5233TIP3    H115656   2.131   5.211   0.682
 5233TIP3    H215657   2.256   5.129   0.709
 5234TIP3   OH215658   2.834   3.036   3.824
 5234TIP3    H115659   2.904   3.101   3.814
 5234TIP3    H215660   2.821   3.002   3.735
 5235TIP3   OH215661   5.968   5.597   3.801
 5235TIP3    H115662   6.044   5.652   3.784
 5235TIP3    H215663   6.004   5.508   3.808
 5236TIP3   OH215664   4.485   6.325   3.075
 5236TIP3    H115665   4.451   6.258   3.016
 5236TIP3    H215666   4.579   6.313   3.074
 5237TIP3   OH215667   6.174   6.076   0.376
 5237TIP3    H115668   6.096   6.115   0.336
 5237TIP3    H215669   6.242   6.142   0.365
 5238TIP3   OH215670   5.523   5.564   6.115
 5238TIP3    H115671   5.604   5.555   6.166
 5238TIP3    H215672   5.480   5.479   6.123
 5239TIP3   OH215673   7.677   7.058   4.665
 5239TIP3    H115674   7.753   7.114   4.652
 5239TIP3    H215675   7.708   6.986   4.719
 5240TIP3   OH215676   6.891   3.323   5.888
 5240TIP3    H115677   6.902   3.255   5.955
 5240TIP3    H215678   6.943   3.293   5.814
 5241TIP3   OH215679   6.335   0.745   2.759
 5241TIP3    H115680   6.329   0.755   2.854
 5241TIP3    H215681   6.331   0.651   2.745
 5242TIP3   OH215682   6.131   0.523   1.422
 5242TIP3    H115683   6.173   0.582   1.485
 5242TIP3    H215684   6.043   0.558   1.410
 5243TIP3   OH215685   5.067   6.568   1.935
 5243TIP3    H115686   5.131   6.500   1.956
 5243TIP3    H215687   5.011   6.572   2.013
 5244TIP3   OH215688   5.128   4.563   5.755
 5244TIP3    H115689   5.222   4.563   5.735
 5244TIP3    H215690   5.115   4.485   5.809
 5245TIP3   OH215691   3.260   3.920   4.276
 5245TIP3    H115692   3.266   4.003   4.228
 5245TIP3    H215693   3.295   3.940   4.363
 5246TIP3   OH215694   6.640   1.222   3.878
 5246TIP3    H115695   6.721   1.235   3.927
 5246TIP3    H215696   6.649   1.134   3.840
 5247TIP3   OH215697   5.493   0.212   5.623
 5247TIP3    H115698   5.475   0.220   5.529
 5247TIP3    H215699   5.556   0.282   5.642
 5248TIP3   OH215700   4.281   5.837   0.952
 5248TIP3    H115701   4.260   5.822   0.860
 5248TIP3    H215702   4.203   5.808   0.999
 5249TIP3   OH215703   2.419   3.715   4.529
 5249TIP3    H115704   2.333   3.752   4.547
 5249TIP3    H215705   2.469   3.787   4.491
 5250TIP3   OH215706   2.863   3.652   5.187
 5250TIP3    H115707   2.788   3.673   5.243
 5250TIP3    H215708   2.916   3.732   5.187
 5251TIP3   OH215709   7.224   0.233   1.334
 5251TIP3    H115710   7.235   0.235   1.239
 5251TIP3    H215711   7.132   0.255   1.348
 5252TIP3   OH215712   0.763   3.357   6.343
 5252TIP3    H115713   0.850   3.358   6.384
 5252TIP3    H215714   0.732   3.267   6.355
 5253TIP3   OH215715   5.891   5.408   6.414
 5253TIP3    H115716   5.930   5.494   6.397
 5253TIP3    H215717   5.961   5.357   6.455
 5254TIP3   OH215718   6.920   5.107   6.128
 5254TIP3    H115719   6.835   5.070   6.106
 5254TIP3    H215720   6.921   5.193   6.086
 5255TIP3   OH215721   4.687   2.329   1.986
 5255TIP3    H115722   4.668   2.345   1.893
 5255TIP3    H215723   4.611   2.280   2.017
 5256TIP3   OH215724   1.497   7.687   4.574
 5256TIP3    H115725   1.511   7.712   4.665
 5256TIP3    H215726   1.406   7.711   4.556
 5257TIP3   OH215727   0.709   5.944   5.686
 5257TIP3    H115728   0.722   5.919   5.594
 5257TIP3    H215729   0.615   5.953   5.696
 5258TIP3   OH215730   1.420   0.794   4.082
 5258TIP3    H115731   1.442   0.772   3.991
 5258TIP3    H215732   1.397   0.710   4.122
 5259TIP3   OH215733   8.262   7.403   2.646
 5259TIP3    H115734   8.254   7.308   2.659
 5259TIP3    H215735   8.355   7.421   2.663
 5260TIP3   OH215736   5.876   5.362   3.472
 5260TIP3    H115737   5.941   5.291   3.474
 5260TIP3    H215738   5.908   5.422   3.405
 5261TIP3   OH215739   3.943   4.797   4.737
 5261TIP3    H115740   3.914   4.720   4.689
 5261TIP3    H215741   3.868   4.821   4.792
 5262TIP3   OH215742   5.372   2.016   5.902
 5262TIP3    H115743   5.340   1.953   5.967
 5262TIP3    H215744   5.385   2.097   5.950
 5263TIP3   OH215745   8.059   0.632   1.534
 5263TIP3    H115746   8.042   0.662   1.623
 5263TIP3    H215747   7.991   0.567   1.517
 5264TIP3   OH215748   3.974   1.584   4.859
 5264TIP3    H115749   4.034   1.519   4.824
 5264TIP3    H215750   4.030   1.657   4.886
 5265TIP3   OH215751   0.202   3.120   6.387
 5265TIP3    H115752   0.278   3.086   6.433
 5265TIP3    H215753   0.176   3.050   6.326
 5266TIP3   OH215754   4.122   6.011   0.255
 5266TIP3    H115755   4.059   6.002   0.184
 5266TIP3    H215756   4.200   6.048   0.213
 5267TIP3   OH215757   6.316   1.599   5.575
 5267TIP3    H115758   6.401   1.636   5.596
 5267TIP3    H215759   6.295   1.637   5.489
 5268TIP3   OH215760   5.068   1.402   6.073
 5268TIP3    H115761   4.981   1.431   6.046
 5268TIP3    H215762   5.059   1.381   6.166
 5269TIP3   OH215763   4.549   4.745   4.675
 5269TIP3    H115764   4.553   4.758   4.769
 5269TIP3    H215765   4.560   4.651   4.663
 5270TIP3   OH215766   3.982   0.832   0.895
 5270TIP3    H115767   4.002   0.807   0.805
 5270TIP3    H215768   3.890   0.806   0.907
 5271TIP3   OH215769   7.880   3.267   3.002
 5271TIP3    H115770   7.816   3.201   3.027
 5271TIP3    H215771   7.835   3.320   2.936
 5272TIP3   OH215772   5.974   2.964   0.696
 5272TIP3    H115773   5.961   3.003   0.610
 5272TIP3    H215774   6.020   3.031   0.747
 5273TIP3   OH215775   1.189   6.718   6.497
 5273TIP3    H115776   1.234   6.666   6.563
 5273TIP3    H215777   1.099   6.725   6.529
 5274TIP3   OH215778   4.400   0.550   5.549
 5274TIP3    H115779   4.387   0.569   5.456
 5274TIP3    H215780   4.485   0.507   5.553
 5275TIP3   OH215781   0.399   5.872   4.367
 5275TIP3    H115782   0.493   5.871   4.351
 5275TIP3    H215783   0.361   5.825   4.293
 5276TIP3   OH215784   0.200   1.735   5.313
 5276TIP3    H115785   0.218   1.720   5.221
 5276TIP3    H215786   0.143   1.812   5.314
 5277TIP3   OH215787   5.422   0.907   2.137
 5277TIP3    H115788   5.442   0.932   2.227
 5277TIP3    H215789   5.487   0.839   2.116
 5278TIP3   OH215790   0.653   2.834   3.982
 5278TIP3    H115791   0.561   2.842   3.959
 5278TIP3    H215792   0.697   2.898   3.927
 5279TIP3   OH215793   3.714   2.327   3.677
 5279TIP3    H115794   3.746   2.416   3.660
 5279TIP3    H215795   3.722   2.316   3.771
 5280TIP3   OH215796   3.580   4.339   6.064
 5280TIP3    H115797   3.561   4.293   6.146
 5280TIP3    H215798   3.532   4.422   6.072
 5281TIP3   OH215799   0.085   6.494   0.722
 5281TIP3    H115800   0.019   6.511   0.790
 5281TIP3    H215801   0.157   6.552   0.744
 5282TIP3   OH215802   7.975   1.609   0.638
 5282TIP3    H115803   7.968   1.517   0.665
 5282TIP3    H215804   8.033   1.649   0.703
 5283TIP3   OH215805   5.059   4.732   4.150
 5283TIP3    H115806   4.990   4.793   4.120
 5283TIP3    H215807   5.059   4.742   4.245
 5284TIP3   OH215808   6.697   7.588   1.898
 5284TIP3    H115809   6.776   7.535   1.909
 5284TIP3    H215810   6.637   7.531   1.850
 5285TIP3   OH215811   6.058   0.841   2.722
 5285TIP3    H115812   6.018   0.896   2.654
 5285TIP3    H215813   6.150   0.836   2.697
 5286TIP3   OH215814   6.748   3.883   0.950
 5286TIP3    H115815   6.824   3.879   0.892
 5286TIP3    H215816   6.771   3.949   1.015
 5287TIP3   OH215817   3.289   3.850   3.050
 5287TIP3    H115818   3.213   3.881   3.099
 5287TIP3    H215819   3.287   3.755   3.059
 5288TIP3   OH215820   3.361   5.961   6.098
 5288TIP3    H115821   3.318   6.037   6.059
 5288TIP3    H215822   3.339   5.889   6.040
 5289TIP3   OH215823   2.684   6.554   3.631
 5289TIP3    H115824   2.717   6.488   3.571
 5289TIP3    H215825   2.646   6.504   3.703
 5290TIP3   OH215826   4.820   4.879   3.097
 5290TIP3    H115827   4.843   4.829   3.176
 5290TIP3    H215828   4.822   4.814   3.026
 5291TIP3   OH215829   5.806   5.319   4.710
 5291TIP3    H115830   5.781   5.345   4.621
 5291TIP3    H215831   5.754   5.240   4.727
 5292TIP3   OH215832   1.001   3.911   1.341
 5292TIP3    H115833   1.070   3.884   1.281
 5292TIP3    H215834   1.007   4.006   1.345
 5293TIP3   OH215835   6.640   6.841   5.786
 5293TIP3    H115836   6.715   6.876   5.835
 5293TIP3    H215837   6.678   6.803   5.707
 5294TIP3   OH215838   6.847   6.915   4.121
 5294TIP3    H115839   6.855   6.886   4.212
 5294TIP3    H215840   6.754   6.933   4.110
 5295TIP3   OH215841   0.907   0.350   3.765
 5295TIP3    H115842   0.946   0.337   3.852
 5295TIP3    H215843   0.935   0.273   3.715
 5296TIP3   OH215844   6.288   5.790   2.628
 5296TIP3    H115845   6.326   5.804   2.541
 5296TIP3    H215846   6.229   5.715   2.616
 5297TIP3   OH215847   2.068   7.212   3.881
 5297TIP3    H115848   2.085   7.129   3.836
 5297TIP3    H215849   2.104   7.199   3.969
 5298TIP3   OH215850   2.787   7.748   0.643
 5298TIP3    H115851   2.714   7.687   0.629
 5298TIP3    H215852   2.848   7.698   0.697
 5299TIP3   OH215853   0.068   6.467   3.218
 5299TIP3    H115854   0.075   6.542   3.278
 5299TIP3    H215855  -0.014   6.481   3.171
 5300TIP3   OH215856   3.916   3.789   4.626
 5300TIP3    H115857   3.855   3.755   4.560
 5300TIP3    H215858   3.889   3.746   4.708
 5301TIP3   OH215859   3.746   7.107   6.247
 5301TIP3    H115860   3.825   7.076   6.204
 5301TIP3    H215861   3.708   7.170   6.186
 5302TIP3   OH215862   2.199   1.420   6.694
 5302TIP3    H115863   2.110   1.441   6.724
 5302TIP3    H215864   2.254   1.428   6.772
 5303TIP3   OH215865   6.583   5.398   4.654
 5303TIP3    H115866   6.504   5.383   4.602
 5303TIP3    H215867   6.643   5.327   4.628
 5304TIP3   OH215868   0.740   1.227   0.912
 5304TIP3    H115869   0.759   1.240   1.005
 5304TIP3    H215870   0.789   1.296   0.868
 5305TIP3   OH215871   0.283   4.530   6.110
 5305TIP3    H115872   0.296   4.497   6.021
 5305TIP3    H215873   0.229   4.608   6.099
 5306TIP3   OH215874   0.239   3.013   6.772
 5306TIP3    H115875   0.320   3.047   6.734
 5306TIP3    H215876   0.249   2.918   6.770
 5307TIP3   OH215877   1.876   5.447   4.730
 5307TIP3    H115878   1.895   5.495   4.650
 5307TIP3    H215879   1.788   5.476   4.756
 5308TIP3   OH215880   4.091   3.627   1.523
 5308TIP3    H115881   4.143   3.609   1.601
 5308TIP3    H215882   4.125   3.711   1.491
 5309TIP3   OH215883   2.213   3.751   1.294
 5309TIP3    H115884   2.196   3.816   1.226
 5309TIP3    H215885   2.146   3.768   1.361
 5310TIP3   OH215886   7.916   6.083   6.583
 5310TIP3    H115887   7.832   6.037   6.573
 5310TIP3    H215888   7.924   6.097   6.678
 5311TIP3   OH215889   8.084   5.678   2.171
 5311TIP3    H115890   8.163   5.659   2.221
 5311TIP3    H215891   8.116   5.696   2.082
 5312TIP3   OH215892   0.650   2.436   0.547
 5312TIP3    H115893   0.721   2.456   0.485
 5312TIP3    H215894   0.639   2.341   0.540
 5313TIP3   OH215895   8.203   0.560   6.497
 5313TIP3    H115896   8.128   0.615   6.475
 5313TIP3    H215897   8.196   0.547   6.591
 5314TIP3   OH215898  -0.011   1.042   4.356
 5314TIP3    H115899  -0.045   0.968   4.406
 5314TIP3    H215900   0.078   1.055   4.389
 5315TIP3   OH215901   1.304   2.937   3.597
 5315TIP3    H115902   1.231   2.900   3.548
 5315TIP3    H215903   1.264   2.981   3.671
 5316TIP3   OH215904   6.762   0.529   2.669
 5316TIP3    H115905   6.799   0.595   2.611
 5316TIP3    H215906   6.668   0.530   2.649
 5317TIP3   OH215907   6.642   7.092   4.856
 5317TIP3    H115908   6.582   7.163   4.834
 5317TIP3    H215909   6.728   7.124   4.829
 5318TIP3   OH215910   0.138   0.352   6.615
 5318TIP3    H115911   0.064   0.305   6.578
 5318TIP3    H215912   0.170   0.408   6.545
 5319TIP3   OH215913   0.069   5.114   2.661
 5319TIP3    H115914   0.156   5.076   2.673
 5319TIP3    H215915   0.050   5.100   2.568
 5320TIP3   OH215916   1.602   1.769   0.435
 5320TIP3    H115917   1.609   1.674   0.442
 5320TIP3    H215918   1.603   1.800   0.526
 5321TIP3   OH215919   6.062   7.352   4.665
 5321TIP3    H115920   5.982   7.309   4.633
 5321TIP3    H215921   6.034   7.402   4.741
 5322TIP3   OH215922   6.871   2.771   0.951
 5322TIP3    H115923   6.915   2.819   0.882
 5322TIP3    H215924   6.894   2.679   0.935
 5323TIP3   OH215925   2.298   1.169   6.600
 5323TIP3    H115926   2.333   1.157   6.688
 5323TIP3    H215927   2.260   1.257   6.600
 5324TIP3   OH215928   2.788   2.749   5.182
 5324TIP3    H115929   2.783   2.698   5.263
 5324TIP3    H215930   2.697   2.768   5.160
 5325TIP3   OH215931   0.515   6.680   6.648
 5325TIP3    H115932   0.522   6.587   6.668
 5325TIP3    H215933   0.438   6.686   6.590
 5326TIP3   OH215934   5.322   7.695   0.156
 5326TIP3    H115935   5.295   7.785   0.140
 5326TIP3    H215936   5.359   7.696   0.244
 5327TIP3   OH215937   0.249   0.598   1.533
 5327TIP3    H115938   0.267   0.605   1.627
 5327TIP3    H215939   0.174   0.656   1.519
 5328TIP3   OH215940   7.647   3.258   0.196
 5328TIP3    H115941   7.634   3.182   0.252
 5328TIP3    H215942   7.561   3.273   0.156
 5329TIP3   OH215943   0.805   1.459   0.804
 5329TIP3    H115944   0.756   1.429   0.727
 5329TIP3    H215945   0.793   1.554   0.804
 5330TIP3   OH215946   4.308   6.112   4.820
 5330TIP3    H115947   4.231   6.128   4.875
 5330TIP3    H215948   4.314   6.188   4.763
 5331TIP3   OH215949   4.410   2.668   0.790
 5331TIP3    H115950   4.379   2.756   0.809
 5331TIP3    H215951   4.469   2.679   0.715
 5332TIP3   OH215952   3.321   4.026   3.417
 5332TIP3    H115953   3.404   4.072   3.400
 5332TIP3    H215954   3.346   3.951   3.470
 5333TIP3   OH215955   7.401   7.699   5.940
 5333TIP3    H115956   7.355   7.645   6.004
 5333TIP3    H215957   7.335   7.721   5.875
 5334TIP3   OH215958   8.188   3.966   1.689
 5334TIP3    H115959   8.229   3.969   1.602
 5334TIP3    H215960   8.213   3.881   1.725
 5335TIP3   OH215961   0.046   0.527   5.619
 5335TIP3    H115962  -0.009   0.498   5.692
 5335TIP3    H215963  -0.002   0.600   5.580
 5336TIP3   OH215964   6.732   3.331   1.140
 5336TIP3    H115965   6.651   3.281   1.154
 5336TIP3    H215966   6.758   3.309   1.050
 5337TIP3   OH215967   0.431   5.993   2.652
 5337TIP3    H115968   0.430   5.977   2.557
 5337TIP3    H215969   0.407   5.909   2.691
 5338TIP3   OH215970   7.071   4.835   6.484
 5338TIP3    H115971   7.018   4.855   6.560
 5338TIP3    H215972   7.085   4.919   6.441
 5339TIP3   OH215973   5.776   1.117   2.074
 5339TIP3    H115974   5.769   1.206   2.040
 5339TIP3    H215975   5.823   1.069   2.006
 5340TIP3   OH215976   0.810   1.040   6.538
 5340TIP3    H115977   0.878   1.047   6.472
 5340TIP3    H215978   0.748   0.975   6.504
 5341TIP3   OH215979   4.886   0.412   1.725
 5341TIP3    H115980   4.830   0.400   1.649
 5341TIP3    H215981   4.848   0.487   1.771
 5342TIP3   OH215982   7.882   0.007   0.889
 5342TIP3    H115983   7.926   0.090   0.876
 5342TIP3    H215984   7.863  -0.025   0.800
 5343TIP3   OH215985   3.527   1.392   5.693
 5343TIP3    H115986   3.616   1.427   5.685
 5343TIP3    H215987   3.537   1.314   5.748
 5344TIP3   OH215988   3.727   4.877   0.576
 5344TIP3    H115989   3.794   4.945   0.573
 5344TIP3    H215990   3.671   4.901   0.650
 5345TIP3   OH215991   7.660   7.643   1.094
 5345TIP3    H115992   7.620   7.556   1.098
 5345TIP3    H215993   7.711   7.650   1.174
 5346TIP3   OH215994   7.274   7.199   5.288
 5346TIP3    H115995   7.309   7.287   5.278
 5346TIP3    H215996   7.318   7.147   5.220
 5347TIP3   OH215997   6.030   7.743   3.321
 5347TIP3    H115998   5.936   7.757   3.337
 5347TIP3    H215999   6.072   7.767   3.404
 5348TIP3   OH216000   3.239   6.486   4.510
 5348TIP3    H116001   3.226   6.398   4.474
 5348TIP3    H216002   3.290   6.532   4.444
 5349TIP3   OH216003   5.336   5.029   5.054
 5349TIP3    H116004   5.346   5.002   4.962
 5349TIP3    H216005   5.242   5.033   5.067
 5350TIP3   OH216006   5.471   7.652   4.763
 5350TIP3    H116007   5.471   7.567   4.807
 5350TIP3    H216008   5.502   7.714   4.830
 5351TIP3   OH216009   3.297   5.252   2.910
 5351TIP3    H116010   3.232   5.257   2.980
 5351TIP3    H216011   3.259   5.193   2.846
 5352TIP3   OH216012   6.068   7.410   5.054
 5352TIP3    H116013   6.134   7.350   5.019
 5352TIP3    H216014   6.045   7.466   4.979
 5353TIP3   OH216015   5.659   6.317   3.219
 5353TIP3    H116016   5.724   6.366   3.270
 5353TIP3    H216017   5.593   6.291   3.283
 5354TIP3   OH216018   3.981   7.643   4.997
 5354TIP3    H116019   3.999   7.549   5.005
 5354TIP3    H216020   4.030   7.683   5.069
 5355TIP3   OH216021   3.455   2.465   2.553
 5355TIP3    H116022   3.360   2.460   2.554
 5355TIP3    H216023   3.480   2.469   2.645
 5356TIP3   OH216024   0.415   6.155   0.631
 5356TIP3    H116025   0.498   6.122   0.665
 5356TIP3    H216026   0.350   6.090   0.660
 5357TIP3   OH216027   4.362   3.580   1.283
 5357TIP3    H116028   4.344   3.581   1.377
 5357TIP3    H216029   4.336   3.667   1.253
 5358TIP3   OH216030   0.079   4.673   5.975
 5358TIP3    H116031   0.057   4.580   5.963
 5358TIP3    H216032   0.037   4.717   5.901
 5359TIP3   OH216033   3.289   2.760   1.210
 5359TIP3    H116034   3.266   2.729   1.122
 5359TIP3    H216035   3.295   2.680   1.263
 5360TIP3   OH216036   3.146   0.328   4.290
 5360TIP3    H116037   3.086   0.325   4.364
 5360TIP3    H216038   3.174   0.420   4.286
 5361TIP3   OH216039   0.363   1.024   6.065
 5361TIP3    H116040   0.431   0.967   6.101
 5361TIP3    H216041   0.406   1.071   5.993
 5362TIP3   OH216042   5.039   1.569   0.405
 5362TIP3    H116043   5.030   1.641   0.468
 5362TIP3    H216044   5.134   1.559   0.395
 5363TIP3   OH216045   3.187   0.592   4.253
 5363TIP3    H116046   3.091   0.595   4.252
 5363TIP3    H216047   3.214   0.681   4.232
 5364TIP3   OH216048   7.111   2.605   0.559
 5364TIP3    H116049   7.125   2.670   0.491
 5364TIP3    H216050   7.025   2.568   0.540
 5365TIP3   OH216051   6.109   4.254   4.415
 5365TIP3    H116052   6.051   4.296   4.352
 5365TIP3    H216053   6.174   4.209   4.361
 5366TIP3   OH216054   1.027   3.419   5.438
 5366TIP3    H116055   1.016   3.330   5.471
 5366TIP3    H216056   0.945   3.439   5.394
 5367TIP3   OH216057   5.095   4.531   4.661
 5367TIP3    H116058   5.081   4.483   4.742
 5367TIP3    H216059   5.163   4.595   4.682
 5368TIP3   OH216060   4.243   0.304   5.985
 5368TIP3    H116061   4.270   0.321   5.895
 5368TIP3    H216062   4.325   0.300   6.034
 5369TIP3   OH216063   0.482   7.759   5.617
 5369TIP3    H116064   0.436   7.733   5.698
 5369TIP3    H216065   0.438   7.710   5.548
 5370TIP3   OH216066   6.372   7.360   3.316
 5370TIP3    H116067   6.436   7.430   3.300
 5370TIP3    H216068   6.326   7.387   3.395
 5371TIP3   OH216069   0.446   6.155   3.050
 5371TIP3    H116070   0.456   6.137   3.143
 5371TIP3    H216071   0.461   6.249   3.042
 5372TIP3   OH216072   0.829   3.286   0.291
 5372TIP3    H116073   0.896   3.265   0.357
 5372TIP3    H216074   0.818   3.205   0.242
 5373TIP3   OH216075   1.173   4.764   2.974
 5373TIP3    H116076   1.184   4.839   3.032
 5373TIP3    H216077   1.234   4.699   3.008
 5374TIP3   OH216078   4.930   2.091   3.963
 5374TIP3    H116079   4.912   2.019   3.902
 5374TIP3    H216080   5.018   2.073   3.995
 5375TIP3   OH216081   4.421   1.812   4.608
 5375TIP3    H116082   4.384   1.861   4.681
 5375TIP3    H216083   4.514   1.805   4.629
 5376TIP3   OH216084   0.767   0.977   3.083
 5376TIP3    H116085   0.834   1.001   3.148
 5376TIP3    H216086   0.765   1.050   3.022
 5377TIP3   OH216087   3.368   2.936   1.627
 5377TIP3    H116088   3.333   3.011   1.676
 5377TIP3    H216089   3.356   2.961   1.535
 5378TIP3   OH216090   0.308   4.090   6.232
 5378TIP3    H116091   0.338   4.000   6.222
 5378TIP3    H216092   0.357   4.140   6.166
 5379TIP3   OH216093   7.390   4.731   1.417
 5379TIP3    H116094   7.455   4.712   1.484
 5379TIP3    H216095   7.424   4.809   1.372
 5380TIP3   OH216096   8.031   5.969   2.103
 5380TIP3    H116097   7.966   5.948   2.170
 5380TIP3    H216098   7.988   5.947   2.020
 5381TIP3   OH216099   0.101   3.370   6.439
 5381TIP3    H116100   0.146   3.297   6.395
 5381TIP3    H216101   0.023   3.331   6.477
 5382TIP3   OH216102   1.578   7.085   2.809
 5382TIP3    H116103   1.614   7.000   2.835
 5382TIP3    H216104   1.614   7.147   2.873
 5383TIP3   OH216105   5.680   6.275   0.233
 5383TIP3    H116106   5.648   6.348   0.179
 5383TIP3    H216107   5.621   6.273   0.308
 5384TIP3   OH216108   6.836   7.413   5.124
 5384TIP3    H116109   6.901   7.348   5.151
 5384TIP3    H216110   6.874   7.453   5.045
 5385TIP3   OH216111   3.004   5.914   0.609
 5385TIP3    H116112   2.915   5.931   0.639
 5385TIP3    H216113   3.020   5.823   0.631
 5386TIP3   OH216114   3.948   4.290   6.436
 5386TIP3    H116115   3.901   4.311   6.356
 5386TIP3    H216116   4.040   4.300   6.413
 5387TIP3   OH216117   8.103   2.667   1.521
 5387TIP3    H116118   8.026   2.621   1.555
 5387TIP3    H216119   8.169   2.599   1.510
 5388TIP3   OH216120   0.923   5.796   1.820
 5388TIP3    H116121   0.920   5.874   1.875
 5388TIP3    H216122   0.961   5.826   1.738
 5389TIP3   OH216123   3.274   3.618   5.249
 5389TIP3    H116124   3.190   3.626   5.295
 5389TIP3    H216125   3.306   3.531   5.272
 5390TIP3   OH216126   6.719   5.598   5.602
 5390TIP3    H116127   6.708   5.534   5.532
 5390TIP3    H216128   6.735   5.681   5.557
 5391TIP3   OH216129   2.776   0.567   3.517
 5391TIP3    H116130   2.784   0.479   3.480
 5391TIP3    H216131   2.857   0.612   3.490
 5392TIP3   OH216132   4.116   4.582   6.324
 5392TIP3    H116133   4.097   4.599   6.231
 5392TIP3    H216134   4.040   4.616   6.371
 5393TIP3   OH216135   6.280   7.828   3.190
 5393TIP3    H116136   6.203   7.778   3.218
 5393TIP3    H216137   6.312   7.780   3.114
 5394TIP3   OH216138   4.975   3.097   6.535
 5394TIP3    H116139   4.963   3.016   6.486
 5394TIP3    H216140   4.951   3.075   6.625
 5395TIP3   OH216141   3.784   2.860   4.576
 5395TIP3    H116142   3.761   2.786   4.632
 5395TIP3    H216143   3.787   2.824   4.488
 5396TIP3   OH216144   5.227   0.742   0.916
 5396TIP3    H116145   5.286   0.715   0.987
 5396TIP3    H216146   5.264   0.825   0.885
 5397TIP3   OH216147   4.531   7.608   6.721
 5397TIP3    H116148   4.568   7.696   6.728
 5397TIP3    H216149   4.567   7.561   6.797
 5398TIP3   OH216150   0.694   1.283   6.371
 5398TIP3    H116151   0.766   1.343   6.353
 5398TIP3    H216152   0.718   1.240   6.452
 5399TIP3   OH216153   4.481   3.739   5.777
 5399TIP3    H116154   4.547   3.693   5.830
 5399TIP3    H216155   4.399   3.726   5.825
 5400TIP3   OH216156   0.111   2.959   1.645
 5400TIP3    H116157   0.032   3.006   1.618
 5400TIP3    H216158   0.174   2.975   1.575
 5401TIP3   OH216159   2.858   4.111   4.743
 5401TIP3    H116160   2.853   4.165   4.822
 5401TIP3    H216161   2.940   4.137   4.701
 5402TIP3   OH216162   3.218   0.949   0.359
 5402TIP3    H116163   3.221   1.028   0.304
 5402TIP3    H216164   3.125   0.930   0.370
 5403TIP3   OH216165   0.747   5.623   5.518
 5403TIP3    H116166   0.673   5.640   5.576
 5403TIP3    H216167   0.787   5.543   5.552
 5404TIP3   OH216168   6.313   5.026   0.371
 5404TIP3    H116169   6.355   5.040   0.456
 5404TIP3    H216170   6.231   5.076   0.376
 5405TIP3   OH216171   3.329   5.028   1.422
 5405TIP3    H116172   3.315   5.062   1.510
 5405TIP3    H216173   3.275   5.084   1.366
 5406TIP3   OH216174   2.080   4.320   6.316
 5406TIP3    H116175   2.068   4.368   6.398
 5406TIP3    H216176   2.014   4.250   6.320
 5407TIP3   OH216177   2.941   2.991   4.695
 5407TIP3    H116178   3.002   2.931   4.738
 5407TIP3    H216179   2.871   3.004   4.760
 5408TIP3   OH216180   7.453   1.492   0.214
 5408TIP3    H116181   7.514   1.524   0.147
 5408TIP3    H216182   7.508   1.445   0.276
 5409TIP3   OH216183   7.216   1.738   2.229
 5409TIP3    H116184   7.186   1.746   2.138
 5409TIP3    H216185   7.148   1.688   2.273
 5410TIP3   OH216186   2.240   5.322   4.371
 5410TIP3    H116187   2.312   5.381   4.388
 5410TIP3    H216188   2.169   5.378   4.341
 5411TIP3   OH216189   1.940   2.824   0.145
 5411TIP3    H116190   1.978   2.908   0.122
 5411TIP3    H216191   1.855   2.823   0.102
 5412TIP3   OH216192   4.923   0.096   3.696
 5412TIP3    H116193   5.001   0.056   3.659
 5412TIP3    H216194   4.927   0.074   3.789
 5413TIP3   OH216195   0.690   5.848   4.719
 5413TIP3    H116196   0.772   5.804   4.698
 5413TIP3    H216197   0.623   5.779   4.713
 5414TIP3   OH216198   1.058   2.407   0.419
 5414TIP3    H116199   1.084   2.347   0.489
 5414TIP3    H216200   1.106   2.377   0.342
 5415TIP3   OH216201   6.408   0.025   1.230
 5415TIP3    H116202   6.378   0.085   1.162
 5415TIP3    H216203   6.412   0.079   1.309
 5416TIP3   OH216204   1.743   3.797   1.923
 5416TIP3    H116205   1.748   3.708   1.890
 5416TIP3    H216206   1.822   3.840   1.890
 5417TIP3   OH216207   2.126   7.695   2.062
 5417TIP3    H116208   2.201   7.743   2.027
 5417TIP3    H216209   2.057   7.761   2.070
 5418TIP3   OH216210   5.944   0.860   4.024
 5418TIP3    H116211   5.952   0.770   4.055
 5418TIP3    H216212   5.915   0.910   4.101
 5419TIP3   OH216213   7.618   4.201   6.444
 5419TIP3    H116214   7.657   4.260   6.379
 5419TIP3    H216215   7.555   4.257   6.491
 5420TIP3   OH216216   1.149   1.662   0.542
 5420TIP3    H116217   1.240   1.663   0.573
 5420TIP3    H216218   1.125   1.755   0.539
 5421TIP3   OH216219   7.040   5.537   3.344
 5421TIP3    H116220   7.043   5.628   3.373
 5421TIP3    H216221   7.114   5.495   3.387
 5422TIP3   OH216222   4.585   5.861   1.768
 5422TIP3    H116223   4.541   5.946   1.772
 5422TIP3    H216224   4.584   5.838   1.675
 5423TIP3   OH216225   8.153   3.736   3.019
 5423TIP3    H116226   8.165   3.821   2.977
 5423TIP3    H216227   8.091   3.753   3.090
 5424TIP3   OH216228   1.319   1.345   0.948
 5424TIP3    H116229   1.233   1.350   0.989
 5424TIP3    H216230   1.321   1.258   0.908
 5425TIP3   OH216231   3.924   7.669   3.469
 5425TIP3    H116232   3.892   7.748   3.511
 5425TIP3    H216233   3.931   7.693   3.376
 5426TIP3   OH216234   8.202   0.902   4.608
 5426TIP3    H116235   8.205   0.813   4.643
 5426TIP3    H216236   8.233   0.957   4.679
 5427TIP3   OH216237   6.206   1.833   0.251
 5427TIP3    H116238   6.248   1.796   0.328
 5427TIP3    H216239   6.175   1.758   0.201
 5428TIP3   OH216240   1.247   3.945   5.787
 5428TIP3    H116241   1.278   3.908   5.705
 5428TIP3    H216242   1.188   3.879   5.822
 5429TIP3   OH216243   3.775   1.311   1.379
 5429TIP3    H116244   3.743   1.295   1.468
 5429TIP3    H216245   3.740   1.397   1.356
 5430TIP3   OH216246   3.805   7.725   4.056
 5430TIP3    H116247   3.749   7.747   3.982
 5430TIP3    H216248   3.806   7.629   4.058
 5431TIP3   OH216249   3.501   0.113   5.120
 5431TIP3    H116250   3.593   0.136   5.135
 5431TIP3    H216251   3.452   0.188   5.154
 5432TIP3   OH216252   5.111   2.858   3.760
 5432TIP3    H116253   5.098   2.952   3.759
 5432TIP3    H216254   5.136   2.838   3.851
 5433TIP3   OH216255   5.422   6.252   2.938
 5433TIP3    H116256   5.513   6.223   2.945
 5433TIP3    H216257   5.371   6.180   2.974
 5434TIP3   OH216258   7.686   6.856   1.946
 5434TIP3    H116259   7.628   6.782   1.962
 5434TIP3    H216260   7.643   6.906   1.877
 5435TIP3   OH216261   4.970   5.094   6.437
 5435TIP3    H116262   4.965   5.081   6.342
 5435TIP3    H216263   4.904   5.160   6.456
 5436TIP3   OH216264   4.994   5.754   1.563
 5436TIP3    H116265   4.958   5.783   1.647
 5436TIP3    H216266   4.921   5.761   1.502
 5437TIP3   OH216267   0.062   5.372   2.841
 5437TIP3    H116268   0.153   5.372   2.871
 5437TIP3    H216269   0.057   5.446   2.781
 5438TIP3   OH216270   8.102   4.988   3.762
 5438TIP3    H116271   8.111   4.964   3.855
 5438TIP3    H216272   8.105   4.904   3.715
 5439TIP3   OH216273   6.424   4.566   6.132
 5439TIP3    H116274   6.475   4.486   6.141
 5439TIP3    H216275   6.467   4.615   6.062
 5440TIP3   OH216276   3.758   4.779   4.290
 5440TIP3    H116277   3.744   4.839   4.363
 5440TIP3    H216278   3.713   4.820   4.216
 5441TIP3   OH216279   8.262   3.476   6.028
 5441TIP3    H116280   8.233   3.555   6.074
 5441TIP3    H216281   8.190   3.414   6.040
 5442TIP3   OH216282   5.943   0.249   1.481
 5442TIP3    H116283   6.029   0.246   1.440
 5442TIP3    H216284   5.954   0.307   1.556
 5443TIP3   OH216285   0.164   4.904   4.340
 5443TIP3    H116286   0.096   4.837   4.350
 5443TIP3    H216287   0.154   4.959   4.417
 5444TIP3   OH216288   1.767   6.929   3.005
 5444TIP3    H116289   1.741   6.911   3.096
 5444TIP3    H216290   1.861   6.945   3.010
 5445TIP3   OH216291  -0.004   5.565   2.300
 5445TIP3    H116292  -0.016   5.471   2.296
 5445TIP3    H216293   0.090   5.578   2.287
 5446TIP3   OH216294   4.009   7.569   0.445
 5446TIP3    H116295   3.962   7.558   0.528
 5446TIP3    H216296   4.012   7.663   0.432
 5447TIP3   OH216297   6.956   2.345   6.019
 5447TIP3    H116298   6.954   2.436   5.989
 5447TIP3    H216299   7.034   2.340   6.074
 5448TIP3   OH216300   0.688   4.306   4.540
 5448TIP3    H116301   0.734   4.224   4.520
 5448TIP3    H216302   0.679   4.305   4.635
 5449TIP3   OH216303   0.610   0.051   0.973
 5449TIP3    H116304   0.524   0.046   0.930
 5449TIP3    H216305   0.601   0.122   1.035
 5450TIP3   OH216306   7.048   4.817   4.445
 5450TIP3    H116307   7.050   4.887   4.510
 5450TIP3    H216308   7.136   4.780   4.447
 5451TIP3   OH216309   6.348   3.616   5.570
 5451TIP3    H116310   6.422   3.556   5.573
 5451TIP3    H216311   6.384   3.700   5.599
 5452TIP3   OH216312   2.510   0.497   4.251
 5452TIP3    H116313   2.556   0.562   4.198
 5452TIP3    H216314   2.500   0.538   4.337
 5453TIP3   OH216315   7.608   2.063   1.955
 5453TIP3    H116316   7.534   2.002   1.957
 5453TIP3    H216317   7.629   2.078   2.047
 5454TIP3   OH216318   5.041   6.140   6.145
 5454TIP3    H116319   5.069   6.049   6.130
 5454TIP3    H216320   5.030   6.177   6.058
 5455TIP3   OH216321   3.406   6.564   1.629
 5455TIP3    H116322   3.431   6.640   1.682
 5455TIP3    H216323   3.461   6.571   1.550
 5456TIP3   OH216324   7.125   2.272   3.467
 5456TIP3    H116325   7.105   2.345   3.408
 5456TIP3    H216326   7.122   2.194   3.410
 5457TIP3   OH216327   4.040   6.743   4.689
 5457TIP3    H116328   3.979   6.747   4.763
 5457TIP3    H216329   4.106   6.679   4.715
 5458TIP3   OH216330   4.440   7.367   5.142
 5458TIP3    H116331   4.452   7.392   5.234
 5458TIP3    H216332   4.447   7.272   5.142
 5459TIP3   OH216333   3.255   2.212   1.063
 5459TIP3    H116334   3.331   2.169   1.024
 5459TIP3    H216335   3.191   2.142   1.074
 5460TIP3   OH216336   8.315   1.872   0.485
 5460TIP3    H116337   8.329   1.874   0.579
 5460TIP3    H216338   8.220   1.880   0.475
 5461TIP3   OH216339   2.141   4.724   1.926
 5461TIP3    H116340   2.159   4.722   2.020
 5461TIP3    H216341   2.224   4.701   1.885
 5462TIP3   OH216342   2.172   5.311   3.347
 5462TIP3    H116343   2.263   5.312   3.317
 5462TIP3    H216344   2.148   5.218   3.349
 5463TIP3   OH216345   6.208   4.760   2.565
 5463TIP3    H116346   6.214   4.707   2.485
 5463TIP3    H216347   6.248   4.844   2.541
 5464TIP3   OH216348   0.221   1.890   1.933
 5464TIP3    H116349   0.216   1.925   2.022
 5464TIP3    H216350   0.215   1.795   1.944
 5465TIP3   OH216351   1.200   0.132   4.577
 5465TIP3    H116352   1.120   0.163   4.619
 5465TIP3    H216353   1.240   0.212   4.541
 5466TIP3   OH216354   0.014   3.119   3.633
 5466TIP3    H116355   0.064   3.095   3.555
 5466TIP3    H216356  -0.076   3.127   3.602
 5467TIP3   OH216357   2.691   3.746   6.676
 5467TIP3    H116358   2.671   3.771   6.765
 5467TIP3    H216359   2.775   3.789   6.657
 5468TIP3   OH216360   7.966   0.688   4.130
 5468TIP3    H116361   8.060   0.679   4.149
 5468TIP3    H216362   7.945   0.611   4.077
 5469TIP3   OH216363   5.581   1.296   6.192
 5469TIP3    H116364   5.504   1.345   6.221
 5469TIP3    H216365   5.654   1.356   6.201
 5470TIP3   OH216366   6.671   7.382   1.212
 5470TIP3    H116367   6.646   7.475   1.216
 5470TIP3    H216368   6.591   7.335   1.235
 5471TIP3   OH216369   2.689   2.146   2.213
 5471TIP3    H116370   2.636   2.091   2.271
 5471TIP3    H216371   2.756   2.183   2.271
 5472TIP3   OH216372   5.509   3.302   1.204
 5472TIP3    H116373   5.587   3.248   1.190
 5472TIP3    H216374   5.503   3.312   1.299
 5473TIP3   OH216375   8.285   5.074   2.384
 5473TIP3    H116376   8.344   5.067   2.308
 5473TIP3    H216377   8.244   4.988   2.389
 5474TIP3   OH216378   2.594   7.832   4.084
 5474TIP3    H116379   2.535   7.764   4.050
 5474TIP3    H216380   2.675   7.821   4.034
 5475TIP3   OH216381   5.213   5.701   4.284
 5475TIP3    H116382   5.163   5.656   4.216
 5475TIP3    H216383   5.301   5.712   4.246
 5476TIP3   OH216384   4.523   0.320   4.546
 5476TIP3    H116385   4.532   0.248   4.609
 5476TIP3    H216386   4.444   0.366   4.573
 5477TIP3   OH216387   5.280   0.641   1.581
 5477TIP3    H116388   5.327   0.580   1.524
 5477TIP3    H216389   5.189   0.612   1.576
 5478TIP3   OH216390   7.347   4.771   3.699
 5478TIP3    H116391   7.437   4.776   3.729
 5478TIP3    H216392   7.327   4.859   3.668
 5479TIP3   OH216393   8.115   7.031   6.540
 5479TIP3    H116394   8.118   7.103   6.603
 5479TIP3    H216395   8.070   6.961   6.586
 5480TIP3   OH216396   3.262   5.321   0.642
 5480TIP3    H116397   3.290   5.407   0.610
 5480TIP3    H216398   3.244   5.270   0.563
 5481TIP3   OH216399   3.538   4.251   6.319
 5481TIP3    H116400   3.498   4.310   6.384
 5481TIP3    H216401   3.552   4.169   6.367
 5482TIP3   OH216402   4.217   4.277   6.056
 5482TIP3    H116403   4.180   4.305   5.973
 5482TIP3    H216404   4.144   4.235   6.102
 5483TIP3   OH216405   3.462   7.620   2.694
 5483TIP3    H116406   3.520   7.630   2.618
 5483TIP3    H216407   3.387   7.570   2.662
 5484TIP3   OH216408   2.699   1.780   4.696
 5484TIP3    H116409   2.653   1.766   4.779
 5484TIP3    H216410   2.630   1.798   4.633
 5485TIP3   OH216411   1.690   7.331   4.924
 5485TIP3    H116412   1.748   7.367   4.991
 5485TIP3    H216413   1.698   7.236   4.932
 5486TIP3   OH216414   3.709   5.744   1.835
 5486TIP3    H116415   3.700   5.836   1.811
 5486TIP3    H216416   3.627   5.722   1.880
 5487TIP3   OH216417   6.596   7.823   5.802
 5487TIP3    H116418   6.615   7.731   5.819
 5487TIP3    H216419   6.579   7.860   5.889
 5488TIP3   OH216420   1.896   5.156   5.513
 5488TIP3    H116421   1.950   5.097   5.564
 5488TIP3    H216422   1.879   5.230   5.571
 5489TIP3   OH216423   2.373   0.637   6.684
 5489TIP3    H116424   2.364   0.601   6.596
 5489TIP3    H216425   2.420   0.720   6.671
 5490TIP3   OH216426   2.485   7.798   6.697
 5490TIP3    H116427   2.525   7.757   6.620
 5490TIP3    H216428   2.449   7.725   6.746
 5491TIP3   OH216429   5.723   1.906   6.743
 5491TIP3    H116430   5.658   1.870   6.682
 5491TIP3    H216431   5.689   1.885   6.830
 5492TIP3   OH216432   2.185   0.997   4.294
 5492TIP3    H116433   2.118   1.013   4.228
 5492TIP3    H216434   2.135   0.984   4.375
 5493TIP3   OH216435   6.560   2.428   3.998
 5493TIP3    H116436   6.623   2.494   3.970
 5493TIP3    H216437   6.520   2.398   3.916
 5494TIP3   OH216438   7.077   7.153   3.467
 5494TIP3    H116439   7.172   7.154   3.455
 5494TIP3    H216440   7.059   7.069   3.508
 5495TIP3   OH216441   2.044   5.606   2.210
 5495TIP3    H116442   2.074   5.535   2.267
 5495TIP3    H216443   2.123   5.636   2.165
 5496TIP3   OH216444   3.149   7.145   1.556
 5496TIP3    H116445   3.180   7.126   1.468
 5496TIP3    H216446   3.201   7.220   1.584
 5497TIP3   OH216447   7.355   1.305   0.650
 5497TIP3    H116448   7.411   1.376   0.616
 5497TIP3    H216449   7.267   1.342   0.650
 5498TIP3   OH216450   2.954   4.820   3.286
 5498TIP3    H116451   2.941   4.757   3.357
 5498TIP3    H216452   2.982   4.900   3.329
 5499TIP3   OH216453   0.552   6.478   0.578
 5499TIP3    H116454   0.478   6.439   0.531
 5499TIP3    H216455   0.594   6.536   0.514
 5500TIP3   OH216456   0.149   4.620   3.131
 5500TIP3    H116457   0.209   4.552   3.099
 5500TIP3    H216458   0.090   4.574   3.191
 5501TIP3   OH216459   4.405   0.267   6.380
 5501TIP3    H116460   4.391   0.356   6.411
 5501TIP3    H216461   4.499   0.253   6.390
 5502TIP3   OH216462   4.408   1.133   0.881
 5502TIP3    H116463   4.377   1.162   0.967
 5502TIP3    H216464   4.376   1.200   0.820
 5503TIP3   OH216465   3.390   0.332   5.997
 5503TIP3    H116466   3.348   0.290   6.072
 5503TIP3    H216467   3.375   0.270   5.925
 5504TIP3   OH216468   3.958   5.684   3.424
 5504TIP3    H116469   4.012   5.709   3.349
 5504TIP3    H216470   4.018   5.686   3.498
 5505TIP3   OH216471   5.769   7.597   3.369
 5505TIP3    H116472   5.781   7.563   3.280
 5505TIP3    H216473   5.708   7.670   3.359
 5506TIP3   OH216474   1.455   7.273   1.384
 5506TIP3    H116475   1.413   7.348   1.426
 5506TIP3    H216476   1.530   7.311   1.338
 5507TIP3   OH216477   2.098   1.771   3.027
 5507TIP3    H116478   2.005   1.745   3.027
 5507TIP3    H216479   2.132   1.738   2.944
 5508TIP3   OH216480   0.455   4.203   4.457
 5508TIP3    H116481   0.440   4.220   4.364
 5508TIP3    H216482   0.544   4.236   4.473
 5509TIP3   OH216483   7.034   4.125   2.868
 5509TIP3    H116484   7.104   4.098   2.928
 5509TIP3    H216485   6.959   4.142   2.925
 5510TIP3   OH216486   4.773   5.969   1.079
 5510TIP3    H116487   4.714   5.971   1.003
 5510TIP3    H216488   4.826   6.048   1.070
 5511TIP3   OH216489   1.499   7.403   2.848
 5511TIP3    H116490   1.425   7.455   2.878
 5511TIP3    H216491   1.538   7.368   2.929
 5512TIP3   OH216492   2.336   0.590   1.937
 5512TIP3    H116493   2.412   0.594   1.995
 5512TIP3    H216494   2.267   0.550   1.990
 5513TIP3   OH216495   4.456   6.667   3.394
 5513TIP3    H116496   4.531   6.645   3.337
 5513TIP3    H216497   4.461   6.762   3.404
 5514TIP3   OH216498   2.762   7.129   4.329
 5514TIP3    H116499   2.842   7.150   4.280
 5514TIP3    H216500   2.763   7.191   4.402
 5515TIP3   OH216501   4.155   5.637   2.766
 5515TIP3    H116502   4.143   5.668   2.676
 5515TIP3    H216503   4.186   5.713   2.814
 5516TIP3   OH216504   2.827   7.459   0.502
 5516TIP3    H116505   2.877   7.396   0.451
 5516TIP3    H216506   2.836   7.430   0.593
 5517TIP3   OH216507   1.176   1.875   4.722
 5517TIP3    H116508   1.213   1.932   4.788
 5517TIP3    H216509   1.148   1.797   4.770
 5518TIP3   OH216510   3.646   4.626   2.862
 5518TIP3    H116511   3.718   4.683   2.891
 5518TIP3    H216512   3.621   4.578   2.941
 5519TIP3   OH216513   1.191   4.711   0.154
 5519TIP3    H116514   1.254   4.767   0.199
 5519TIP3    H216515   1.234   4.688   0.071
 5520TIP3   OH216516   6.063   3.268   6.187
 5520TIP3    H116517   6.112   3.204   6.239
 5520TIP3    H216518   5.971   3.241   6.195
 5521TIP3   OH216519   1.397   4.469   0.094
 5521TIP3    H116520   1.479   4.420   0.101
 5521TIP3    H216521   1.407   4.520   0.014
 5522TIP3   OH216522   7.833   1.967   0.732
 5522TIP3    H116523   7.758   2.025   0.742
 5522TIP3    H216524   7.801   1.895   0.678
 5523TIP3   OH216525   1.042   5.604   6.432
 5523TIP3    H116526   1.117   5.657   6.461
 5523TIP3    H216527   1.040   5.617   6.337
 5524TIP3   OH216528   2.788   2.412   5.633
 5524TIP3    H116529   2.844   2.341   5.666
 5524TIP3    H216530   2.704   2.399   5.678
 5525TIP3   OH216531   5.830   4.285   3.669
 5525TIP3    H116532   5.890   4.267   3.597
 5525TIP3    H216533   5.814   4.200   3.709
 5526TIP3   OH216534   2.795   0.334   3.372
 5526TIP3    H116535   2.882   0.343   3.332
 5526TIP3    H216536   2.750   0.270   3.317
 5527TIP3   OH216537   0.268   6.140   4.796
 5527TIP3    H116538   0.318   6.065   4.763
 5527TIP3    H216539   0.332   6.194   4.843
 5528TIP3   OH216540   6.281   4.365   0.775
 5528TIP3    H116541   6.256   4.376   0.867
 5528TIP3    H216542   6.205   4.322   0.735
 5529TIP3   OH216543   2.726   0.466   1.910
 5529TIP3    H116544   2.730   0.484   1.816
 5529TIP3    H216545   2.633   0.467   1.931
 5530TIP3   OH216546   3.287   2.570   4.679
 5530TIP3    H116547   3.295   2.483   4.719
 5530TIP3    H216548   3.367   2.616   4.705
 5531TIP3   OH216549   7.837   3.161   2.197
 5531TIP3    H116550   7.864   3.213   2.122
 5531TIP3    H216551   7.742   3.155   2.189
 5532TIP3   OH216552   4.677   3.153   2.233
 5532TIP3    H116553   4.611   3.135   2.166
 5532TIP3    H216554   4.720   3.069   2.249
 5533TIP3   OH216555   8.160   4.591   0.046
 5533TIP3    H116556   8.109   4.595  -0.035
 5533TIP3    H216557   8.124   4.516   0.093
 5534TIP3   OH216558   3.817   7.614   4.747
 5534TIP3    H116559   3.846   7.531   4.709
 5534TIP3    H216560   3.889   7.641   4.804
 5535TIP3   OH216561   4.868   7.721   1.987
 5535TIP3    H116562   4.898   7.802   2.029
 5535TIP3    H216563   4.810   7.680   2.051
 5536TIP3   OH216564   7.466   4.069   3.056
 5536TIP3    H116565   7.381   4.035   3.027
 5536TIP3    H216566   7.507   3.994   3.099
 5537TIP3   OH216567   2.581   0.213   4.650
 5537TIP3    H116568   2.572   0.119   4.665
 5537TIP3    H216569   2.490   0.245   4.646
 5538TIP3   OH216570   0.504   4.523   0.224
 5538TIP3    H116571   0.588   4.533   0.268
 5538TIP3    H216572   0.510   4.438   0.179
 5539TIP3   OH216573   6.099   2.613   3.234
 5539TIP3    H116574   6.087   2.650   3.147
 5539TIP3    H216575   6.012   2.581   3.258
 5540TIP3   OH216576   8.086   3.231   4.350
 5540TIP3    H116577   8.048   3.146   4.372
 5540TIP3    H216578   8.116   3.266   4.433
 5541TIP3   OH216579   0.594   3.123   5.889
 5541TIP3    H116580   0.550   3.179   5.825
 5541TIP3    H216581   0.527   3.059   5.916
 5542TIP3   OH216582   0.801   1.878   5.812
 5542TIP3    H116583   0.791   1.954   5.755
 5542TIP3    H216584   0.753   1.808   5.767
 5543TIP3   OH216585   5.939   0.727   5.314
 5543TIP3    H116586   6.024   0.768   5.300
 5543TIP3    H216587   5.900   0.774   5.388
 5544TIP3   OH216588   6.415   0.752   0.401
 5544TIP3    H116589   6.486   0.786   0.346
 5544TIP3    H216590   6.335   0.777   0.354
 5545TIP3   OH216591   3.020   3.278   4.633
 5545TIP3    H116592   2.990   3.188   4.625
 5545TIP3    H216593   2.939   3.330   4.633
 5546TIP3   OH216594   7.941   5.840   2.337
 5546TIP3    H116595   7.913   5.815   2.425
 5546TIP3    H216596   7.992   5.766   2.306
 5547TIP3   OH216597   6.043   6.502   0.168
 5547TIP3    H116598   5.956   6.507   0.209
 5547TIP3    H216599   6.048   6.580   0.113
 5548TIP3   OH216600   6.830   0.715   5.258
 5548TIP3    H116601   6.737   0.739   5.259
 5548TIP3    H216602   6.837   0.651   5.187
 5549TIP3   OH216603   4.151   0.230   4.754
 5549TIP3    H116604   4.203   0.220   4.675
 5549TIP3    H216605   4.070   0.182   4.737
 5550TIP3   OH216606   2.043   0.482   3.113
 5550TIP3    H116607   2.028   0.457   3.204
 5550TIP3    H216608   2.129   0.446   3.091
 5551TIP3   OH216609   0.177   3.679   2.733
 5551TIP3    H116610   0.180   3.775   2.734
 5551TIP3    H216611   0.267   3.652   2.753
 5552TIP3   OH216612   4.635   3.711   0.321
 5552TIP3    H116613   4.730   3.709   0.335
 5552TIP3    H216614   4.598   3.729   0.408
 5553TIP3   OH216615   1.303   6.873   3.426
 5553TIP3    H116616   1.368   6.805   3.445
 5553TIP3    H216617   1.225   6.824   3.402
 5554TIP3   OH216618   2.198   3.100   4.431
 5554TIP3    H116619   2.178   3.010   4.455
 5554TIP3    H216620   2.188   3.102   4.336
 5555TIP3   OH216621   1.150   5.201   3.559
 5555TIP3    H116622   1.167   5.121   3.608
 5555TIP3    H216623   1.058   5.195   3.534
 5556TIP3   OH216624   4.302   2.756   0.140
 5556TIP3    H116625   4.334   2.833   0.187
 5556TIP3    H216626   4.318   2.775   0.047
 5557TIP3   OH216627   5.948   0.502   6.362
 5557TIP3    H116628   5.965   0.530   6.452
 5557TIP3    H216629   5.894   0.423   6.372
 5558TIP3   OH216630   6.192   0.602   4.787
 5558TIP3    H116631   6.176   0.662   4.860
 5558TIP3    H216632   6.153   0.519   4.814
 5559TIP3   OH216633   6.890   3.021   5.960
 5559TIP3    H116634   6.835   2.944   5.958
 5559TIP3    H216635   6.922   3.030   5.870
 5560TIP3   OH216636   5.374   3.756   4.373
 5560TIP3    H116637   5.323   3.687   4.416
 5560TIP3    H216638   5.442   3.778   4.437
 5561TIP3   OH216639   6.135   0.688   0.738
 5561TIP3    H116640   6.225   0.690   0.706
 5561TIP3    H216641   6.136   0.745   0.815
 5562TIP3   OH216642   0.782   3.525   3.462
 5562TIP3    H116643   0.747   3.581   3.392
 5562TIP3    H216644   0.877   3.525   3.447
 5563TIP3   OH216645   7.186   0.333   3.891
 5563TIP3    H116646   7.225   0.419   3.908
 5563TIP3    H216647   7.104   0.333   3.941
 5564TIP3   OH216648   0.413   2.456   6.455
 5564TIP3    H116649   0.466   2.450   6.534
 5564TIP3    H216650   0.343   2.391   6.468
 5565TIP3   OH216651   8.298   5.202   4.807
 5565TIP3    H116652   8.222   5.234   4.758
 5565TIP3    H216653   8.319   5.118   4.767
 5566TIP3   OH216654   2.008   6.265   4.530
 5566TIP3    H116655   2.075   6.278   4.464
 5566TIP3    H216656   2.031   6.325   4.601
 5567TIP3   OH216657   7.314   5.570   1.224
 5567TIP3    H116658   7.327   5.585   1.131
 5567TIP3    H216659   7.343   5.481   1.239
 5568TIP3   OH216660   0.461   2.521   2.851
 5568TIP3    H116661   0.496   2.507   2.939
 5568TIP3    H216662   0.446   2.616   2.847
 5569TIP3   OH216663   7.638   7.317   3.675
 5569TIP3    H116664   7.629   7.249   3.741
 5569TIP3    H216665   7.678   7.274   3.599
 5570TIP3   OH216666   0.759   6.569   5.497
 5570TIP3    H116667   0.731   6.555   5.588
 5570TIP3    H216668   0.834   6.510   5.486
 5571TIP3   OH216669   4.413   2.285   0.351
 5571TIP3    H116670   4.385   2.195   0.366
 5571TIP3    H216671   4.502   2.278   0.319
 5572TIP3   OH216672   0.563   2.833   5.259
 5572TIP3    H116673   0.635   2.875   5.211
 5572TIP3    H216674   0.494   2.899   5.259
 5573TIP3   OH216675   2.858   0.503   6.622
 5573TIP3    H116676   2.819   0.576   6.574
 5573TIP3    H216677   2.953   0.514   6.610
 5574TIP3   OH216678   4.373   3.058   3.252
 5574TIP3    H116679   4.339   3.021   3.170
 5574TIP3    H216680   4.467   3.040   3.249
 5575TIP3   OH216681   2.918   6.348   5.612
 5575TIP3    H116682   2.901   6.435   5.577
 5575TIP3    H216683   3.014   6.342   5.615
 5576TIP3   OH216684   6.921   0.194   6.743
 5576TIP3    H116685   6.908   0.134   6.816
 5576TIP3    H216686   6.835   0.203   6.703
 5577TIP3   OH216687   1.944   7.376   1.450
 5577TIP3    H116688   2.019   7.394   1.393
 5577TIP3    H216689   1.927   7.282   1.438
 5578TIP3   OH216690   6.910   3.261   1.352
 5578TIP3    H116691   6.944   3.176   1.324
 5578TIP3    H216692   6.860   3.292   1.277
 5579TIP3   OH216693   2.998   3.078   3.399
 5579TIP3    H116694   3.087   3.101   3.427
 5579TIP3    H216695   2.999   2.983   3.392
 5580TIP3   OH216696   3.064   3.660   6.157
 5580TIP3    H116697   3.121   3.688   6.228
 5580TIP3    H216698   2.980   3.704   6.174
 5581TIP3   OH216699   6.077   3.167   6.475
 5581TIP3    H116700   5.991   3.148   6.512
 5581TIP3    H216701   6.139   3.136   6.541
 5582TIP3   OH216702   7.639   1.717   0.082
 5582TIP3    H116703   7.734   1.723   0.092
 5582TIP3    H216704   7.623   1.733  -0.011
 5583TIP3   OH216705   5.795   1.158   5.125
 5583TIP3    H116706   5.888   1.176   5.109
 5583TIP3    H216707   5.763   1.123   5.042
 5584TIP3   OH216708   4.949   0.650   4.482
 5584TIP3    H116709   4.910   0.608   4.405
 5584TIP3    H216710   5.043   0.655   4.462
 5585TIP3   OH216711   4.843   0.932   1.797
 5585TIP3    H116712   4.920   0.877   1.785
 5585TIP3    H216713   4.871   1.001   1.857
 5586TIP3   OH216714   1.176   7.712   0.911
 5586TIP3    H116715   1.110   7.761   0.960
 5586TIP3    H216716   1.163   7.621   0.937
 5587TIP3   OH216717   3.714   1.920   4.642
 5587TIP3    H116718   3.760   1.997   4.677
 5587TIP3    H216719   3.783   1.866   4.603
 5588TIP3   OH216720   1.016   1.156   3.129
 5588TIP3    H116721   1.058   1.213   3.065
 5588TIP3    H216722   0.928   1.192   3.140
 5589TIP3   OH216723   3.482   1.085   4.173
 5589TIP3    H116724   3.494   1.062   4.081
 5589TIP3    H216725   3.556   1.044   4.218
 5590TIP3   OH216726   5.116   5.295   0.752
 5590TIP3    H116727   5.145   5.340   0.831
 5590TIP3    H216728   5.081   5.211   0.784
 5591TIP3   OH216729   3.643   0.172   6.152
 5591TIP3    H116730   3.617   0.246   6.206
 5591TIP3    H216731   3.573   0.164   6.087
 5592TIP3   OH216732   1.850   5.965   1.974
 5592TIP3    H116733   1.852   5.986   1.881
 5592TIP3    H216734   1.857   6.050   2.019
 5593TIP3   OH216735   8.307   1.323   0.185
 5593TIP3    H116736   8.273   1.394   0.131
 5593TIP3    H216737   8.295   1.354   0.275
 5594TIP3   OH216738   6.140   1.434   4.308
 5594TIP3    H116739   6.097   1.443   4.223
 5594TIP3    H216740   6.218   1.381   4.289
 5595TIP3   OH216741   1.339   1.241   0.410
 5595TIP3    H116742   1.322   1.334   0.426
 5595TIP3    H216743   1.367   1.237   0.319
 5596TIP3   OH216744   1.014   6.166   5.183
 5596TIP3    H116745   1.082   6.153   5.250
 5596TIP3    H216746   0.981   6.254   5.200
 5597TIP3   OH216747   1.934   6.415   4.053
 5597TIP3    H116748   1.983   6.492   4.083
 5597TIP3    H216749   1.995   6.342   4.063
 5598TIP3   OH216750   2.677   5.797   5.347
 5598TIP3    H116751   2.656   5.703   5.350
 5598TIP3    H216752   2.772   5.800   5.353
 5599TIP3   OH216753   1.822   5.199   3.372
 5599TIP3    H116754   1.763   5.184   3.298
 5599TIP3    H216755   1.804   5.127   3.432
 5600TIP3   OH216756   1.545   6.113   0.272
 5600TIP3    H116757   1.495   6.162   0.338
 5600TIP3    H216758   1.583   6.181   0.217
 5601TIP3   OH216759   7.967   6.447   1.209
 5601TIP3    H116760   7.922   6.450   1.125
 5601TIP3    H216761   8.036   6.513   1.202
 5602TIP3   OH216762   6.440   4.791   6.751
 5602TIP3    H116763   6.449   4.765   6.843
 5602TIP3    H216764   6.493   4.870   6.743
 5603TIP3   OH216765   5.131   0.824   1.284
 5603TIP3    H116766   5.107   0.848   1.195
 5603TIP3    H216767   5.159   0.732   1.277
 5604TIP3   OH216768   7.322   2.629   0.302
 5604TIP3    H116769   7.230   2.647   0.323
 5604TIP3    H216770   7.337   2.675   0.220
 5605TIP3   OH216771   1.183   5.954   2.987
 5605TIP3    H116772   1.210   5.983   2.899
 5605TIP3    H216773   1.259   5.973   3.042
 5606TIP3   OH216774   5.287   3.241   4.805
 5606TIP3    H116775   5.230   3.311   4.772
 5606TIP3    H216776   5.338   3.282   4.874
 5607TIP3   OH216777   3.535   4.450   5.602
 5607TIP3    H116778   3.626   4.452   5.631
 5607TIP3    H216779   3.488   4.505   5.665
 5608TIP3   OH216780   3.750   0.720   5.799
 5608TIP3    H116781   3.657   0.699   5.807
 5608TIP3    H216782   3.795   0.638   5.820
 5609TIP3   OH216783   7.308   4.026   4.952
 5609TIP3    H116784   7.372   3.976   4.901
 5609TIP3    H216785   7.332   4.117   4.938
 5610TIP3   OH216786   4.413   4.854   3.073
 5610TIP3    H116787   4.441   4.802   2.997
 5610TIP3    H216788   4.477   4.926   3.077
 5611TIP3   OH216789   2.082   6.413   3.271
 5611TIP3    H116790   2.002   6.417   3.323
 5611TIP3    H216791   2.117   6.325   3.286
 5612TIP3   OH216792   3.303   6.749   4.376
 5612TIP3    H116793   3.328   6.842   4.378
 5612TIP3    H216794   3.208   6.750   4.363
 5613TIP3   OH216795   0.595   6.654   0.799
 5613TIP3    H116796   0.504   6.638   0.825
 5613TIP3    H216797   0.596   6.643   0.704
 5614TIP3   OH216798   4.107   7.127   2.707
 5614TIP3    H116799   4.177   7.068   2.679
 5614TIP3    H216800   4.124   7.142   2.800
 5615TIP3   OH216801   8.206   2.330   4.689
 5615TIP3    H116802   8.129   2.326   4.633
 5615TIP3    H216803   8.273   2.372   4.634
 5616TIP3   OH216804   7.979   7.419   5.480
 5616TIP3    H116805   8.071   7.391   5.483
 5616TIP3    H216806   7.931   7.340   5.455
 5617TIP3   OH216807   3.636   5.061   3.823
 5617TIP3    H116808   3.637   5.060   3.727
 5617TIP3    H216809   3.728   5.050   3.849
 5618TIP3   OH216810   7.646   1.692   3.664
 5618TIP3    H116811   7.629   1.598   3.668
 5618TIP3    H216812   7.650   1.712   3.570
 5619TIP3   OH216813   5.818   0.441   2.074
 5619TIP3    H116814   5.859   0.356   2.089
 5619TIP3    H216815   5.818   0.451   1.979
 5620TIP3   OH216816   4.537   1.075   3.878
 5620TIP3    H116817   4.478   1.010   3.915
 5620TIP3    H216818   4.607   1.083   3.943
 5621TIP3   OH216819   2.204   6.182   3.325
 5621TIP3    H116820   2.198   6.123   3.400
 5621TIP3    H216821   2.188   6.126   3.249
 5622TIP3   OH216822   1.601   6.222   4.313
 5622TIP3    H116823   1.678   6.168   4.297
 5622TIP3    H216824   1.635   6.312   4.311
 5623TIP3   OH216825   2.338   4.033   6.447
 5623TIP3    H116826   2.357   4.061   6.357
 5623TIP3    H216827   2.308   3.943   6.437
 5624TIP3   OH216828   5.303   3.820   4.717
 5624TIP3    H116829   5.376   3.810   4.778
 5624TIP3    H216830   5.300   3.913   4.698
 5625TIP3   OH216831   5.064   0.986   0.044
 5625TIP3    H116832   5.027   1.034   0.118
 5625TIP3    H216833   5.143   1.034   0.021
 5626TIP3   OH216834   7.758   4.576   4.067
 5626TIP3    H116835   7.779   4.509   4.001
 5626TIP3    H216836   7.664   4.591   4.058
 5627TIP3   OH216837   0.232   3.206   2.751
 5627TIP3    H116838   0.326   3.226   2.754
 5627TIP3    H216839   0.227   3.117   2.717
 5628TIP3   OH216840   3.631   2.897   0.097
 5628TIP3    H116841   3.658   2.980   0.058
 5628TIP3    H216842   3.539   2.887   0.070
 5629TIP3   OH216843   4.490   7.402   2.440
 5629TIP3    H116844   4.440   7.322   2.458
 5629TIP3    H216845   4.522   7.390   2.350
 5630TIP3   OH216846   4.070   2.935   4.420
 5630TIP3    H116847   4.000   2.902   4.477
 5630TIP3    H216848   4.149   2.896   4.457
 5631TIP3   OH216849   5.033   3.073   5.671
 5631TIP3    H116850   5.008   3.149   5.724
 5631TIP3    H216851   4.951   3.024   5.660
 5632TIP3   OH216852   3.892   3.101   4.174
 5632TIP3    H116853   3.917   3.076   4.085
 5632TIP3    H216854   3.974   3.112   4.221
 5633TIP3   OH216855   0.748   7.438   3.298
 5633TIP3    H116856   0.732   7.406   3.209
 5633TIP3    H216857   0.796   7.367   3.341
 5634TIP3   OH216858   1.903   4.220   5.063
 5634TIP3    H116859   1.837   4.285   5.087
 5634TIP3    H216860   1.959   4.264   4.999
 5635TIP3   OH216861   5.555   2.858   6.112
 5635TIP3    H116862   5.645   2.886   6.096
 5635TIP3    H216863   5.509   2.874   6.029
 5636TIP3   OH216864   4.622   0.486   4.359
 5636TIP3    H116865   4.584   0.409   4.401
 5636TIP3    H216866   4.606   0.473   4.266
 5637TIP3   OH216867   5.495   4.509   4.035
 5637TIP3    H116868   5.532   4.495   4.122
 5637TIP3    H216869   5.491   4.422   3.996
 5638TIP3   OH216870   8.204   3.161   6.202
 5638TIP3    H116871   8.281   3.131   6.153
 5638TIP3    H216872   8.237   3.175   6.291
 5639TIP3   OH216873   1.430   0.856   0.016
 5639TIP3    H116874   1.491   0.905   0.072
 5639TIP3    H216875   1.457   0.765   0.027
 5640TIP3   OH216876   0.753   2.780   3.621
 5640TIP3    H116877   0.735   2.692   3.655
 5640TIP3    H216878   0.759   2.768   3.526
 5641TIP3   OH216879   8.184   4.037   3.192
 5641TIP3    H116880   8.240   3.998   3.259
 5641TIP3    H216881   8.234   4.028   3.111
 5642TIP3   OH216882   1.096   2.475   2.612
 5642TIP3    H116883   1.080   2.381   2.601
 5642TIP3    H216884   1.010   2.512   2.629
 5643TIP3   OH216885   4.178   2.956   4.770
 5643TIP3    H116886   4.148   2.871   4.805
 5643TIP3    H216887   4.174   3.015   4.845
 5644TIP3   OH216888   5.577   1.877   4.189
 5644TIP3    H116889   5.538   1.846   4.107
 5644TIP3    H216890   5.613   1.798   4.230
 5645TIP3   OH216891   3.860   4.346   1.841
 5645TIP3    H116892   3.889   4.265   1.800
 5645TIP3    H216893   3.922   4.361   1.911
 5646TIP3   OH216894   0.194   6.806   4.301
 5646TIP3    H116895   0.104   6.834   4.286
 5646TIP3    H216896   0.188   6.746   4.376
 5647TIP3   OH216897   1.285   2.056   5.470
 5647TIP3    H116898   1.212   2.113   5.446
 5647TIP3    H216899   1.362   2.112   5.467
 5648TIP3   OH216900   3.149   6.261   4.941
 5648TIP3    H116901   3.156   6.177   4.897
 5648TIP3    H216902   3.216   6.315   4.900
 5649TIP3   OH216903   1.608   4.201   1.436
 5649TIP3    H116904   1.571   4.287   1.455
 5649TIP3    H216905   1.700   4.208   1.464
 5650TIP3   OH216906   3.557   0.171   1.880
 5650TIP3    H116907   3.563   0.252   1.829
 5650TIP3    H216908   3.590   0.104   1.821
 5651TIP3   OH216909   2.814   2.453   1.028
 5651TIP3    H116910   2.805   2.358   1.025
 5651TIP3    H216911   2.908   2.467   1.045
 5652TIP3   OH216912   8.080   2.107   5.449
 5652TIP3    H116913   8.108   2.067   5.367
 5652TIP3    H216914   8.008   2.165   5.425
 5653TIP3   OH216915   0.817   1.733   4.285
 5653TIP3    H116916   0.744   1.685   4.246
 5653TIP3    H216917   0.781   1.772   4.364
 5654TIP3   OH216918   3.989   3.788   1.762
 5654TIP3    H116919   4.074   3.791   1.717
 5654TIP3    H216920   3.973   3.695   1.776
 5655TIP3   OH216921   2.602   5.755   1.516
 5655TIP3    H116922   2.648   5.684   1.472
 5655TIP3    H216923   2.668   5.824   1.527
 5656TIP3   OH216924   4.885   1.098   5.078
 5656TIP3    H116925   4.947   1.085   5.150
 5656TIP3    H216926   4.858   1.010   5.054
 5657TIP3   OH216927   0.749   3.721   4.440
 5657TIP3    H116928   0.690   3.668   4.387
 5657TIP3    H216929   0.694   3.756   4.510
 5658TIP3   OH216930   2.872   4.165   0.768
 5658TIP3    H116931   2.951   4.187   0.817
 5658TIP3    H216932   2.887   4.077   0.735
 5659TIP3   OH216933   7.480   2.573   3.057
 5659TIP3    H116934   7.456   2.636   2.989
 5659TIP3    H216935   7.399   2.560   3.107
 5660TIP3   OH216936   0.483   5.209   1.228
 5660TIP3    H116937   0.472   5.303   1.218
 5660TIP3    H216938   0.576   5.197   1.246
 5661TIP3   OH216939   8.128   3.761   1.875
 5661TIP3    H116940   8.095   3.687   1.928
 5661TIP3    H216941   8.211   3.729   1.839
 5662TIP3   OH216942   3.028   1.637   3.451
 5662TIP3    H116943   3.123   1.647   3.444
 5662TIP3    H216944   2.992   1.717   3.413
 5663TIP3   OH216945   4.968   1.187   1.706
 5663TIP3    H116946   5.035   1.236   1.754
 5663TIP3    H216947   5.008   1.171   1.620
 5664TIP3   OH216948   6.954   7.684   4.719
 5664TIP3    H116949   6.980   7.723   4.636
 5664TIP3    H216950   6.957   7.757   4.782
 5665TIP3   OH216951   4.119   1.901   0.060
 5665TIP3    H116952   4.068   1.982   0.065
 5665TIP3    H216953   4.101   1.865  -0.027
 5666TIP3   OH216954   7.479   0.125   1.772
 5666TIP3    H116955   7.421   0.184   1.723
 5666TIP3    H216956   7.567   0.154   1.749
 5667TIP3   OH216957   0.447   2.561   4.162
 5667TIP3    H116958   0.427   2.518   4.079
 5667TIP3    H216959   0.540   2.542   4.177
 5668TIP3   OH216960   5.540   2.959   0.368
 5668TIP3    H116961   5.588   3.042   0.370
 5668TIP3    H216962   5.494   2.955   0.452
 5669TIP3   OH216963   7.346   1.643   3.683
 5669TIP3    H116964   7.396   1.564   3.705
 5669TIP3    H216965   7.304   1.622   3.600
 5670TIP3   OH216966   6.596   5.893   5.030
 5670TIP3    H116967   6.597   5.810   5.077
 5670TIP3    H216968   6.673   5.940   5.060
 5671TIP3   OH216969   0.589   5.053   2.816
 5671TIP3    H116970   0.597   4.959   2.834
 5671TIP3    H216971   0.563   5.091   2.900
 5672TIP3   OH216972   4.777   3.905   5.897
 5672TIP3    H116973   4.743   3.965   5.963
 5672TIP3    H216974   4.816   3.834   5.947
 5673TIP3   OH216975   0.641   4.349   3.456
 5673TIP3    H116976   0.558   4.300   3.456
 5673TIP3    H216977   0.643   4.392   3.541
 5674TIP3   OH216978   6.041   1.637   3.848
 5674TIP3    H116979   6.083   1.625   3.763
 5674TIP3    H216980   5.962   1.688   3.828
 5675TIP3   OH216981   4.437   0.121   6.133
 5675TIP3    H116982   4.474   0.034   6.149
 5675TIP3    H216983   4.419   0.156   6.221
 5676TIP3   OH216984   3.491   6.717   4.601
 5676TIP3    H116985   3.440   6.736   4.523
 5676TIP3    H216986   3.430   6.730   4.673
 5677TIP3   OH216987   4.397   7.760   3.572
 5677TIP3    H116988   4.332   7.789   3.636
 5677TIP3    H216989   4.357   7.780   3.487
 5678TIP3   OH216990   2.069   3.296   2.538
 5678TIP3    H116991   2.113   3.228   2.487
 5678TIP3    H216992   2.064   3.260   2.627
 5679TIP3   OH216993   6.026   2.456   1.710
 5679TIP3    H116994   6.069   2.541   1.702
 5679TIP3    H216995   5.953   2.472   1.771
 5680TIP3   OH216996   5.226   2.805   5.544
 5680TIP3    H116997   5.188   2.798   5.632
 5680TIP3    H216998   5.152   2.833   5.489
 5681TIP3   OH216999   5.824   4.236   6.225
 5681TIP3    H117000   5.791   4.146   6.225
 5681TIP3    H217001   5.762   4.284   6.169
 5682TIP3   OH217002   0.524   1.749   0.600
 5682TIP3    H117003   0.457   1.706   0.547
 5682TIP3    H217004   0.591   1.775   0.537
 5683TIP3   OH217005   7.883   5.403   4.359
 5683TIP3    H117006   7.858   5.388   4.450
 5683TIP3    H217007   7.977   5.388   4.357
 5684TIP3   OH217008   3.328   7.658   3.164
 5684TIP3    H117009   3.241   7.655   3.124
 5684TIP3    H217010   3.388   7.636   3.093
 5685TIP3   OH217011   2.654   5.006   1.244
 5685TIP3    H117012   2.702   4.985   1.324
 5685TIP3    H217013   2.575   5.052   1.273
 5686TIP3   OH217014   7.210   1.567   1.660
 5686TIP3    H117015   7.175   1.528   1.580
 5686TIP3    H217016   7.181   1.509   1.730
 5687TIP3   OH217017   7.110   7.804   2.420
 5687TIP3    H117018   7.090   7.728   2.475
 5687TIP3    H217019   7.195   7.783   2.381
 5688TIP3   OH217020   7.109   6.968   1.659
 5688TIP3    H117021   7.138   6.961   1.568
 5688TIP3    H217022   7.183   6.935   1.710
 5689TIP3   OH217023   6.186   5.807   0.337
 5689TIP3    H117024   6.215   5.797   0.246
 5689TIP3    H217025   6.186   5.901   0.353
 5690TIP3   OH217026   8.226   0.236   6.505
 5690TIP3    H117027   8.150   0.207   6.454
 5690TIP3    H217028   8.190   0.260   6.590
 5691TIP3   OH217029   2.194   3.937   3.590
 5691TIP3    H117030   2.140   3.895   3.657
 5691TIP3    H217031   2.132   3.983   3.534
 5692TIP3   OH217032   7.728   1.774   1.950
 5692TIP3    H117033   7.684   1.798   1.869
 5692TIP3    H217034   7.703   1.842   2.012
 5693TIP3   OH217035   5.017   0.235   4.747
 5693TIP3    H117036   4.935   0.279   4.722
 5693TIP3    H217037   5.079   0.260   4.679
 5694TIP3   OH217038   2.230   0.956   2.279
 5694TIP3    H117039   2.144   0.933   2.246
 5694TIP3    H217040   2.214   1.001   2.362
 5695TIP3   OH217041   5.047   3.449   2.712
 5695TIP3    H117042   4.954   3.428   2.724
 5695TIP3    H217043   5.092   3.365   2.725
 5696TIP3   OH217044   3.657   4.945   5.922
 5696TIP3    H117045   3.635   5.026   5.877
 5696TIP3    H217046   3.625   4.957   6.011
 5697TIP3   OH217047   7.212   3.110   4.680
 5697TIP3    H117048   7.236   3.069   4.597
 5697TIP3    H217049   7.295   3.138   4.718
 5698TIP3   OH217050   1.523   0.130   1.983
 5698TIP3    H117051   1.523   0.088   1.897
 5698TIP3    H217052   1.497   0.061   2.044
 5699TIP3   OH217053   0.484   1.220   3.036
 5699TIP3    H117054   0.506   1.130   3.060
 5699TIP3    H217055   0.476   1.218   2.941
 5700TIP3   OH217056   1.827   4.032   2.699
 5700TIP3    H117057   1.743   4.028   2.744
 5700TIP3    H217058   1.846   3.942   2.674
 5701TIP3   OH217059   2.791   5.363   4.827
 5701TIP3    H117060   2.874   5.378   4.780
 5701TIP3    H217061   2.754   5.286   4.784
 5702TIP3   OH217062   5.690   7.283   0.953
 5702TIP3    H117063   5.744   7.204   0.964
 5702TIP3    H217064   5.602   7.250   0.936
 5703TIP3   OH217065   0.181   6.748   5.766
 5703TIP3    H117066   0.090   6.778   5.772
 5703TIP3    H217067   0.220   6.804   5.699
 5704TIP3   OH217068   1.862   2.492   2.571
 5704TIP3    H117069   1.936   2.431   2.569
 5704TIP3    H217070   1.897   2.572   2.533
 5705TIP3   OH217071   3.496   0.447   1.136
 5705TIP3    H117072   3.556   0.392   1.084
 5705TIP3    H217073   3.532   0.445   1.224
 5706TIP3   OH217074   1.992   5.447   1.959
 5706TIP3    H117075   1.959   5.536   1.947
 5706TIP3    H217076   1.963   5.423   2.047
 5707TIP3   OH217077   3.763   0.623   0.497
 5707TIP3    H117078   3.714   0.540   0.491
 5707TIP3    H217079   3.784   0.645   0.406
 5708TIP3   OH217080   3.102   0.400   2.952
 5708TIP3    H117081   3.007   0.414   2.951
 5708TIP3    H217082   3.138   0.473   2.901
 5709TIP3   OH217083   6.666   6.291   2.618
 5709TIP3    H117084   6.571   6.298   2.609
 5709TIP3    H217085   6.684   6.324   2.706
 5710TIP3   OH217086   7.398   6.004   2.579
 5710TIP3    H117087   7.409   5.928   2.522
 5710TIP3    H217088   7.433   6.078   2.529
 5711TIP3   OH217089   4.009   2.954   1.077
 5711TIP3    H117090   4.027   2.896   1.002
 5711TIP3    H217091   4.081   3.017   1.075
 5712TIP3   OH217092   2.740   5.937   0.701
 5712TIP3    H117093   2.716   5.891   0.620
 5712TIP3    H217094   2.658   5.978   0.730
 5713TIP3   OH217095   0.173   4.304   6.777
 5713TIP3    H117096   0.184   4.234   6.712
 5713TIP3    H217097   0.090   4.345   6.754
 5714TIP3   OH217098   0.995   6.170   2.516
 5714TIP3    H117099   0.909   6.193   2.480
 5714TIP3    H217100   0.976   6.111   2.588
 5715TIP3   OH217101   8.075   1.116   6.412
 5715TIP3    H117102   8.112   1.052   6.351
 5715TIP3    H217103   8.061   1.068   6.493
 5716TIP3   OH217104   2.360   3.268   6.092
 5716TIP3    H117105   2.452   3.275   6.117
 5716TIP3    H217106   2.359   3.290   5.998
 5717TIP3   OH217107   5.141   1.231   1.220
 5717TIP3    H117108   5.126   1.322   1.246
 5717TIP3    H217109   5.054   1.192   1.215
 5718TIP3   OH217110   0.669   7.358   2.433
 5718TIP3    H117111   0.736   7.302   2.392
 5718TIP3    H217112   0.709   7.386   2.515
 5719TIP3   OH217113   6.249   3.095   0.775
 5719TIP3    H117114   6.224   3.188   0.769
 5719TIP3    H217115   6.289   3.076   0.690
 5720TIP3   OH217116   1.334   2.521   2.721
 5720TIP3    H117117   1.244   2.508   2.689
 5720TIP3    H217118   1.387   2.527   2.641
 5721TIP3   OH217119   0.278   2.736   4.307
 5721TIP3    H117120   0.249   2.757   4.218
 5721TIP3    H217121   0.341   2.665   4.295
 5722TIP3   OH217122   4.116   4.972   0.503
 5722TIP3    H117123   4.162   4.933   0.578
 5722TIP3    H217124   4.042   5.018   0.542
 5723TIP3   OH217125   0.270   4.343   1.310
 5723TIP3    H117126   0.265   4.247   1.317
 5723TIP3    H217127   0.281   4.372   1.401
 5724TIP3   OH217128   0.419   5.866   3.047
 5724TIP3    H117129   0.472   5.915   2.984
 5724TIP3    H217130   0.339   5.918   3.056
 5725TIP3   OH217131   7.932   1.176   1.740
 5725TIP3    H117132   7.874   1.102   1.757
 5725TIP3    H217133   7.886   1.252   1.777
 5726TIP3   OH217134   6.127   0.734   6.170
 5726TIP3    H117135   6.171   0.767   6.092
 5726TIP3    H217136   6.110   0.811   6.223
 5727TIP3   OH217137   4.187   6.977   4.825
 5727TIP3    H117138   4.223   6.962   4.737
 5727TIP3    H217139   4.242   7.045   4.862
 5728TIP3   OH217140   6.530   2.605   0.291
 5728TIP3    H117141   6.576   2.532   0.249
 5728TIP3    H217142   6.439   2.576   0.296
 5729TIP3   OH217143   2.787   5.318   5.319
 5729TIP3    H117144   2.870   5.290   5.280
 5729TIP3    H217145   2.792   5.287   5.410
 5730TIP3   OH217146   6.988   3.402   4.730
 5730TIP3    H117147   7.007   3.419   4.822
 5730TIP3    H217148   6.937   3.478   4.701
 5731TIP3   OH217149   2.755   5.590   2.161
 5731TIP3    H117150   2.809   5.609   2.084
 5731TIP3    H217151   2.818   5.588   2.234
 5732TIP3   OH217152   6.296   2.231   2.392
 5732TIP3    H117153   6.389   2.235   2.411
 5732TIP3    H217154   6.290   2.229   2.297
 5733TIP3   OH217155   5.584   4.651   0.710
 5733TIP3    H117156   5.625   4.737   0.719
 5733TIP3    H217157   5.516   4.649   0.778
 5734TIP3   OH217158   3.879   7.430   3.081
 5734TIP3    H117159   3.874   7.386   3.166
 5734TIP3    H217160   3.791   7.419   3.044
 5735TIP3   OH217161   2.412   3.400   5.368
 5735TIP3    H117162   2.421   3.455   5.445
 5735TIP3    H217163   2.391   3.461   5.297
 5736TIP3   OH217164   2.558   2.231   5.478
 5736TIP3    H117165   2.490   2.229   5.545
 5736TIP3    H217166   2.540   2.310   5.427
 5737TIP3   OH217167   1.355   7.096   3.631
 5737TIP3    H117168   1.424   7.150   3.593
 5737TIP3    H217169   1.358   7.014   3.581
 5738TIP3   OH217170   2.190   3.084   2.396
 5738TIP3    H117171   2.116   3.043   2.352
 5738TIP3    H217172   2.259   3.018   2.392
 5739TIP3   OH217173   0.976   6.229   2.828
 5739TIP3    H117174   1.065   6.208   2.856
 5739TIP3    H217175   0.937   6.145   2.807
 5740TIP3   OH217176   5.847   0.657   2.259
 5740TIP3    H117177   5.920   0.716   2.241
 5740TIP3    H217178   5.866   0.579   2.206
 5741TIP3   OH217179   3.901   5.683   6.343
 5741TIP3    H117180   3.969   5.740   6.380
 5741TIP3    H217181   3.869   5.731   6.267
 5742TIP3   OH217182   5.960   4.840   3.438
 5742TIP3    H117183   5.915   4.762   3.469
 5742TIP3    H217184   5.910   4.913   3.476
 5743TIP3   OH217185   1.229   3.694   5.978
 5743TIP3    H117186   1.211   3.607   6.013
 5743TIP3    H217187   1.312   3.686   5.932
 5744TIP3   OH217188   1.629   0.657   5.385
 5744TIP3    H117189   1.650   0.628   5.474
 5744TIP3    H217190   1.628   0.753   5.391
 5745TIP3   OH217191   1.817   1.103   2.652
 5745TIP3    H117192   1.728   1.073   2.630
 5745TIP3    H217193   1.853   1.132   2.568
 5746TIP3   OH217194   2.969   2.801   5.523
 5746TIP3    H117195   2.935   2.869   5.580
 5746TIP3    H217196   3.015   2.741   5.581
 5747TIP3   OH217197   8.295   4.625   0.383
 5747TIP3    H117198   8.267   4.540   0.415
 5747TIP3    H217199   8.269   4.687   0.451
 5748TIP3   OH217200   2.946   7.857   1.237
 5748TIP3    H117201   2.888   7.781   1.226
 5748TIP3    H217202   3.034   7.820   1.236
 5749TIP3   OH217203   3.110   1.936   2.100
 5749TIP3    H117204   3.061   1.869   2.053
 5749TIP3    H217205   3.139   1.997   2.032
 5750TIP3   OH217206   6.589   4.219   3.645
 5750TIP3    H117207   6.560   4.283   3.710
 5750TIP3    H217208   6.675   4.191   3.677
 5751TIP3   OH217209   3.247   3.145   3.570
 5751TIP3    H117210   3.320   3.192   3.610
 5751TIP3    H217211   3.284   3.061   3.542
 5752TIP3   OH217212   5.277   2.900  -0.011
 5752TIP3    H117213   5.226   2.925   0.066
 5752TIP3    H217214   5.364   2.878   0.024
 5753TIP3   OH217215   1.227   4.425   3.812
 5753TIP3    H117216   1.236   4.477   3.892
 5753TIP3    H217217   1.184   4.345   3.840
 5754TIP3   OH217218   4.443   6.455   2.494
 5754TIP3    H117219   4.512   6.505   2.452
 5754TIP3    H217220   4.446   6.481   2.586
 5755TIP3   OH217221   6.155   2.529   2.096
 5755TIP3    H117222   6.208   2.590   2.045
 5755TIP3    H217223   6.151   2.567   2.183
 5756TIP3   OH217224   1.261   3.870   1.226
 5756TIP3    H117225   1.335   3.930   1.215
 5756TIP3    H217226   1.295   3.786   1.196
 5757TIP3   OH217227   5.332   4.713   5.552
 5757TIP3    H117228   5.355   4.769   5.478
 5757TIP3    H217229   5.263   4.656   5.518
 5758TIP3   OH217230   7.160   3.478   0.249
 5758TIP3    H117231   7.237   3.438   0.210
 5758TIP3    H217232   7.193   3.553   0.299
 5759TIP3   OH217233   2.729   7.316   2.442
 5759TIP3    H117234   2.656   7.343   2.386
 5759TIP3    H217235   2.687   7.273   2.516
 5760TIP3   OH217236   5.865   1.126   6.503
 5760TIP3    H117237   5.888   1.091   6.589
 5760TIP3    H217238   5.941   1.178   6.477
 5761TIP3   OH217239   2.140   6.166   0.283
 5761TIP3    H117240   2.149   6.084   0.235
 5761TIP3    H217241   2.059   6.156   0.333
 5762TIP3   OH217242   0.946   2.311   2.269
 5762TIP3    H117243   0.896   2.291   2.190
 5762TIP3    H217244   0.918   2.399   2.294
 5763TIP3   OH217245   3.711   5.044   6.662
 5763TIP3    H117246   3.616   5.047   6.655
 5763TIP3    H217247   3.728   5.036   6.756
 5764TIP3   OH217248   2.012   7.168   3.006
 5764TIP3    H117249   2.041   7.247   3.053
 5764TIP3    H217250   2.089   7.112   3.005
 5765TIP3   OH217251   7.178   0.807   2.541
 5765TIP3    H117252   7.142   0.718   2.539
 5765TIP3    H217253   7.273   0.795   2.537
 5766TIP3   OH217254   0.045   1.064   1.835
 5766TIP3    H117255  -0.008   1.110   1.769
 5766TIP3    H217256  -0.013   0.996   1.869
 5767TIP3   OH217257   4.240   4.928   3.782
 5767TIP3    H117258   4.230   4.973   3.866
 5767TIP3    H217259   4.196   4.844   3.794
 5768TIP3   OH217260   5.394   3.634   4.106
 5768TIP3    H117261   5.428   3.547   4.127
 5768TIP3    H217262   5.410   3.686   4.184
 5769TIP3   OH217263   5.668   3.609   3.113
 5769TIP3    H117264   5.656   3.663   3.192
 5769TIP3    H217265   5.749   3.641   3.074
 5770TIP3   OH217266   3.793   7.353   0.942
 5770TIP3    H117267   3.790   7.274   0.996
 5770TIP3    H217268   3.807   7.320   0.853
 5771TIP3   OH217269   0.552   0.801   4.449
 5771TIP3    H117270   0.592   0.718   4.476
 5771TIP3    H217271   0.559   0.800   4.353
 5772TIP3   OH217272   3.284   4.275   2.476
 5772TIP3    H117273   3.337   4.199   2.500
 5772TIP3    H217274   3.333   4.350   2.509
 5773TIP3   OH217275   4.366   4.961   1.976
 5773TIP3    H117276   4.345   5.053   1.961
 5773TIP3    H217277   4.310   4.935   2.049
 5774TIP3   OH217278   1.632   6.880   2.207
 5774TIP3    H117279   1.590   6.821   2.144
 5774TIP3    H217280   1.721   6.846   2.215
 5775TIP3   OH217281   8.191   4.649   5.507
 5775TIP3    H117282   8.212   4.557   5.518
 5775TIP3    H217283   8.112   4.650   5.453
 5776TIP3   OH217284   2.689   3.385   2.293
 5776TIP3    H117285   2.657   3.475   2.283
 5776TIP3    H217286   2.700   3.353   2.203
 5777TIP3   OH217287   7.597   3.570   4.531
 5777TIP3    H117288   7.671   3.589   4.589
 5777TIP3    H217289   7.630   3.500   4.474
 5778TIP3   OH217290   3.114   3.990   3.214
 5778TIP3    H117291   3.168   4.015   3.288
 5778TIP3    H217292   3.024   4.009   3.242
 5779TIP3   OH217293   4.220   6.735   6.198
 5779TIP3    H117294   4.137   6.780   6.181
 5779TIP3    H217295   4.278   6.802   6.232
 5780TIP3   OH217296   3.491   5.844   5.180
 5780TIP3    H117297   3.571   5.843   5.233
 5780TIP3    H217298   3.425   5.802   5.235
 5781TIP3   OH217299   3.463   7.336   0.412
 5781TIP3    H117300   3.464   7.343   0.316
 5781TIP3    H217301   3.453   7.426   0.442
 5782TIP3   OH217302   2.528   1.401   3.493
 5782TIP3    H117303   2.612   1.445   3.478
 5782TIP3    H217304   2.526   1.331   3.428
 5783TIP3   OH217305   7.187   5.993   0.923
 5783TIP3    H117306   7.262   5.933   0.919
 5783TIP3    H217307   7.225   6.078   0.946
 5784TIP3   OH217308   8.083   5.833   1.352
 5784TIP3    H117309   8.171   5.872   1.349
 5784TIP3    H217310   8.085   5.765   1.285
 5785TIP3   OH217311   3.120   6.802   6.413
 5785TIP3    H117312   3.212   6.777   6.413
 5785TIP3    H217313   3.093   6.792   6.322
 5786TIP3   OH217314   4.831   0.419   4.602
 5786TIP3    H117315   4.768   0.427   4.530
 5786TIP3    H217316   4.883   0.499   4.597
 5787TIP3   OH217317   7.140   4.009   6.266
 5787TIP3    H117318   7.215   4.039   6.214
 5787TIP3    H217319   7.154   4.047   6.353
 5788TIP3   OH217320   3.464   3.782   0.975
 5788TIP3    H117321   3.505   3.793   0.890
 5788TIP3    H217322   3.506   3.848   1.031
 5789TIP3   OH217323   4.786   6.052   3.746
 5789TIP3    H117324   4.744   5.973   3.712
 5789TIP3    H217325   4.743   6.069   3.829
 5790TIP3   OH217326   5.446   2.107   4.227
 5790TIP3    H117327   5.402   2.086   4.145
 5790TIP3    H217328   5.499   2.029   4.246
 5791TIP3   OH217329   0.449   4.038   3.695
 5791TIP3    H117330   0.373   3.985   3.720
 5791TIP3    H217331   0.415   4.127   3.689
 5792TIP3   OH217332   5.974   2.596   5.727
 5792TIP3    H117333   5.990   2.689   5.708
 5792TIP3    H217334   5.919   2.596   5.805
 5793TIP3   OH217335   7.578   0.102   4.046
 5793TIP3    H117336   7.540   0.016   4.062
 5793TIP3    H217337   7.544   0.128   3.961
 5794TIP3   OH217338   1.198   7.212   2.405
 5794TIP3    H117339   1.175   7.208   2.498
 5794TIP3    H217340   1.127   7.166   2.361
 5795TIP3   OH217341   0.114   1.372   0.440
 5795TIP3    H117342   0.189   1.328   0.400
 5795TIP3    H217343   0.141   1.391   0.529
 5796TIP3   OH217344   5.730   1.438   0.826
 5796TIP3    H117345   5.689   1.419   0.742
 5796TIP3    H217346   5.823   1.422   0.811
 5797TIP3   OH217347   7.507   1.276   6.715
 5797TIP3    H117348   7.522   1.205   6.652
 5797TIP3    H217349   7.510   1.233   6.800
 5798TIP3   OH217350   6.788   6.920   2.205
 5798TIP3    H117351   6.856   6.884   2.262
 5798TIP3    H217352   6.822   6.907   2.117
 5799TIP3   OH217353   2.100   0.769   3.184
 5799TIP3    H117354   2.116   0.682   3.149
 5799TIP3    H217355   2.177   0.789   3.237
 5800TIP3   OH217356   4.471   0.762   6.018
 5800TIP3    H117357   4.425   0.688   5.979
 5800TIP3    H217358   4.502   0.813   5.943
 5801TIP3   OH217359   3.032   3.015   5.729
 5801TIP3    H117360   3.062   3.095   5.772
 5801TIP3    H217361   2.939   3.009   5.751
 5802TIP3   OH217362   2.905   0.050   1.879
 5802TIP3    H117363   2.844   0.075   1.810
 5802TIP3    H217364   2.869  -0.031   1.915
 5803TIP3   OH217365   7.821   1.248   6.360
 5803TIP3    H117366   7.901   1.202   6.387
 5803TIP3    H217367   7.750   1.196   6.395
 5804TIP3   OH217368   7.430   5.211   2.847
 5804TIP3    H117369   7.410   5.140   2.907
 5804TIP3    H217370   7.525   5.211   2.839
 5805TIP3   OH217371   7.672   5.588   4.335
 5805TIP3    H117372   7.683   5.646   4.260
 5805TIP3    H217373   7.757   5.544   4.344
 5806TIP3   OH217374   6.709   3.046   1.668
 5806TIP3    H117375   6.631   2.995   1.648
 5806TIP3    H217376   6.676   3.129   1.702
 5807TIP3   OH217377   6.683   7.177   3.715
 5807TIP3    H117378   6.761   7.232   3.704
 5807TIP3    H217379   6.704   7.096   3.669
 5808TIP3   OH217380   3.771   0.934   0.695
 5808TIP3    H117381   3.754   0.866   0.760
 5808TIP3    H217382   3.714   0.913   0.622
 5809TIP3   OH217383   2.025   2.851   0.934
 5809TIP3    H117384   2.068   2.873   1.016
 5809TIP3    H217385   2.065   2.768   0.907
 5810TIP3   OH217386   0.025   7.866   0.122
 5810TIP3    H117387  -0.013   7.790   0.079
 5810TIP3    H217388   0.089   7.829   0.184
 5811TIP3   OH217389   8.157   2.563   4.890
 5811TIP3    H117390   8.189   2.476   4.869
 5811TIP3    H217391   8.082   2.577   4.832
 5812TIP3   OH217392   8.100   3.873   0.586
 5812TIP3    H117393   8.035   3.926   0.539
 5812TIP3    H217394   8.158   3.839   0.518
 5813TIP3   OH217395   4.093   6.992   3.020
 5813TIP3    H117396   4.064   6.908   2.986
 5813TIP3    H217397   4.171   6.972   3.071
 5814TIP3   OH217398   4.145   1.232   2.378
 5814TIP3    H117399   4.066   1.179   2.387
 5814TIP3    H217400   4.121   1.317   2.412
 5815TIP3   OH217401   3.374   7.323   1.276
 5815TIP3    H117402   3.318   7.347   1.203
 5815TIP3    H217403   3.463   7.331   1.242
 5816TIP3   OH217404   0.310   7.386   1.020
 5816TIP3    H117405   0.325   7.346   0.935
 5816TIP3    H217406   0.396   7.416   1.048
 5817TIP3   OH217407   1.474   1.886   5.935
 5817TIP3    H117408   1.435   1.938   5.864
 5817TIP3    H217409   1.433   1.800   5.926
 5818TIP3   OH217410   4.308   2.983   6.242
 5818TIP3    H117411   4.307   2.913   6.306
 5818TIP3    H217412   4.398   3.015   6.242
 5819TIP3   OH217413   6.415   4.210   2.121
 5819TIP3    H117414   6.327   4.205   2.159
 5819TIP3    H217415   6.421   4.299   2.087
 5820TIP3   OH217416   2.818   4.778   6.166
 5820TIP3    H117417   2.727   4.760   6.192
 5820TIP3    H217418   2.826   4.873   6.174
 5821TIP3   OH217419   6.409   7.683   5.009
 5821TIP3    H117420   6.493   7.659   4.969
 5821TIP3    H217421   6.405   7.630   5.089
 5822TIP3   OH217422   4.293   7.222   2.485
 5822TIP3    H117423   4.309   7.139   2.441
 5822TIP3    H217424   4.198   7.234   2.480
 5823TIP3   OH217425   2.330   4.246   0.383
 5823TIP3    H117426   2.399   4.288   0.331
 5823TIP3    H217427   2.286   4.318   0.428
 5824TIP3   OH217428   7.033   1.168   6.314
 5824TIP3    H117429   6.995   1.203   6.234
 5824TIP3    H217430   6.959   1.131   6.361
 5825TIP3   OH217431   0.988   5.774   3.080
 5825TIP3    H117432   1.038   5.846   3.041
 5825TIP3    H217433   0.905   5.814   3.105
 5826TIP3   OH217434   3.648   4.019   0.274
 5826TIP3    H117435   3.627   3.991   0.363
 5826TIP3    H217436   3.712   4.090   0.285
 5827TIP3   OH217437   6.611   4.367   6.181
 5827TIP3    H117438   6.570   4.282   6.168
 5827TIP3    H217439   6.694   4.361   6.133
 5828TIP3   OH217440   2.745   5.611   2.714
 5828TIP3    H117441   2.653   5.598   2.690
 5828TIP3    H217442   2.769   5.530   2.760
 5829TIP3   OH217443   5.661   3.645   6.107
 5829TIP3    H117444   5.733   3.586   6.083
 5829TIP3    H217445   5.645   3.697   6.029
 5830TIP3   OH217446   1.461   5.152   2.047
 5830TIP3    H117447   1.556   5.152   2.060
 5830TIP3    H217448   1.449   5.120   1.958
 5831TIP3   OH217449   7.313   4.950   5.540
 5831TIP3    H117450   7.279   4.869   5.578
 5831TIP3    H217451   7.243   5.014   5.554
 5832TIP3   OH217452   7.062   5.460   1.057
 5832TIP3    H117453   7.072   5.380   1.108
 5832TIP3    H217454   7.073   5.531   1.121
 5833TIP3   OH217455   6.088   2.693   6.553
 5833TIP3    H117456   6.088   2.758   6.482
 5833TIP3    H217457   6.004   2.706   6.597
 5834TIP3   OH217458   3.168   0.998   3.715
 5834TIP3    H117459   3.221   0.919   3.706
 5834TIP3    H217460   3.189   1.031   3.802
 5835TIP3   OH217461   2.852   2.611   1.637
 5835TIP3    H117462   2.909   2.599   1.560
 5835TIP3    H217463   2.869   2.533   1.691
 5836TIP3   OH217464   3.991   3.226   3.763
 5836TIP3    H117465   3.998   3.252   3.854
 5836TIP3    H217466   3.901   3.194   3.753
 5837TIP3   OH217467   1.581   7.180   0.647
 5837TIP3    H117468   1.589   7.108   0.584
 5837TIP3    H217469   1.604   7.141   0.731
 5838TIP3   OH217470   1.974   7.543   3.432
 5838TIP3    H117471   1.894   7.502   3.401
 5838TIP3    H217472   1.953   7.637   3.435
 5839TIP3   OH217473   0.086   2.406   1.826
 5839TIP3    H117474   0.028   2.434   1.756
 5839TIP3    H217475   0.095   2.312   1.814
 5840TIP3   OH217476   8.187   0.038   2.423
 5840TIP3    H117477   8.215  -0.043   2.466
 5840TIP3    H217478   8.093   0.044   2.442
 5841TIP3   OH217479   0.076   5.577   0.773
 5841TIP3    H117480  -0.009   5.619   0.764
 5841TIP3    H217481   0.063   5.490   0.735
 5842TIP3   OH217482   1.424   6.148   5.810
 5842TIP3    H117483   1.428   6.239   5.838
 5842TIP3    H217484   1.515   6.119   5.807
 5843TIP3   OH217485   1.565   7.059   4.909
 5843TIP3    H117486   1.581   7.048   5.003
 5843TIP3    H217487   1.472   7.042   4.897
 5844TIP3   OH217488   7.194   4.102   1.239
 5844TIP3    H117489   7.248   4.159   1.294
 5844TIP3    H217490   7.104   4.118   1.268
 5845TIP3   OH217491   7.705   5.888   2.818
 5845TIP3    H117492   7.739   5.973   2.791
 5845TIP3    H217493   7.610   5.900   2.819
 5846TIP3   OH217494   4.095   7.186   1.735
 5846TIP3    H117495   4.112   7.228   1.650
 5846TIP3    H217496   4.003   7.205   1.753
 5847TIP3   OH217497   0.761   4.549   0.283
 5847TIP3    H117498   0.802   4.587   0.360
 5847TIP3    H217499   0.758   4.620   0.219
 5848TIP3   OH217500   6.994   6.213   5.933
 5848TIP3    H117501   6.999   6.295   5.884
 5848TIP3    H217502   6.927   6.227   5.998
 5849TIP3   OH217503   7.876   2.846   0.425
 5849TIP3    H117504   7.913   2.775   0.372
 5849TIP3    H217505   7.890   2.817   0.515
 5850TIP3   OH217506   0.766   1.367   0.116
 5850TIP3    H117507   0.856   1.334   0.120
 5850TIP3    H217508   0.768   1.437   0.050
 5851TIP3   OH217509   5.171   3.474   5.225
 5851TIP3    H117510   5.167   3.528   5.146
 5851TIP3    H217511   5.105   3.406   5.212
 5852TIP3   OH217512   7.141   0.068   0.045
 5852TIP3    H117513   7.146   0.161   0.023
 5852TIP3    H217514   7.231   0.037   0.039
 5853TIP3   OH217515   3.202   0.954   2.877
 5853TIP3    H117516   3.165   0.977   2.792
 5853TIP3    H217517   3.128   0.956   2.937
 5854TIP3   OH217518   4.690   6.719   6.462
 5854TIP3    H117519   4.595   6.712   6.462
 5854TIP3    H217520   4.718   6.671   6.383
 5855TIP3   OH217521   4.020   7.306   3.590
 5855TIP3    H117522   4.088   7.372   3.579
 5855TIP3    H217523   4.058   7.242   3.651
 5856TIP3   OH217524   4.745   3.417   5.287
 5856TIP3    H117525   4.668   3.396   5.340
 5856TIP3    H217526   4.811   3.354   5.316
 5857TIP3   OH217527   0.139   7.173   1.576
 5857TIP3    H117528   0.048   7.164   1.602
 5857TIP3    H217529   0.136   7.176   1.480
 5858TIP3   OH217530   1.148   5.689   4.810
 5858TIP3    H117531   1.068   5.708   4.760
 5858TIP3    H217532   1.206   5.763   4.792
 5859TIP3   OH217533   6.700   0.988   3.747
 5859TIP3    H117534   6.750   0.928   3.803
 5859TIP3    H217535   6.634   0.933   3.706
 5860TIP3   OH217536   3.533   7.693   5.307
 5860TIP3    H117537   3.460   7.752   5.328
 5860TIP3    H217538   3.505   7.607   5.339
 5861TIP3   OH217539   5.310   4.748   6.601
 5861TIP3    H117540   5.375   4.770   6.534
 5861TIP3    H217541   5.225   4.769   6.561
 5862TIP3   OH217542   6.472   7.315   4.230
 5862TIP3    H117543   6.411   7.265   4.284
 5862TIP3    H217544   6.515   7.249   4.175
 5863TIP3   OH217545   0.690   0.068   1.378
 5863TIP3    H117546   0.723  -0.018   1.352
 5863TIP3    H217547   0.683   0.064   1.473
 5864TIP3   OH217548   7.276   0.988   6.780
 5864TIP3    H117549   7.363   0.948   6.782
 5864TIP3    H217550   7.285   1.062   6.720
 5865TIP3   OH217551   8.201   1.344   6.358
 5865TIP3    H117552   8.289   1.318   6.387
 5865TIP3    H217553   8.143   1.277   6.394
 5866TIP3   OH217554   4.457   5.893   6.007
 5866TIP3    H117555   4.487   5.814   6.053
 5866TIP3    H217556   4.474   5.874   5.915
 5867TIP3   OH217557   3.905   1.520   0.861
 5867TIP3    H117558   3.907   1.568   0.778
 5867TIP3    H217559   3.823   1.548   0.903
 5868TIP3   OH217560   1.409   3.779   6.635
 5868TIP3    H117561   1.366   3.864   6.637
 5868TIP3    H217562   1.382   3.740   6.552
 5869TIP3   OH217563   2.361   1.801   1.078
 5869TIP3    H117564   2.365   1.827   1.170
 5869TIP3    H217565   2.427   1.733   1.070
 5870TIP3   OH217566   6.671   5.336   3.835
 5870TIP3    H117567   6.632   5.283   3.766
 5870TIP3    H217568   6.743   5.381   3.792
 5871TIP3   OH217569   1.087   6.286   3.653
 5871TIP3    H117570   1.060   6.359   3.709
 5871TIP3    H217571   1.012   6.227   3.654
 5872TIP3   OH217572   1.503   5.077   4.993
 5872TIP3    H117573   1.424   5.115   4.955
 5872TIP3    H217574   1.477   4.988   5.017
 5873TIP3   OH217575   2.547   3.808   5.836
 5873TIP3    H117576   2.482   3.833   5.770
 5873TIP3    H217577   2.504   3.741   5.888
 5874TIP3   OH217578   8.045   0.049   3.554
 5874TIP3    H117579   8.100   0.008   3.620
 5874TIP3    H217580   7.957   0.017   3.574
 5875TIP3   OH217581   6.304   4.517   5.026
 5875TIP3    H117582   6.345   4.469   4.953
 5875TIP3    H217583   6.210   4.513   5.007
 5876TIP3   OH217584   5.924   2.507   1.442
 5876TIP3    H117585   5.993   2.570   1.422
 5876TIP3    H217586   5.939   2.483   1.533
 5877TIP3   OH217587   0.744   5.616   5.943
 5877TIP3    H117588   0.797   5.694   5.925
 5877TIP3    H217589   0.701   5.597   5.860
 5878TIP3   OH217590   0.552   6.369   4.115
 5878TIP3    H117591   0.546   6.340   4.024
 5878TIP3    H217592   0.603   6.450   4.111
 5879TIP3   OH217593   7.929   2.456   6.090
 5879TIP3    H117594   7.980   2.519   6.141
 5879TIP3    H217595   7.856   2.507   6.055
 5880TIP3   OH217596   8.192   4.403   5.076
 5880TIP3    H117597   8.243   4.480   5.102
 5880TIP3    H217598   8.118   4.401   5.137
 5881TIP3   OH217599   7.080   3.915   6.002
 5881TIP3    H117600   7.075   3.946   6.092
 5881TIP3    H217601   7.082   3.995   5.949
 5882TIP3   OH217602   5.038   3.167   2.646
 5882TIP3    H117603   4.953   3.184   2.606
 5882TIP3    H217604   5.090   3.128   2.576
 5883TIP3   OH217605   6.197   5.850   2.360
 5883TIP3    H117606   6.128   5.790   2.388
 5883TIP3    H217607   6.205   5.835   2.265
 5884TIP3   OH217608   0.818   2.684   3.341
 5884TIP3    H117609   0.841   2.675   3.249
 5884TIP3    H217610   0.746   2.622   3.355
 5885TIP3   OH217611   7.773   0.388   6.087
 5885TIP3    H117612   7.691   0.339   6.077
 5885TIP3    H217613   7.791   0.423   6.000
 5886TIP3   OH217614   3.341   5.670   3.749
 5886TIP3    H117615   3.276   5.601   3.764
 5886TIP3    H217616   3.417   5.642   3.799
 5887TIP3   OH217617   3.766   4.255   2.121
 5887TIP3    H117618   3.850   4.233   2.081
 5887TIP3    H217619   3.789   4.295   2.204
 5888TIP3   OH217620   3.900   0.512   5.046
 5888TIP3    H117621   3.993   0.534   5.047
 5888TIP3    H217622   3.863   0.559   5.120
 5889TIP3   OH217623   5.558   3.023   2.388
 5889TIP3    H117624   5.640   2.988   2.353
 5889TIP3    H217625   5.572   3.118   2.391
 5890TIP3   OH217626   7.622   5.059   5.944
 5890TIP3    H117627   7.579   5.064   5.859
 5890TIP3    H217628   7.703   5.109   5.933
 5891TIP3   OH217629   3.972   5.803   4.330
 5891TIP3    H117630   4.023   5.869   4.376
 5891TIP3    H217631   3.964   5.731   4.393
 5892TIP3   OH217632   0.687   1.722   4.990
 5892TIP3    H117633   0.708   1.650   5.049
 5892TIP3    H217634   0.759   1.722   4.926
 5893TIP3   OH217635   3.306   3.618   3.401
 5893TIP3    H117636   3.217   3.627   3.367
 5893TIP3    H217637   3.314   3.688   3.465
 5894TIP3   OH217638   2.547   2.526   2.286
 5894TIP3    H117639   2.615   2.585   2.252
 5894TIP3    H217640   2.539   2.458   2.219
 5895TIP3   OH217641   5.500   2.060   6.445
 5895TIP3    H117642   5.448   2.058   6.365
 5895TIP3    H217643   5.587   2.088   6.416
 5896TIP3   OH217644   1.606   1.105   0.112
 5896TIP3    H117645   1.518   1.143   0.113
 5896TIP3    H217646   1.645   1.137   0.031
 5897TIP3   OH217647   2.329   7.179   3.164
 5897TIP3    H117648   2.381   7.252   3.131
 5897TIP3    H217649   2.314   7.124   3.087
 5898TIP3   OH217650   2.652   7.303   3.800
 5898TIP3    H117651   2.557   7.301   3.808
 5898TIP3    H217652   2.684   7.325   3.887
 5899TIP3   OH217653   5.806   0.281   3.728
 5899TIP3    H117654   5.737   0.334   3.768
 5899TIP3    H217655   5.766   0.243   3.650
 5900TIP3   OH217656   5.099   6.921   4.178
 5900TIP3    H117657   5.017   6.941   4.133
 5900TIP3    H217658   5.081   6.940   4.270
 5901TIP3   OH217659   7.628   4.546   1.569
 5901TIP3    H117660   7.573   4.561   1.647
 5901TIP3    H217661   7.709   4.509   1.604
 5902TIP3   OH217662   0.119   6.755   0.157
 5902TIP3    H117663   0.198   6.806   0.172
 5902TIP3    H217664   0.125   6.727   0.065
 5903TIP3   OH217665   0.681   7.690   3.888
 5903TIP3    H117666   0.699   7.674   3.981
 5903TIP3    H217667   0.686   7.785   3.879
 5904TIP3   OH217668   7.635   4.284   2.285
 5904TIP3    H117669   7.606   4.347   2.220
 5904TIP3    H217670   7.555   4.255   2.328
 5905TIP3   OH217671   6.012   0.626   6.598
 5905TIP3    H117672   6.105   0.641   6.617
 5905TIP3    H217673   5.965   0.683   6.659
 5906TIP3   OH217674   4.503   2.456   3.768
 5906TIP3    H117675   4.460   2.535   3.800
 5906TIP3    H217676   4.559   2.429   3.841
 5907TIP3   OH217677   0.077   2.013   2.804
 5907TIP3    H117678   0.028   2.042   2.727
 5907TIP3    H217679   0.145   2.079   2.815
 5908TIP3   OH217680   3.523   0.859   6.258
 5908TIP3    H117681   3.456   0.830   6.196
 5908TIP3    H217682   3.473   0.883   6.337
 5909TIP3   OH217683   3.821   6.049   1.807
 5909TIP3    H117684   3.854   6.012   1.889
 5909TIP3    H217685   3.746   6.103   1.832
 5910TIP3   OH217686   2.408   4.753   6.670
 5910TIP3    H117687   2.495   4.734   6.635
 5910TIP3    H217688   2.408   4.713   6.757
 5911TIP3   OH217689   5.653   0.358   2.450
 5911TIP3    H117690   5.607   0.397   2.376
 5911TIP3    H217691   5.675   0.432   2.507
 5912TIP3   OH217692   3.893   5.641   2.358
 5912TIP3    H117693   3.798   5.633   2.362
 5912TIP3    H217694   3.915   5.628   2.266
 5913TIP3   OH217695   2.482   4.538   3.748
 5913TIP3    H117696   2.429   4.460   3.769
 5913TIP3    H217697   2.546   4.506   3.685
 5914TIP3   OH217698   3.065   7.481   2.084
 5914TIP3    H117699   3.023   7.459   2.000
 5914TIP3    H217700   2.993   7.486   2.146
 5915TIP3   OH217701   4.013   6.618   1.348
 5915TIP3    H117702   4.083   6.565   1.385
 5915TIP3    H217703   3.956   6.555   1.303
 5916TIP3   OH217704   7.352   7.673   0.480
 5916TIP3    H117705   7.360   7.597   0.423
 5916TIP3    H217706   7.443   7.695   0.504
 5917TIP3   OH217707   6.983   0.438   2.297
 5917TIP3    H117708   6.979   0.390   2.380
 5917TIP3    H217709   7.053   0.395   2.248
 5918TIP3   OH217710   0.248   4.062   1.341
 5918TIP3    H117711   0.212   4.021   1.420
 5918TIP3    H217712   0.235   3.996   1.273
 5919TIP3   OH217713   7.810   6.234   3.380
 5919TIP3    H117714   7.790   6.157   3.326
 5919TIP3    H217715   7.854   6.295   3.320
 5920TIP3   OH217716   7.414   1.827   1.950
 5920TIP3    H117717   7.325   1.828   1.984
 5920TIP3    H217718   7.466   1.791   2.022
 5921TIP3   OH217719   3.590   6.192   1.851
 5921TIP3    H117720   3.522   6.162   1.790
 5921TIP3    H217721   3.615   6.278   1.819
 5922TIP3   OH217722   6.704   4.371   6.451
 5922TIP3    H117723   6.675   4.409   6.368
 5922TIP3    H217724   6.781   4.318   6.428
 5923TIP3   OH217725   1.827   7.148   0.885
 5923TIP3    H117726   1.907   7.180   0.844
 5923TIP3    H217727   1.834   7.179   0.976
 5924TIP3   OH217728   6.060   1.208   5.061
 5924TIP3    H117729   6.147   1.226   5.095
 5924TIP3    H217730   6.068   1.122   5.019
 5925TIP3   OH217731   2.571   5.885   3.590
 5925TIP3    H117732   2.617   5.910   3.510
 5925TIP3    H217733   2.603   5.796   3.608
 5926TIP3   OH217734   0.366   6.385   6.267
 5926TIP3    H117735   0.390   6.369   6.358
 5926TIP3    H217736   0.449   6.387   6.219
 5927TIP3   OH217737   1.308   7.101   2.934
 5927TIP3    H117738   1.390   7.095   2.885
 5927TIP3    H217739   1.334   7.095   3.026
 5928TIP3   OH217740   2.413   2.899   4.386
 5928TIP3    H117741   2.385   2.956   4.315
 5928TIP3    H217742   2.364   2.818   4.372
 5929TIP3   OH217743   8.030   2.022   5.764
 5929TIP3    H117744   7.967   2.092   5.744
 5929TIP3    H217745   8.091   2.024   5.691
 5930TIP3   OH217746   4.049   3.676   4.003
 5930TIP3    H117747   4.003   3.653   3.922
 5930TIP3    H217748   3.983   3.670   4.071
 5931TIP3   OH217749   7.967   4.487   5.232
 5931TIP3    H117750   7.883   4.446   5.253
 5931TIP3    H217751   7.967   4.569   5.283
 5932TIP3   OH217752   4.777   0.656   5.261
 5932TIP3    H117753   4.749   0.730   5.316
 5932TIP3    H217754   4.811   0.698   5.181
 5933TIP3   OH217755   0.993   2.134   3.908
 5933TIP3    H117756   0.946   2.142   3.826
 5933TIP3    H217757   1.076   2.181   3.893
 5934TIP3   OH217758   7.681   1.085   0.948
 5934TIP3    H117759   7.657   1.112   1.037
 5934TIP3    H217760   7.760   1.032   0.960
 5935TIP3   OH217761   2.211   0.566   5.420
 5935TIP3    H117762   2.274   0.495   5.413
 5935TIP3    H217763   2.137   0.538   5.366
 5936TIP3   OH217764   0.334   6.765   4.970
 5936TIP3    H117765   0.381   6.792   5.049
 5936TIP3    H217766   0.372   6.819   4.901
 5937TIP3   OH217767   8.166   4.219   3.932
 5937TIP3    H117768   8.081   4.185   3.959
 5937TIP3    H217769   8.160   4.225   3.837
 5938TIP3   OH217770   5.879   5.664   0.719
 5938TIP3    H117771   5.828   5.628   0.647
 5938TIP3    H217772   5.970   5.659   0.689
 5939TIP3   OH217773   5.483   4.768   4.858
 5939TIP3    H117774   5.512   4.741   4.945
 5939TIP3    H217775   5.542   4.840   4.834
 5940TIP3   OH217776   6.225   7.354   0.659
 5940TIP3    H117777   6.174   7.308   0.593
 5940TIP3    H217778   6.167   7.360   0.735
 5941TIP3   OH217779   3.494   1.577   6.517
 5941TIP3    H117780   3.471   1.617   6.433
 5941TIP3    H217781   3.589   1.589   6.523
 5942TIP3   OH217782   4.891   5.774   4.469
 5942TIP3    H117783   4.982   5.787   4.495
 5942TIP3    H217784   4.864   5.695   4.516
 5943TIP3   OH217785   6.251   5.701   5.162
 5943TIP3    H117786   6.274   5.678   5.252
 5943TIP3    H217787   6.312   5.650   5.109
 5944TIP3   OH217788   1.899   3.234   5.347
 5944TIP3    H117789   1.964   3.303   5.332
 5944TIP3    H217790   1.816   3.274   5.321
 5945TIP3   OH217791   0.060   2.780   3.374
 5945TIP3    H117792   0.107   2.735   3.444
 5945TIP3    H217793  -0.029   2.791   3.407
 5946TIP3   OH217794   2.760   4.721   1.651
 5946TIP3    H117795   2.766   4.660   1.724
 5946TIP3    H217796   2.676   4.765   1.662
 5947TIP3   OH217797   0.698   3.011   3.757
 5947TIP3    H117798   0.773   3.053   3.715
 5947TIP3    H217799   0.690   2.927   3.712
 5948TIP3   OH217800   4.346   1.912   5.990
 5948TIP3    H117801   4.394   1.995   5.992
 5948TIP3    H217802   4.343   1.888   5.898
 5949TIP3   OH217803   6.137   4.427   6.690
 5949TIP3    H117804   6.098   4.342   6.706
 5949TIP3    H217805   6.165   4.425   6.598
 5950TIP3   OH217806   6.134   7.638   6.447
 5950TIP3    H117807   6.170   7.700   6.383
 5950TIP3    H217808   6.042   7.629   6.422
 5951TIP3   OH217809   1.780   2.613   2.799
 5951TIP3    H117810   1.780   2.699   2.757
 5951TIP3    H217811   1.806   2.552   2.730
 5952TIP3   OH217812   1.187   4.524   1.528
 5952TIP3    H117813   1.217   4.595   1.585
 5952TIP3    H217814   1.094   4.540   1.517
 5953TIP3   OH217815   7.698   2.707   3.214
 5953TIP3    H117816   7.653   2.784   3.248
 5953TIP3    H217817   7.637   2.668   3.152
 5954TIP3   OH217818   3.468   0.075   0.840
 5954TIP3    H117819   3.379   0.054   0.814
 5954TIP3    H217820   3.518   0.074   0.759
 5955TIP3   OH217821   7.981   6.160   2.369
 5955TIP3    H117822   8.074   6.139   2.365
 5955TIP3    H217823   7.937   6.076   2.353
 5956TIP3   OH217824   2.989   4.205   6.421
 5956TIP3    H117825   3.002   4.110   6.410
 5956TIP3    H217826   3.070   4.244   6.388
 5957TIP3   OH217827   6.867   3.348   1.821
 5957TIP3    H117828   6.928   3.326   1.891
 5957TIP3    H217829   6.798   3.283   1.828
 5958TIP3   OH217830   1.117   5.733   1.411
 5958TIP3    H117831   1.162   5.746   1.328
 5958TIP3    H217832   1.179   5.681   1.463
 5959TIP3   OH217833   1.462   1.535   5.539
 5959TIP3    H117834   1.453   1.607   5.477
 5959TIP3    H217835   1.498   1.576   5.618
 5960TIP3   OH217836   4.980   7.164   1.687
 5960TIP3    H117837   4.889   7.148   1.664
 5960TIP3    H217838   4.995   7.110   1.765
 5961TIP3   OH217839   4.384   7.565   2.635
 5961TIP3    H117840   4.289   7.558   2.626
 5961TIP3    H217841   4.418   7.534   2.551
 5962TIP3   OH217842   2.371   7.765   4.534
 5962TIP3    H117843   2.416   7.752   4.450
 5962TIP3    H217844   2.426   7.722   4.598
 5963TIP3   OH217845   2.155   1.656   0.087
 5963TIP3    H117846   2.122   1.745   0.076
 5963TIP3    H217847   2.077   1.603   0.099
 5964TIP3   OH217848   1.631   5.029   6.072
 5964TIP3    H117849   1.687   4.971   6.020
 5964TIP3    H217850   1.646   5.116   6.034
 5965TIP3   OH217851   4.692   2.307   0.218
 5965TIP3    H117852   4.687   2.263   0.133
 5965TIP3    H217853   4.761   2.373   0.206
 5966TIP3   OH217854   2.379   6.486   4.186
 5966TIP3    H117855   2.333   6.566   4.160
 5966TIP3    H217856   2.417   6.453   4.104
 5967TIP3   OH217857   1.840   6.206   1.164
 5967TIP3    H117858   1.927   6.244   1.148
 5967TIP3    H217859   1.787   6.235   1.090
 5968TIP3   OH217860   2.006   5.028   2.163
 5968TIP3    H117861   2.080   5.087   2.145
 5968TIP3    H217862   1.965   5.015   2.077
 5969TIP3   OH217863   3.055   0.355   3.280
 5969TIP3    H117864   3.085   0.269   3.250
 5969TIP3    H217865   3.133   0.397   3.317
 5970TIP3   OH217866   4.145   0.417   0.431
 5970TIP3    H117867   4.103   0.438   0.515
 5970TIP3    H217868   4.082   0.360   0.387
 5971TIP3   OH217869   2.668   4.531   4.157
 5971TIP3    H117870   2.699   4.442   4.143
 5971TIP3    H217871   2.629   4.556   4.073
 5972TIP3   OH217872   4.251   7.775   1.774
 5972TIP3    H117873   4.220   7.714   1.708
 5972TIP3    H217874   4.309   7.835   1.726
 5973TIP3   OH217875   1.568   2.865   6.522
 5973TIP3    H117876   1.518   2.854   6.603
 5973TIP3    H217877   1.659   2.869   6.550
 5974TIP3   OH217878   3.613   2.575   3.876
 5974TIP3    H117879   3.651   2.662   3.890
 5974TIP3    H217880   3.660   2.519   3.938
 5975TIP3   OH217881   5.651   4.789   0.246
 5975TIP3    H117882   5.660   4.850   0.319
 5975TIP3    H217883   5.717   4.722   0.263
 5976TIP3   OH217884   7.121   5.723   3.107
 5976TIP3    H117885   7.125   5.629   3.126
 5976TIP3    H217886   7.174   5.763   3.176
 5977TIP3   OH217887   0.550   2.598   1.239
 5977TIP3    H117888   0.636   2.567   1.270
 5977TIP3    H217889   0.512   2.521   1.196
 5978TIP3   OH217890   4.319   7.808   4.334
 5978TIP3    H117891   4.317   7.799   4.239
 5978TIP3    H217892   4.230   7.790   4.362
 5979TIP3   OH217893   1.054   7.367   0.163
 5979TIP3    H117894   1.064   7.458   0.135
 5979TIP3    H217895   1.136   7.347   0.208
 5980TIP3   OH217896   6.860   4.302   3.062
 5980TIP3    H117897   6.795   4.233   3.050
 5980TIP3    H217898   6.906   4.278   3.143
 5981TIP3   OH217899   4.515   0.482   5.299
 5981TIP3    H117900   4.595   0.525   5.329
 5981TIP3    H217901   4.516   0.493   5.204
 5982TIP3   OH217902   5.250   4.487   1.190
 5982TIP3    H117903   5.253   4.544   1.267
 5982TIP3    H217904   5.213   4.405   1.224
 5983TIP3   OH217905   6.533   7.063   3.156
 5983TIP3    H117906   6.447   7.051   3.116
 5983TIP3    H217907   6.594   7.058   3.082
 5984TIP3   OH217908   0.460   7.281   0.010
 5984TIP3    H117909   0.395   7.284   0.080
 5984TIP3    H217910   0.536   7.238   0.048
 5985TIP3   OH217911   2.199   7.189   4.792
 5985TIP3    H117912   2.240   7.205   4.707
 5985TIP3    H217913   2.107   7.209   4.778
 5986TIP3   OH217914   5.606   6.469   6.567
 5986TIP3    H117915   5.651   6.549   6.540
 5986TIP3    H217916   5.518   6.497   6.591
 5987TIP3   OH217917   6.099   5.522   2.950
 5987TIP3    H117918   6.185   5.481   2.963
 5987TIP3    H217919   6.119   5.615   2.937
 5988TIP3   OH217920   7.964   1.373   3.510
 5988TIP3    H117921   7.959   1.296   3.567
 5988TIP3    H217922   8.057   1.382   3.489
 5989TIP3   OH217923   6.682   5.725   2.634
 5989TIP3    H117924   6.655   5.768   2.715
 5989TIP3    H217925   6.634   5.772   2.565
 5990TIP3   OH217926   5.881   4.114   0.734
 5990TIP3    H117927   5.875   4.020   0.751
 5990TIP3    H217928   5.822   4.154   0.799
 5991TIP3   OH217929   7.732   6.352   6.471
 5991TIP3    H117930   7.752   6.426   6.528
 5991TIP3    H217931   7.812   6.301   6.468
 5992TIP3   OH217932   8.104   3.138   0.978
 5992TIP3    H117933   8.176   3.092   1.021
 5992TIP3    H217934   8.122   3.129   0.884
 5993TIP3   OH217935   2.633   4.003   1.363
 5993TIP3    H117936   2.591   4.047   1.289
 5993TIP3    H217937   2.623   4.063   1.436
 5994TIP3   OH217938   2.703   4.736   0.830
 5994TIP3    H117939   2.736   4.723   0.741
 5994TIP3    H217940   2.780   4.761   0.881
 5995TIP3   OH217941   3.752   3.318   4.023
 5995TIP3    H117942   3.730   3.300   4.114
 5995TIP3    H217943   3.848   3.324   4.022
 5996TIP3   OH217944   6.433   2.038   3.878
 5996TIP3    H117945   6.449   1.962   3.821
 5996TIP3    H217946   6.339   2.035   3.895
 5997TIP3   OH217947   8.325   2.476   0.934
 5997TIP3    H117948   8.285   2.501   0.851
 5997TIP3    H217949   8.290   2.389   0.953
 5998TIP3   OH217950   7.910   6.080   2.760
 5998TIP3    H117951   7.938   6.077   2.852
 5998TIP3    H217952   7.969   6.145   2.720
 5999TIP3   OH217953   6.654   6.931   0.746
 5999TIP3    H117954   6.658   7.025   0.758
 5999TIP3    H217955   6.631   6.918   0.654
 6000TIP3   OH217956   4.101   2.380   2.473
 6000TIP3    H117957   4.066   2.426   2.396
 6000TIP3    H217958   4.105   2.447   2.541
 6001TIP3   OH217959   5.873   5.960   0.800
 6001TIP3    H117960   5.781   5.977   0.821
 6001TIP3    H217961   5.872   5.874   0.758
 6002TIP3   OH217962   7.674   2.998   0.577
 6002TIP3    H117963   7.605   3.064   0.583
 6002TIP3    H217964   7.726   3.025   0.502
 6003TIP3   OH217965   2.223   3.621   2.701
 6003TIP3    H117966   2.269   3.573   2.632
 6003TIP3    H217967   2.131   3.597   2.689
 6004TIP3   OH217968   8.246   1.011   5.589
 6004TIP3    H117969   8.183   1.017   5.517
 6004TIP3    H217970   8.323   1.060   5.558
 6005TIP3   OH217971   6.044   2.321   5.716
 6005TIP3    H117972   6.042   2.411   5.747
 6005TIP3    H217973   6.033   2.328   5.621
 6006TIP3   OH217974   4.303   1.538   3.651
 6006TIP3    H117975   4.276   1.451   3.622
 6006TIP3    H217976   4.287   1.537   3.745
 6007TIP3   OH217977   5.433   7.162   0.941
 6007TIP3    H117978   5.418   7.150   0.847
 6007TIP3    H217979   5.346   7.174   0.978
 6008TIP3   OH217980   7.077   0.523   1.169
 6008TIP3    H117981   7.009   0.574   1.124
 6008TIP3    H217982   7.075   0.437   1.126
 6009TIP3   OH217983   3.247   7.496   4.822
 6009TIP3    H117984   3.229   7.531   4.910
 6009TIP3    H217985   3.328   7.538   4.795
 6010TIP3   OH217986   1.593   3.085   3.121
 6010TIP3    H117987   1.666   3.070   3.061
 6010TIP3    H217988   1.586   3.004   3.171
 6011TIP3   OH217989   1.784   0.876   3.502
 6011TIP3    H117990   1.876   0.853   3.503
 6011TIP3    H217991   1.783   0.971   3.486
 6012TIP3   OH217992   5.836   0.271   1.131
 6012TIP3    H117993   5.816   0.181   1.105
 6012TIP3    H217994   5.789   0.283   1.214
 6013TIP3   OH217995   7.470   1.314   4.381
 6013TIP3    H117996   7.529   1.389   4.387
 6013TIP3    H217997   7.526   1.238   4.396
 6014TIP3   OH217998   6.777   2.301   0.681
 6014TIP3    H117999   6.792   2.324   0.589
 6014TIP3    H218000   6.865   2.283   0.715
 6015TIP3   OH218001   8.277   3.091   3.911
 6015TIP3    H118002   8.274   2.998   3.932
 6015TIP3    H218003   8.304   3.095   3.819
 6016TIP3   OH218004   6.042   1.670   6.178
 6016TIP3    H118005   6.087   1.711   6.104
 6016TIP3    H218006   6.064   1.577   6.172
 6017TIP3   OH218007   7.741   2.470   5.325
 6017TIP3    H118008   7.668   2.456   5.264
 6017TIP3    H218009   7.720   2.552   5.369
 6018TIP3   OH218010   8.001   4.659   5.912
 6018TIP3    H118011   7.949   4.661   5.993
 6018TIP3    H218012   7.941   4.624   5.847
 6019TIP3   OH218013   0.395   5.281   2.075
 6019TIP3    H118014   0.374   5.301   1.984
 6019TIP3    H218015   0.394   5.366   2.119
 6020TIP3   OH218016   0.328   6.491   3.133
 6020TIP3    H118017   0.398   6.474   3.196
 6020TIP3    H218018   0.248   6.474   3.182
 6021TIP3   OH218019   2.072   0.704   5.957
 6021TIP3    H118020   2.121   0.673   5.881
 6021TIP3    H218021   2.140   0.726   6.021
 6022TIP3   OH218022   7.135   3.852   1.354
 6022TIP3    H118023   7.168   3.921   1.296
 6022TIP3    H218024   7.213   3.813   1.391
 6023TIP3   OH218025   7.471   3.919   0.495
 6023TIP3    H118026   7.398   3.964   0.538
 6023TIP3    H218027   7.534   3.988   0.477
 6024TIP3   OH218028   2.615   3.077   2.797
 6024TIP3    H118029   2.611   3.153   2.855
 6024TIP3    H218030   2.533   3.080   2.748
 6025TIP3   OH218031   0.666   3.071   5.117
 6025TIP3    H118032   0.726   3.093   5.046
 6025TIP3    H218033   0.602   3.142   5.118
 6026TIP3   OH218034   2.026   6.218   2.622
 6026TIP3    H118035   1.971   6.173   2.558
 6026TIP3    H218036   2.115   6.191   2.601
 6027TIP3   OH218037   3.371   5.975   4.469
 6027TIP3    H118038   3.314   5.956   4.395
 6027TIP3    H218039   3.456   5.939   4.444
 6028TIP3   OH218040   0.055   4.627   0.845
 6028TIP3    H118041   0.136   4.672   0.822
 6028TIP3    H218042   0.046   4.642   0.939
 6029TIP3   OH218043   7.503   4.173   5.612
 6029TIP3    H118044   7.559   4.129   5.677
 6029TIP3    H218045   7.500   4.264   5.642
 6030TIP3   OH218046   2.853   6.804   3.627
 6030TIP3    H118047   2.802   6.725   3.610
 6030TIP3    H218048   2.794   6.861   3.675
 6031TIP3   OH218049   1.863   6.412   2.437
 6031TIP3    H118050   1.915   6.479   2.481
 6031TIP3    H218051   1.847   6.446   2.349
 6032TIP3   OH218052   2.711   4.116   3.535
 6032TIP3    H118053   2.698   4.042   3.594
 6032TIP3    H218054   2.622   4.143   3.512
 6033TIP3   OH218055   1.657   2.095   0.882
 6033TIP3    H118056   1.703   2.169   0.921
 6033TIP3    H218057   1.566   2.124   0.875
 6034TIP3   OH218058   6.055   1.333   5.482
 6034TIP3    H118059   6.007   1.250   5.485
 6034TIP3    H218060   5.987   1.399   5.470
 6035TIP3   OH218061   4.964   4.958   3.742
 6035TIP3    H118062   5.021   4.893   3.782
 6035TIP3    H218063   5.012   5.041   3.752
 6036TIP3   OH218064   1.055   6.976   6.248
 6036TIP3    H118065   1.134   6.988   6.301
 6036TIP3    H218066   0.995   7.044   6.278
 6037TIP3   OH218067   3.322   1.861   4.931
 6037TIP3    H118068   3.251   1.881   4.870
 6037TIP3    H218069   3.284   1.877   5.018
 6038TIP3   OH218070   4.183   4.683   1.749
 6038TIP3    H118071   4.236   4.620   1.798
 6038TIP3    H218072   4.105   4.634   1.724
 6039TIP3   OH218073   6.705   2.460   2.451
 6039TIP3    H118074   6.629   2.466   2.393
 6039TIP3    H218075   6.753   2.542   2.435
 6040TIP3   OH218076   5.870   2.827   2.903
 6040TIP3    H118077   5.904   2.903   2.951
 6040TIP3    H218078   5.790   2.804   2.950
 6041TIP3   OH218079   0.174   4.642   2.517
 6041TIP3    H118080   0.226   4.705   2.466
 6041TIP3    H218081   0.237   4.578   2.548
 6042TIP3   OH218082   1.684   4.827   0.918
 6042TIP3    H118083   1.751   4.888   0.886
 6042TIP3    H218084   1.610   4.884   0.942
 6043TIP3   OH218085   6.603   5.475   2.544
 6043TIP3    H118086   6.527   5.463   2.602
 6043TIP3    H218087   6.642   5.558   2.573
 6044TIP3   OH218088   3.747   5.032   1.355
 6044TIP3    H118089   3.772   5.007   1.444
 6044TIP3    H218090   3.667   4.982   1.338
 6045TIP3   OH218091   2.404   3.050   2.214
 6045TIP3    H118092   2.320   3.079   2.177
 6045TIP3    H218093   2.462   3.044   2.138
 6046TIP3   OH218094   4.551   4.086   3.994
 6046TIP3    H118095   4.518   3.996   3.999
 6046TIP3    H218096   4.495   4.135   4.054
 6047TIP3   OH218097   7.000   1.328   4.382
 6047TIP3    H118098   7.013   1.418   4.351
 6047TIP3    H218099   6.907   1.324   4.404
 6048TIP3   OH218100   5.489   4.411   1.784
 6048TIP3    H118101   5.518   4.380   1.698
 6048TIP3    H218102   5.538   4.359   1.847
 6049TIP3   OH218103   5.016   6.072   2.444
 6049TIP3    H118104   5.103   6.041   2.469
 6049TIP3    H218105   4.956   6.009   2.485
 6050TIP3   OH218106   0.947   7.078   5.804
 6050TIP3    H118107   0.874   7.041   5.852
 6050TIP3    H218108   0.976   7.152   5.858
 6051TIP3   OH218109   7.109   4.413   3.886
 6051TIP3    H118110   7.139   4.503   3.899
 6051TIP3    H218111   7.175   4.360   3.930
 6052TIP3   OH218112   0.275   0.224   3.001
 6052TIP3    H118113   0.238   0.273   2.927
 6052TIP3    H218114   0.294   0.138   2.965
 6053TIP3   OH218115   6.707   4.265   5.263
 6053TIP3    H118116   6.768   4.213   5.211
 6053TIP3    H218117   6.762   4.310   5.327
 6054TIP3   OH218118   6.938   0.150   6.326
 6054TIP3    H118119   7.018   0.125   6.371
 6054TIP3    H218120   6.923   0.240   6.353
 6055TIP3   OH218121   4.919   4.388   5.461
 6055TIP3    H118122   4.850   4.429   5.514
 6055TIP3    H218123   4.873   4.325   5.406
 6056TIP3   OH218124   4.594   5.929   3.552
 6056TIP3    H118125   4.560   5.840   3.566
 6056TIP3    H218126   4.620   5.929   3.460
 6057TIP3   OH218127   4.897   0.881   0.392
 6057TIP3    H118128   4.941   0.826   0.458
 6057TIP3    H218129   4.919   0.839   0.309
 6058TIP3   OH218130   0.195   1.885   1.450
 6058TIP3    H118131   0.153   1.807   1.486
 6058TIP3    H218132   0.231   1.929   1.527
 6059TIP3   OH218133   4.029   1.044   1.792
 6059TIP3    H118134   4.032   1.025   1.886
 6059TIP3    H218135   4.107   1.001   1.756
 6060TIP3   OH218136   4.275   7.321   2.946
 6060TIP3    H118137   4.339   7.291   2.880
 6060TIP3    H218138   4.322   7.388   2.996
 6061TIP3   OH218139   3.177   3.751   1.224
 6061TIP3    H118140   3.231   3.730   1.147
 6061TIP3    H218141   3.226   3.713   1.297
 6062TIP3   OH218142   0.313   0.078   5.110
 6062TIP3    H118143   0.372   0.021   5.160
 6062TIP3    H218144   0.227   0.065   5.150
 6063TIP3   OH218145   6.974   2.385   2.358
 6063TIP3    H118146   6.890   2.338   2.363
 6063TIP3    H218147   6.950   2.476   2.344
 6064TIP3   OH218148   7.894   3.401   5.861
 6064TIP3    H118149   7.849   3.471   5.907
 6064TIP3    H218150   7.960   3.369   5.922
 6065TIP3   OH218151   2.383   3.813   4.148
 6065TIP3    H118152   2.295   3.813   4.184
 6065TIP3    H218153   2.412   3.722   4.152
 6066TIP3   OH218154   1.132   2.969   4.627
 6066TIP3    H118155   1.142   3.062   4.607
 6066TIP3    H218156   1.044   2.947   4.598
 6067TIP3   OH218157   3.701   3.745   1.771
 6067TIP3    H118158   3.702   3.673   1.707
 6067TIP3    H218159   3.777   3.798   1.747
 6068TIP3   OH218160   1.706   1.648   4.047
 6068TIP3    H118161   1.717   1.576   3.985
 6068TIP3    H218162   1.779   1.639   4.107
 6069TIP3   OH218163   7.958   4.269   5.591
 6069TIP3    H118164   7.950   4.262   5.686
 6069TIP3    H218165   8.050   4.289   5.575
 6070TIP3   OH218166   1.191   0.130   0.477
 6070TIP3    H118167   1.223   0.060   0.420
 6070TIP3    H218168   1.095   0.122   0.473
 6071TIP3   OH218169   2.842   5.902   5.631
 6071TIP3    H118170   2.769   5.845   5.609
 6071TIP3    H218171   2.807   5.991   5.623
 6072TIP3   OH218172   4.750   0.668   3.881
 6072TIP3    H118173   4.776   0.596   3.938
 6072TIP3    H218174   4.705   0.626   3.808
 6073TIP3   OH218175   8.213   0.135   4.350
 6073TIP3    H118176   8.270   0.205   4.383
 6073TIP3    H218177   8.258   0.054   4.373
 6074TIP3   OH218178   7.825   1.244   0.155
 6074TIP3    H118179   7.770   1.266   0.080
 6074TIP3    H218180   7.776   1.275   0.231
 6075TIP3   OH218181   7.254   6.838   5.545
 6075TIP3    H118182   7.342   6.861   5.516
 6075TIP3    H218183   7.239   6.751   5.508
 6076TIP3   OH218184   0.926   3.109   2.945
 6076TIP3    H118185   0.932   3.038   3.010
 6076TIP3    H218186   0.994   3.088   2.880
 6077TIP3   OH218187   7.878   3.551   4.663
 6077TIP3    H118188   7.901   3.462   4.690
 6077TIP3    H218189   7.946   3.576   4.600
 6078TIP3   OH218190   3.882   1.327   4.990
 6078TIP3    H118191   3.937   1.317   5.067
 6078TIP3    H218192   3.911   1.408   4.949
 6079TIP3   OH218193   4.077   1.106   2.090
 6079TIP3    H118194   4.050   1.029   2.142
 6079TIP3    H218195   3.995   1.148   2.065
 6080TIP3   OH218196   7.655   7.074   1.023
 6080TIP3    H118197   7.646   7.034   0.937
 6080TIP3    H218198   7.736   7.037   1.059
 6081TIP3   OH218199   4.094   6.583   3.114
 6081TIP3    H118200   4.059   6.639   3.183
 6081TIP3    H218201   4.164   6.534   3.156
 6082TIP3   OH218202   0.689   4.658   5.519
 6082TIP3    H118203   0.705   4.716   5.594
 6082TIP3    H218204   0.642   4.712   5.456
 6083TIP3   OH218205   4.267   4.607   3.653
 6083TIP3    H118206   4.172   4.607   3.663
 6083TIP3    H218207   4.286   4.684   3.599
 6084TIP3   OH218208   7.975   5.174   5.341
 6084TIP3    H118209   7.896   5.163   5.288
 6084TIP3    H218210   8.040   5.209   5.281
 6085TIP3   OH218211   0.891   5.438   0.677
 6085TIP3    H118212   0.801   5.446   0.711
 6085TIP3    H218213   0.936   5.516   0.710
 6086TIP3   OH218214   3.790   4.688   6.039
 6086TIP3    H118215   3.748   4.772   6.019
 6086TIP3    H218216   3.720   4.624   6.036
 6087TIP3   OH218217   0.236   4.185   5.612
 6087TIP3    H118218   0.166   4.250   5.601
 6087TIP3    H218219   0.190   4.103   5.627
 6088TIP3   OH218220   5.849   5.903   2.176
 6088TIP3    H118221   5.935   5.896   2.134
 6088TIP3    H218222   5.842   5.994   2.203
 6089TIP3   OH218223   7.124   2.580   1.789
 6089TIP3    H118224   7.085   2.494   1.773
 6089TIP3    H218225   7.188   2.564   1.858
 6090TIP3   OH218226   0.386   0.769   5.229
 6090TIP3    H118227   0.304   0.802   5.265
 6090TIP3    H218228   0.359   0.702   5.166
 6091TIP3   OH218229   7.106   4.259   4.793
 6091TIP3    H118230   7.200   4.238   4.794
 6091TIP3    H218231   7.103   4.355   4.790
 6092TIP3   OH218232   6.794   2.401   6.666
 6092TIP3    H118233   6.782   2.491   6.637
 6092TIP3    H218234   6.827   2.409   6.756
 6093TIP3   OH218235   2.804   3.149   6.712
 6093TIP3    H118236   2.745   3.075   6.725
 6093TIP3    H218237   2.865   3.145   6.786
 6094TIP3   OH218238   5.491   4.350   1.172
 6094TIP3    H118239   5.543   4.414   1.123
 6094TIP3    H218240   5.404   4.389   1.177
 6095TIP3   OH218241   7.638   5.234   0.505
 6095TIP3    H118242   7.651   5.152   0.457
 6095TIP3    H218243   7.601   5.294   0.441
 6096TIP3   OH218244   5.266   2.782   0.457
 6096TIP3    H118245   5.325   2.858   0.458
 6096TIP3    H218246   5.301   2.724   0.524
 6097TIP3   OH218247   5.567   6.126   5.477
 6097TIP3    H118248   5.600   6.036   5.485
 6097TIP3    H218249   5.516   6.140   5.556
 6098TIP3   OH218250   0.385   7.277   3.394
 6098TIP3    H118251   0.299   7.234   3.389
 6098TIP3    H218252   0.439   7.215   3.444
 6099TIP3   OH218253   1.536   6.911   4.159
 6099TIP3    H118254   1.511   6.838   4.102
 6099TIP3    H218255   1.496   6.988   4.119
 6100TIP3   OH218256   0.955   4.238   5.032
 6100TIP3    H118257   1.033   4.213   4.984
 6100TIP3    H218258   0.938   4.329   5.006
 6101TIP3   OH218259   2.190   0.005   2.081
 6101TIP3    H118260   2.216   0.037   1.994
 6101TIP3    H218261   2.271  -0.002   2.130
 6102TIP3   OH218262   7.377   7.743   1.526
 6102TIP3    H118263   7.291   7.777   1.552
 6102TIP3    H218264   7.363   7.703   1.441
 6103TIP3   OH218265   6.092   5.233   0.350
 6103TIP3    H118266   6.006   5.241   0.308
 6103TIP3    H218267   6.136   5.316   0.332
 6104TIP3   OH218268   1.662   2.415   3.389
 6104TIP3    H118269   1.607   2.358   3.442
 6104TIP3    H218270   1.630   2.504   3.409
 6105TIP3   OH218271   3.139   1.645   5.395
 6105TIP3    H118272   3.204   1.715   5.392
 6105TIP3    H218273   3.174   1.581   5.456
 6106TIP3   OH218274   4.169   4.463   0.914
 6106TIP3    H118275   4.126   4.501   0.837
 6106TIP3    H218276   4.253   4.509   0.920
 6107TIP3   OH218277   5.579   3.283   3.827
 6107TIP3    H118278   5.493   3.250   3.854
 6107TIP3    H218279   5.623   3.208   3.788
 6108TIP3   OH218280   1.492   2.303   1.834
 6108TIP3    H118281   1.474   2.222   1.787
 6108TIP3    H218282   1.408   2.325   1.877
 6109TIP3   OH218283   4.549   7.707   1.830
 6109TIP3    H118284   4.525   7.703   1.738
 6109TIP3    H218285   4.614   7.777   1.835
 6110TIP3   OH218286   4.352   4.079   5.600
 6110TIP3    H118287   4.334   3.994   5.560
 6110TIP3    H218288   4.406   4.058   5.676
 6111TIP3   OH218289   5.865   5.213   0.196
 6111TIP3    H118290   5.781   5.226   0.239
 6111TIP3    H218291   5.847   5.227   0.103
 6112TIP3   OH218292   5.304   5.262   5.881
 6112TIP3    H118293   5.382   5.214   5.907
 6112TIP3    H218294   5.233   5.197   5.886
 6113TIP3   OH218295   0.552   4.649   3.004
 6113TIP3    H118296   0.631   4.655   3.058
 6113TIP3    H218297   0.547   4.556   2.980
 6114TIP3   OH218298   3.448   1.434   1.305
 6114TIP3    H118299   3.515   1.366   1.306
 6114TIP3    H218300   3.497   1.516   1.311
 6115TIP3   OH218301   5.145   6.952   1.120
 6115TIP3    H118302   5.132   6.928   1.028
 6115TIP3    H218303   5.058   6.978   1.150
 6116TIP3   OH218304   3.470   0.733   5.096
 6116TIP3    H118305   3.541   0.679   5.131
 6116TIP3    H218306   3.390   0.686   5.118
 6117TIP3   OH218307   5.746   6.182  -0.021
 6117TIP3    H118308   5.835   6.203  -0.048
 6117TIP3    H218309   5.752   6.173   0.074
 6118TIP3   OH218310   8.075   0.268   5.201
 6118TIP3    H118311   7.981   0.269   5.222
 6118TIP3    H218312   8.079   0.298   5.110
 6119TIP3   OH218313   6.789   3.470   0.242
 6119TIP3    H118314   6.784   3.450   0.336
 6119TIP3    H218315   6.756   3.559   0.235
 6120TIP3   OH218316   4.175   0.481   5.125
 6120TIP3    H118317   4.151   0.481   5.218
 6120TIP3    H218318   4.248   0.543   5.119
 6121TIP3   OH218319   6.592   1.287   4.928
 6121TIP3    H118320   6.537   1.208   4.928
 6121TIP3    H218321   6.569   1.333   4.848
 6122TIP3   OH218322   6.590   2.593   3.697
 6122TIP3    H118323   6.531   2.590   3.772
 6122TIP3    H218324   6.592   2.504   3.663
 6123TIP3   OH218325   4.707   7.138   5.351
 6123TIP3    H118326   4.777   7.114   5.412
 6123TIP3    H218327   4.697   7.232   5.361
 6124TIP3   OH218328   7.388   0.628   0.902
 6124TIP3    H118329   7.445   0.639   0.825
 6124TIP3    H218330   7.333   0.553   0.880
 6125TIP3   OH218331   1.935   4.998   4.758
 6125TIP3    H118332   2.000   5.067   4.753
 6125TIP3    H218333   1.859   5.039   4.799
 6126TIP3   OH218334   5.188   1.533   2.306
 6126TIP3    H118335   5.100   1.502   2.326
 6126TIP3    H218336   5.192   1.622   2.342
 6127TIP3   OH218337   6.774   0.072   3.262
 6127TIP3    H118338   6.731   0.153   3.288
 6127TIP3    H218339   6.793   0.084   3.169
 6128TIP3   OH218340   2.682   3.640   1.309
 6128TIP3    H118341   2.735   3.606   1.236
 6128TIP3    H218342   2.741   3.636   1.384
 6129TIP3   OH218343   6.633   3.750   3.973
 6129TIP3    H118344   6.674   3.719   3.892
 6129TIP3    H218345   6.699   3.734   4.041
 6130TIP3   OH218346   5.827   7.782   1.876
 6130TIP3    H118347   5.796   7.843   1.809
 6130TIP3    H218348   5.869   7.711   1.827
 6131TIP3   OH218349   7.950   1.134   4.975
 6131TIP3    H118350   7.988   1.192   5.041
 6131TIP3    H218351   7.922   1.193   4.905
 6132TIP3   OH218352   0.421   3.454   3.052
 6132TIP3    H118353   0.372   3.379   3.087
 6132TIP3    H218354   0.500   3.414   3.015
 6133TIP3   OH218355   3.912   1.496   1.165
 6133TIP3    H118356   3.981   1.539   1.114
 6133TIP3    H218357   3.868   1.440   1.102
 6134TIP3   OH218358   7.083   3.484   5.240
 6134TIP3    H118359   7.030   3.512   5.314
 6134TIP3    H218360   7.168   3.463   5.278
 6135TIP3   OH218361   7.311   6.870   4.612
 6135TIP3    H118362   7.253   6.860   4.537
 6135TIP3    H218363   7.337   6.962   4.610
 6136TIP3   OH218364   0.379   7.235   5.277
 6136TIP3    H118365   0.331   7.152   5.284
 6136TIP3    H218366   0.347   7.287   5.350
 6137TIP3   OH218367   1.132   0.235   3.629
 6137TIP3    H118368   1.223   0.266   3.622
 6137TIP3    H218369   1.103   0.225   3.538
 6138TIP3   OH218370   7.702   5.484   2.401
 6138TIP3    H118371   7.739   5.410   2.353
 6138TIP3    H218372   7.669   5.543   2.332
 6139TIP3   OH218373   3.730   3.241   6.082
 6139TIP3    H118374   3.721   3.227   5.988
 6139TIP3    H218375   3.640   3.249   6.114
 6140TIP3   OH218376   7.365   4.206   2.315
 6140TIP3    H118377   7.288   4.155   2.291
 6140TIP3    H218378   7.349   4.292   2.277
 6141TIP3   OH218379   2.267   5.012   0.318
 6141TIP3    H118380   2.273   5.091   0.372
 6141TIP3    H218381   2.315   5.034   0.238
 6142TIP3   OH218382   7.524   0.410   3.605
 6142TIP3    H118383   7.608   0.395   3.562
 6142TIP3    H218384   7.548   0.438   3.694
 6143TIP3   OH218385   7.290   6.041   5.725
 6143TIP3    H118386   7.308   6.115   5.783
 6143TIP3    H218387   7.363   6.040   5.663
 6144TIP3   OH218388   2.461   1.756   1.650
 6144TIP3    H118389   2.370   1.786   1.645
 6144TIP3    H218390   2.458   1.679   1.707
 6145TIP3   OH218391   2.353   7.178   5.554
 6145TIP3    H118392   2.265   7.141   5.560
 6145TIP3    H218393   2.363   7.202   5.462
 6146TIP3   OH218394   6.839   7.496   4.108
 6146TIP3    H118395   6.898   7.554   4.060
 6146TIP3    H218396   6.863   7.506   4.200
 6147TIP3   OH218397   7.686   6.265   4.156
 6147TIP3    H118398   7.732   6.313   4.087
 6147TIP3    H218399   7.608   6.317   4.174
 6148TIP3   OH218400   4.540   0.634   0.932
 6148TIP3    H118401   4.555   0.547   0.895
 6148TIP3    H218402   4.488   0.679   0.865
 6149TIP3   OH218403   5.529   1.876   2.299
 6149TIP3    H118404   5.525   1.871   2.204
 6149TIP3    H218405   5.579   1.799   2.325
 6150TIP3   OH218406   1.342   5.087   1.304
 6150TIP3    H118407   1.410   5.140   1.261
 6150TIP3    H218408   1.311   5.142   1.376
 6151TIP3   OH218409   1.794   1.237   3.675
 6151TIP3    H118410   1.879   1.249   3.632
 6151TIP3    H218411   1.806   1.160   3.731
 6152TIP3   OH218412   0.484   6.675   2.232
 6152TIP3    H118413   0.414   6.632   2.281
 6152TIP3    H218414   0.557   6.682   2.294
 6153TIP3   OH218415   3.628   6.408   4.569
 6153TIP3    H118416   3.666   6.492   4.543
 6153TIP3    H218417   3.603   6.421   4.661
 6154TIP3   OH218418   4.788   0.635   1.865
 6154TIP3    H118419   4.780   0.724   1.830
 6154TIP3    H218420   4.780   0.647   1.960
 6155TIP3   OH218421   5.267   2.118   0.040
 6155TIP3    H118422   5.330   2.051   0.068
 6155TIP3    H218423   5.187   2.099   0.089
 6156TIP3   OH218424   0.611   5.987   0.543
 6156TIP3    H118425   0.522   5.986   0.508
 6156TIP3    H218426   0.653   6.060   0.496
 6157TIP3   OH218427   4.052   6.324   5.838
 6157TIP3    H118428   3.973   6.275   5.814
 6157TIP3    H218429   4.053   6.321   5.934
 6158TIP3   OH218430   6.582   7.549   4.784
 6158TIP3    H118431   6.541   7.463   4.778
 6158TIP3    H218432   6.540   7.600   4.715
 6159TIP3   OH218433   8.259   3.707   0.104
 6159TIP3    H118434   8.186   3.669   0.056
 6159TIP3    H218435   8.331   3.711   0.041
 6160TIP3   OH218436   1.759   3.205   3.498
 6160TIP3    H118437   1.811   3.182   3.420
 6160TIP3    H218438   1.669   3.182   3.474
 6161TIP3   OH218439   7.076   1.141   5.023
 6161TIP3    H118440   7.038   1.183   5.100
 6161TIP3    H218441   7.008   1.080   4.993
 6162TIP3   OH218442   4.908   5.562   0.310
 6162TIP3    H118443   4.919   5.506   0.386
 6162TIP3    H218444   4.883   5.648   0.346
 6163TIP3   OH218445   6.000   3.432   3.866
 6163TIP3    H118446   5.919   3.436   3.917
 6163TIP3    H218447   6.067   3.470   3.923
 6164TIP3   OH218448   7.561   5.895   2.041
 6164TIP3    H118449   7.625   5.888   1.970
 6164TIP3    H218450   7.488   5.944   2.003
 6165TIP3   OH218451   4.807   0.210   5.776
 6165TIP3    H118452   4.811   0.225   5.681
 6165TIP3    H218453   4.876   0.265   5.812
 6166TIP3   OH218454   1.563   6.327   3.723
 6166TIP3    H118455   1.654   6.350   3.744
 6166TIP3    H218456   1.511   6.389   3.774
 6167TIP3   OH218457   3.753   6.997   0.254
 6167TIP3    H118458   3.776   7.056   0.326
 6167TIP3    H218459   3.799   6.915   0.275
 6168TIP3   OH218460   6.347   4.914   2.385
 6168TIP3    H118461   6.437   4.944   2.400
 6168TIP3    H218462   6.306   4.984   2.335
 6169TIP3   OH218463   1.111   1.758   1.175
 6169TIP3    H118464   1.161   1.676   1.177
 6169TIP3    H218465   1.066   1.757   1.091
 6170TIP3   OH218466   3.687   1.361   6.407
 6170TIP3    H118467   3.640   1.336   6.487
 6170TIP3    H218468   3.760   1.300   6.402
 6171TIP3   OH218469   0.843   5.063   5.752
 6171TIP3    H118470   0.818   5.122   5.681
 6171TIP3    H218471   0.774   5.073   5.817
 6172TIP3   OH218472   3.789   2.778   6.162
 6172TIP3    H118473   3.796   2.832   6.241
 6172TIP3    H218474   3.706   2.805   6.122
 6173TIP3   OH218475   1.836   3.589   6.554
 6173TIP3    H118476   1.863   3.573   6.644
 6173TIP3    H218477   1.896   3.536   6.502
 6174TIP3   OH218478   2.547   2.350   0.279
 6174TIP3    H118479   2.552   2.390   0.192
 6174TIP3    H218480   2.460   2.375   0.312
 6175TIP3   OH218481   5.759   2.231   3.117
 6175TIP3    H118482   5.687   2.268   3.169
 6175TIP3    H218483   5.741   2.137   3.114
 6176TIP3   OH218484   0.128   4.831   2.939
 6176TIP3    H118485   0.127   4.762   3.006
 6176TIP3    H218486   0.209   4.816   2.890
 6177TIP3   OH218487   3.399   6.851   2.712
 6177TIP3    H118488   3.449   6.924   2.675
 6177TIP3    H218489   3.424   6.849   2.804
 6178TIP3   OH218490   2.874   0.840   4.088
 6178TIP3    H118491   2.938   0.910   4.099
 6178TIP3    H218492   2.797   0.870   4.137
 6179TIP3   OH218493   5.252   4.362   0.116
 6179TIP3    H118494   5.183   4.401   0.061
 6179TIP3    H218495   5.312   4.322   0.053
 6180TIP3   OH218496   1.914   3.751   3.401
 6180TIP3    H118497   2.000   3.725   3.368
 6180TIP3    H218498   1.862   3.671   3.396
 6181TIP3   OH218499   0.332   7.325   2.257
 6181TIP3    H118500   0.301   7.315   2.167
 6181TIP3    H218501   0.367   7.414   2.260
 6182TIP3   OH218502   1.058   3.347   1.784
 6182TIP3    H118503   0.967   3.353   1.815
 6182TIP3    H218504   1.061   3.263   1.737
 6183TIP3   OH218505   5.766   4.564   1.870
 6183TIP3    H118506   5.766   4.602   1.958
 6183TIP3    H218507   5.694   4.608   1.825
 6184TIP3   OH218508   4.966   0.435   3.884
 6184TIP3    H118509   5.007   0.350   3.902
 6184TIP3    H218510   4.872   0.416   3.880
 6185TIP3   OH218511   0.174   7.017   0.672
 6185TIP3    H118512   0.136   6.931   0.656
 6185TIP3    H218513   0.229   7.034   0.596
 6186TIP3   OH218514   3.909   1.730   4.570
 6186TIP3    H118515   4.004   1.730   4.581
 6186TIP3    H218516   3.876   1.681   4.645
 6187TIP3   OH218517   0.291   1.899   3.393
 6187TIP3    H118518   0.365   1.890   3.453
 6187TIP3    H218519   0.298   1.823   3.334
 6188TIP3   OH218520   0.974   1.882   0.506
 6188TIP3    H118521   0.986   1.905   0.414
 6188TIP3    H218522   0.880   1.893   0.522
 6189TIP3   OH218523   5.226   5.049   3.106
 6189TIP3    H118524   5.241   4.982   3.039
 6189TIP3    H218525   5.310   5.058   3.150
 6190TIP3   OH218526   4.024   1.435   1.469
 6190TIP3    H118527   3.946   1.397   1.430
 6190TIP3    H218528   4.044   1.379   1.544
 6191TIP3   OH218529   7.821   1.015   2.629
 6191TIP3    H118530   7.912   1.002   2.656
 6191TIP3    H218531   7.797   1.101   2.664
 6192TIP3   OH218532   1.422   2.812   1.429
 6192TIP3    H118533   1.490   2.874   1.456
 6192TIP3    H218534   1.452   2.779   1.344
 6193TIP3   OH218535   6.556   7.197   6.070
 6193TIP3    H118536   6.612   7.273   6.086
 6193TIP3    H218537   6.484   7.206   6.133
 6194TIP3   OH218538   5.536   3.463   1.708
 6194TIP3    H118539   5.448   3.477   1.675
 6194TIP3    H218540   5.524   3.433   1.798
 6195TIP3   OH218541   3.950   0.997   6.126
 6195TIP3    H118542   4.023   1.034   6.176
 6195TIP3    H218543   3.896   0.952   6.190
 6196TIP3   OH218544   4.371   0.946   3.378
 6196TIP3    H118545   4.412   0.879   3.432
 6196TIP3    H218546   4.293   0.903   3.342
 6197TIP3   OH218547   0.292   2.429   0.666
 6197TIP3    H118548   0.342   2.444   0.585
 6197TIP3    H218549   0.233   2.505   0.672
 6198TIP3   OH218550   7.511   3.712   5.995
 6198TIP3    H118551   7.437   3.721   5.936
 6198TIP3    H218552   7.472   3.717   6.083
 6199TIP3   OH218553   4.365   4.514   4.905
 6199TIP3    H118554   4.325   4.443   4.954
 6199TIP3    H218555   4.446   4.534   4.952
 6200TIP3   OH218556   2.929   1.108   5.475
 6200TIP3    H118557   2.977   1.058   5.409
 6200TIP3    H218558   2.929   1.198   5.442
 6201TIP3   OH218559   5.253   0.170   6.199
 6201TIP3    H118560   5.240   0.265   6.206
 6201TIP3    H218561   5.172   0.132   6.233
 6202TIP3   OH218562   6.642   4.715   6.497
 6202TIP3    H118563   6.669   4.712   6.406
 6202TIP3    H218564   6.552   4.746   6.495
 6203TIP3   OH218565   3.761   1.016   1.457
 6203TIP3    H118566   3.720   1.101   1.469
 6203TIP3    H218567   3.714   0.958   1.516
 6204TIP3   OH218568   3.932   3.345   4.619
 6204TIP3    H118569   3.950   3.332   4.712
 6204TIP3    H218570   3.889   3.264   4.591
 6205TIP3   OH218571   7.590   4.539   3.662
 6205TIP3    H118572   7.555   4.459   3.622
 6205TIP3    H218573   7.617   4.593   3.587
 6206TIP3   OH218574   1.083   1.729   4.408
 6206TIP3    H118575   1.011   1.751   4.348
 6206TIP3    H218576   1.092   1.635   4.400
 6207TIP3   OH218577   0.226   3.590   5.772
 6207TIP3    H118578   0.258   3.623   5.688
 6207TIP3    H218579   0.215   3.669   5.825
 6208TIP3   OH218580   1.268   1.965   5.735
 6208TIP3    H118581   1.266   1.971   5.639
 6208TIP3    H218582   1.184   1.925   5.758
 6209TIP3   OH218583   2.131   5.407   6.385
 6209TIP3    H118584   2.200   5.456   6.340
 6209TIP3    H218585   2.071   5.473   6.417
 6210TIP3   OH218586   7.503   5.785   0.199
 6210TIP3    H118587   7.497   5.839   0.278
 6210TIP3    H218588   7.577   5.727   0.215
 6211TIP3   OH218589   7.181   4.165   3.115
 6211TIP3    H118590   7.144   4.149   3.202
 6211TIP3    H218591   7.236   4.243   3.127
 6212TIP3   OH218592   7.563   4.615   2.828
 6212TIP3    H118593   7.606   4.573   2.753
 6212TIP3    H218594   7.530   4.543   2.881
 6213TIP3   OH218595   0.949   1.548   1.040
 6213TIP3    H118596   0.876   1.518   0.986
 6213TIP3    H218597   0.991   1.468   1.071
 6214TIP3   OH218598   5.528   5.293   2.838
 6214TIP3    H118599   5.433   5.301   2.836
 6214TIP3    H218600   5.544   5.201   2.859
 6215TIP3   OH218601   5.072   5.699   4.675
 6215TIP3    H118602   5.066   5.785   4.717
 6215TIP3    H218603   5.086   5.638   4.748
 6216TIP3   OH218604   3.233   1.505   2.802
 6216TIP3    H118605   3.294   1.567   2.843
 6216TIP3    H218606   3.237   1.525   2.709
 6217TIP3   OH218607   0.224   5.331   6.151
 6217TIP3    H118608   0.280   5.255   6.131
 6217TIP3    H218609   0.189   5.312   6.238
 6218TIP3   OH218610   6.366   4.908   5.059
 6218TIP3    H118611   6.277   4.873   5.062
 6218TIP3    H218612   6.358   4.986   5.004
 6219TIP3   OH218613   1.077   6.332   6.507
 6219TIP3    H118614   1.134   6.293   6.441
 6219TIP3    H218615   1.069   6.265   6.574
 6220TIP3   OH218616   7.780   1.860   2.388
 6220TIP3    H118617   7.731   1.912   2.324
 6220TIP3    H218618   7.712   1.811   2.435
 6221TIP3   OH218619   6.129   4.013   2.218
 6221TIP3    H118620   6.077   4.083   2.177
 6221TIP3    H218621   6.094   4.007   2.307
 6222TIP3   OH218622   1.916   3.639   4.225
 6222TIP3    H118623   1.843   3.584   4.253
 6222TIP3    H218624   1.912   3.637   4.129
 6223TIP3   OH218625   1.132   2.753   0.831
 6223TIP3    H118626   1.085   2.711   0.904
 6223TIP3    H218627   1.077   2.736   0.755
 6224TIP3   OH218628   3.178   2.709   3.571
 6224TIP3    H118629   3.201   2.724   3.663
 6224TIP3    H218630   3.239   2.765   3.522
 6225TIP3   OH218631   1.698   1.922   1.749
 6225TIP3    H118632   1.754   1.962   1.814
 6225TIP3    H218633   1.664   1.843   1.792
 6226TIP3   OH218634   0.344   0.136   2.197
 6226TIP3    H118635   0.409   0.153   2.129
 6226TIP3    H218636   0.391   0.151   2.280
 6227TIP3   OH218637   7.887   3.444   0.401
 6227TIP3    H118638   7.930   3.529   0.403
 6227TIP3    H218639   7.946   3.385   0.449
 6228TIP3   OH218640   4.375   7.662   4.967
 6228TIP3    H118641   4.312   7.593   4.987
 6228TIP3    H218642   4.451   7.641   5.021
 6229TIP3   OH218643   4.666   2.603   6.455
 6229TIP3    H118644   4.673   2.667   6.526
 6229TIP3    H218645   4.661   2.518   6.499
 6230TIP3   OH218646   7.097   5.492   4.909
 6230TIP3    H118647   7.151   5.547   4.852
 6230TIP3    H218648   7.148   5.484   4.990
 6231TIP3   OH218649   8.154   2.156   1.223
 6231TIP3    H118650   8.174   2.124   1.135
 6231TIP3    H218651   8.199   2.239   1.230
 6232TIP3   OH218652   3.164   7.785   0.165
 6232TIP3    H118653   3.106   7.785   0.089
 6232TIP3    H218654   3.125   7.850   0.224
 6233TIP3   OH218655   5.071   0.212   5.161
 6233TIP3    H118656   4.987   0.190   5.122
 6233TIP3    H218657   5.054   0.288   5.216
 6234TIP3   OH218658   5.438   2.533   3.854
 6234TIP3    H118659   5.531   2.508   3.851
 6234TIP3    H218660   5.420   2.548   3.947
 6235TIP3   OH218661   7.554   6.525   0.404
 6235TIP3    H118662   7.509   6.507   0.487
 6235TIP3    H218663   7.616   6.452   0.394
 6236TIP3   OH218664   3.069   3.499   0.560
 6236TIP3    H118665   3.059   3.520   0.653
 6236TIP3    H218666   3.005   3.556   0.516
 6237TIP3   OH218667   0.430   6.208   0.165
 6237TIP3    H118668   0.514   6.192   0.121
 6237TIP3    H218669   0.372   6.140   0.132
 6238TIP3   OH218670   3.104   4.762   3.581
 6238TIP3    H118671   3.132   4.738   3.670
 6238TIP3    H218672   3.158   4.709   3.524
 6239TIP3   OH218673   6.559   0.744   5.286
 6239TIP3    H118674   6.508   0.725   5.364
 6239TIP3    H218675   6.535   0.676   5.223
 6240TIP3   OH218676   6.664   6.585   5.411
 6240TIP3    H118677   6.756   6.559   5.421
 6240TIP3    H218678   6.627   6.576   5.499
 6241TIP3   OH218679   4.771   0.565   5.839
 6241TIP3    H118680   4.805   0.648   5.805
 6241TIP3    H218681   4.777   0.575   5.934
 6242TIP3   OH218682   4.635   0.746   6.277
 6242TIP3    H118683   4.651   0.836   6.308
 6242TIP3    H218684   4.561   0.754   6.218
 6243TIP3   OH218685   7.783   4.458   6.694
 6243TIP3    H118686   7.859   4.426   6.647
 6243TIP3    H218687   7.784   4.411   6.778
 6244TIP3   OH218688   1.919   0.346   4.462
 6244TIP3    H118689   1.923   0.251   4.471
 6244TIP3    H218690   1.931   0.362   4.368
 6245TIP3   OH218691   3.056   6.105   6.206
 6245TIP3    H118692   3.092   6.178   6.155
 6245TIP3    H218693   2.995   6.146   6.267
 6246TIP3   OH218694   4.818   0.365   3.589
 6246TIP3    H118695   4.875   0.384   3.514
 6246TIP3    H218696   4.826   0.270   3.601
 6247TIP3   OH218697   4.294   2.076   2.895
 6247TIP3    H118698   4.306   1.982   2.887
 6247TIP3    H218699   4.207   2.093   2.860
 6248TIP3   OH218700   4.030   3.580   0.985
 6248TIP3    H118701   4.055   3.569   0.893
 6248TIP3    H218702   4.071   3.506   1.030
 6249TIP3   OH218703   2.475   5.839   2.459
 6249TIP3    H118704   2.435   5.920   2.427
 6249TIP3    H218705   2.565   5.863   2.479
 6250TIP3   OH218706   0.671   2.607   4.636
 6250TIP3    H118707   0.635   2.609   4.725
 6250TIP3    H218708   0.633   2.683   4.592
 6251TIP3   OH218709   1.204   2.001   0.338
 6251TIP3    H118710   1.134   2.007   0.273
 6251TIP3    H218711   1.249   2.085   0.333
 6252TIP3   OH218712   0.760   4.632   0.562
 6252TIP3    H118713   0.735   4.637   0.654
 6252TIP3    H218714   0.806   4.715   0.545
 6253TIP3   OH218715   1.102   4.169   3.890
 6253TIP3    H118716   1.068   4.145   3.976
 6253TIP3    H218717   1.157   4.096   3.863
 6254TIP3   OH218718   4.660   7.690   3.868
 6254TIP3    H118719   4.628   7.779   3.853
 6254TIP3    H218720   4.653   7.679   3.963
 6255TIP3   OH218721   2.673   6.419   0.459
 6255TIP3    H118722   2.634   6.414   0.546
 6255TIP3    H218723   2.610   6.468   0.407
 6256TIP3   OH218724   2.117   2.430   2.912
 6256TIP3    H118725   2.092   2.522   2.918
 6256TIP3    H218726   2.106   2.408   2.819
 6257TIP3   OH218727   2.958   0.387   5.254
 6257TIP3    H118728   2.942   0.418   5.164
 6257TIP3    H218729   3.015   0.311   5.244
 6258TIP3   OH218730   0.532   5.429   6.328
 6258TIP3    H118731   0.594   5.492   6.291
 6258TIP3    H218732   0.460   5.482   6.362
 6259TIP3   OH218733   5.537   4.559   5.081
 6259TIP3    H118734   5.577   4.539   4.996
 6259TIP3    H218735   5.571   4.492   5.140
 6260TIP3   OH218736   3.128   6.614   4.053
 6260TIP3    H118737   3.100   6.655   3.972
 6260TIP3    H218738   3.064   6.544   4.068
 6261TIP3   OH218739   3.690   4.796   3.988
 6261TIP3    H118740   3.737   4.867   4.032
 6261TIP3    H218741   3.701   4.815   3.895
 6262TIP3   OH218742   6.927   7.665   0.934
 6262TIP3    H118743   6.908   7.676   0.841
 6262TIP3    H218744   6.945   7.754   0.965
 6263TIP3   OH218745   4.529   7.148   5.987
 6263TIP3    H118746   4.463   7.145   6.057
 6263TIP3    H218747   4.561   7.238   5.988
 6264TIP3   OH218748   0.210   5.664   4.220
 6264TIP3    H118749   0.191   5.738   4.163
 6264TIP3    H218750   0.136   5.661   4.281
 6265TIP3   OH218751   5.462   3.366   1.967
 6265TIP3    H118752   5.409   3.311   2.024
 6265TIP3    H218753   5.433   3.456   1.987
 6266TIP3   OH218754   4.239   2.986   3.004
 6266TIP3    H118755   4.212   2.897   3.028
 6266TIP3    H218756   4.164   3.041   3.028
 6267TIP3   OH218757   7.579   0.739   1.257
 6267TIP3    H118758   7.655   0.749   1.199
 6267TIP3    H218759   7.524   0.673   1.213
 6268TIP3   OH218760   2.195   5.072   6.038
 6268TIP3    H118761   2.159   5.089   5.951
 6268TIP3    H218762   2.122   5.034   6.087
 6269TIP3   OH218763   2.421   1.461   1.468
 6269TIP3    H118764   2.328   1.481   1.478
 6269TIP3    H218765   2.423   1.367   1.451
 6270TIP3   OH218766   8.075   7.425   1.134
 6270TIP3    H118767   8.077   7.496   1.199
 6270TIP3    H218768   8.030   7.353   1.178
 6271TIP3   OH218769   4.604   0.736   5.492
 6271TIP3    H118770   4.613   0.808   5.554
 6271TIP3    H218771   4.641   0.660   5.539
 6272TIP3   OH218772   6.547   0.287   5.675
 6272TIP3    H118773   6.582   0.206   5.637
 6272TIP3    H218774   6.578   0.356   5.616
 6273TIP3   OH218775   2.422   3.260   0.069
 6273TIP3    H118776   2.483   3.312   0.121
 6273TIP3    H218777   2.456   3.265  -0.020
 6274TIP3   OH218778   7.106   7.646   5.066
 6274TIP3    H118779   7.011   7.653   5.070
 6274TIP3    H218780   7.132   7.622   5.155
 6275TIP3   OH218781   0.803   5.536   2.202
 6275TIP3    H118782   0.773   5.623   2.230
 6275TIP3    H218783   0.895   5.532   2.229
 6276TIP3   OH218784   2.927   2.738   1.159
 6276TIP3    H118785   2.937   2.651   1.199
 6276TIP3    H218786   2.986   2.736   1.084
 6277TIP3   OH218787   4.255   4.561   2.633
 6277TIP3    H118788   4.323   4.626   2.617
 6277TIP3    H218789   4.298   4.492   2.682
 6278TIP3   OH218790   3.991   3.712   3.250
 6278TIP3    H118791   3.912   3.663   3.228
 6278TIP3    H218792   4.033   3.728   3.166
 6279TIP3   OH218793   4.513   6.550   0.374
 6279TIP3    H118794   4.520   6.539   0.469
 6279TIP3    H218795   4.563   6.477   0.338
 6280TIP3   OH218796   5.064   5.550   1.109
 6280TIP3    H118797   5.000   5.604   1.063
 6280TIP3    H218798   5.034   5.551   1.200
 6281TIP3   OH218799   0.380   1.254   6.226
 6281TIP3    H118800   0.383   1.323   6.160
 6281TIP3    H218801   0.397   1.174   6.178
 6282TIP3   OH218802   8.085   4.019   6.418
 6282TIP3    H118803   8.162   3.976   6.454
 6282TIP3    H218804   8.017   4.007   6.483
 6283TIP3   OH218805   1.540   1.542   2.832
 6283TIP3    H118806   1.498   1.496   2.905
 6283TIP3    H218807   1.525   1.486   2.756
 6284TIP3   OH218808   8.334   0.773   1.842
 6284TIP3    H118809   8.252   0.787   1.794
 6284TIP3    H218810   8.306   0.750   1.931
 6285TIP3   OH218811   3.351   5.274   4.857
 6285TIP3    H118812   3.279   5.306   4.911
 6285TIP3    H218813   3.309   5.248   4.774
 6286TIP3   OH218814   6.871   2.071   1.888
 6286TIP3    H118815   6.806   2.008   1.855
 6286TIP3    H218816   6.832   2.105   1.969
 6287TIP3   OH218817   7.173   6.135   5.282
 6287TIP3    H118818   7.237   6.131   5.212
 6287TIP3    H218819   7.104   6.193   5.249
 6288TIP3   OH218820   4.703   6.203   0.046
 6288TIP3    H118821   4.721   6.268  -0.022
 6288TIP3    H218822   4.660   6.131   0.000
 6289TIP3   OH218823   1.822   6.076   0.043
 6289TIP3    H118824   1.851   6.167   0.031
 6289TIP3    H218825   1.903   6.025   0.039
 6290TIP3   OH218826   7.652   1.499   2.345
 6290TIP3    H118827   7.583   1.523   2.406
 6290TIP3    H218828   7.646   1.404   2.337
 6291TIP3   OH218829   7.170   0.068   4.046
 6291TIP3    H118830   7.219   0.120   3.983
 6291TIP3    H218831   7.135   0.132   4.108
 6292TIP3   OH218832   2.868   0.660   4.758
 6292TIP3    H118833   2.830   0.587   4.711
 6292TIP3    H218834   2.881   0.728   4.692
 6293TIP3   OH218835   3.317   3.667   0.440
 6293TIP3    H118836   3.244   3.635   0.387
 6293TIP3    H218837   3.344   3.748   0.399
 6294TIP3   OH218838   4.406   3.182   0.599
 6294TIP3    H118839   4.494   3.205   0.628
 6294TIP3    H218840   4.348   3.220   0.665
 6295TIP3   OH218841   0.705   5.089   3.285
 6295TIP3    H118842   0.761   5.032   3.339
 6295TIP3    H218843   0.644   5.128   3.347
 6296TIP3   OH218844   7.045   0.263   4.395
 6296TIP3    H118845   7.046   0.172   4.365
 6296TIP3    H218846   6.952   0.286   4.400
 6297TIP3   OH218847   0.278   3.783   6.656
 6297TIP3    H118848   0.296   3.700   6.611
 6297TIP3    H218849   0.277   3.848   6.585
 6298TIP3   OH218850   2.891   5.045   0.057
 6298TIP3    H118851   2.834   5.084  -0.010
 6298TIP3    H218852   2.963   5.006   0.008
 6299TIP3   OH218853   5.068   1.885   0.320
 6299TIP3    H118854   5.032   1.867   0.407
 6299TIP3    H218855   5.123   1.962   0.332
 6300TIP3   OH218856   5.025   0.817   4.697
 6300TIP3    H118857   4.980   0.791   4.616
 6300TIP3    H218858   5.028   0.737   4.749
 6301TIP3   OH218859   5.776   4.490   6.587
 6301TIP3    H118860   5.817   4.541   6.657
 6301TIP3    H218861   5.732   4.556   6.533
 6302TIP3   OH218862   5.892   2.401   4.703
 6302TIP3    H118863   5.920   2.345   4.630
 6302TIP3    H218864   5.797   2.398   4.700
 6303TIP3   OH218865   1.209   3.828   4.384
 6303TIP3    H118866   1.226   3.789   4.470
 6303TIP3    H218867   1.125   3.791   4.357
 6304TIP3   OH218868   1.815   3.116   2.676
 6304TIP3    H118869   1.783   3.195   2.718
 6304TIP3    H218870   1.901   3.100   2.716
 6305TIP3   OH218871   5.748   0.102   2.765
 6305TIP3    H118872   5.668   0.116   2.716
 6305TIP3    H218873   5.814   0.155   2.719
 6306TIP3   OH218874   7.545   1.254   5.157
 6306TIP3    H118875   7.498   1.275   5.237
 6306TIP3    H218876   7.484   1.201   5.106
 6307TIP3   OH218877   5.161   6.210   4.668
 6307TIP3    H118878   5.228   6.227   4.734
 6307TIP3    H218879   5.209   6.204   4.586
 6308TIP3   OH218880   5.930   0.917   1.122
 6308TIP3    H118881   5.869   0.845   1.106
 6308TIP3    H218882   5.879   0.982   1.169
 6309TIP3   OH218883   4.975   5.049   0.276
 6309TIP3    H118884   5.003   5.085   0.192
 6309TIP3    H218885   4.881   5.069   0.280
 6310TIP3   OH218886   8.135   5.434   0.941
 6310TIP3    H118887   8.086   5.363   0.982
 6310TIP3    H218888   8.142   5.408   0.849
 6311TIP3   OH218889   2.475   4.122   5.644
 6311TIP3    H118890   2.475   4.212   5.612
 6311TIP3    H218891   2.558   4.113   5.691
 6312TIP3   OH218892   2.155   4.594   5.989
 6312TIP3    H118893   2.211   4.522   6.016
 6312TIP3    H218894   2.126   4.634   6.071
 6313TIP3   OH218895   5.207   7.359   5.795
 6313TIP3    H118896   5.253   7.341   5.877
 6313TIP3    H218897   5.276   7.363   5.729
 6314TIP3   OH218898   6.105   3.861   4.878
 6314TIP3    H118899   6.131   3.788   4.936
 6314TIP3    H218900   6.156   3.848   4.799
 6315TIP3   OH218901   4.034   4.448   2.040
 6315TIP3    H118902   4.125   4.455   2.009
 6315TIP3    H218903   4.010   4.536   2.067
 6316TIP3   OH218904   0.561   3.461   4.769
 6316TIP3    H118905   0.557   3.512   4.850
 6316TIP3    H218906   0.589   3.374   4.797
 6317TIP3   OH218907   6.845   5.094   4.979
 6317TIP3    H118908   6.770   5.097   4.919
 6317TIP3    H218909   6.827   5.019   5.036
 6318TIP3   OH218910   2.605   2.599   6.712
 6318TIP3    H118911   2.652   2.600   6.795
 6318TIP3    H218912   2.523   2.644   6.731
 6319TIP3   OH218913   2.967   2.930   5.124
 6319TIP3    H118914   2.913   3.009   5.126
 6319TIP3    H218915   2.906   2.859   5.144
 6320TIP3   OH218916   7.602   4.603   0.469
 6320TIP3    H118917   7.513   4.569   0.481
 6320TIP3    H218918   7.635   4.556   0.392
 6321TIP3   OH218919   2.391   2.581   2.502
 6321TIP3    H118920   2.470   2.586   2.448
 6321TIP3    H218921   2.385   2.489   2.528
 6322TIP3   OH218922   4.733   1.469   6.323
 6322TIP3    H118923   4.747   1.557   6.288
 6322TIP3    H218924   4.639   1.464   6.340
 6323TIP3   OH218925   3.984   0.404   0.730
 6323TIP3    H118926   4.056   0.385   0.792
 6323TIP3    H218927   3.931   0.324   0.731
 6324TIP3   OH218928   2.806   2.567   4.650
 6324TIP3    H118929   2.901   2.564   4.655
 6324TIP3    H218930   2.782   2.490   4.599
 6325TIP3   OH218931   7.833   0.893   6.328
 6325TIP3    H118932   7.893   0.821   6.347
 6325TIP3    H218933   7.859   0.923   6.241
 6326TIP3   OH218934   6.186   2.848   4.653
 6326TIP3    H118935   6.268   2.872   4.696
 6326TIP3    H218936   6.202   2.759   4.621
 6327TIP3   OH218937   3.431   1.048   1.108
 6327TIP3    H118938   3.370   0.974   1.106
 6327TIP3    H218939   3.513   1.011   1.140
 6328TIP3   OH218940   7.578   3.674   0.511
 6328TIP3    H118941   7.537   3.757   0.486
 6328TIP3    H218942   7.541   3.654   0.597
 6329TIP3   OH218943   2.800   7.155   2.004
 6329TIP3    H118944   2.852   7.189   2.077
 6329TIP3    H218945   2.812   7.060   2.008
 6330TIP3   OH218946   1.381   0.976   5.164
 6330TIP3    H118947   1.315   0.924   5.118
 6330TIP3    H218948   1.333   1.053   5.195
 6331TIP3   OH218949   3.145   0.165   5.294
 6331TIP3    H118950   3.198   0.137   5.369
 6331TIP3    H218951   3.075   0.101   5.290
 6332TIP3   OH218952   2.944   2.594   2.614
 6332TIP3    H118953   2.941   2.665   2.549
 6332TIP3    H218954   2.888   2.624   2.686
 6333TIP3   OH218955   6.277   6.171   3.582
 6333TIP3    H118956   6.205   6.205   3.528
 6333TIP3    H218957   6.311   6.097   3.532
 6334TIP3   OH218958   0.901   1.494   2.819
 6334TIP3    H118959   0.892   1.588   2.804
 6334TIP3    H218960   0.884   1.455   2.734
 6335TIP3   OH218961   0.062   2.126   0.782
 6335TIP3    H118962   0.155   2.143   0.801
 6335TIP3    H218963   0.039   2.189   0.713
 6336TIP3   OH218964   0.755   2.369   2.891
 6336TIP3    H118965   0.837   2.332   2.923
 6336TIP3    H218966   0.717   2.414   2.967
 6337TIP3   OH218967   2.382   6.947   1.592
 6337TIP3    H118968   2.391   6.881   1.523
 6337TIP3    H218969   2.465   6.995   1.589
 6338TIP3   OH218970   5.824   7.152   6.375
 6338TIP3    H118971   5.894   7.216   6.389
 6338TIP3    H218972   5.820   7.141   6.281
 6339TIP3   OH218973   8.064   4.317   3.644
 6339TIP3    H118974   7.995   4.295   3.582
 6339TIP3    H218975   8.121   4.240   3.645
 6340TIP3   OH218976   1.940   0.262   1.308
 6340TIP3    H118977   1.932   0.206   1.385
 6340TIP3    H218978   1.885   0.338   1.327
 6341TIP3   OH218979   3.208   5.342   2.464
 6341TIP3    H118980   3.163   5.305   2.540
 6341TIP3    H218981   3.138   5.382   2.412
 6342TIP3   OH218982   1.872   6.581   1.095
 6342TIP3    H118983   1.931   6.506   1.096
 6342TIP3    H218984   1.806   6.560   1.029
 6343TIP3   OH218985   3.808   2.462   1.104
 6343TIP3    H118986   3.762   2.402   1.163
 6343TIP3    H218987   3.896   2.470   1.142
 6344TIP3   OH218988   6.112   2.987   6.231
 6344TIP3    H118989   6.147   3.042   6.301
 6344TIP3    H218990   6.026   2.959   6.263
 6345TIP3   OH218991   5.371   6.973   6.025
 6345TIP3    H118992   5.355   6.989   5.932
 6345TIP3    H218993   5.394   6.880   6.030
 6346TIP3   OH218994   4.860   4.107   3.376
 6346TIP3    H118995   4.834   4.172   3.442
 6346TIP3    H218996   4.800   4.123   3.303
 6347TIP3   OH218997   1.651   1.105   5.527
 6347TIP3    H118998   1.621   1.192   5.498
 6347TIP3    H218999   1.680   1.119   5.618
 6348TIP3   OH219000   0.643   0.214   0.716
 6348TIP3    H119001   0.655   0.155   0.791
 6348TIP3    H219002   0.625   0.299   0.755
 6349TIP3   OH219003   8.271   3.310   2.177
 6349TIP3    H119004   8.240   3.232   2.131
 6349TIP3    H219005   8.201   3.331   2.240
 6350TIP3   OH219006   1.364   4.096   6.357
 6350TIP3    H119007   1.436   4.112   6.418
 6350TIP3    H219008   1.405   4.053   6.282
 6351TIP3   OH219009   1.742   7.016   4.664
 6351TIP3    H119010   1.687   6.949   4.704
 6351TIP3    H219011   1.683   7.089   4.647
 6352TIP3   OH219012   0.997   2.245   4.608
 6352TIP3    H119013   0.973   2.169   4.659
 6352TIP3    H219014   0.914   2.288   4.587
 6353TIP3   OH219015   6.928   1.090   6.747
 6353TIP3    H119016   7.004   1.050   6.788
 6353TIP3    H219017   6.958   1.176   6.719
 6354TIP3   OH219018   7.112   4.606   5.369
 6354TIP3    H119019   7.149   4.544   5.432
 6354TIP3    H219020   7.078   4.677   5.424
 6355TIP3   OH219021   5.681   0.509   0.243
 6355TIP3    H119022   5.621   0.473   0.308
 6355TIP3    H219023   5.680   0.444   0.172
 6356TIP3   OH219024   4.096   3.765   6.161
 6356TIP3    H119025   4.134   3.827   6.224
 6356TIP3    H219026   4.124   3.679   6.192
 6357TIP3   OH219027   2.391   4.591   1.814
 6357TIP3    H119028   2.387   4.521   1.880
 6357TIP3    H219029   2.395   4.545   1.730
 6358TIP3   OH219030   7.646   7.496   5.192
 6358TIP3    H119031   7.695   7.545   5.258
 6358TIP3    H219032   7.564   7.472   5.236
 6359TIP3   OH219033   2.696   7.570   5.450
 6359TIP3    H119034   2.734   7.655   5.470
 6359TIP3    H219035   2.735   7.510   5.514
 6360TIP3   OH219036   4.766   3.966   0.443
 6360TIP3    H119037   4.715   3.922   0.512
 6360TIP3    H219038   4.796   3.895   0.386
 6361TIP3   OH219039   3.354   0.748   5.410
 6361TIP3    H119040   3.393   0.782   5.491
 6361TIP3    H219041   3.392   0.661   5.400
 6362TIP3   OH219042   1.896   2.465   5.272
 6362TIP3    H119043   1.940   2.380   5.261
 6362TIP3    H219044   1.831   2.468   5.202
 6363TIP3   OH219045   2.297   5.480   6.685
 6363TIP3    H119046   2.252   5.534   6.620
 6363TIP3    H219047   2.234   5.411   6.707
 6364TIP3   OH219048   3.713   1.816   5.955
 6364TIP3    H119049   3.758   1.899   5.969
 6364TIP3    H219050   3.729   1.767   6.036
 6365TIP3   OH219051   7.638   3.932   1.586
 6365TIP3    H119052   7.547   3.901   1.597
 6365TIP3    H219053   7.690   3.868   1.635
 6366TIP3   OH219054   7.534   1.699   5.734
 6366TIP3    H119055   7.577   1.715   5.650
 6366TIP3    H219056   7.606   1.697   5.797
 6367TIP3   OH219057   5.518   3.759   3.277
 6367TIP3    H119058   5.474   3.680   3.306
 6367TIP3    H219059   5.515   3.818   3.352
 6368TIP3   OH219060   4.695   4.769   3.706
 6368TIP3    H119061   4.785   4.782   3.677
 6368TIP3    H219062   4.658   4.857   3.710
 6369TIP3   OH219063   5.436   6.682   2.044
 6369TIP3    H119064   5.434   6.675   1.949
 6369TIP3    H219065   5.467   6.771   2.060
 6370TIP3   OH219066   2.571   4.701   6.239
 6370TIP3    H119067   2.561   4.640   6.166
 6370TIP3    H219068   2.494   4.758   6.233
 6371TIP3   OH219069   1.113   4.628   6.411
 6371TIP3    H119070   1.193   4.659   6.368
 6371TIP3    H219071   1.137   4.544   6.449
 6372TIP3   OH219072   2.449   2.346   2.900
 6372TIP3    H119073   2.543   2.344   2.882
 6372TIP3    H219074   2.443   2.381   2.989
 6373TIP3   OH219075   6.853   1.521   5.099
 6373TIP3    H119076   6.814   1.600   5.137
 6373TIP3    H219077   6.786   1.454   5.109
 6374TIP3   OH219078   5.213   0.880   2.414
 6374TIP3    H119079   5.293   0.934   2.414
 6374TIP3    H219080   5.242   0.794   2.386
 6375TIP3   OH219081   2.982   3.941   4.958
 6375TIP3    H119082   2.984   3.855   4.916
 6375TIP3    H219083   2.961   4.002   4.886
 6376TIP3   OH219084   5.627   7.341   5.030
 6376TIP3    H119085   5.571   7.358   4.953
 6376TIP3    H219086   5.679   7.265   5.005
 6377TIP3   OH219087   3.019   6.769   4.372
 6377TIP3    H119088   2.957   6.747   4.303
 6377TIP3    H219089   2.966   6.770   4.452
 6378TIP3   OH219090   1.169   3.045   0.237
 6378TIP3    H119091   1.263   3.025   0.240
 6378TIP3    H219092   1.128   2.963   0.209
 6379TIP3   OH219093   6.054   0.990   2.474
 6379TIP3    H119094   6.055   1.084   2.492
 6379TIP3    H219095   5.974   0.976   2.423
 6380TIP3   OH219096   4.612   1.902   2.560
 6380TIP3    H119097   4.539   1.958   2.533
 6380TIP3    H219098   4.576   1.813   2.557
 6381TIP3   OH219099   6.393   5.216   0.195
 6381TIP3    H119100   6.389   5.170   0.111
 6381TIP3    H219101   6.367   5.150   0.260
 6382TIP3   OH219102   1.429   2.226   4.867
 6382TIP3    H119103   1.350   2.246   4.816
 6382TIP3    H219104   1.407   2.252   4.956
 6383TIP3   OH219105   1.133   3.843   3.721
 6383TIP3    H119106   1.207   3.796   3.682
 6383TIP3    H219107   1.154   3.846   3.814
 6384TIP3   OH219108   6.829   4.209   4.719
 6384TIP3    H119109   6.839   4.293   4.674
 6384TIP3    H219110   6.902   4.207   4.781
 6385TIP3   OH219111   3.390   7.433   6.402
 6385TIP3    H119112   3.405   7.524   6.429
 6385TIP3    H219113   3.299   7.415   6.427
 6386TIP3   OH219114   7.763   6.505   3.457
 6386TIP3    H119115   7.789   6.414   3.443
 6386TIP3    H219116   7.705   6.503   3.533
 6387TIP3   OH219117   6.029   7.066   5.314
 6387TIP3    H119118   6.049   7.002   5.245
 6387TIP3    H219119   5.977   7.017   5.378
 6388TIP3   OH219120   6.277   2.061   2.685
 6388TIP3    H119121   6.260   1.996   2.753
 6388TIP3    H219122   6.192   2.102   2.669
 6389TIP3   OH219123   6.131   6.730   3.199
 6389TIP3    H119124   6.038   6.734   3.177
 6389TIP3    H219125   6.143   6.640   3.230
 6390TIP3   OH219126   7.507   3.659   3.818
 6390TIP3    H119127   7.416   3.645   3.843
 6390TIP3    H219128   7.514   3.753   3.803
 6391TIP3   OH219129   1.221   1.672   2.622
 6391TIP3    H119130   1.142   1.722   2.602
 6391TIP3    H219131   1.273   1.730   2.679
 6392TIP3   OH219132   3.435   6.663   0.701
 6392TIP3    H119133   3.461   6.723   0.631
 6392TIP3    H219134   3.402   6.721   0.770
 6393TIP3   OH219135   3.654   7.050   2.709
 6393TIP3    H119136   3.615   7.113   2.648
 6393TIP3    H219137   3.682   7.103   2.784
 6394TIP3   OH219138   6.880   1.135   2.804
 6394TIP3    H119139   6.967   1.094   2.801
 6394TIP3    H219140   6.874   1.184   2.722
 6395TIP3   OH219141   2.063   5.964   0.002
 6395TIP3    H119142   2.057   5.870  -0.015
 6395TIP3    H219143   2.142   5.974   0.055
 6396TIP3   OH219144   8.150   1.120   2.896
 6396TIP3    H119145   8.185   1.202   2.860
 6396TIP3    H219146   8.216   1.091   2.958
 6397TIP3   OH219147   6.432   2.318   1.232
 6397TIP3    H119148   6.342   2.286   1.244
 6397TIP3    H219149   6.421   2.412   1.215
 6398TIP3   OH219150   5.029   3.273   3.343
 6398TIP3    H119151   5.046   3.207   3.410
 6398TIP3    H219152   5.058   3.356   3.383
 6399TIP3   OH219153   5.037   6.053   1.522
 6399TIP3    H119154   5.087   6.036   1.601
 6399TIP3    H219155   4.962   5.992   1.527
 6400TIP3   OH219156   2.793   0.083   5.448
 6400TIP3    H119157   2.843   0.065   5.368
 6400TIP3    H219158   2.853   0.135   5.502
 6401TIP3   OH219159   6.164   7.443   0.168
 6401TIP3    H119160   6.147   7.538   0.164
 6401TIP3    H219161   6.082   7.406   0.199
 6402TIP3   OH219162   6.003   2.971   4.484
 6402TIP3    H119163   5.913   2.976   4.516
 6402TIP3    H219164   6.049   2.921   4.551
 6403TIP3   OH219165   3.590   7.326   1.574
 6403TIP3    H119166   3.623   7.403   1.528
 6403TIP3    H219167   3.495   7.335   1.570
 6404TIP3   OH219168   5.579   5.930   4.391
 6404TIP3    H119169   5.494   5.975   4.386
 6404TIP3    H219170   5.629   5.981   4.454
 6405TIP3   OH219171   3.558   5.995   5.883
 6405TIP3    H119172   3.578   6.089   5.890
 6405TIP3    H219173   3.488   5.981   5.946
 6406TIP3   OH219174   1.735   0.844   4.523
 6406TIP3    H119175   1.747   0.749   4.530
 6406TIP3    H219176   1.672   0.866   4.591
 6407TIP3   OH219177   7.553   7.063   5.895
 6407TIP3    H119178   7.628   7.090   5.948
 6407TIP3    H219179   7.511   7.146   5.869
 6408TIP3   OH219180   3.061   7.483   3.449
 6408TIP3    H119181   3.081   7.398   3.410
 6408TIP3    H219182   3.130   7.541   3.417
 6409TIP3   OH219183   6.910   2.397   4.221
 6409TIP3    H119184   6.870   2.335   4.282
 6409TIP3    H219185   6.837   2.449   4.188
 6410TIP3   OH219186   4.320   2.028   6.758
 6410TIP3    H119187   4.359   2.103   6.803
 6410TIP3    H219188   4.226   2.040   6.767
 6411TIP3   OH219189   6.751   3.029   0.289
 6411TIP3    H119190   6.718   2.999   0.374
 6411TIP3    H219191   6.698   2.984   0.224
 6412TIP3   OH219192   8.070   3.433   0.626
 6412TIP3    H119193   8.072   3.342   0.658
 6412TIP3    H219194   8.156   3.446   0.586
 6413TIP3   OH219195   4.337   1.426   4.254
 6413TIP3    H119196   4.253   1.470   4.267
 6413TIP3    H219197   4.388   1.487   4.200
 6414TIP3   OH219198   6.236   6.762   0.071
 6414TIP3    H119199   6.141   6.775   0.068
 6414TIP3    H219200   6.264   6.768  -0.020
 6415TIP3   OH219201   7.180   6.222   4.502
 6415TIP3    H119202   7.206   6.277   4.576
 6415TIP3    H219203   7.192   6.132   4.533
 6416TIP3   OH219204   2.618   5.196   2.760
 6416TIP3    H119205   2.689   5.156   2.711
 6416TIP3    H219206   2.659   5.225   2.842
 6417TIP3   OH219207   2.531   2.333   2.088
 6417TIP3    H119208   2.578   2.263   2.133
 6417TIP3    H219209   2.558   2.325   1.997
 6418TIP3   OH219210   7.413   4.780   0.746
 6418TIP3    H119211   7.408   4.698   0.796
 6418TIP3    H219212   7.472   4.835   0.797
 6419TIP3   OH219213   2.102   5.053   3.353
 6419TIP3    H119214   2.101   4.957   3.354
 6419TIP3    H219215   2.013   5.078   3.327
 6420TIP3   OH219216   0.156   0.618   2.905
 6420TIP3    H119217   0.173   0.617   2.999
 6420TIP3    H219218   0.174   0.528   2.877
 6421TIP3   OH219219   2.661   0.880   4.296
 6421TIP3    H119220   2.635   0.814   4.232
 6421TIP3    H219221   2.582   0.931   4.312
 6422TIP3   OH219222   6.679   6.090   0.792
 6422TIP3    H119223   6.686   6.007   0.745
 6422TIP3    H219224   6.589   6.119   0.775
 6423TIP3   OH219225   5.908   1.463   5.051
 6423TIP3    H119226   5.855   1.467   4.971
 6423TIP3    H219227   5.948   1.376   5.050
 6424TIP3   OH219228   2.831   6.797   0.514
 6424TIP3    H119229   2.927   6.801   0.513
 6424TIP3    H219230   2.806   6.786   0.422
 6425TIP3   OH219231   6.403   6.025   2.120
 6425TIP3    H119232   6.415   5.933   2.140
 6425TIP3    H219233   6.468   6.044   2.052
 6426TIP3   OH219234   4.653   6.266   3.582
 6426TIP3    H119235   4.578   6.230   3.629
 6426TIP3    H219236   4.729   6.220   3.619
 6427TIP3   OH219237   5.519   0.043   3.757
 6427TIP3    H119238   5.448   0.050   3.692
 6427TIP3    H219239   5.506   0.119   3.814
 6428TIP3   OH219240   3.598   2.749   1.627
 6428TIP3    H119241   3.535   2.820   1.637
 6428TIP3    H219242   3.683   2.790   1.642
 6429TIP3   OH219243   2.565   2.791   2.696
 6429TIP3    H119244   2.567   2.759   2.606
 6429TIP3    H219245   2.523   2.877   2.690
 6430TIP3   OH219246   5.980   3.942   5.584
 6430TIP3    H119247   5.941   3.855   5.591
 6430TIP3    H219248   5.931   3.996   5.647
 6431TIP3   OH219249   1.072   6.426   0.538
 6431TIP3    H119250   1.159   6.465   0.542
 6431TIP3    H219251   1.024   6.467   0.610
 6432TIP3   OH219252   1.494   7.764   4.832
 6432TIP3    H119253   1.512   7.684   4.881
 6432TIP3    H219254   1.510   7.835   4.894
 6433TIP3   OH219255   0.242   5.140   0.119
 6433TIP3    H119256   0.183   5.215   0.131
 6433TIP3    H219257   0.298   5.141   0.196
 6434TIP3   OH219258   7.075   6.151   2.066
 6434TIP3    H119259   7.078   6.104   1.983
 6434TIP3    H219260   6.994   6.202   2.062
 6435TIP3   OH219261   1.737   0.637   2.336
 6435TIP3    H119262   1.658   0.583   2.330
 6435TIP3    H219263   1.771   0.640   2.246
 6436TIP3   OH219264   7.955   3.742   6.121
 6436TIP3    H119265   7.895   3.702   6.059
 6436TIP3    H219266   7.904   3.811   6.163
 6437TIP3   OH219267   6.739   2.787   5.935
 6437TIP3    H119268   6.683   2.733   5.879
 6437TIP3    H219269   6.679   2.829   5.996
 6438TIP3   OH219270   0.671   2.105   1.731
 6438TIP3    H119271   0.744   2.055   1.695
 6438TIP3    H219272   0.654   2.064   1.816
 6439TIP3   OH219273   1.295   0.925   0.330
 6439TIP3    H119274   1.306   1.014   0.366
 6439TIP3    H219275   1.381   0.885   0.340
 6440TIP3   OH219276   4.073   3.735   2.046
 6440TIP3    H119277   4.064   3.700   1.958
 6440TIP3    H219278   4.127   3.813   2.035
 6441TIP3   OH219279   8.139   3.900   5.357
 6441TIP3    H119280   8.155   3.831   5.293
 6441TIP3    H219281   8.196   3.879   5.431
 6442TIP3   OH219282   3.073   3.291   1.182
 6442TIP3    H119283   3.013   3.365   1.182
 6442TIP3    H219284   3.096   3.278   1.274
 6443TIP3   OH219285   4.643   7.065   0.688
 6443TIP3    H119286   4.669   7.038   0.600
 6443TIP3    H219287   4.557   7.026   0.701
 6444TIP3   OH219288   1.707   2.492   5.508
 6444TIP3    H119289   1.637   2.558   5.515
 6444TIP3    H219290   1.698   2.440   5.588
 6445TIP3   OH219291   5.756   3.358   5.950
 6445TIP3    H119292   5.777   3.265   5.940
 6445TIP3    H219293   5.833   3.395   5.994
 6446TIP3   OH219294   0.100   6.106   0.037
 6446TIP3    H119295   0.129   6.046  -0.031
 6446TIP3    H219296   0.117   6.059   0.119
 6447TIP3   OH219297   5.376   6.401   4.856
 6447TIP3    H119298   5.392   6.478   4.801
 6447TIP3    H219299   5.460   6.356   4.860
 6448TIP3   OH219300   6.704   7.759   0.042
 6448TIP3    H119301   6.612   7.745   0.018
 6448TIP3    H219302   6.750   7.766  -0.041
 6449TIP3   OH219303   5.994   3.314   0.264
 6449TIP3    H119304   5.954   3.315   0.177
 6449TIP3    H219305   5.965   3.396   0.305
 6450TIP3   OH219306   4.761   5.581   4.628
 6450TIP3    H119307   4.730   5.665   4.661
 6450TIP3    H219308   4.772   5.527   4.707
 6451TIP3   OH219309   7.219   6.413   3.570
 6451TIP3    H119310   7.207   6.504   3.544
 6451TIP3    H219311   7.175   6.406   3.655
 6452TIP3   OH219312   4.435   3.685   3.322
 6452TIP3    H119313   4.448   3.780   3.322
 6452TIP3    H219314   4.368   3.670   3.388
 6453TIP3   OH219315   2.838   5.351   6.000
 6453TIP3    H119316   2.904   5.410   6.037
 6453TIP3    H219317   2.761   5.365   6.054
 6454TIP3   OH219318   0.738   6.496   5.803
 6454TIP3    H119319   0.717   6.402   5.807
 6454TIP3    H219320   0.832   6.500   5.823
 6455TIP3   OH219321   8.081   3.822   4.118
 6455TIP3    H119322   8.131   3.749   4.082
 6455TIP3    H219323   8.036   3.860   4.043
 6456TIP3   OH219324   8.111   2.815   3.499
 6456TIP3    H119325   8.080   2.903   3.518
 6456TIP3    H219326   8.032   2.767   3.473
 6457TIP3   OH219327   0.949   5.170   1.531
 6457TIP3    H119328   0.879   5.156   1.595
 6457TIP3    H219329   0.944   5.264   1.512
 6458TIP3   OH219330   6.121   3.221   1.681
 6458TIP3    H119331   6.202   3.246   1.635
 6458TIP3    H219332   6.055   3.282   1.648
 6459TIP3   OH219333   5.656   4.769   3.010
 6459TIP3    H119334   5.638   4.692   3.064
 6459TIP3    H219335   5.751   4.782   3.019
 6460TIP3   OH219336   1.251   7.449   3.663
 6460TIP3    H119337   1.343   7.436   3.683
 6460TIP3    H219338   1.222   7.516   3.727
 6461TIP3   OH219339   3.091   3.525   0.940
 6461TIP3    H119340   3.096   3.608   0.893
 6461TIP3    H219341   3.181   3.494   0.945
 6462TIP3   OH219342   5.190   0.708   6.127
 6462TIP3    H119343   5.108   0.753   6.147
 6462TIP3    H219344   5.174   0.617   6.149
 6463TIP3   OH219345   5.069   4.451   2.014
 6463TIP3    H119346   5.068   4.459   2.109
 6463TIP3    H219347   5.075   4.357   1.997
 6464TIP3   OH219348   4.133   7.802   5.179
 6464TIP3    H119349   4.155   7.734   5.243
 6464TIP3    H219350   4.160   7.884   5.221
 6465TIP3   OH219351   5.327   7.474   0.589
 6465TIP3    H119352   5.289   7.405   0.534
 6465TIP3    H219353   5.420   7.453   0.593
 6466TIP3   OH219354   8.199   0.414   4.110
 6466TIP3    H119355   8.152   0.350   4.056
 6466TIP3    H219356   8.204   0.374   4.197
 6467TIP3   OH219357   5.679   5.223   6.296
 6467TIP3    H119358   5.746   5.246   6.361
 6467TIP3    H219359   5.716   5.252   6.213
 6468TIP3   OH219360   1.811   5.213   0.301
 6468TIP3    H119361   1.749   5.284   0.292
 6468TIP3    H219362   1.757   5.135   0.316
 6469TIP3   OH219363   1.553   7.675   1.613
 6469TIP3    H119364   1.506   7.608   1.564
 6469TIP3    H219365   1.497   7.694   1.688
 6470TIP3   OH219366   3.691   5.882   5.621
 6470TIP3    H119367   3.724   5.967   5.651
 6470TIP3    H219368   3.625   5.857   5.686
 6471TIP3   OH219369   5.227   4.776   4.763
 6471TIP3    H119370   5.310   4.766   4.811
 6471TIP3    H219371   5.226   4.867   4.735
 6472TIP3   OH219372   0.499   3.148   6.277
 6472TIP3    H119373   0.423   3.130   6.222
 6472TIP3    H219374   0.574   3.144   6.216
 6473TIP3   OH219375   1.033   5.669   2.575
 6473TIP3    H119376   1.008   5.605   2.642
 6473TIP3    H219377   1.076   5.739   2.624
 6474TIP3   OH219378   3.283   7.607   6.722
 6474TIP3    H119379   3.248   7.518   6.722
 6474TIP3    H219380   3.377   7.596   6.736
 6475TIP3   OH219381   5.707   3.035   6.463
 6475TIP3    H119382   5.624   3.070   6.429
 6475TIP3    H219383   5.743   3.106   6.516
 6476TIP3   OH219384   6.090   3.419   2.267
 6476TIP3    H119385   6.093   3.508   2.234
 6476TIP3    H219386   6.171   3.409   2.317
 6477TIP3   OH219387   1.692   2.543   3.864
 6477TIP3    H119388   1.709   2.450   3.848
 6477TIP3    H219389   1.743   2.564   3.943
 6478TIP3   OH219390   5.724   1.388   2.364
 6478TIP3    H119391   5.630   1.387   2.377
 6478TIP3    H219392   5.761   1.383   2.452
 6479TIP3   OH219393   3.445   6.209   5.254
 6479TIP3    H119394   3.422   6.155   5.330
 6479TIP3    H219395   3.538   6.192   5.238
 6480TIP3   OH219396   7.594   3.914   3.716
 6480TIP3    H119397   7.681   3.942   3.689
 6480TIP3    H219398   7.591   3.932   3.810
 6481TIP3   OH219399   4.069   3.504   0.722
 6481TIP3    H119400   4.012   3.428   0.709
 6481TIP3    H219401   4.120   3.511   0.642
 6482TIP3   OH219402   3.494   4.795   5.255
 6482TIP3    H119403   3.438   4.718   5.270
 6482TIP3    H219404   3.568   4.761   5.206
 6483TIP3   OH219405   3.942   2.586   3.836
 6483TIP3    H119406   3.886   2.515   3.869
 6483TIP3    H219407   4.016   2.588   3.897
 6484TIP3   OH219408   7.697   1.009   4.225
 6484TIP3    H119409   7.642   1.017   4.147
 6484TIP3    H219410   7.703   1.098   4.260
 6485TIP3   OH219411   2.824   2.244   0.748
 6485TIP3    H119412   2.916   2.267   0.764
 6485TIP3    H219413   2.827   2.184   0.672
 6486TIP3   OH219414   0.252   2.327   3.096
 6486TIP3    H119415   0.235   2.413   3.058
 6486TIP3    H219416   0.165   2.294   3.120
 6487TIP3   OH219417   1.571   2.473   5.975
 6487TIP3    H119418   1.565   2.425   6.057
 6487TIP3    H219419   1.628   2.547   5.994
 6488TIP3   OH219420   2.639   0.345   2.343
 6488TIP3    H119421   2.734   0.336   2.353
 6488TIP3    H219422   2.607   0.255   2.334
 6489TIP3   OH219423   4.756   3.847   3.405
 6489TIP3    H119424   4.812   3.923   3.424
 6489TIP3    H219425   4.743   3.805   3.489
 6490TIP3   OH219426   4.060   2.533   1.512
 6490TIP3    H119427   4.081   2.599   1.578
 6490TIP3    H219428   4.028   2.583   1.437
 6491TIP3   OH219429   4.819   2.908   0.262
 6491TIP3    H119430   4.733   2.877   0.291
 6491TIP3    H219431   4.845   2.846   0.194
 6492TIP3   OH219432   8.008   1.303   5.699
 6492TIP3    H119433   7.979   1.393   5.715
 6492TIP3    H219434   8.092   1.296   5.743
 6493TIP3   OH219435   0.451   0.380   1.344
 6493TIP3    H119436   0.488   0.459   1.382
 6493TIP3    H219437   0.405   0.338   1.416
 6494TIP3   OH219438   4.817   0.592   6.439
 6494TIP3    H119439   4.779   0.639   6.365
 6494TIP3    H219440   4.805   0.500   6.417
 6495TIP3   OH219441   3.326   4.206   1.724
 6495TIP3    H119442   3.294   4.127   1.679
 6495TIP3    H219443   3.421   4.193   1.729
 6496TIP3   OH219444   1.183   5.922   3.520
 6496TIP3    H119445   1.238   5.911   3.597
 6496TIP3    H219446   1.231   5.880   3.449
 6497TIP3   OH219447   1.359   7.623   0.626
 6497TIP3    H119448   1.335   7.531   0.618
 6497TIP3    H219449   1.411   7.628   0.706
 6498TIP3   OH219450   6.551   5.230   2.422
 6498TIP3    H119451   6.461   5.262   2.430
 6498TIP3    H219452   6.606   5.304   2.448
 6499TIP3   OH219453   1.136   6.837   6.027
 6499TIP3    H119454   1.127   6.897   5.953
 6499TIP3    H219455   1.125   6.892   6.104
 6500TIP3   OH219456   8.090   4.538   3.880
 6500TIP3    H119457   8.012   4.513   3.830
 6500TIP3    H219458   8.140   4.457   3.888
 6501TIP3   OH219459   8.146   5.471   6.506
 6501TIP3    H119460   8.104   5.401   6.554
 6501TIP3    H219461   8.102   5.551   6.535
 6502TIP3   OH219462   8.152   1.100   6.031
 6502TIP3    H119463   8.126   1.188   6.002
 6502TIP3    H219464   8.239   1.088   5.993
 6503TIP3   OH219465   3.204   5.976   6.398
 6503TIP3    H119466   3.178   6.014   6.314
 6503TIP3    H219467   3.124   5.933   6.430
 6504TIP3   OH219468   3.487   6.364   2.774
 6504TIP3    H119469   3.439   6.356   2.857
 6504TIP3    H219470   3.422   6.345   2.707
 6505TIP3   OH219471   8.007   1.768   6.497
 6505TIP3    H119472   7.977   1.679   6.483
 6505TIP3    H219473   8.102   1.764   6.484
 6506TIP3   OH219474   3.883   7.318   1.980
 6506TIP3    H119475   3.847   7.258   1.915
 6506TIP3    H219476   3.937   7.264   2.036
 6507TIP3   OH219477   8.074   6.610   4.128
 6507TIP3    H119478   8.104   6.572   4.046
 6507TIP3    H219479   8.118   6.560   4.197
 6508TIP3   OH219480   4.380   3.964   4.494
 6508TIP3    H119481   4.381   4.047   4.541
 6508TIP3    H219482   4.293   3.928   4.510
 6509TIP3   OH219483   0.062   7.293   2.345
 6509TIP3    H119484   0.143   7.319   2.301
 6509TIP3    H219485   0.091   7.260   2.430
 6510TIP3   OH219486   5.889   2.771   1.674
 6510TIP3    H119487   5.888   2.866   1.679
 6510TIP3    H219488   5.799   2.744   1.690
 6511TIP3   OH219489   6.429   1.156   2.529
 6511TIP3    H119490   6.518   1.187   2.545
 6511TIP3    H219491   6.415   1.088   2.595
 6512TIP3   OH219492   6.588   7.309   1.605
 6512TIP3    H119493   6.598   7.215   1.590
 6512TIP3    H219494   6.501   7.317   1.646
 6513TIP3   OH219495   2.098   3.547   6.159
 6513TIP3    H119496   2.084   3.625   6.105
 6513TIP3    H219497   2.010   3.518   6.184
 6514TIP3   OH219498   7.603   0.509   1.545
 6514TIP3    H119499   7.581   0.478   1.458
 6514TIP3    H219500   7.607   0.604   1.536
 6515TIP3   OH219501   5.663   0.172   4.951
 6515TIP3    H119502   5.632   0.124   5.028
 6515TIP3    H219503   5.727   0.113   4.910
 6516TIP3   OH219504   2.330   4.850   3.507
 6516TIP3    H119505   2.371   4.916   3.450
 6516TIP3    H219506   2.326   4.771   3.453
 6517TIP3   OH219507   4.099   3.186   0.133
 6517TIP3    H119508   4.065   3.252   0.073
 6517TIP3    H219509   4.194   3.202   0.136
 6518TIP3   OH219510   2.477   3.745   1.469
 6518TIP3    H119511   2.441   3.825   1.430
 6518TIP3    H219512   2.552   3.723   1.413
 6519TIP3   OH219513   6.760   5.046   2.842
 6519TIP3    H119514   6.781   4.953   2.852
 6519TIP3    H219515   6.781   5.065   2.750
 6520TIP3   OH219516   3.587   5.514   6.684
 6520TIP3    H119517   3.657   5.546   6.741
 6520TIP3    H219518   3.605   5.555   6.599
 6521TIP3   OH219519   0.426   7.304   3.076
 6521TIP3    H119520   0.467   7.222   3.104
 6521TIP3    H219521   0.403   7.289   2.985
 6522TIP3   OH219522   7.445   3.757   1.756
 6522TIP3    H119523   7.483   3.774   1.842
 6522TIP3    H219524   7.487   3.676   1.727
 6523TIP3   OH219525   0.054   6.568   1.373
 6523TIP3    H119526   0.127   6.566   1.311
 6523TIP3    H219527   0.095   6.589   1.457
 6524TIP3   OH219528   0.354   1.842   2.983
 6524TIP3    H119529   0.315   1.922   2.949
 6524TIP3    H219530   0.385   1.796   2.905
 6525TIP3   OH219531   8.180   2.027   4.171
 6525TIP3    H119532   8.089   2.043   4.148
 6525TIP3    H219533   8.190   2.065   4.259
 6526TIP3   OH219534   4.633   6.506   6.109
 6526TIP3    H119535   4.647   6.436   6.173
 6526TIP3    H219536   4.698   6.572   6.131
 6527TIP3   OH219537   5.789   2.363   6.136
 6527TIP3    H119538   5.838   2.288   6.101
 6527TIP3    H219539   5.840   2.393   6.211
 6528TIP3   OH219540   3.901   1.571   3.421
 6528TIP3    H119541   3.898   1.479   3.448
 6528TIP3    H219542   3.857   1.573   3.336
 6529TIP3   OH219543   2.549   4.557   4.429
 6529TIP3    H119544   2.585   4.593   4.349
 6529TIP3    H219545   2.549   4.462   4.415
 6530TIP3   OH219546   6.696   3.932   2.847
 6530TIP3    H119547   6.771   3.872   2.851
 6530TIP3    H219548   6.677   3.940   2.753
 6531TIP3   OH219549   3.283   7.209   4.814
 6531TIP3    H119550   3.309   7.193   4.723
 6531TIP3    H219551   3.247   7.297   4.814
 6532TIP3   OH219552   3.467   0.655   5.885
 6532TIP3    H119553   3.389   0.695   5.924
 6532TIP3    H219554   3.511   0.611   5.958
 6533TIP3   OH219555   0.760   6.719   2.843
 6533TIP3    H119556   0.786   6.639   2.797
 6533TIP3    H219557   0.807   6.715   2.926
 6534TIP3   OH219558   6.761   3.613   3.745
 6534TIP3    H119559   6.833   3.565   3.786
 6534TIP3    H219560   6.693   3.547   3.730
 6535TIP3   OH219561   4.403   3.171   0.067
 6535TIP3    H119562   4.471   3.157   0.001
 6535TIP3    H219563   4.362   3.254   0.042
 6536TIP3   OH219564   5.852   6.931   5.534
 6536TIP3    H119565   5.756   6.928   5.532
 6536TIP3    H219566   5.874   6.949   5.625
 6537TIP3   OH219567   3.717   1.865   0.313
 6537TIP3    H119568   3.718   1.830   0.224
 6537TIP3    H219569   3.626   1.887   0.330
 6538TIP3   OH219570   0.575   1.774   1.455
 6538TIP3    H119571   0.531   1.835   1.513
 6538TIP3    H219572   0.556   1.687   1.491
 6539TIP3   OH219573   7.957   6.887   3.241
 6539TIP3    H119574   7.992   6.959   3.294
 6539TIP3    H219575   7.954   6.921   3.152
 6540TIP3   OH219576   7.909   1.863   4.444
 6540TIP3    H119577   7.847   1.843   4.515
 6540TIP3    H219578   7.989   1.816   4.468
 6541TIP3   OH219579   1.918   1.707   0.436
 6541TIP3    H119580   1.824   1.707   0.457
 6541TIP3    H219581   1.955   1.773   0.493
 6542TIP3   OH219582   0.754   0.294   4.180
 6542TIP3    H119583   0.669   0.327   4.210
 6542TIP3    H219584   0.819   0.349   4.225
 6543TIP3   OH219585   5.432   5.933   1.237
 6543TIP3    H119586   5.392   5.970   1.158
 6543TIP3    H219587   5.387   5.849   1.249
 6544TIP3   OH219588   4.248   6.992   1.067
 6544TIP3    H119589   4.167   7.003   1.017
 6544TIP3    H219590   4.238   6.908   1.111
 6545TIP3   OH219591   5.192   6.751   2.608
 6545TIP3    H119592   5.181   6.682   2.543
 6545TIP3    H219593   5.240   6.710   2.680
 6546TIP3   OH219594   7.138   4.637   1.693
 6546TIP3    H119595   7.090   4.555   1.677
 6546TIP3    H219596   7.134   4.684   1.610
 6547TIP3   OH219597   7.728   0.491   4.331
 6547TIP3    H119598   7.752   0.446   4.250
 6547TIP3    H219599   7.750   0.583   4.314
 6548TIP3   OH219600   3.387   5.171   5.978
 6548TIP3    H119601   3.455   5.174   6.046
 6548TIP3    H219602   3.416   5.101   5.919
 6549TIP3   OH219603   7.351   1.127   4.687
 6549TIP3    H119604   7.348   1.211   4.642
 6549TIP3    H219605   7.439   1.093   4.671
 6550TIP3   OH219606   0.886   5.071   2.526
 6550TIP3    H119607   0.857   4.981   2.515
 6550TIP3    H219608   0.854   5.117   2.448
 6551TIP3   OH219609   8.169   6.600   3.552
 6551TIP3    H119610   8.144   6.508   3.558
 6551TIP3    H219611   8.142   6.626   3.464
 6552TIP3   OH219612   2.853   5.872   2.018
 6552TIP3    H119613   2.855   5.791   1.966
 6552TIP3    H219614   2.918   5.858   2.086
 6553TIP3   OH219615   7.806   3.091   5.014
 6553TIP3    H119616   7.861   3.042   4.952
 6553TIP3    H219617   7.724   3.106   4.967
 6554TIP3   OH219618   7.815   5.176   1.711
 6554TIP3    H119619   7.838   5.269   1.717
 6554TIP3    H219620   7.885   5.137   1.659
 6555TIP3   OH219621   3.474   6.449   4.349
 6555TIP3    H119622   3.560   6.470   4.312
 6555TIP3    H219623   3.489   6.440   4.443
 6556TIP3   OH219624   1.275   3.828   5.528
 6556TIP3    H119625   1.223   3.873   5.462
 6556TIP3    H219626   1.366   3.852   5.508
 6557TIP3   OH219627   2.853   5.439   0.436
 6557TIP3    H119628   2.777   5.438   0.377
 6557TIP3    H219629   2.828   5.380   0.508
 6558TIP3   OH219630   1.895   1.102   5.413
 6558TIP3    H119631   1.896   1.194   5.384
 6558TIP3    H219632   1.814   1.094   5.463
 6559TIP3   OH219633   5.579   5.115   3.120
 6559TIP3    H119634   5.521   5.050   3.160
 6559TIP3    H219635   5.600   5.079   3.033
 6560TIP3   OH219636   7.253   3.884   2.378
 6560TIP3    H119637   7.282   3.938   2.451
 6560TIP3    H219638   7.194   3.940   2.328
 6561TIP3   OH219639   4.838   6.873   1.407
 6561TIP3    H119640   4.891   6.795   1.392
 6561TIP3    H219641   4.766   6.842   1.462
 6562TIP3   OH219642   3.895   6.521   0.326
 6562TIP3    H119643   3.846   6.448   0.363
 6562TIP3    H219644   3.976   6.524   0.377
 6563TIP3   OH219645   7.308   0.330   4.318
 6563TIP3    H119646   7.360   0.254   4.343
 6563TIP3    H219647   7.217   0.299   4.323
 6564TIP3   OH219648   1.849   3.456   6.246
 6564TIP3    H119649   1.825   3.364   6.246
 6564TIP3    H219650   1.766   3.502   6.236
 6565TIP3   OH219651   5.834   7.166   4.941
 6565TIP3    H119652   5.917   7.129   4.909
 6565TIP3    H219653   5.788   7.192   4.861
 6566TIP3   OH219654   0.517   2.612   3.809
 6566TIP3    H119655   0.447   2.677   3.822
 6566TIP3    H219656   0.482   2.532   3.848
 6567TIP3   OH219657   4.026   0.001   4.198
 6567TIP3    H119658   3.990   0.082   4.163
 6567TIP3    H219659   3.962  -0.066   4.176
 6568TIP3   OH219660   3.328   4.680   0.278
 6568TIP3    H119661   3.265   4.722   0.337
 6568TIP3    H219662   3.274   4.629   0.218
 6569TIP3   OH219663   3.604   2.119   6.606
 6569TIP3    H119664   3.625   2.156   6.692
 6569TIP3    H219665   3.513   2.142   6.592
 6570TIP3   OH219666   1.815   1.052   6.336
 6570TIP3    H119667   1.746   1.077   6.398
 6570TIP3    H219668   1.816   1.123   6.272
 6571TIP3   OH219669   4.771   0.968   1.504
 6571TIP3    H119670   4.867   0.973   1.500
 6571TIP3    H219671   4.751   0.982   1.597
 6572TIP3   OH219672   2.875   5.049   6.143
 6572TIP3    H119673   2.949   5.107   6.127
 6572TIP3    H219674   2.817   5.099   6.200
 6573TIP3   OH219675   0.295   1.518   5.093
 6573TIP3    H119676   0.376   1.468   5.106
 6573TIP3    H219677   0.234   1.454   5.056
 6574TIP3   OH219678   8.243   5.653   3.713
 6574TIP3    H119679   8.292   5.633   3.793
 6574TIP3    H219680   8.177   5.584   3.709
 6575TIP3   OH219681   6.028   0.050   2.606
 6575TIP3    H119682   5.974   0.129   2.609
 6575TIP3    H219683   6.098   0.066   2.668
 6576TIP3   OH219684   4.149   2.364   6.717
 6576TIP3    H119685   4.132   2.428   6.786
 6576TIP3    H219686   4.244   2.365   6.706
 6577TIP3   OH219687   6.014   4.188   1.715
 6577TIP3    H119688   6.010   4.269   1.765
 6577TIP3    H219689   5.925   4.177   1.680
 6578TIP3   OH219690   0.338   2.434   1.882
 6578TIP3    H119691   0.248   2.445   1.850
 6578TIP3    H219692   0.387   2.505   1.841
 6579TIP3   OH219693   5.685   2.302   6.509
 6579TIP3    H119694   5.778   2.297   6.532
 6579TIP3    H219695   5.652   2.213   6.521
 6580TIP3   OH219696   5.207   4.637   0.380
 6580TIP3    H119697   5.212   4.542   0.368
 6580TIP3    H219698   5.262   4.654   0.456
 6581TIP3   OH219699   1.802   0.184   1.916
 6581TIP3    H119700   1.785   0.145   1.831
 6581TIP3    H219701   1.716   0.200   1.954
 6582TIP3   OH219702   1.451   1.734   4.977
 6582TIP3    H119703   1.504   1.720   4.898
 6582TIP3    H219704   1.509   1.711   5.049
 6583TIP3   OH219705   4.072   2.412   3.116
 6583TIP3    H119706   4.079   2.504   3.142
 6583TIP3    H219707   4.097   2.363   3.195
 6584TIP3   OH219708   2.014   3.491   1.293
 6584TIP3    H119709   1.953   3.478   1.366
 6584TIP3    H219710   2.080   3.552   1.328
 6585TIP3   OH219711   4.193   5.554   4.673
 6585TIP3    H119712   4.275   5.583   4.633
 6585TIP3    H219713   4.205   5.572   4.767
 6586TIP3   OH219714   6.208   1.408   2.315
 6586TIP3    H119715   6.115   1.419   2.299
 6586TIP3    H219716   6.242   1.498   2.320
 6587TIP3   OH219717   1.389   7.431   4.616
 6587TIP3    H119718   1.408   7.518   4.582
 6587TIP3    H219719   1.390   7.442   4.711
 6588TIP3   OH219720   4.258   4.562   0.596
 6588TIP3    H119721   4.331   4.597   0.545
 6588TIP3    H219722   4.285   4.472   0.617
 6589TIP3   OH219723   1.926   4.146   2.415
 6589TIP3    H119724   1.836   4.164   2.440
 6589TIP3    H219725   1.957   4.083   2.480
 6590TIP3   OH219726   0.724   7.205   0.712
 6590TIP3    H119727   0.723   7.232   0.803
 6590TIP3    H219728   0.669   7.127   0.710
 6591TIP3   OH219729   6.574   6.633   3.063
 6591TIP3    H119730   6.646   6.677   3.019
 6591TIP3    H219731   6.558   6.685   3.141
 6592TIP3   OH219732   0.165   4.088   3.333
 6592TIP3    H119733   0.249   4.130   3.352
 6592TIP3    H219734   0.177   3.998   3.364
 6593TIP3   OH219735   1.732   1.590   5.995
 6593TIP3    H119736   1.724   1.674   5.951
 6593TIP3    H219737   1.655   1.583   6.051
 6594TIP3   OH219738   2.775   4.515   1.881
 6594TIP3    H119739   2.787   4.472   1.966
 6594TIP3    H219740   2.820   4.458   1.818
 6595TIP3   OH219741   7.325   6.961   2.813
 6595TIP3    H119742   7.284   6.890   2.862
 6595TIP3    H219743   7.376   7.009   2.878
 6596TIP3   OH219744   3.283   5.534   6.768
 6596TIP3    H119745   3.371   5.505   6.744
 6596TIP3    H219746   3.262   5.602   6.704
 6597TIP3   OH219747   4.554   2.248   3.393
 6597TIP3    H119748   4.502   2.276   3.468
 6597TIP3    H219749   4.557   2.325   3.335
 6598TIP3   OH219750   0.094   1.420   5.387
 6598TIP3    H119751   0.024   1.476   5.422
 6598TIP3    H219752   0.162   1.482   5.360
 6599TIP3   OH219753   2.199   6.651   6.404
 6599TIP3    H119754   2.117   6.631   6.450
 6599TIP3    H219755   2.172   6.685   6.319
 6600TIP3   OH219756   3.254   3.685   6.365
 6600TIP3    H119757   3.341   3.648   6.381
 6600TIP3    H219758   3.194   3.621   6.401
 6601TIP3   OH219759   1.299   3.432   5.882
 6601TIP3    H119760   1.365   3.407   5.945
 6601TIP3    H219761   1.335   3.510   5.839
 6602TIP3   OH219762   6.795   6.272   6.172
 6602TIP3    H119763   6.710   6.233   6.151
 6602TIP3    H219764   6.779   6.367   6.169
 6603TIP3   OH219765   1.830   4.274   0.535
 6603TIP3    H119766   1.882   4.199   0.565
 6603TIP3    H219767   1.874   4.303   0.455
 6604TIP3   OH219768   5.218   0.194   3.747
 6604TIP3    H119769   5.216   0.194   3.843
 6604TIP3    H219770   5.188   0.106   3.723
 6605TIP3   OH219771   2.099   5.285   6.737
 6605TIP3    H119772   2.063   5.197   6.753
 6605TIP3    H219773   2.030   5.331   6.690
 6606TIP3   OH219774   8.239   6.890   4.272
 6606TIP3    H119775   8.188   6.859   4.347
 6606TIP3    H219776   8.178   6.947   4.224
 6607TIP3   OH219777   0.299   7.815   2.602
 6607TIP3    H119778   0.330   7.732   2.638
 6607TIP3    H219779   0.259   7.792   2.519
 6608TIP3   OH219780   4.380   5.535   2.621
 6608TIP3    H119781   4.420   5.621   2.606
 6608TIP3    H219782   4.326   5.547   2.699
 6609TIP3   OH219783   6.230   6.953   6.250
 6609TIP3    H119784   6.171   6.891   6.293
 6609TIP3    H219785   6.318   6.922   6.273
 6610TIP3   OH219786   6.065   1.278   6.377
 6610TIP3    H119787   6.070   1.283   6.281
 6610TIP3    H219788   6.096   1.363   6.407
 6611TIP3   OH219789   5.171   1.506   5.522
 6611TIP3    H119790   5.090   1.516   5.571
 6611TIP3    H219791   5.172   1.414   5.495
 6612TIP3   OH219792   7.373   4.251   0.523
 6612TIP3    H119793   7.452   4.234   0.472
 6612TIP3    H219794   7.330   4.165   0.529
 6613TIP3   OH219795   2.909   1.233   3.041
 6613TIP3    H119796   2.877   1.310   3.088
 6613TIP3    H219797   2.999   1.254   3.016
 6614TIP3   OH219798   5.336   4.047   6.436
 6614TIP3    H119799   5.250   4.025   6.400
 6614TIP3    H219800   5.361   4.127   6.391
 6615TIP3   OH219801   5.673   6.325   0.669
 6615TIP3    H119802   5.685   6.233   0.646
 6615TIP3    H219803   5.578   6.337   0.671
 6616TIP3   OH219804   5.047   5.951   4.786
 6616TIP3    H119805   5.074   6.034   4.748
 6616TIP3    H219806   5.049   5.965   4.880
 6617TIP3   OH219807   4.059   6.879   5.255
 6617TIP3    H119808   4.118   6.838   5.319
 6617TIP3    H219809   3.979   6.896   5.304
 6618TIP3   OH219810   2.837   1.717   4.454
 6618TIP3    H119811   2.854   1.670   4.373
 6618TIP3    H219812   2.849   1.809   4.431
 6619TIP3   OH219813   0.652   3.676   1.956
 6619TIP3    H119814   0.712   3.677   1.881
 6619TIP3    H219815   0.601   3.756   1.947
 6620TIP3   OH219816   7.055   7.634   3.981
 6620TIP3    H119817   7.140   7.597   4.004
 6620TIP3    H219818   7.046   7.617   3.888
 6621TIP3   OH219819   5.062   7.054   6.540
 6621TIP3    H119820   5.010   7.127   6.507
 6621TIP3    H219821   5.024   7.033   6.625
 6622TIP3   OH219822   0.023   6.222   6.436
 6622TIP3    H119823   0.033   6.140   6.387
 6622TIP3    H219824   0.113   6.255   6.445
 6623TIP3   OH219825   2.080   3.402   5.264
 6623TIP3    H119826   2.156   3.344   5.268
 6623TIP3    H219827   2.118   3.490   5.264
 6624TIP3   OH219828   4.839   1.588   0.188
 6624TIP3    H119829   4.886   1.587   0.271
 6624TIP3    H219830   4.818   1.681   0.173
 6625TIP3   OH219831   1.391   6.238   3.997
 6625TIP3    H119832   1.474   6.216   4.039
 6625TIP3    H219833   1.356   6.309   4.051
 6626TIP3   OH219834   4.734   1.664   5.774
 6626TIP3    H119835   4.721   1.668   5.869
 6626TIP3    H219836   4.647   1.675   5.737
 6627TIP3   OH219837   1.860   6.334   3.735
 6627TIP3    H119838   1.837   6.426   3.720
 6627TIP3    H219839   1.948   6.338   3.774
 6628TIP3   OH219840   2.166   0.177   0.405
 6628TIP3    H119841   2.176   0.160   0.311
 6628TIP3    H219842   2.229   0.118   0.446
 6629TIP3   OH219843   7.777   1.628   5.212
 6629TIP3    H119844   7.752   1.548   5.166
 6629TIP3    H219845   7.793   1.692   5.143
 6630TIP3   OH219846   1.180   2.745   4.776
 6630TIP3    H119847   1.111   2.684   4.750
 6630TIP3    H219848   1.165   2.823   4.722
 6631TIP3   OH219849   2.022   4.433   2.050
 6631TIP3    H119850   2.041   4.489   2.125
 6631TIP3    H219851   2.001   4.348   2.088
 6632TIP3   OH219852   4.559   0.904   1.331
 6632TIP3    H119853   4.609   0.864   1.260
 6632TIP3    H219854   4.624   0.953   1.382
 6633TIP3   OH219855   6.604   2.457   5.955
 6633TIP3    H119856   6.523   2.422   5.917
 6633TIP3    H219857   6.628   2.529   5.898
 6634TIP3   OH219858   4.052   7.342   1.436
 6634TIP3    H119859   3.994   7.266   1.426
 6634TIP3    H219860   4.016   7.389   1.511
 6635TIP3   OH219861   0.605   1.062   2.177
 6635TIP3    H119862   0.642   1.149   2.192
 6635TIP3    H219863   0.561   1.040   2.260
 6636TIP3   OH219864   4.165   3.168   4.996
 6636TIP3    H119865   4.106   3.222   4.944
 6636TIP3    H219866   4.237   3.226   5.020
 6637TIP3   OH219867   4.358   5.918   5.174
 6637TIP3    H119868   4.387   5.886   5.089
 6637TIP3    H219869   4.300   5.849   5.207
 6638TIP3   OH219870   1.562   3.294   3.316
 6638TIP3    H119871   1.589   3.244   3.239
 6638TIP3    H219872   1.513   3.232   3.370
 6639TIP3   OH219873   1.081   0.644   4.692
 6639TIP3    H119874   1.113   0.734   4.702
 6639TIP3    H219875   1.143   0.591   4.742
 6640TIP3   OH219876   4.647   2.670   0.209
 6640TIP3    H119877   4.591   2.629   0.274
 6640TIP3    H219878   4.718   2.607   0.195
 6641TIP3   OH219879   0.833   0.542   0.309
 6641TIP3    H119880   0.901   0.484   0.344
 6641TIP3    H219881   0.881   0.618   0.277
 6642TIP3   OH219882   2.434   5.530   1.617
 6642TIP3    H119883   2.357   5.543   1.562
 6642TIP3    H219884   2.481   5.613   1.615
 6643TIP3   OH219885   1.449   7.793   5.680
 6643TIP3    H119886   1.454   7.719   5.619
 6643TIP3    H219887   1.539   7.806   5.709
 6644TIP3   OH219888   7.353   6.624   1.730
 6644TIP3    H119889   7.389   6.703   1.689
 6644TIP3    H219890   7.285   6.595   1.670
 6645TIP3   OH219891   1.913   5.463   6.633
 6645TIP3    H119892   1.852   5.510   6.692
 6645TIP3    H219893   1.916   5.518   6.555
 6646TIP3   OH219894   2.342   5.664   3.186
 6646TIP3    H119895   2.308   5.693   3.271
 6646TIP3    H219896   2.437   5.669   3.196
 6647TIP3   OH219897   2.784   4.683   0.289
 6647TIP3    H119898   2.723   4.740   0.241
 6647TIP3    H219899   2.869   4.703   0.251
 6648TIP3   OH219900   7.370   3.264   1.317
 6648TIP3    H119901   7.283   3.302   1.308
 6648TIP3    H219902   7.354   3.170   1.326
 6649TIP3   OH219903   2.487   2.964   3.846
 6649TIP3    H119904   2.581   2.949   3.845
 6649TIP3    H219905   2.456   2.920   3.925
 6650TIP3   OH219906   2.918   0.766   0.045
 6650TIP3    H119907   2.886   0.817   0.118
 6650TIP3    H219908   3.005   0.737   0.071
 6651TIP3   OH219909   4.100   3.476   3.702
 6651TIP3    H119910   4.028   3.538   3.691
 6651TIP3    H219911   4.058   3.397   3.737
 6652TIP3   OH219912   0.147   0.153   6.366
 6652TIP3    H119913   0.086   0.182   6.434
 6652TIP3    H219914   0.178   0.234   6.326
 6653TIP3   OH219915   6.623   1.087   6.160
 6653TIP3    H119916   6.614   0.995   6.136
 6653TIP3    H219917   6.711   1.094   6.197
 6654TIP3   OH219918   0.621   4.710   5.242
 6654TIP3    H119919   0.709   4.741   5.219
 6654TIP3    H219920   0.622   4.617   5.219
 6655TIP3   OH219921   1.316   0.818   0.726
 6655TIP3    H119922   1.260   0.854   0.657
 6655TIP3    H219923   1.390   0.779   0.680
 6656TIP3   OH219924   1.488   6.603   4.363
 6656TIP3    H119925   1.427   6.543   4.405
 6656TIP3    H219926   1.535   6.549   4.300
 6657TIP3   OH219927   3.315   6.922   5.887
 6657TIP3    H119928   3.290   6.982   5.817
 6657TIP3    H219929   3.373   6.975   5.943
 6658TIP3   OH219930   1.316   1.999   1.848
 6658TIP3    H119931   1.277   2.024   1.765
 6658TIP3    H219932   1.301   1.904   1.855
 6659TIP3   OH219933   3.469   1.768   1.486
 6659TIP3    H119934   3.505   1.776   1.397
 6659TIP3    H219935   3.437   1.856   1.506
 6660TIP3   OH219936   3.301   1.108   5.184
 6660TIP3    H119937   3.372   1.155   5.228
 6660TIP3    H219938   3.335   1.089   5.097
 6661TIP3   OH219939   3.169   7.602   6.206
 6661TIP3    H119940   3.207   7.645   6.283
 6661TIP3    H219941   3.088   7.561   6.238
 6662TIP3   OH219942   1.797   6.993   3.552
 6662TIP3    H119943   1.778   7.077   3.509
 6662TIP3    H219944   1.890   6.998   3.573
 6663TIP3   OH219945   3.242   4.964   6.398
 6663TIP3    H119946   3.218   4.906   6.470
 6663TIP3    H219947   3.221   5.052   6.430
 6664TIP3   OH219948   3.513   0.990   5.051
 6664TIP3    H119949   3.597   1.009   5.010
 6664TIP3    H219950   3.505   0.894   5.047
 6665TIP3   OH219951   7.943   5.283   2.549
 6665TIP3    H119952   7.915   5.312   2.463
 6665TIP3    H219953   7.867   5.298   2.606
 6666TIP3   OH219954   7.213   7.462   2.464
 6666TIP3    H119955   7.275   7.527   2.496
 6666TIP3    H219956   7.127   7.496   2.489
 6667TIP3   OH219957   2.387   7.766   3.702
 6667TIP3    H119958   2.460   7.704   3.703
 6667TIP3    H219959   2.313   7.716   3.668
 6668TIP3   OH219960   1.088   5.502   4.621
 6668TIP3    H119961   1.106   5.532   4.532
 6668TIP3    H219962   1.146   5.554   4.676
 6669TIP3   OH219963   1.948   4.982   0.571
 6669TIP3    H119964   2.032   5.027   0.577
 6669TIP3    H219965   1.914   4.983   0.660
 6670TIP3   OH219966   6.382   3.813   1.048
 6670TIP3    H119967   6.377   3.898   1.091
 6670TIP3    H219968   6.464   3.775   1.079
 6671TIP3   OH219969   4.734   1.999   3.488
 6671TIP3    H119970   4.664   2.059   3.460
 6671TIP3    H219971   4.814   2.049   3.475
 6672TIP3   OH219972   5.970   1.479   4.069
 6672TIP3    H119973   5.990   1.537   3.995
 6672TIP3    H219974   5.882   1.505   4.097
 6673TIP3   OH219975   0.116   5.302   6.393
 6673TIP3    H119976   0.153   5.370   6.450
 6673TIP3    H219977   0.133   5.220   6.440
 6674TIP3   OH219978   3.338   0.347   5.179
 6674TIP3    H119979   3.264   0.288   5.195
 6674TIP3    H219980   3.298   0.425   5.142
 6675TIP3   OH219981   7.445   3.847   3.485
 6675TIP3    H119982   7.484   3.885   3.564
 6675TIP3    H219983   7.377   3.788   3.518
 6676TIP3   OH219984   7.248   2.130   5.391
 6676TIP3    H119985   7.175   2.083   5.430
 6676TIP3    H219986   7.325   2.101   5.441
 6677TIP3   OH219987   0.451   4.939   4.537
 6677TIP3    H119988   0.503   4.909   4.462
 6677TIP3    H219989   0.483   5.028   4.554
 6678TIP3   OH219990   1.080   4.399   1.795
 6678TIP3    H119991   1.131   4.477   1.773
 6678TIP3    H219992   1.119   4.330   1.741
 6679TIP3   OH219993   4.577   2.057   1.814
 6679TIP3    H119994   4.662   2.063   1.858
 6679TIP3    H219995   4.588   1.989   1.748
 6680TIP3   OH219996   6.621   6.081   1.075
 6680TIP3    H119997   6.598   5.988   1.077
 6680TIP3    H219998   6.646   6.097   0.984
 6681TIP3   OH219999   4.173   6.985   1.425
 6681TIP3    H120000   4.088   6.972   1.382
 6681TIP3    H220001   4.235   6.936   1.371
 6682TIP3   OH220002   3.937   6.768   4.935
 6682TIP3    H120003   4.020   6.775   4.982
 6682TIP3    H220004   3.874   6.814   4.991
 6683TIP3   OH220005   3.502   7.311   0.679
 6683TIP3    H120006   3.458   7.395   0.690
 6683TIP3    H220007   3.517   7.304   0.584
 6684TIP3   OH220008   7.891   3.032   5.515
 6684TIP3    H120009   7.867   2.939   5.512
 6684TIP3    H220010   7.812   3.077   5.487
 6685TIP3   OH220011   0.259   7.814   1.431
 6685TIP3    H120012   0.277   7.804   1.337
 6685TIP3    H220013   0.196   7.745   1.450
 6686TIP3   OH220014   5.025   1.340   2.083
 6686TIP3    H120015   5.011   1.394   2.161
 6686TIP3    H220016   5.089   1.274   2.110
 6687TIP3   OH220017   3.818   5.143   3.035
 6687TIP3    H120018   3.774   5.161   3.118
 6687TIP3    H220019   3.905   5.113   3.061
 6688TIP3   OH220020   2.856   3.504   3.155
 6688TIP3    H120021   2.831   3.589   3.192
 6688TIP3    H220022   2.791   3.443   3.189
 6689TIP3   OH220023   8.194   0.012   0.822
 6689TIP3    H120024   8.242   0.087   0.788
 6689TIP3    H220025   8.106   0.046   0.839
 6690TIP3   OH220026   6.167   0.637   2.130
 6690TIP3    H120027   6.236   0.660   2.193
 6690TIP3    H220028   6.109   0.714   2.130
 6691TIP3   OH220029   5.931   3.401   2.775
 6691TIP3    H120030   5.864   3.468   2.789
 6691TIP3    H220031   5.956   3.411   2.683
 6692TIP3   OH220032   7.880   4.139   0.715
 6692TIP3    H120033   7.906   4.111   0.627
 6692TIP3    H220034   7.819   4.072   0.744
 6693TIP3   OH220035   6.312   5.859   6.108
 6693TIP3    H120036   6.219   5.872   6.091
 6693TIP3    H220037   6.327   5.902   6.193
 6694TIP3   OH220038   1.151   0.544   6.617
 6694TIP3    H120039   1.240   0.516   6.637
 6694TIP3    H220040   1.095   0.478   6.658
 6695TIP3   OH220041   6.323   5.157   2.984
 6695TIP3    H120042   6.268   5.078   2.978
 6695TIP3    H220043   6.412   5.123   2.994
 6696TIP3   OH220044   5.633   5.925   2.855
 6696TIP3    H120045   5.562   5.939   2.793
 6696TIP3    H220046   5.643   6.009   2.900
 6697TIP3   OH220047   7.438   6.608   6.725
 6697TIP3    H120048   7.456   6.514   6.725
 6697TIP3    H220049   7.410   6.627   6.814
 6698TIP3   OH220050   6.003   3.772   4.441
 6698TIP3    H120051   5.959   3.816   4.513
 6698TIP3    H220052   6.090   3.751   4.475
 6699TIP3   OH220053   2.957   0.393   1.066
 6699TIP3    H120054   3.019   0.321   1.082
 6699TIP3    H220055   3.010   0.472   1.070
 6700TIP3   OH220056   0.829   7.268   0.264
 6700TIP3    H120057   0.811   7.306   0.350
 6700TIP3    H220058   0.917   7.299   0.242
 6701TIP3   OH220059   4.519   6.141   1.474
 6701TIP3    H120060   4.464   6.187   1.410
 6701TIP3    H220061   4.511   6.194   1.554
 6702TIP3   OH220062   7.611   2.273   5.872
 6702TIP3    H120063   7.618   2.359   5.912
 6702TIP3    H220064   7.645   2.213   5.938
 6703TIP3   OH220065   1.542   3.503   5.019
 6703TIP3    H120066   1.490   3.521   5.097
 6703TIP3    H220067   1.559   3.409   5.022
 6704TIP3   OH220068   6.064   0.634   0.028
 6704TIP3    H120069   6.004   0.705   0.052
 6704TIP3    H220070   6.073   0.641  -0.067
 6705TIP3   OH220071   3.298   0.907   0.616
 6705TIP3    H120072   3.293   0.941   0.527
 6705TIP3    H220073   3.391   0.886   0.629
 6706TIP3   OH220074   3.089   2.286   0.786
 6706TIP3    H120075   3.103   2.341   0.863
 6706TIP3    H220076   3.122   2.339   0.712
 6707TIP3   OH220077   0.102   2.130   1.845
 6707TIP3    H120078   0.130   2.042   1.870
 6707TIP3    H220079   0.022   2.116   1.794
 6708TIP3   OH220080   7.651   6.002   6.642
 6708TIP3    H120081   7.638   5.911   6.616
 6708TIP3    H220082   7.564   6.033   6.667
 6709TIP3   OH220083   2.568   1.163   6.288
 6709TIP3    H120084   2.532   1.078   6.261
 6709TIP3    H220085   2.659   1.161   6.260
 6710TIP3   OH220086   7.128   1.138   5.775
 6710TIP3    H120087   7.035   1.156   5.757
 6710TIP3    H220088   7.139   1.046   5.752
 6711TIP3   OH220089   3.807   4.025   6.305
 6711TIP3    H120090   3.785   3.953   6.246
 6711TIP3    H220091   3.772   3.997   6.390
 6712TIP3   OH220092   3.065   1.440   4.387
 6712TIP3    H120093   3.086   1.392   4.307
 6712TIP3    H220094   3.139   1.500   4.399
 6713TIP3   OH220095   3.683   0.791   2.397
 6713TIP3    H120096   3.697   0.763   2.488
 6713TIP3    H220097   3.734   0.729   2.345
 6714TIP3   OH220098   0.409   2.208   4.145
 6714TIP3    H120099   0.314   2.209   4.158
 6714TIP3    H220100   0.444   2.172   4.226
 6715TIP3   OH220101   4.083   4.873   4.967
 6715TIP3    H120102   4.060   4.856   4.876
 6715TIP3    H220103   4.095   4.785   5.005
 6716TIP3   OH220104   2.389   7.117   5.966
 6716TIP3    H120105   2.423   7.194   5.920
 6716TIP3    H220106   2.418   7.130   6.057
 6717TIP3   OH220107   1.850   5.724   4.861
 6717TIP3    H120108   1.921   5.706   4.799
 6717TIP3    H220109   1.888   5.702   4.947
 6718TIP3   OH220110   7.627   1.655   0.756
 6718TIP3    H120111   7.690   1.693   0.695
 6718TIP3    H220112   7.680   1.613   0.823
 6719TIP3   OH220113   2.037   3.448   1.010
 6719TIP3    H120114   2.002   3.451   1.099
 6719TIP3    H220115   2.126   3.483   1.018
 6720TIP3   OH220116   6.028   1.088   4.414
 6720TIP3    H120117   5.961   1.033   4.375
 6720TIP3    H220118   6.002   1.178   4.393
 6721TIP3   OH220119   4.916   7.183   1.372
 6721TIP3    H120120   4.966   7.205   1.451
 6721TIP3    H220121   4.938   7.251   1.309
 6722TIP3   OH220122   3.149   0.293   2.457
 6722TIP3    H120123   3.132   0.387   2.466
 6722TIP3    H220124   3.067   0.256   2.425
 6723TIP3   OH220125   2.814   6.739   1.180
 6723TIP3    H120126   2.889   6.679   1.177
 6723TIP3    H220127   2.832   6.796   1.255
 6724TIP3   OH220128   2.761   1.554   3.460
 6724TIP3    H120129   2.721   1.640   3.448
 6724TIP3    H220130   2.849   1.573   3.493
 6725TIP3   OH220131   7.721   1.339   0.855
 6725TIP3    H120132   7.708   1.249   0.883
 6725TIP3    H220133   7.797   1.334   0.796
 6726TIP3   OH220134   3.181   5.084   2.696
 6726TIP3    H120135   3.130   5.003   2.692
 6726TIP3    H220136   3.269   5.059   2.669
 6727TIP3   OH220137   1.312   7.641   3.912
 6727TIP3    H120138   1.388   7.627   3.969
 6727TIP3    H220139   1.339   7.712   3.853
 6728TIP3   OH220140   6.888   3.824   4.050
 6728TIP3    H120141   6.863   3.908   4.012
 6728TIP3    H220142   6.961   3.845   4.108
 6729TIP3   OH220143   2.413   0.870   2.747
 6729TIP3    H120144   2.496   0.825   2.766
 6729TIP3    H220145   2.382   0.829   2.666
 6730TIP3   OH220146   6.982   5.779   5.098
 6730TIP3    H120147   7.007   5.698   5.055
 6730TIP3    H220148   7.058   5.803   5.152
 6731TIP3   OH220149   8.076   7.658   6.618
 6731TIP3    H120150   8.110   7.578   6.657
 6731TIP3    H220151   8.140   7.725   6.643
 6732TIP3   OH220152   4.864   5.673   6.054
 6732TIP3    H120153   4.942   5.717   6.019
 6732TIP3    H220154   4.895   5.586   6.078
 6733TIP3   OH220155   3.915   0.400   5.597
 6733TIP3    H120156   3.946   0.437   5.680
 6733TIP3    H220157   3.868   0.320   5.622
 6734TIP3   OH220158   3.037   4.600   1.650
 6734TIP3    H120159   2.944   4.584   1.637
 6734TIP3    H220160   3.081   4.530   1.602
 6735TIP3   OH220161   6.876   4.610   3.519
 6735TIP3    H120162   6.911   4.697   3.500
 6735TIP3    H220163   6.953   4.559   3.548
 6736TIP3   OH220164   5.384   4.149   1.935
 6736TIP3    H120165   5.461   4.197   1.965
 6736TIP3    H220166   5.375   4.172   1.843
 6737TIP3   OH220167   4.608   4.761   4.949
 6737TIP3    H120168   4.640   4.704   5.019
 6737TIP3    H220169   4.671   4.832   4.945
 6738TIP3   OH220170   4.499   4.732   0.553
 6738TIP3    H120171   4.462   4.736   0.465
 6738TIP3    H220172   4.592   4.714   0.539
 6739TIP3   OH220173   1.558   5.482   1.212
 6739TIP3    H120174   1.538   5.550   1.277
 6739TIP3    H220175   1.585   5.531   1.134
 6740TIP3   OH220176   1.542   5.018   2.555
 6740TIP3    H120177   1.501   5.092   2.599
 6740TIP3    H220178   1.515   4.942   2.606
 6741TIP3   OH220179   7.258   1.700   0.020
 6741TIP3    H120180   7.320   1.773   0.015
 6741TIP3    H220181   7.226   1.702   0.110
 6742TIP3   OH220182   1.663   3.655   3.207
 6742TIP3    H120183   1.619   3.578   3.170
 6742TIP3    H220184   1.608   3.680   3.281
 6743TIP3   OH220185   2.627   5.544   4.484
 6743TIP3    H120186   2.534   5.534   4.464
 6743TIP3    H220187   2.633   5.627   4.531
 6744TIP3   OH220188   0.481   1.075   4.931
 6744TIP3    H120189   0.415   1.115   4.874
 6744TIP3    H220190   0.562   1.122   4.909
 6745TIP3   OH220191   3.164   1.236   2.544
 6745TIP3    H120192   3.120   1.262   2.463
 6745TIP3    H220193   3.132   1.147   2.561
 6746TIP3   OH220194   2.496   4.424   2.205
 6746TIP3    H120195   2.581   4.381   2.199
 6746TIP3    H220196   2.503   4.482   2.281
 6747TIP3   OH220197   2.856   0.140   2.794
 6747TIP3    H120198   2.883   0.076   2.860
 6747TIP3    H220199   2.915   0.125   2.720
 6748TIP3   OH220200   1.556   3.072   6.324
 6748TIP3    H120201   1.536   3.010   6.394
 6748TIP3    H220202   1.617   3.134   6.365
 6749TIP3   OH220203   3.890   6.889   1.403
 6749TIP3    H120204   3.836   6.880   1.325
 6749TIP3    H220205   3.940   6.807   1.407
 6750TIP3   OH220206   4.419   1.616   4.901
 6750TIP3    H120207   4.490   1.597   4.840
 6750TIP3    H220208   4.426   1.548   4.968
 6751TIP3   OH220209   1.609   4.849   4.543
 6751TIP3    H120210   1.686   4.892   4.506
 6751TIP3    H220211   1.556   4.920   4.578
 6752TIP3   OH220212   8.021   2.473   1.087
 6752TIP3    H120213   8.107   2.468   1.129
 6752TIP3    H220214   7.962   2.503   1.156
 6753TIP3   OH220215   6.869   4.059   2.103
 6753TIP3    H120216   6.849   3.996   2.173
 6753TIP3    H220217   6.784   4.089   2.073
 6754TIP3   OH220218   3.096   6.981   1.118
 6754TIP3    H120219   3.054   7.065   1.133
 6754TIP3    H220220   3.057   6.948   1.037
 6755TIP3   OH220221   4.548   5.532   4.437
 6755TIP3    H120222   4.619   5.594   4.421
 6755TIP3    H220223   4.469   5.577   4.406
 6756TIP3   OH220224   2.727   2.983   4.062
 6756TIP3    H120225   2.761   2.997   3.973
 6756TIP3    H220226   2.769   3.051   4.114
 6757TIP3   OH220227   7.211   4.166   5.590
 6757TIP3    H120228   7.201   4.178   5.496
 6757TIP3    H220229   7.304   4.145   5.602
 6758TIP3   OH220230   5.336   3.705   0.974
 6758TIP3    H120231   5.345   3.626   1.028
 6758TIP3    H220232   5.386   3.771   1.022
 6759TIP3   OH220233   5.134   0.934   3.711
 6759TIP3    H120234   5.119   0.840   3.720
 6759TIP3    H220235   5.155   0.946   3.618
 6760TIP3   OH220236   5.694   5.566   5.153
 6760TIP3    H120237   5.648   5.630   5.207
 6760TIP3    H220238   5.697   5.487   5.207
 6761TIP3   OH220239   1.548   3.687   4.157
 6761TIP3    H120240   1.563   3.723   4.070
 6761TIP3    H220241   1.616   3.620   4.167
 6762TIP3   OH220242   1.869   2.487   4.497
 6762TIP3    H120243   1.817   2.410   4.521
 6762TIP3    H220244   1.957   2.453   4.480
 6763TIP3   OH220245   7.594   2.748   1.955
 6763TIP3    H120246   7.548   2.667   1.978
 6763TIP3    H220247   7.525   2.813   1.945
 6764TIP3   OH220248   2.669   2.576   3.083
 6764TIP3    H120249   2.577   2.556   3.101
 6764TIP3    H220250   2.672   2.596   2.990
 6765TIP3   OH220251   1.658   3.296   5.205
 6765TIP3    H120252   1.601   3.273   5.278
 6765TIP3    H220253   1.656   3.219   5.148
 6766TIP3   OH220254   6.600   1.609   4.349
 6766TIP3    H120255   6.549   1.655   4.281
 6766TIP3    H220256   6.652   1.545   4.300
 6767TIP3   OH220257   3.381   6.862   1.101
 6767TIP3    H120258   3.378   6.893   1.010
 6767TIP3    H220259   3.291   6.871   1.132
 6768TIP3   OH220260   1.077   5.654   3.308
 6768TIP3    H120261   1.165   5.681   3.336
 6768TIP3    H220262   1.074   5.677   3.215
 6769TIP3   OH220263   6.954   3.668   5.686
 6769TIP3    H120264   6.985   3.758   5.672
 6769TIP3    H220265   7.018   3.629   5.744
 6770TIP3   OH220266   1.644   3.497   4.513
 6770TIP3    H120267   1.562   3.449   4.520
 6770TIP3    H220268   1.701   3.441   4.462
 6771TIP3   OH220269   4.052   4.112   6.224
 6771TIP3    H120270   3.970   4.087   6.267
 6771TIP3    H220271   4.120   4.093   6.288
 6772TIP3   OH220272   2.225   7.389   2.133
 6772TIP3    H120273   2.283   7.461   2.158
 6772TIP3    H220274   2.147   7.400   2.187
 6773TIP3   OH220275   4.628   5.273   4.445
 6773TIP3    H120276   4.613   5.366   4.425
 6773TIP3    H220277   4.705   5.273   4.502
 6774TIP3   OH220278   2.554   0.452   5.485
 6774TIP3    H120279   2.590   0.480   5.401
 6774TIP3    H220280   2.476   0.402   5.462
 6775TIP3   OH220281   6.985   6.568   3.527
 6775TIP3    H120282   7.007   6.510   3.454
 6775TIP3    H220283   6.890   6.582   3.519
 6776TIP3   OH220284   5.542   0.931   1.141
 6776TIP3    H120285   5.482   0.930   1.216
 6776TIP3    H220286   5.543   1.022   1.112
 6777TIP3   OH220287   3.914   5.756   4.080
 6777TIP3    H120288   3.915   5.774   4.174
 6777TIP3    H220289   3.839   5.806   4.047
 6778TIP3   OH220290   5.786   2.386   1.231
 6778TIP3    H120291   5.827   2.442   1.298
 6778TIP3    H220292   5.714   2.342   1.276
 6779TIP3   OH220293   7.059   5.880   6.217
 6779TIP3    H120294   7.150   5.901   6.238
 6779TIP3    H220295   7.010   5.960   6.240
 6780TIP3   OH220296   3.770   0.056   2.875
 6780TIP3    H120297   3.752   0.003   2.797
 6780TIP3    H220298   3.810  -0.005   2.937
 6781TIP3   OH220299   2.005   6.668   4.122
 6781TIP3    H120300   2.071   6.682   4.054
 6781TIP3    H220301   1.947   6.744   4.114
 6782TIP3   OH220302   0.145   1.587   6.051
 6782TIP3    H120303   0.176   1.496   6.057
 6782TIP3    H220304   0.176   1.617   5.966
 6783TIP3   OH220305   7.620   4.702   6.442
 6783TIP3    H120306   7.657   4.686   6.529
 6783TIP3    H220307   7.525   4.697   6.456
 6784TIP3   OH220308   7.314   7.676   1.235
 6784TIP3    H120309   7.329   7.700   1.144
 6784TIP3    H220310   7.227   7.711   1.255
 6785TIP3   OH220311   5.355   6.157   1.093
 6785TIP3    H120312   5.292   6.211   1.046
 6785TIP3    H220313   5.436   6.208   1.093
 6786TIP3   OH220314   0.801   5.253   0.964
 6786TIP3    H120315   0.897   5.253   0.971
 6786TIP3    H220316   0.771   5.253   1.055
 6787TIP3   OH220317   1.459   0.344   2.994
 6787TIP3    H120318   1.461   0.432   3.031
 6787TIP3    H220319   1.551   0.321   2.982
 6788TIP3   OH220320   1.657   3.895   5.785
 6788TIP3    H120321   1.627   3.965   5.843
 6788TIP3    H220322   1.693   3.940   5.709
 6789TIP3   OH220323   7.801   4.888   2.662
 6789TIP3    H120324   7.822   4.816   2.722
 6789TIP3    H220325   7.885   4.911   2.622
 6790TIP3   OH220326   7.258   2.505   3.222
 6790TIP3    H120327   7.299   2.549   3.296
 6790TIP3    H220328   7.195   2.568   3.188
 6791TIP3   OH220329   4.851   1.954   2.383
 6791TIP3    H120330   4.817   2.022   2.325
 6791TIP3    H220331   4.774   1.915   2.423
 6792TIP3   OH220332   2.365   3.531   6.261
 6792TIP3    H120333   2.280   3.493   6.237
 6792TIP3    H220334   2.422   3.455   6.274
 6793TIP3   OH220335   3.199   1.891   5.652
 6793TIP3    H120336   3.234   1.978   5.668
 6793TIP3    H220337   3.224   1.840   5.729
 6794TIP3   OH220338   5.573   6.762   5.623
 6794TIP3    H120339   5.592   6.832   5.561
 6794TIP3    H220340   5.493   6.789   5.667
 6795TIP3   OH220341   7.741   2.402   0.300
 6795TIP3    H120342   7.825   2.374   0.336
 6795TIP3    H220343   7.764   2.452   0.222
 6796TIP3   OH220344   3.896   5.343   2.073
 6796TIP3    H120345   3.885   5.428   2.115
 6796TIP3    H220346   3.844   5.349   1.992
 6797TIP3   OH220347   3.230   1.926   4.359
 6797TIP3    H120348   3.229   2.017   4.329
 6797TIP3    H220349   3.234   1.933   4.455
 6798TIP3   OH220350   7.772   1.491   1.979
 6798TIP3    H120351   7.780   1.470   1.886
 6798TIP3    H220352   7.761   1.585   1.982
 6799TIP3   OH220353   7.499   7.853   1.076
 6799TIP3    H120354   7.433   7.833   1.009
 6799TIP3    H220355   7.553   7.775   1.081
 6800TIP3   OH220356   4.039   2.403   5.648
 6800TIP3    H120357   4.130   2.396   5.620
 6800TIP3    H220358   3.990   2.350   5.585
 6801TIP3   OH220359   4.889   7.202   6.392
 6801TIP3    H120360   4.810   7.155   6.420
 6801TIP3    H220361   4.865   7.294   6.401
 6802TIP3   OH220362   0.285   4.558   5.012
 6802TIP3    H120363   0.224   4.575   5.084
 6802TIP3    H220364   0.232   4.566   4.933
 6803TIP3   OH220365   6.924   2.288   2.669
 6803TIP3    H120366   6.919   2.227   2.595
 6803TIP3    H220367   6.837   2.283   2.709
 6804TIP3   OH220368   1.869   7.401   5.122
 6804TIP3    H120369   1.790   7.443   5.158
 6804TIP3    H220370   1.939   7.427   5.182
 6805TIP3   OH220371   4.724   0.280   3.126
 6805TIP3    H120372   4.795   0.339   3.099
 6805TIP3    H220373   4.651   0.303   3.068
 6806TIP3   OH220374   5.775   3.915   2.591
 6806TIP3    H120375   5.803   3.831   2.627
 6806TIP3    H220376   5.785   3.904   2.496
 6807TIP3   OH220377   1.660   6.353   1.009
 6807TIP3    H120378   1.581   6.310   0.978
 6807TIP3    H220379   1.669   6.430   0.953
 6808TIP3   OH220380   2.767   0.454   4.085
 6808TIP3    H120381   2.785   0.481   3.995
 6808TIP3    H220382   2.673   0.437   4.086
 6809TIP3   OH220383   3.616   0.448   3.017
 6809TIP3    H120384   3.525   0.458   3.046
 6809TIP3    H220385   3.637   0.356   3.035
 6810TIP3   OH220386   7.965   5.161   0.336
 6810TIP3    H120387   7.988   5.069   0.333
 6810TIP3    H220388   7.877   5.163   0.374
 6811TIP3   OH220389   0.103   4.142   0.065
 6811TIP3    H120390   0.022   4.091   0.078
 6811TIP3    H220391   0.092   4.183  -0.020
 6812TIP3   OH220392   1.252   0.619   2.892
 6812TIP3    H120393   1.219   0.538   2.853
 6812TIP3    H220394   1.279   0.594   2.980
 6813TIP3   OH220395   6.271   0.311   1.671
 6813TIP3    H120396   6.254   0.337   1.761
 6813TIP3    H220397   6.291   0.393   1.626
 6814TIP3   OH220398   5.273   0.318   5.374
 6814TIP3    H120399   5.227   0.302   5.456
 6814TIP3    H220400   5.277   0.413   5.367
 6815TIP3   OH220401   5.567   7.125   3.798
 6815TIP3    H120402   5.503   7.189   3.828
 6815TIP3    H220403   5.550   7.047   3.850
 6816TIP3   OH220404   3.490   6.142   0.739
 6816TIP3    H120405   3.511   6.226   0.698
 6816TIP3    H220406   3.465   6.086   0.666
 6817TIP3   OH220407   4.419   7.449   1.896
 6817TIP3    H120408   4.482   7.519   1.880
 6817TIP3    H220409   4.341   7.494   1.929
 6818TIP3   OH220410   3.592   1.097   5.560
 6818TIP3    H120411   3.542   1.025   5.599
 6818TIP3    H220412   3.623   1.148   5.635
 6819TIP3   OH220413   1.092   4.605   0.383
 6819TIP3    H120414   1.136   4.608   0.298
 6819TIP3    H220415   1.118   4.522   0.421
 6820TIP3   OH220416   2.885   6.952   1.341
 6820TIP3    H120417   2.933   6.991   1.268
 6820TIP3    H220418   2.859   7.027   1.395
 6821TIP3   OH220419   5.866   3.174   6.659
 6821TIP3    H120420   5.904   3.261   6.676
 6821TIP3    H220421   5.925   3.113   6.703
 6822TIP3   OH220422   1.231   3.283   2.943
 6822TIP3    H120423   1.187   3.359   2.982
 6822TIP3    H220424   1.204   3.284   2.851
 6823TIP3   OH220425   6.077   0.326   4.870
 6823TIP3    H120426   6.116   0.306   4.955
 6823TIP3    H220427   5.986   0.348   4.890
 6824TIP3   OH220428   6.093   7.664   2.800
 6824TIP3    H120429   6.175   7.671   2.849
 6824TIP3    H220430   6.076   7.570   2.796
 6825TIP3   OH220431   4.642   7.429   4.398
 6825TIP3    H120432   4.681   7.412   4.484
 6825TIP3    H220433   4.590   7.508   4.410
 6826TIP3   OH220434   4.153   1.811   4.070
 6826TIP3    H120435   4.195   1.895   4.087
 6826TIP3    H220436   4.060   1.827   4.085
 6827TIP3   OH220437   6.165   2.596   4.046
 6827TIP3    H120438   6.167   2.616   4.140
 6827TIP3    H220439   6.099   2.655   4.011
 6828TIP3   OH220440   7.355   6.002   3.974
 6828TIP3    H120441   7.410   6.001   3.896
 6828TIP3    H220442   7.266   6.012   3.941
 6829TIP3   OH220443   4.864   1.358   1.359
 6829TIP3    H120444   4.871   1.268   1.326
 6829TIP3    H220445   4.772   1.366   1.387
 6830TIP3   OH220446   7.895   2.928   1.579
 6830TIP3    H120447   7.822   2.880   1.620
 6830TIP3    H220448   7.898   2.894   1.489
 6831TIP3   OH220449   5.540   4.767   2.730
 6831TIP3    H120450   5.504   4.710   2.799
 6831TIP3    H220451   5.622   4.725   2.704
 6832TIP3   OH220452   2.536   0.353   3.945
 6832TIP3    H120453   2.594   0.348   3.869
 6832TIP3    H220454   2.451   0.376   3.909
 6833TIP3   OH220455   0.552   6.760   5.786
 6833TIP3    H120456   0.593   6.674   5.783
 6833TIP3    H220457   0.526   6.778   5.696
 6834TIP3   OH220458   8.034   5.748   4.776
 6834TIP3    H120459   8.127   5.766   4.791
 6834TIP3    H220460   8.025   5.741   4.681
 6835TIP3   OH220461   7.984   4.454   1.121
 6835TIP3    H120462   7.965   4.520   1.054
 6835TIP3    H220463   7.907   4.455   1.178
 6836TIP3   OH220464   7.336   6.741   3.351
 6836TIP3    H120465   7.293   6.788   3.422
 6836TIP3    H220466   7.399   6.683   3.396
 6837TIP3   OH220467   5.271   2.782   3.296
 6837TIP3    H120468   5.204   2.807   3.233
 6837TIP3    H220469   5.340   2.848   3.285
 6838TIP3   OH220470   7.480   7.311   5.782
 6838TIP3    H120471   7.564   7.355   5.798
 6838TIP3    H220472   7.483   7.285   5.690
 6839TIP3   OH220473   3.384   7.107   5.538
 6839TIP3    H120474   3.473   7.116   5.573
 6839TIP3    H220475   3.397   7.076   5.448
 6840TIP3   OH220476   0.859   4.192   1.596
 6840TIP3    H120477   0.821   4.105   1.580
 6840TIP3    H220478   0.835   4.212   1.686
 6841TIP3   OH220479   7.823   6.375   1.457
 6841TIP3    H120480   7.734   6.404   1.436
 6841TIP3    H220481   7.859   6.348   1.372
 6842TIP3   OH220482   7.097   2.140   6.755
 6842TIP3    H120483   7.182   2.100   6.775
 6842TIP3    H220484   7.117   2.210   6.693
 6843TIP3   OH220485   1.425   2.611   2.245
 6843TIP3    H120486   1.351   2.586   2.191
 6843TIP3    H220487   1.396   2.691   2.290
 6844TIP3   OH220488   6.991   6.888   3.441
 6844TIP3    H120489   7.002   6.845   3.356
 6844TIP3    H220490   7.048   6.838   3.500
 6845TIP3   OH220491   5.435   1.805   6.633
 6845TIP3    H120492   5.379   1.729   6.649
 6845TIP3    H220493   5.500   1.774   6.570
 6846TIP3   OH220494   1.055   3.142   2.143
 6846TIP3    H120495   1.122   3.116   2.207
 6846TIP3    H220496   1.047   3.237   2.155
 6847TIP3   OH220497   4.077   2.664   1.755
 6847TIP3    H120498   4.022   2.590   1.783
 6847TIP3    H220499   4.100   2.709   1.837
 6848TIP3   OH220500   0.928   7.368   4.470
 6848TIP3    H120501   0.977   7.316   4.534
 6848TIP3    H220502   0.840   7.374   4.508
 6849TIP3   OH220503   5.857   3.054   1.590
 6849TIP3    H120504   5.923   3.058   1.659
 6849TIP3    H220505   5.902   3.085   1.511
 6850TIP3   OH220506   7.516   3.732   2.032
 6850TIP3    H120507   7.504   3.658   2.092
 6850TIP3    H220508   7.508   3.809   2.087
 6851TIP3   OH220509   3.863   1.433   4.290
 6851TIP3    H120510   3.886   1.435   4.383
 6851TIP3    H220511   3.776   1.394   4.288
 6852TIP3   OH220512   5.892   0.179   6.056
 6852TIP3    H120513   5.927   0.265   6.032
 6852TIP3    H220514   5.960   0.138   6.109
 6853TIP3   OH220515   4.535   1.230   6.096
 6853TIP3    H120516   4.480   1.153   6.107
 6853TIP3    H220517   4.503   1.293   6.161
 6854TIP3   OH220518   7.156   0.289   2.141
 6854TIP3    H120519   7.149   0.194   2.139
 6854TIP3    H220520   7.130   0.317   2.053
 6855TIP3   OH220521   4.239   1.230   4.440
 6855TIP3    H120522   4.182   1.305   4.458
 6855TIP3    H220523   4.317   1.267   4.399
 6856TIP3   OH220524   0.892   6.848   6.587
 6856TIP3    H120525   0.907   6.850   6.493
 6856TIP3    H220526   0.863   6.758   6.604
 6857TIP3   OH220527   0.026   2.869   5.301
 6857TIP3    H120528   0.070   2.826   5.227
 6857TIP3    H220529  -0.062   2.830   5.302
 6858TIP3   OH220530   2.429   3.521   4.036
 6858TIP3    H120531   2.479   3.449   4.073
 6858TIP3    H220532   2.457   3.526   3.945
 6859TIP3   OH220533   7.396   3.383   5.845
 6859TIP3    H120534   7.342   3.324   5.898
 6859TIP3    H220535   7.456   3.424   5.908
 6860TIP3   OH220536   7.318   4.656   5.156
 6860TIP3    H120537   7.243   4.644   5.214
 6860TIP3    H220538   7.380   4.708   5.207
 6861TIP3   OH220539   4.647   1.894   3.017
 6861TIP3    H120540   4.627   1.951   2.943
 6861TIP3    H220541   4.741   1.905   3.031
 6862TIP3   OH220542   6.424   5.175   2.131
 6862TIP3    H120543   6.411   5.153   2.039
 6862TIP3    H220544   6.519   5.177   2.143
 6863TIP3   OH220545   0.477   4.701   3.435
 6863TIP3    H120546   0.534   4.748   3.496
 6863TIP3    H220547   0.414   4.656   3.491
 6864TIP3   OH220548   3.993   0.555   1.420
 6864TIP3    H120549   3.963   0.625   1.363
 6864TIP3    H220550   4.065   0.514   1.372
 6865TIP3   OH220551   0.405   1.361   0.042
 6865TIP3    H120552   0.435   1.452   0.036
 6865TIP3    H220553   0.312   1.368   0.065
 6866TIP3   OH220554   5.586   3.115   4.983
 6866TIP3    H120555   5.514   3.176   4.997
 6866TIP3    H220556   5.620   3.098   5.071
 6867TIP3   OH220557   7.541   4.366   2.962
 6867TIP3    H120558   7.581   4.334   3.043
 6867TIP3    H220559   7.466   4.308   2.948
 6868TIP3   OH220560   7.172   3.862   4.556
 6868TIP3    H120561   7.233   3.791   4.578
 6868TIP3    H220562   7.142   3.896   4.640
 6869TIP3   OH220563   1.319   3.707   3.144
 6869TIP3    H120564   1.252   3.715   3.211
 6869TIP3    H220565   1.349   3.617   3.150
 6870TIP3   OH220566   3.577   5.612   0.467
 6870TIP3    H120567   3.547   5.634   0.555
 6870TIP3    H220568   3.668   5.584   0.479
 6871TIP3   OH220569   4.271   0.357   6.785
 6871TIP3    H120570   4.198   0.331   6.727
 6871TIP3    H220571   4.323   0.417   6.732
 6872TIP3   OH220572   4.311   6.140   5.989
 6872TIP3    H120573   4.354   6.211   5.942
 6872TIP3    H220574   4.377   6.070   5.991
 6873TIP3   OH220575   2.826   7.249   4.578
 6873TIP3    H120576   2.758   7.314   4.560
 6873TIP3    H220577   2.900   7.301   4.609
 6874TIP3   OH220578   2.593   0.109   5.683
 6874TIP3    H120579   2.677   0.112   5.638
 6874TIP3    H220580   2.572   0.201   5.701
 6875TIP3   OH220581   5.509   3.964   3.484
 6875TIP3    H120582   5.511   4.044   3.432
 6875TIP3    H220583   5.446   3.982   3.554
 6876TIP3   OH220584   6.638   1.840   1.804
 6876TIP3    H120585   6.644   1.778   1.731
 6876TIP3    H220586   6.582   1.910   1.771
 6877TIP3   OH220587   1.933   5.629   1.484
 6877TIP3    H120588   2.024   5.642   1.509
 6877TIP3    H220589   1.883   5.673   1.553
 6878TIP3   OH220590   6.394   0.713   0.681
 6878TIP3    H120591   6.463   0.655   0.714
 6878TIP3    H220592   6.393   0.697   0.586
 6879TIP3   OH220593   1.296   3.808   2.101
 6879TIP3    H120594   1.207   3.812   2.136
 6879TIP3    H220595   1.284   3.804   2.006
 6880TIP3   OH220596   1.964   7.457   2.002
 6880TIP3    H120597   1.958   7.402   2.080
 6880TIP3    H220598   2.053   7.491   2.003
 6881TIP3   OH220599   6.287   5.386   5.337
 6881TIP3    H120600   6.197   5.364   5.362
 6881TIP3    H220601   6.340   5.318   5.378
 6882TIP3   OH220602   4.345   1.941   0.766
 6882TIP3    H120603   4.384   2.026   0.749
 6882TIP3    H220604   4.410   1.895   0.819
 6883TIP3   OH220605   8.110   3.341   1.707
 6883TIP3    H120606   8.173   3.275   1.736
 6883TIP3    H220607   8.157   3.392   1.641
 6884TIP3   OH220608   1.922   5.641   2.598
 6884TIP3    H120609   1.937   5.706   2.529
 6884TIP3    H220610   1.996   5.581   2.591
 6885TIP3   OH220611   5.230   6.612   1.558
 6885TIP3    H120612   5.167   6.679   1.587
 6885TIP3    H220613   5.304   6.662   1.523
 6886TIP3   OH220614   7.505   0.520   0.666
 6886TIP3    H120615   7.581   0.461   0.661
 6886TIP3    H220616   7.436   0.474   0.620
 6887TIP3   OH220617   2.938   3.517   1.180
 6887TIP3    H120618   2.989   3.563   1.114
 6887TIP3    H220619   2.943   3.573   1.258
 6888TIP3   OH220620   1.545   5.692   3.538
 6888TIP3    H120621   1.559   5.775   3.582
 6888TIP3    H220622   1.511   5.634   3.606
 6889TIP3   OH220623   4.245   0.800   4.530
 6889TIP3    H120624   4.258   0.718   4.482
 6889TIP3    H220625   4.200   0.857   4.468
 6890TIP3   OH220626   4.953   0.087   3.977
 6890TIP3    H120627   4.898   0.104   4.054
 6890TIP3    H220628   5.032   0.138   3.992
 6891TIP3   OH220629   7.418   4.343   1.949
 6891TIP3    H120630   7.345   4.342   2.010
 6891TIP3    H220631   7.399   4.271   1.889
 6892TIP3   OH220632   7.390   0.928   1.816
 6892TIP3    H120633   7.432   0.945   1.901
 6892TIP3    H220634   7.303   0.966   1.824
 6893TIP3   OH220635   5.012   1.067   4.308
 6893TIP3    H120636   5.069   1.134   4.344
 6893TIP3    H220637   4.969   1.109   4.233
 6894TIP3   OH220638   1.996   5.456   5.484
 6894TIP3    H120639   1.908   5.441   5.520
 6894TIP3    H220640   2.001   5.399   5.407
 6895TIP3   OH220641   1.241   7.695   6.597
 6895TIP3    H120642   1.270   7.768   6.543
 6895TIP3    H220643   1.234   7.621   6.537
 6896TIP3   OH220644   7.854   7.236   3.104
 6896TIP3    H120645   7.773   7.279   3.078
 6896TIP3    H220646   7.838   7.143   3.086
 6897TIP3   OH220647   4.725   4.549   5.124
 6897TIP3    H120648   4.743   4.619   5.186
 6897TIP3    H220649   4.810   4.508   5.108
 6898TIP3   OH220650   1.651   1.480   0.497
 6898TIP3    H120651   1.668   1.425   0.420
 6898TIP3    H220652   1.713   1.448   0.563
 6899TIP3   OH220653   1.865   1.894   0.945
 6899TIP3    H120654   1.797   1.957   0.924
 6899TIP3    H220655   1.890   1.856   0.861
 6900TIP3   OH220656   0.460   4.815   0.871
 6900TIP3    H120657   0.516   4.739   0.853
 6900TIP3    H220658   0.423   4.796   0.957
 6901TIP3   OH220659   4.352   5.182   6.656
 6901TIP3    H120660   4.322   5.126   6.585
 6901TIP3    H220661   4.315   5.268   6.638
 6902TIP3   OH220662   5.050   1.952   4.431
 6902TIP3    H120663   5.068   1.945   4.337
 6902TIP3    H220664   5.114   1.894   4.472
 6903TIP3   OH220665   5.824   1.562   0.339
 6903TIP3    H120666   5.819   1.605   0.424
 6903TIP3    H220667   5.799   1.630   0.276
 6904TIP3   OH220668   5.856   3.734   5.169
 6904TIP3    H120669   5.929   3.685   5.208
 6904TIP3    H220670   5.789   3.736   5.237
 6905TIP3   OH220671   7.551   3.324   0.818
 6905TIP3    H120672   7.630   3.276   0.796
 6905TIP3    H220673   7.533   3.301   0.909
 6906TIP3   OH220674   3.640   5.640   6.449
 6906TIP3    H120675   3.729   5.664   6.426
 6906TIP3    H220676   3.585   5.707   6.406
 6907TIP3   OH220677   7.119   1.553   1.973
 6907TIP3    H120678   7.044   1.509   2.012
 6907TIP3    H220679   7.194   1.500   1.999
 6908TIP3   OH220680   3.827   7.125   2.929
 6908TIP3    H120681   3.795   7.074   3.004
 6908TIP3    H220682   3.886   7.066   2.883
 6909TIP3   OH220683   1.775   2.690   0.649
 6909TIP3    H120684   1.869   2.679   0.664
 6909TIP3    H220685   1.737   2.606   0.676
 6910TIP3   OH220686   5.673   0.537   5.366
 6910TIP3    H120687   5.701   0.624   5.394
 6910TIP3    H220688   5.581   0.548   5.340
 6911TIP3   OH220689   7.659   5.087   1.424
 6911TIP3    H120690   7.654   5.024   1.495
 6911TIP3    H220691   7.752   5.109   1.417
 6912TIP3   OH220692   5.409   7.175   1.865
 6912TIP3    H120693   5.367   7.259   1.844
 6912TIP3    H220694   5.344   7.129   1.918
 6913TIP3   OH220695   2.243   5.393   5.236
 6913TIP3    H120696   2.169   5.342   5.268
 6913TIP3    H220697   2.245   5.377   5.142
 6914TIP3   OH220698   2.971   5.047   3.461
 6914TIP3    H120699   2.943   4.971   3.512
 6914TIP3    H220700   2.954   5.122   3.518
 6915TIP3   OH220701   2.223   6.438   0.367
 6915TIP3    H120702   2.198   6.372   0.302
 6915TIP3    H220703   2.183   6.519   0.336
 6916TIP3   OH220704   7.429   3.021   0.900
 6916TIP3    H120705   7.425   3.094   0.839
 6916TIP3    H220706   7.415   2.943   0.845
 6917TIP3   OH220707   2.650   1.073   1.493
 6917TIP3    H120708   2.626   1.148   1.548
 6917TIP3    H220709   2.681   1.112   1.411
 6918TIP3   OH220710   1.653   6.436   0.638
 6918TIP3    H120711   1.565   6.469   0.652
 6918TIP3    H220712   1.644   6.341   0.640
 6919TIP3   OH220713   6.162   6.238   0.735
 6919TIP3    H120714   6.156   6.279   0.649
 6919TIP3    H220715   6.075   6.250   0.773
 6920TIP3   OH220716   1.809   6.865   4.967
 6920TIP3    H120717   1.862   6.854   4.888
 6920TIP3    H220718   1.740   6.927   4.942
 6921TIP3   OH220719   5.214   0.441   5.015
 6921TIP3    H120720   5.174   0.369   5.063
 6921TIP3    H220721   5.259   0.400   4.941
 6922TIP3   OH220722   2.084   4.791   5.841
 6922TIP3    H120723   2.099   4.745   5.758
 6922TIP3    H220724   2.114   4.729   5.908
 6923TIP3   OH220725   6.922   6.580   2.348
 6923TIP3    H120726   6.923   6.485   2.365
 6923TIP3    H220727   6.903   6.587   2.255
 6924TIP3   OH220728   1.910   0.208   0.508
 6924TIP3    H120729   2.005   0.203   0.494
 6924TIP3    H220730   1.893   0.302   0.517
 6925TIP3   OH220731   8.066   5.871   3.474
 6925TIP3    H120732   8.134   5.915   3.526
 6925TIP3    H220733   8.112   5.798   3.433
 6926TIP3   OH220734   3.681   3.178   5.826
 6926TIP3    H120735   3.642   3.172   5.739
 6926TIP3    H220736   3.663   3.092   5.866
 6927TIP3   OH220737   6.436   7.289   0.964
 6927TIP3    H120738   6.352   7.293   0.918
 6927TIP3    H220739   6.412   7.293   1.057
 6928TIP3   OH220740   3.493   2.425   4.162
 6928TIP3    H120741   3.489   2.373   4.242
 6928TIP3    H220742   3.566   2.387   4.113
 6929TIP3   OH220743   7.563   3.591   1.153
 6929TIP3    H120744   7.573   3.579   1.248
 6929TIP3    H220745   7.629   3.657   1.130
 6930TIP3   OH220746   2.348   2.222   2.293
 6930TIP3    H120747   2.378   2.299   2.341
 6930TIP3    H220748   2.381   2.236   2.204
 6931TIP3   OH220749   4.665   0.233   2.703
 6931TIP3    H120750   4.662   0.245   2.608
 6931TIP3    H220751   4.751   0.266   2.729
 6932TIP3   OH220752   0.029   2.210   0.029
 6932TIP3    H120753   0.035   2.138   0.091
 6932TIP3    H220754  -0.005   2.171  -0.051
 6933TIP3   OH220755   4.446   0.820   2.377
 6933TIP3    H120756   4.402   0.882   2.435
 6933TIP3    H220757   4.540   0.839   2.388
 6934TIP3   OH220758   2.303   3.534   2.226
 6934TIP3    H120759   2.223   3.491   2.256
 6934TIP3    H220760   2.284   3.560   2.136
 6935TIP3   OH220761   5.164   5.291   2.966
 6935TIP3    H120762   5.178   5.341   3.046
 6935TIP3    H220763   5.157   5.200   2.995
 6936TIP3   OH220764   5.890   6.427   3.329
 6936TIP3    H120765   5.884   6.522   3.336
 6936TIP3    H220766   5.977   6.406   3.363
 6937TIP3   OH220767   4.171   7.453   5.264
 6937TIP3    H120768   4.092   7.399   5.274
 6937TIP3    H220769   4.195   7.443   5.172
 6938TIP3   OH220770   6.165   0.175   0.085
 6938TIP3    H120771   6.115   0.248   0.122
 6938TIP3    H220772   6.121   0.155   0.002
 6939TIP3   OH220773   1.471   6.881   6.214
 6939TIP3    H120774   1.450   6.930   6.134
 6939TIP3    H220775   1.525   6.941   6.265
 6940TIP3   OH220776   4.268   0.581   2.639
 6940TIP3    H120777   4.356   0.555   2.668
 6940TIP3    H220778   4.266   0.676   2.651
 6941TIP3   OH220779   3.974   5.289   6.469
 6941TIP3    H120780   4.013   5.332   6.393
 6941TIP3    H220781   3.888   5.329   6.477
 6942TIP3   OH220782   6.437   5.984   3.065
 6942TIP3    H120783   6.492   5.920   3.110
 6942TIP3    H220784   6.492   6.062   3.059
 6943TIP3   OH220785   5.464   2.507   0.583
 6943TIP3    H120786   5.504   2.571   0.642
 6943TIP3    H220787   5.470   2.424   0.629
 6944TIP3   OH220788   4.788   6.415   3.010
 6944TIP3    H120789   4.861   6.353   3.008
 6944TIP3    H220790   4.765   6.422   3.102
 6945TIP3   OH220791   5.285   2.618   1.935
 6945TIP3    H120792   5.270   2.611   2.030
 6945TIP3    H220793   5.233   2.694   1.908
 6946TIP3   OH220794   1.395   6.238   0.456
 6946TIP3    H120795   1.339   6.190   0.517
 6946TIP3    H220796   1.387   6.329   0.483
 6947TIP3   OH220797   6.240   1.052   5.965
 6947TIP3    H120798   6.238   1.020   5.875
 6947TIP3    H220799   6.246   0.973   6.018
 6948TIP3   OH220800   6.467   3.433   4.255
 6948TIP3    H120801   6.497   3.355   4.302
 6948TIP3    H220802   6.521   3.435   4.176
 6949TIP3   OH220803   4.115   2.833   5.377
 6949TIP3    H120804   4.166   2.851   5.298
 6949TIP3    H220805   4.180   2.831   5.447
 6950TIP3   OH220806   4.603   5.699   2.531
 6950TIP3    H120807   4.615   5.631   2.464
 6950TIP3    H220808   4.605   5.781   2.483
 6951TIP3   OH220809   7.606   6.760   2.973
 6951TIP3    H120810   7.674   6.811   2.929
 6951TIP3    H220811   7.563   6.823   3.030
 6952TIP3   OH220812   0.400   5.939   6.365
 6952TIP3    H120813   0.367   6.009   6.421
 6952TIP3    H220814   0.432   5.872   6.425
 6953TIP3   OH220815   4.954   6.067   2.159
 6953TIP3    H120816   4.934   6.061   2.252
 6953TIP3    H220817   5.040   6.110   2.155
 6954TIP3   OH220818   3.585   0.460   6.520
 6954TIP3    H120819   3.668   0.505   6.509
 6954TIP3    H220820   3.586   0.428   6.610
 6955TIP3   OH220821   5.126   3.552   2.460
 6955TIP3    H120822   5.097   3.478   2.512
 6955TIP3    H220823   5.103   3.629   2.512
 6956TIP3   OH220824   2.840   4.333   5.636
 6956TIP3    H120825   2.929   4.317   5.605
 6956TIP3    H220826   2.802   4.391   5.570
 6957TIP3   OH220827   2.135   4.975   4.100
 6957TIP3    H120828   2.213   4.920   4.091
 6957TIP3    H220829   2.089   4.964   4.017
 6958TIP3   OH220830   3.073   4.459   2.188
 6958TIP3    H120831   3.132   4.416   2.126
 6958TIP3    H220832   3.106   4.549   2.195
 6959TIP3   OH220833   5.347   7.772   1.752
 6959TIP3    H120834   5.425   7.718   1.739
 6959TIP3    H220835   5.376   7.843   1.810
 6960TIP3   OH220836   6.493   3.044   2.163
 6960TIP3    H120837   6.492   3.009   2.074
 6960TIP3    H220838   6.584   3.033   2.192
 6961TIP3   OH220839   2.779   2.421   1.310
 6961TIP3    H120840   2.794   2.404   1.217
 6961TIP3    H220841   2.846   2.485   1.334
 6962TIP3   OH220842   3.834   2.623   3.031
 6962TIP3    H120843   3.742   2.649   3.023
 6962TIP3    H220844   3.831   2.527   3.041
 6963TIP3   OH220845   7.662   4.884   1.608
 6963TIP3    H120846   7.744   4.843   1.635
 6963TIP3    H220847   7.603   4.871   1.683
 6964TIP3   OH220848   4.460   2.363   5.326
 6964TIP3    H120849   4.500   2.317   5.253
 6964TIP3    H220850   4.525   2.428   5.353
 6965TIP3   OH220851   5.154   5.337   3.504
 6965TIP3    H120852   5.073   5.379   3.533
 6965TIP3    H220853   5.129   5.289   3.425
 6966TIP3   OH220854   3.077   1.400   6.657
 6966TIP3    H120855   2.992   1.388   6.697
 6966TIP3    H220856   3.099   1.313   6.621
 6967TIP3   OH220857   2.062   7.534   6.607
 6967TIP3    H120858   2.085   7.626   6.621
 6967TIP3    H220859   2.129   7.485   6.655
 6968TIP3   OH220860   3.049   6.048   3.305
 6968TIP3    H120861   2.977   6.004   3.350
 6968TIP3    H220862   3.099   5.978   3.265
 6969TIP3   OH220863   3.244   5.405   1.137
 6969TIP3    H120864   3.153   5.376   1.137
 6969TIP3    H220865   3.277   5.383   1.050
 6970TIP3   OH220866   0.339   7.436   4.905
 6970TIP3    H120867   0.282   7.455   4.832
 6970TIP3    H220868   0.288   7.457   4.983
 6971TIP3   OH220869   7.286   7.643   6.486
 6971TIP3    H120870   7.359   7.648   6.424
 6971TIP3    H220871   7.248   7.556   6.471
 6972TIP3   OH220872   4.674   0.720   6.683
 6972TIP3    H120873   4.704   0.698   6.595
 6972TIP3    H220874   4.705   0.810   6.698
 6973TIP3   OH220875   1.972   0.882   4.114
 6973TIP3    H120876   2.043   0.836   4.070
 6973TIP3    H220877   1.932   0.815   4.170
 6974TIP3   OH220878   4.924   4.532   2.701
 6974TIP3    H120879   4.886   4.539   2.613
 6974TIP3    H220880   5.018   4.522   2.685
 6975TIP3   OH220881   6.822   6.926   1.686
 6975TIP3    H120882   6.917   6.932   1.675
 6975TIP3    H220883   6.789   6.929   1.596
 6976TIP3   OH220884   6.771   0.382   2.084
 6976TIP3    H120885   6.843   0.362   2.143
 6976TIP3    H220886   6.726   0.456   2.125
 6977TIP3   OH220887   7.871   2.785   6.059
 6977TIP3    H120888   7.776   2.786   6.067
 6977TIP3    H220889   7.889   2.823   5.973
 6978TIP3   OH220890   8.127   7.684   1.304
 6978TIP3    H120891   8.212   7.694   1.348
 6978TIP3    H220892   8.117   7.766   1.255
 6979TIP3   OH220893   1.896   5.846   2.230
 6979TIP3    H120894   1.944   5.765   2.215
 6979TIP3    H220895   1.909   5.897   2.150
 6980TIP3   OH220896   0.498   7.406   6.458
 6980TIP3    H120897   0.551   7.335   6.495
 6980TIP3    H220898   0.556   7.450   6.396
 6981TIP3   OH220899   8.206   0.319   4.609
 6981TIP3    H120900   8.154   0.352   4.536
 6981TIP3    H220901   8.250   0.397   4.644
 6982TIP3   OH220902   4.714   3.356   4.040
 6982TIP3    H120903   4.639   3.368   3.983
 6982TIP3    H220904   4.716   3.263   4.059
 6983TIP3   OH220905   0.232   4.246   0.604
 6983TIP3    H120906   0.187   4.281   0.681
 6983TIP3    H220907   0.260   4.323   0.555
 6984TIP3   OH220908   4.256   0.413   3.169
 6984TIP3    H120909   4.182   0.432   3.228
 6984TIP3    H220910   4.219   0.359   3.100
 6985TIP3   OH220911   7.339   1.109   4.987
 6985TIP3    H120912   7.357   1.143   4.899
 6985TIP3    H220913   7.251   1.140   5.008
 6986TIP3   OH220914   5.033   6.331   3.051
 6986TIP3    H120915   5.073   6.247   3.075
 6986TIP3    H220916   5.083   6.396   3.101
 6987TIP3   OH220917   1.763   1.447   2.552
 6987TIP3    H120918   1.687   1.390   2.561
 6987TIP3    H220919   1.763   1.472   2.459
 6988TIP3   OH220920   4.397   3.324   6.286
 6988TIP3    H120921   4.399   3.267   6.209
 6988TIP3    H220922   4.305   3.348   6.297
 6989TIP3   OH220923   1.137   2.825   3.397
 6989TIP3    H120924   1.199   2.802   3.327
 6989TIP3    H220925   1.063   2.765   3.384
 6990TIP3   OH220926   0.369   1.530   0.501
 6990TIP3    H120927   0.329   1.475   0.568
 6990TIP3    H220928   0.362   1.480   0.420
 6991TIP3   OH220929   1.681   0.370   0.348
 6991TIP3    H120930   1.735   0.437   0.390
 6991TIP3    H220931   1.685   0.390   0.255
 6992TIP3   OH220932   0.589   0.852   6.548
 6992TIP3    H120933   0.508   0.805   6.565
 6992TIP3    H220934   0.561   0.940   6.524
 6993TIP3   OH220935   2.637   1.954   6.695
 6993TIP3    H120936   2.590   1.871   6.693
 6993TIP3    H220937   2.639   1.982   6.603
 6994TIP3   OH220938   3.390   3.538   1.944
 6994TIP3    H120939   3.465   3.590   1.972
 6994TIP3    H220940   3.409   3.515   1.853
 6995TIP3   OH220941   7.880   0.976   0.706
 6995TIP3    H120942   7.841   1.055   0.669
 6995TIP3    H220943   7.805   0.922   0.730
 6996TIP3   OH220944   5.221   5.579   0.466
 6996TIP3    H120945   5.141   5.535   0.494
 6996TIP3    H220946   5.199   5.672   0.466
 6997TIP3   OH220947   6.447   1.132   3.569
 6997TIP3    H120948   6.446   1.092   3.481
 6997TIP3    H220949   6.538   1.119   3.599
 6998TIP3   OH220950   1.657   2.080   5.037
 6998TIP3    H120951   1.693   2.049   5.120
 6998TIP3    H220952   1.611   2.161   5.060
 6999TIP3   OH220953   0.170   3.529   5.109
 6999TIP3    H120954   0.201   3.600   5.052
 6999TIP3    H220955   0.113   3.476   5.053
 7000TIP3   OH220956   3.480   5.696   1.984
 7000TIP3    H120957   3.426   5.620   1.960
 7000TIP3    H220958   3.417   5.760   2.016
 7001TIP3   OH220959   6.442   2.829   0.416
 7001TIP3    H120960   6.410   2.750   0.459
 7001TIP3    H220961   6.471   2.799   0.330
 7002TIP3   OH220962   4.029   4.910   6.658
 7002TIP3    H120963   4.096   4.849   6.689
 7002TIP3    H220964   3.995   4.950   6.738
 7003TIP3   OH220965   4.030   0.913   5.058
 7003TIP3    H120966   4.068   0.837   5.015
 7003TIP3    H220967   4.099   0.980   5.055
 7004TIP3   OH220968   2.404   5.274   2.573
 7004TIP3    H120969   2.462   5.257   2.647
 7004TIP3    H220970   2.317   5.285   2.612
 7005TIP3   OH220971   3.748   7.707   3.106
 7005TIP3    H120972   3.829   7.660   3.123
 7005TIP3    H220973   3.682   7.661   3.159
 7006TIP3   OH220974   1.610   2.965   6.036
 7006TIP3    H120975   1.670   2.892   6.041
 7006TIP3    H220976   1.603   2.998   6.126
 7007TIP3   OH220977   3.354   3.553   4.194
 7007TIP3    H120978   3.321   3.494   4.261
 7007TIP3    H220979   3.284   3.558   4.129
 7008TIP3   OH220980   5.604   7.714   6.345
 7008TIP3    H120981   5.674   7.651   6.328
 7008TIP3    H220982   5.649   7.792   6.376
 7009TIP3   OH220983   6.158   7.489   5.308
 7009TIP3    H120984   6.137   7.452   5.223
 7009TIP3    H220985   6.126   7.424   5.371
 7010TIP3   OH220986   1.773   3.337   2.827
 7010TIP3    H120987   1.681   3.341   2.853
 7010TIP3    H220988   1.821   3.348   2.909
 7011TIP3   OH220989   1.015   1.010   3.555
 7011TIP3    H120990   0.961   0.946   3.601
 7011TIP3    H220991   0.987   1.095   3.590
 7012TIP3   OH220992   7.802   0.275   3.272
 7012TIP3    H120993   7.782   0.346   3.332
 7012TIP3    H220994   7.769   0.306   3.187
 7013TIP3   OH220995   4.503   0.695   1.592
 7013TIP3    H120996   4.414   0.673   1.563
 7013TIP3    H220997   4.548   0.722   1.512
 7014TIP3   OH220998   6.869   7.466   4.843
 7014TIP3    H120999   6.913   7.537   4.794
 7014TIP3    H221000   6.776   7.489   4.840
 7015TIP3   OH221001   4.053   2.818   1.974
 7015TIP3    H121002   3.958   2.832   1.976
 7015TIP3    H221003   4.074   2.781   2.059
 7016TIP3   OH221004   5.179   2.543   0.171
 7016TIP3    H121005   5.251   2.569   0.229
 7016TIP3    H221006   5.192   2.596   0.092
 7017TIP3   OH221007   2.868   2.236   4.805
 7017TIP3    H121008   2.871   2.151   4.849
 7017TIP3    H221009   2.931   2.229   4.733
 7018TIP3   OH221010   3.074   1.637   5.955
 7018TIP3    H121011   3.157   1.672   5.923
 7018TIP3    H221012   3.097   1.596   6.039
 7019TIP3   OH221013   1.351   5.027   6.630
 7019TIP3    H121014   1.311   5.050   6.545
 7019TIP3    H221015   1.286   4.972   6.673
 7020TIP3   OH221016   6.947   5.644   1.790
 7020TIP3    H121017   7.017   5.655   1.855
 7020TIP3    H221018   6.904   5.730   1.786
 7021TIP3   OH221019   7.179   6.613   6.262
 7021TIP3    H121020   7.226   6.532   6.243
 7021TIP3    H221021   7.215   6.642   6.346
 7022TIP3   OH221022   1.159   4.896   4.872
 7022TIP3    H121023   1.215   4.854   4.807
 7022TIP3    H221024   1.150   4.832   4.942
 7023TIP3   OH221025   6.665   7.602   0.589
 7023TIP3    H121026   6.615   7.591   0.670
 7023TIP3    H221027   6.630   7.535   0.530
 7024TIP3   OH221028   4.745   3.429   2.237
 7024TIP3    H121029   4.749   3.414   2.143
 7024TIP3    H221030   4.729   3.342   2.274
 7025TIP3   OH221031   0.560   0.387   1.696
 7025TIP3    H121032   0.601   0.360   1.614
 7025TIP3    H221033   0.572   0.481   1.700
 7026TIP3   OH221034   6.410   1.013   1.256
 7026TIP3    H121035   6.427   1.060   1.174
 7026TIP3    H221036   6.317   0.993   1.253
 7027TIP3   OH221037   0.559   5.319   0.605
 7027TIP3    H121038   0.534   5.242   0.656
 7027TIP3    H221039   0.639   5.293   0.560
 7028TIP3   OH221040   2.201   5.739   2.869
 7028TIP3    H121041   2.138   5.807   2.893
 7028TIP3    H221042   2.234   5.765   2.783
 7029TIP3   OH221043   7.815   5.354   5.499
 7029TIP3    H121044   7.873   5.307   5.440
 7029TIP3    H221045   7.827   5.311   5.584
 7030TIP3   OH221046   8.219   1.150   4.827
 7030TIP3    H121047   8.239   1.130   4.918
 7030TIP3    H221048   8.147   1.212   4.831
 7031TIP3   OH221049   5.253   2.291   6.522
 7031TIP3    H121050   5.293   2.348   6.587
 7031TIP3    H221051   5.325   2.263   6.466
 7032TIP3   OH221052   5.154   0.486   5.538
 7032TIP3    H121053   5.064   0.476   5.570
 7032TIP3    H221054   5.174   0.578   5.554
 7033TIP3   OH221055   6.036   3.938   3.030
 7033TIP3    H121056   5.993   3.941   2.945
 7033TIP3    H221057   6.016   4.023   3.070
 7034TIP3   OH221058   5.234   5.661   1.451
 7034TIP3    H121059   5.148   5.701   1.461
 7034TIP3    H221060   5.293   5.716   1.502
 7035TIP3   OH221061   3.945   1.808   5.767
 7035TIP3    H121062   4.009   1.832   5.701
 7035TIP3    H221063   3.873   1.870   5.755
 7036TIP3   OH221064   6.877   0.385   6.425
 7036TIP3    H121065   6.947   0.409   6.485
 7036TIP3    H221066   6.880   0.450   6.355
 7037TIP3   OH221067   4.873   5.740   2.989
 7037TIP3    H121068   4.879   5.644   2.988
 7037TIP3    H221069   4.947   5.768   3.043
 7038TIP3   OH221070   6.307   5.422   2.182
 7038TIP3    H121071   6.233   5.470   2.144
 7038TIP3    H221072   6.284   5.330   2.172
 7039TIP3   OH221073   6.522   5.380   3.025
 7039TIP3    H121074   6.563   5.369   3.111
 7039TIP3    H221075   6.456   5.310   3.020
 7040TIP3   OH221076   5.021   4.686   6.041
 7040TIP3    H121077   5.066   4.608   6.075
 7040TIP3    H221078   5.062   4.703   5.956
 7041TIP3   OH221079   3.026   1.560   3.713
 7041TIP3    H121080   3.016   1.632   3.775
 7041TIP3    H221081   3.019   1.602   3.627
 7042TIP3   OH221082   5.804   0.452   4.873
 7042TIP3    H121083   5.797   0.493   4.787
 7042TIP3    H221084   5.718   0.415   4.889
 7043TIP3   OH221085   4.722   6.539   2.530
 7043TIP3    H121086   4.757   6.450   2.530
 7043TIP3    H221087   4.773   6.585   2.597
 7044TIP3   OH221088   5.539   3.097   3.413
 7044TIP3    H121089   5.497   3.064   3.493
 7044TIP3    H221090   5.471   3.091   3.346
 7045TIP3   OH221091   5.262   3.272   1.688
 7045TIP3    H121092   5.337   3.235   1.735
 7045TIP3    H221093   5.225   3.336   1.749
 7046TIP3   OH221094   6.407   0.024   2.430
 7046TIP3    H121095   6.385  -0.060   2.390
 7046TIP3    H221096   6.462   0.068   2.364
 7047TIP3   OH221097   2.561   6.383   4.400
 7047TIP3    H121098   2.629   6.369   4.334
 7047TIP3    H221099   2.487   6.330   4.369
 7048TIP3   OH221100   1.351   5.000   0.640
 7048TIP3    H121101   1.287   4.957   0.584
 7048TIP3    H221102   1.436   4.972   0.605
 7049TIP3   OH221103   5.713   0.604   2.600
 7049TIP3    H121104   5.705   0.602   2.696
 7049TIP3    H221105   5.807   0.604   2.584
 7050TIP3   OH221106   5.497   1.674   1.169
 7050TIP3    H121107   5.414   1.650   1.210
 7050TIP3    H221108   5.552   1.596   1.177
 7051TIP3   OH221109   5.974   7.558   1.863
 7051TIP3    H121110   5.985   7.463   1.870
 7051TIP3    H221111   5.945   7.585   1.950
 7052TIP3   OH221112   5.368   4.257   2.454
 7052TIP3    H121113   5.301   4.238   2.387
 7052TIP3    H221114   5.413   4.335   2.421
 7053TIP3   OH221115   4.089   0.688   0.247
 7053TIP3    H121116   4.089   0.664   0.154
 7053TIP3    H221117   3.996   0.689   0.272
 7054TIP3   OH221118   3.155   6.198   1.481
 7054TIP3    H121119   3.152   6.117   1.430
 7054TIP3    H221120   3.065   6.214   1.508
 7055TIP3   OH221121   2.276   5.714   2.093
 7055TIP3    H121122   2.328   5.760   2.027
 7055TIP3    H221123   2.327   5.637   2.116
 7056TIP3   OH221124   4.631   7.414   3.324
 7056TIP3    H121125   4.649   7.449   3.237
 7056TIP3    H221126   4.618   7.490   3.380
 7057TIP3   OH221127   6.253   6.532   5.624
 7057TIP3    H121128   6.321   6.595   5.649
 7057TIP3    H221129   6.261   6.461   5.688
 7058TIP3   OH221130   5.075   5.433   6.632
 7058TIP3    H121131   5.016   5.482   6.690
 7058TIP3    H221132   5.162   5.470   6.649
 7059TIP3   OH221133   7.814   0.518   5.821
 7059TIP3    H121134   7.778   0.535   5.735
 7059TIP3    H221135   7.746   0.546   5.882
 7060TIP3   OH221136   2.920   6.999   0.309
 7060TIP3    H121137   2.892   6.914   0.274
 7060TIP3    H221138   2.911   7.059   0.235
 7061TIP3   OH221139   6.459   1.153   2.086
 7061TIP3    H121140   6.460   1.058   2.070
 7061TIP3    H221141   6.446   1.191   1.999
 7062TIP3   OH221142   4.762   5.158   3.756
 7062TIP3    H121143   4.822   5.084   3.762
 7062TIP3    H221144   4.678   5.124   3.787
 7063TIP3   OH221145   2.134   3.637   4.931
 7063TIP3    H121146   2.197   3.617   5.000
 7063TIP3    H221147   2.054   3.592   4.957
 7064TIP3   OH221148   5.844   2.505   3.298
 7064TIP3    H121149   5.791   2.540   3.226
 7064TIP3    H221150   5.833   2.410   3.293
 7065TIP3   OH221151   8.239   7.813   0.407
 7065TIP3    H121152   8.334   7.814   0.392
 7065TIP3    H221153   8.204   7.764   0.332
 7066TIP3   OH221154   1.029   2.143   5.395
 7066TIP3    H121155   1.013   2.081   5.325
 7066TIP3    H221156   0.942   2.174   5.420
 7067TIP3   OH221157   1.588   1.675   5.728
 7067TIP3    H121158   1.586   1.617   5.804
 7067TIP3    H221159   1.659   1.737   5.747
 7068TIP3   OH221160   7.137   2.772   1.097
 7068TIP3    H121161   7.117   2.680   1.080
 7068TIP3    H221162   7.141   2.778   1.193
 7069TIP3   OH221163   0.485   5.141   3.055
 7069TIP3    H121164   0.428   5.075   3.095
 7069TIP3    H221165   0.549   5.162   3.123
 7070TIP3   OH221166   1.964   6.281   6.613
 7070TIP3    H121167   1.956   6.302   6.706
 7070TIP3    H221168   1.950   6.364   6.568
 7071TIP3   OH221169   1.310   2.534   0.545
 7071TIP3    H121170   1.376   2.561   0.609
 7071TIP3    H221171   1.299   2.441   0.561
 7072TIP3   OH221172   1.067   6.552   6.684
 7072TIP3    H121173   1.088   6.470   6.639
 7072TIP3    H221174   0.972   6.560   6.675
 7073TIP3   OH221175   1.032   0.841   2.007
 7073TIP3    H121176   0.940   0.862   2.026
 7073TIP3    H221177   1.050   0.763   2.059
 7074TIP3   OH221178   6.440   7.373   3.009
 7074TIP3    H121179   6.445   7.380   3.104
 7074TIP3    H221180   6.380   7.301   2.993
 7075TIP3   OH221181   1.026   7.420   4.839
 7075TIP3    H121182   1.066   7.402   4.754
 7075TIP3    H221183   1.023   7.516   4.844
 7076TIP3   OH221184   8.206   1.754   3.489
 7076TIP3    H121185   8.238   1.843   3.474
 7076TIP3    H221186   8.284   1.705   3.515
 7077TIP3   OH221187   7.042   4.031   1.621
 7077TIP3    H121188   7.084   4.104   1.666
 7077TIP3    H221189   7.092   3.954   1.648
 7078TIP3   OH221190   4.412   0.528   5.868
 7078TIP3    H121191   4.420   0.564   5.780
 7078TIP3    H221192   4.324   0.554   5.896
 7079TIP3   OH221193   7.111   5.352   0.706
 7079TIP3    H121194   7.117   5.304   0.788
 7079TIP3    H221195   7.085   5.441   0.733
 7080TIP3   OH221196   5.797   6.080   6.509
 7080TIP3    H121197   5.758   6.163   6.479
 7080TIP3    H221198   5.725   6.017   6.506
 7081TIP3   OH221199   7.977   4.357   6.484
 7081TIP3    H121200   8.064   4.393   6.463
 7081TIP3    H221201   7.986   4.263   6.469
 7082TIP3   OH221202   5.012   0.905   1.034
 7082TIP3    H121203   4.964   0.836   0.988
 7082TIP3    H221204   5.005   0.982   0.977
 7083TIP3   OH221205   7.726   2.087   2.208
 7083TIP3    H121206   7.805   2.109   2.159
 7083TIP3    H221207   7.730   2.142   2.287
 7084TIP3   OH221208   1.636   1.792   2.894
 7084TIP3    H121209   1.629   1.697   2.885
 7084TIP3    H221210   1.600   1.826   2.812
 7085TIP3   OH221211   3.793   5.746   6.087
 7085TIP3    H121212   3.798   5.812   6.019
 7085TIP3    H221213   3.702   5.716   6.086
 7086TIP3   OH221214   2.671   6.484   2.792
 7086TIP3    H121215   2.748   6.487   2.734
 7086TIP3    H221216   2.647   6.391   2.794
 7087TIP3   OH221217   0.888   3.979   3.026
 7087TIP3    H121218   0.905   3.988   3.120
 7087TIP3    H221219   0.975   3.970   2.986
 7088TIP3   OH221220   0.740   5.892   6.730
 7088TIP3    H121221   0.662   5.838   6.739
 7088TIP3    H221222   0.800   5.860   6.798
 7089TIP3   OH221223   6.770   3.303   6.600
 7089TIP3    H121224   6.692   3.270   6.643
 7089TIP3    H221225   6.762   3.398   6.606
 7090TIP3   OH221226   0.201   6.789   2.557
 7090TIP3    H121227   0.251   6.845   2.616
 7090TIP3    H221228   0.142   6.740   2.615
 7091TIP3   OH221229   0.638   6.070   6.560
 7091TIP3    H121230   0.545   6.051   6.573
 7091TIP3    H221231   0.684   5.997   6.602
 7092TIP3   OH221232   2.119   7.308   2.614
 7092TIP3    H121233   2.044   7.261   2.577
 7092TIP3    H221234   2.080   7.380   2.664
 7093TIP3   OH221235   4.247   6.263   2.091
 7093TIP3    H121236   4.247   6.174   2.057
 7093TIP3    H221237   4.225   6.253   2.184
 7094TIP3   OH221238   5.885   7.478   4.361
 7094TIP3    H121239   5.867   7.516   4.447
 7094TIP3    H221240   5.916   7.390   4.379
 7095TIP3   OH221241   2.001   1.922   1.937
 7095TIP3    H121242   1.965   1.950   2.021
 7095TIP3    H221243   1.970   1.987   1.874
 7096TIP3   OH221244   0.221   7.360   5.522
 7096TIP3    H121245   0.126   7.371   5.520
 7096TIP3    H221246   0.238   7.304   5.597
 7097TIP3   OH221247   1.952   2.041   6.395
 7097TIP3    H121248   1.954   1.946   6.385
 7097TIP3    H221249   2.038   2.063   6.431
 7098TIP3   OH221250   7.769   1.483   2.963
 7098TIP3    H121251   7.700   1.453   3.022
 7098TIP3    H221252   7.843   1.501   3.020
 7099TIP3   OH221253   7.637   7.666   4.976
 7099TIP3    H121254   7.607   7.745   5.021
 7099TIP3    H221255   7.639   7.599   5.045
 7100TIP3   OH221256   0.282   5.819   1.636
 7100TIP3    H121257   0.311   5.865   1.557
 7100TIP3    H221258   0.186   5.824   1.632
 7101TIP3   OH221259   4.963   7.204   0.137
 7101TIP3    H121260   4.966   7.203   0.041
 7101TIP3    H221261   4.936   7.293   0.159
 7102TIP3   OH221262   0.052   3.747   1.726
 7102TIP3    H121263   0.116   3.803   1.681
 7102TIP3    H221264   0.065   3.661   1.687
 7103TIP3   OH221265   0.407   2.141   0.292
 7103TIP3    H121266   0.389   2.050   0.268
 7103TIP3    H221267   0.353   2.156   0.370
 7104TIP3   OH221268   2.982   4.246   0.411
 7104TIP3    H121269   3.064   4.226   0.367
 7104TIP3    H221270   2.979   4.341   0.414
 7105TIP3   OH221271   4.400   5.032   0.639
 7105TIP3    H121272   4.403   5.102   0.704
 7105TIP3    H221273   4.421   4.952   0.687
 7106TIP3   OH221274   1.329   7.832   2.929
 7106TIP3    H121275   1.424   7.825   2.919
 7106TIP3    H221276   1.312   7.810   3.020
 7107TIP3   OH221277   7.274   4.805   0.495
 7107TIP3    H121278   7.277   4.715   0.465
 7107TIP3    H221279   7.314   4.803   0.582
 7108TIP3   OH221280   4.659   2.078   4.625
 7108TIP3    H121281   4.708   2.158   4.645
 7108TIP3    H221282   4.568   2.103   4.635
 7109TIP3   OH221283   0.238   2.729   0.688
 7109TIP3    H121284   0.184   2.764   0.759
 7109TIP3    H221285   0.190   2.752   0.608
 7110TIP3   OH221286   5.248   6.919   3.946
 7110TIP3    H121287   5.189   6.911   4.021
 7110TIP3    H221288   5.213   6.993   3.896
 7111TIP3   OH221289   2.824   6.747   6.526
 7111TIP3    H121290   2.796   6.756   6.435
 7111TIP3    H221291   2.784   6.820   6.572
 7112TIP3   OH221292   3.128   6.235   3.055
 7112TIP3    H121293   3.131   6.183   3.135
 7112TIP3    H221294   3.212   6.218   3.012
 7113TIP3   OH221295   8.200   1.743   0.260
 7113TIP3    H121296   8.213   1.680   0.330
 7113TIP3    H221297   8.129   1.799   0.290
 7114TIP3   OH221298   4.212   1.509   4.721
 7114TIP3    H121299   4.219   1.420   4.755
 7114TIP3    H221300   4.276   1.559   4.772
 7115TIP3   OH221301   6.337   5.208   6.152
 7115TIP3    H121302   6.426   5.214   6.116
 7115TIP3    H221303   6.337   5.127   6.202
 7116TIP3   OH221304   2.832   1.673   3.913
 7116TIP3    H121305   2.905   1.689   3.972
 7116TIP3    H221306   2.790   1.594   3.947
 7117TIP3   OH221307   0.522   0.249   2.428
 7117TIP3    H121308   0.589   0.229   2.361
 7117TIP3    H221309   0.551   0.202   2.506
 7118TIP3   OH221310   7.693   4.729   4.302
 7118TIP3    H121311   7.759   4.674   4.259
 7118TIP3    H221312   7.654   4.672   4.368
 7119TIP3   OH221313   3.381   2.604   5.054
 7119TIP3    H121314   3.476   2.599   5.040
 7119TIP3    H221315   3.346   2.533   5.001
 7120TIP3   OH221316   1.502   4.554   2.099
 7120TIP3    H121317   1.508   4.645   2.071
 7120TIP3    H221318   1.438   4.555   2.170
 7121TIP3   OH221319   1.082   0.491   3.282
 7121TIP3    H121320   1.042   0.480   3.368
 7121TIP3    H221321   1.162   0.540   3.298
 7122TIP3   OH221322   6.826   5.707   3.090
 7122TIP3    H121323   6.921   5.709   3.076
 7122TIP3    H221324   6.813   5.761   3.168
 7123TIP3   OH221325   3.141   7.052   5.372
 7123TIP3    H121326   3.049   7.064   5.395
 7123TIP3    H221327   3.187   7.113   5.430
 7124TIP3   OH221328   0.120   2.539   2.102
 7124TIP3    H121329   0.171   2.616   2.079
 7124TIP3    H221330   0.121   2.485   2.023
 7125TIP3   OH221331   7.995   4.196   4.969
 7125TIP3    H121332   8.062   4.264   4.971
 7125TIP3    H221333   7.913   4.243   4.951
 7126TIP3   OH221334   1.190   6.281   1.185
 7126TIP3    H121335   1.240   6.279   1.267
 7126TIP3    H221336   1.101   6.303   1.212
 7127TIP3   OH221337   1.179   2.679   6.621
 7127TIP3    H121338   1.090   2.648   6.601
 7127TIP3    H221339   1.172   2.774   6.620
 7128TIP3   OH221340   8.223   3.423   2.510
 7128TIP3    H121341   8.181   3.347   2.470
 7128TIP3    H221342   8.250   3.392   2.597
 7129TIP3   OH221343   4.608   5.144   2.225
 7129TIP3    H121344   4.644   5.149   2.314
 7129TIP3    H221345   4.515   5.128   2.237
 7130TIP3   OH221346   1.822   6.689   3.314
 7130TIP3    H121347   1.840   6.603   3.278
 7130TIP3    H221348   1.787   6.671   3.402
 7131TIP3   OH221349   7.309   1.167   3.602
 7131TIP3    H121350   7.394   1.126   3.621
 7131TIP3    H221351   7.328   1.230   3.533
 7132TIP3   OH221352   0.666   1.460   3.964
 7132TIP3    H121353   0.673   1.505   3.880
 7132TIP3    H221354   0.599   1.508   4.012
 7133TIP3   OH221355   3.912   5.580   5.890
 7133TIP3    H121356   3.906   5.652   5.953
 7133TIP3    H221357   3.862   5.509   5.929
 7134TIP3   OH221358   1.523   3.642   4.757
 7134TIP3    H121359   1.453   3.700   4.728
 7134TIP3    H221360   1.479   3.559   4.774
 7135TIP3   OH221361   6.029   0.871   2.116
 7135TIP3    H121362   5.959   0.908   2.169
 7135TIP3    H221363   6.068   0.946   2.071
 7136TIP3   OH221364   2.871   6.604   5.540
 7136TIP3    H121365   2.881   6.582   5.447
 7136TIP3    H221366   2.789   6.652   5.545
 7137TIP3   OH221367   3.512   1.026   3.920
 7137TIP3    H121368   3.602   1.033   3.887
 7137TIP3    H221369   3.477   0.947   3.878
 7138TIP3   OH221370   4.358   2.926   0.821
 7138TIP3    H121371   4.263   2.934   0.824
 7138TIP3    H221372   4.386   2.993   0.759
 7139TIP3   OH221373   5.259   2.315   3.789
 7139TIP3    H121374   5.187   2.334   3.729
 7139TIP3    H221375   5.284   2.401   3.823
 7140TIP3   OH221376   3.461   6.165   0.116
 7140TIP3    H121377   3.395   6.138   0.052
 7140TIP3    H221378   3.419   6.236   0.165
 7141TIP3   OH221379   6.067   1.955   3.077
 7141TIP3    H121380   6.070   1.871   3.123
 7141TIP3    H221381   6.021   2.014   3.137
 7142TIP3   OH221382   3.867   2.320   5.445
 7142TIP3    H121383   3.938   2.341   5.385
 7142TIP3    H221384   3.823   2.245   5.404
 7143TIP3   OH221385   3.596   2.970   6.284
 7143TIP3    H121386   3.679   2.981   6.331
 7143TIP3    H221387   3.529   2.984   6.351
 7144TIP3   OH221388   2.260   5.598   3.674
 7144TIP3    H121389   2.322   5.571   3.742
 7144TIP3    H221390   2.267   5.529   3.607
 7145TIP3   OH221391   2.612   7.825   3.482
 7145TIP3    H121392   2.596   7.733   3.460
 7145TIP3    H221393   2.692   7.847   3.434
 7146TIP3   OH221394   7.246   6.766   3.070
 7146TIP3    H121395   7.198   6.846   3.092
 7146TIP3    H221396   7.273   6.730   3.155
 7147TIP3   OH221397   5.591   3.707   3.572
 7147TIP3    H121398   5.507   3.663   3.585
 7147TIP3    H221399   5.568   3.790   3.530
 7148TIP3   OH221400   6.733   6.571   4.110
 7148TIP3    H121401   6.700   6.482   4.118
 7148TIP3    H221402   6.816   6.571   4.157
 7149TIP3   OH221403   1.811   7.270   4.170
 7149TIP3    H121404   1.847   7.358   4.173
 7149TIP3    H221405   1.829   7.234   4.258
 7150TIP3   OH221406   6.710   1.917   2.218
 7150TIP3    H121407   6.671   1.879   2.297
 7150TIP3    H221408   6.685   1.857   2.148
 7151TIP3   OH221409   6.562   2.756   5.062
 7151TIP3    H121410   6.563   2.683   5.124
 7151TIP3    H221411   6.480   2.802   5.079
 7152TIP3   OH221412   6.054   4.671   3.923
 7152TIP3    H121413   6.086   4.587   3.892
 7152TIP3    H221414   6.123   4.733   3.898
 7153TIP3   OH221415   6.839   2.542   1.277
 7153TIP3    H121416   6.801   2.522   1.362
 7153TIP3    H221417   6.770   2.521   1.214
 7154TIP3   OH221418   6.129   3.017   3.959
 7154TIP3    H121419   6.172   3.005   3.874
 7154TIP3    H221420   6.043   3.053   3.938
 7155TIP3   OH221421   1.646   4.630   1.632
 7155TIP3    H121422   1.633   4.692   1.704
 7155TIP3    H221423   1.588   4.557   1.653
 7156TIP3   OH221424   6.260   2.045   4.168
 7156TIP3    H121425   6.331   2.104   4.144
 7156TIP3    H221426   6.235   2.072   4.256
 7157TIP3   OH221427   2.437   5.229   6.030
 7157TIP3    H121428   2.353   5.185   6.045
 7157TIP3    H221429   2.485   5.168   5.973
 7158TIP3   OH221430   3.983   0.833   5.891
 7158TIP3    H121431   3.898   0.800   5.863
 7158TIP3    H221432   3.964   0.888   5.967
 7159TIP3   OH221433   4.566   3.196   5.385
 7159TIP3    H121434   4.487   3.193   5.438
 7159TIP3    H221435   4.637   3.210   5.447
 7160TIP3   OH221436   6.826   1.520   3.762
 7160TIP3    H121437   6.882   1.444   3.751
 7160TIP3    H221438   6.737   1.488   3.746
 7161TIP3   OH221439   6.960   3.131   5.297
 7161TIP3    H121440   7.053   3.118   5.318
 7161TIP3    H221441   6.958   3.140   5.202
 7162TIP3   OH221442   1.115   5.329   5.536
 7162TIP3    H121443   1.092   5.339   5.444
 7162TIP3    H221444   1.109   5.235   5.552
 7163TIP3   OH221445   3.683   5.842   3.988
 7163TIP3    H121446   3.638   5.762   3.961
 7163TIP3    H221447   3.647   5.910   3.931
 7164TIP3   OH221448   2.058   1.446   2.135
 7164TIP3    H121449   2.019   1.405   2.058
 7164TIP3    H221450   2.094   1.529   2.103
 7165TIP3   OH221451   6.780   1.849   3.329
 7165TIP3    H121452   6.787   1.944   3.320
 7165TIP3    H221453   6.708   1.836   3.392
 7166TIP3   OH221454   3.481   5.226   6.419
 7166TIP3    H121455   3.388   5.243   6.404
 7166TIP3    H221456   3.483   5.159   6.487
 7167TIP3   OH221457   5.807   4.686   2.112
 7167TIP3    H121458   5.837   4.769   2.150
 7167TIP3    H221459   5.881   4.627   2.122
 7168TIP3   OH221460   7.938   5.759   4.232
 7168TIP3    H121461   7.925   5.705   4.154
 7168TIP3    H221462   7.919   5.848   4.202
 7169TIP3   OH221463   4.458   0.062   2.650
 7169TIP3    H121464   4.489  -0.026   2.628
 7169TIP3    H221465   4.535   0.108   2.682
 7170TIP3   OH221466   5.373   5.390   6.532
 7170TIP3    H121467   5.397   5.303   6.566
 7170TIP3    H221468   5.326   5.372   6.451
 7171TIP3   OH221469   3.815   3.514   6.077
 7171TIP3    H121470   3.849   3.520   5.988
 7171TIP3    H221471   3.782   3.425   6.085
 7172TIP3   OH221472   5.331   5.316   0.139
 7172TIP3    H121473   5.243   5.353   0.128
 7172TIP3    H221474   5.351   5.329   0.231
 7173TIP3   OH221475   1.529   1.912   2.649
 7173TIP3    H121476   1.576   1.995   2.638
 7173TIP3    H221477   1.520   1.879   2.560
 7174TIP3   OH221478   3.214   0.638   3.884
 7174TIP3    H121479   3.252   0.690   3.955
 7174TIP3    H221480   3.229   0.547   3.910
 7175TIP3   OH221481   5.550   5.964   6.447
 7175TIP3    H121482   5.475   5.951   6.506
 7175TIP3    H221483   5.555   6.059   6.435
 7176TIP3   OH221484   4.204   7.387   0.395
 7176TIP3    H121485   4.153   7.468   0.406
 7176TIP3    H221486   4.258   7.382   0.474
 7177TIP3   OH221487   5.887   7.549   0.715
 7177TIP3    H121488   5.860   7.542   0.806
 7177TIP3    H221489   5.932   7.632   0.709
 7178TIP3   OH221490   3.900   6.501   5.463
 7178TIP3    H121491   3.939   6.538   5.542
 7178TIP3    H221492   3.846   6.429   5.494
 7179TIP3   OH221493   2.421   3.875   6.667
 7179TIP3    H121494   2.507   3.833   6.673
 7179TIP3    H221495   2.428   3.934   6.592
 7180TIP3   OH221496   2.485   7.447   3.143
 7180TIP3    H121497   2.477   7.536   3.110
 7180TIP3    H221498   2.546   7.454   3.216
 7181TIP3   OH221499   6.470   4.491   6.554
 7181TIP3    H121500   6.544   4.458   6.502
 7181TIP3    H221501   6.508   4.560   6.608
 7182TIP3   OH221502   7.902   2.694   1.882
 7182TIP3    H121503   7.995   2.672   1.880
 7182TIP3    H221504   7.868   2.653   1.962
 7183TIP3   OH221505   1.903   1.212   0.485
 7183TIP3    H121506   1.938   1.290   0.440
 7183TIP3    H221507   1.980   1.157   0.498
 7184TIP3   OH221508   3.324   0.234   4.871
 7184TIP3    H121509   3.373   0.233   4.953
 7184TIP3    H221510   3.234   0.253   4.896
 7185TIP3   OH221511   0.546   2.404   4.987
 7185TIP3    H121512   0.605   2.478   5.003
 7185TIP3    H221513   0.602   2.334   4.954
 7186TIP3   OH221514   2.810   5.938   1.549
 7186TIP3    H121515   2.802   6.032   1.531
 7186TIP3    H221516   2.892   5.913   1.507
 7187TIP3   OH221517   3.805   1.104   4.427
 7187TIP3    H121518   3.763   1.184   4.395
 7187TIP3    H221519   3.899   1.123   4.421
 7188TIP3   OH221520   3.130   6.575   1.608
 7188TIP3    H121521   3.225   6.563   1.606
 7188TIP3    H221522   3.114   6.646   1.545
 7189TIP3   OH221523   5.501   5.692   6.540
 7189TIP3    H121524   5.546   5.774   6.560
 7189TIP3    H221525   5.429   5.718   6.482
 7190TIP3   OH221526   4.976   1.604   1.762
 7190TIP3    H121527   5.054   1.582   1.812
 7190TIP3    H221528   4.907   1.548   1.799
 7191TIP3   OH221529   5.010   1.735   5.325
 7191TIP3    H121530   5.048   1.821   5.305
 7191TIP3    H221531   4.996   1.736   5.420
 7192TIP3   OH221532   3.114   5.484   0.403
 7192TIP3    H121533   3.136   5.431   0.327
 7192TIP3    H221534   3.025   5.458   0.426
 7193TIP3   OH221535   2.010   6.405   2.069
 7193TIP3    H121536   2.020   6.431   1.977
 7193TIP3    H221537   2.062   6.468   2.118
 7194TIP3   OH221538   6.030   5.892   6.119
 7194TIP3    H121539   6.009   5.984   6.136
 7194TIP3    H221540   6.006   5.846   6.200
 7195TIP3   OH221541   2.731   7.524   0.998
 7195TIP3    H121542   2.788   7.567   0.935
 7195TIP3    H221543   2.643   7.555   0.977
 7196TIP3   OH221544   5.479   6.652   3.547
 7196TIP3    H121545   5.445   6.681   3.631
 7196TIP3    H221546   5.571   6.634   3.563
 7197TIP3   OH221547   5.883   3.878   4.707
 7197TIP3    H121548   5.882   3.959   4.656
 7197TIP3    H221549   5.843   3.902   4.791
 7198TIP3   OH221550   5.879   1.442   0.087
 7198TIP3    H121551   5.958   1.488   0.060
 7198TIP3    H221552   5.838   1.501   0.151
 7199TIP3   OH221553   3.794   2.337   6.576
 7199TIP3    H121554   3.734   2.263   6.585
 7199TIP3    H221555   3.858   2.308   6.510
 7200TIP3   OH221556   5.831   1.667   1.335
 7200TIP3    H121557   5.848   1.761   1.338
 7200TIP3    H221558   5.913   1.628   1.307
 7201TIP3   OH221559   3.322   7.233   3.924
 7201TIP3    H121560   3.318   7.138   3.936
 7201TIP3    H221561   3.360   7.265   4.006
 7202TIP3   OH221562   5.102   6.542   5.352
 7202TIP3    H121563   5.046   6.572   5.423
 7202TIP3    H221564   5.063   6.459   5.324
 7203TIP3   OH221565   7.816   0.234   5.286
 7203TIP3    H121566   7.776   0.216   5.371
 7203TIP3    H221567   7.748   0.278   5.235
 7204TIP3   OH221568   0.582   0.841   4.159
 7204TIP3    H121569   0.605   0.749   4.150
 7204TIP3    H221570   0.645   0.887   4.102
 7205TIP3   OH221571   4.815   1.585   4.542
 7205TIP3    H121572   4.743   1.544   4.589
 7205TIP3    H221573   4.792   1.678   4.539
 7206TIP3   OH221574   3.969   2.171   1.866
 7206TIP3    H121575   3.890   2.124   1.893
 7206TIP3    H221576   3.979   2.151   1.774
 7207TIP3   OH221577   6.588   6.774   3.695
 7207TIP3    H121578   6.501   6.797   3.728
 7207TIP3    H221579   6.627   6.721   3.764
 7208TIP3   OH221580   2.397   3.030   2.666
 7208TIP3    H121581   2.372   3.105   2.612
 7208TIP3    H221582   2.330   2.964   2.648
 7209TIP3   OH221583   7.573   6.007   1.239
 7209TIP3    H121584   7.495   6.019   1.292
 7209TIP3    H221585   7.559   5.923   1.195
 7210TIP3   OH221586   0.347   6.978   1.661
 7210TIP3    H121587   0.311   6.920   1.728
 7210TIP3    H221588   0.280   7.044   1.646
 7211TIP3   OH221589   5.155   3.692   0.448
 7211TIP3    H121590   5.164   3.774   0.497
 7211TIP3    H221591   5.195   3.626   0.505
 7212TIP3   OH221592   4.978   4.104   2.575
 7212TIP3    H121593   4.920   4.104   2.650
 7212TIP3    H221594   5.066   4.092   2.612
 7213TIP3   OH221595   8.286   6.651   6.078
 7213TIP3    H121596   8.206   6.610   6.047
 7213TIP3    H221597   8.352   6.582   6.072
 7214TIP3   OH221598   1.380   3.768   2.355
 7214TIP3    H121599   1.465   3.791   2.393
 7214TIP3    H221600   1.393   3.775   2.261
 7215TIP3   OH221601   5.421   0.807   5.472
 7215TIP3    H121602   5.396   0.899   5.468
 7215TIP3    H221603   5.516   0.808   5.474
 7216TIP3   OH221604   4.640   4.033   6.172
 7216TIP3    H121605   4.580   4.008   6.242
 7216TIP3    H221606   4.724   4.045   6.216
 7217TIP3   OH221607   2.272   4.851   0.612
 7217TIP3    H121608   2.332   4.904   0.560
 7217TIP3    H221609   2.219   4.915   0.661
 7218TIP3   OH221610   8.219   5.327   2.491
 7218TIP3    H121611   8.230   5.241   2.452
 7218TIP3    H221612   8.124   5.338   2.501
 7219TIP3   OH221613   4.839   2.555   5.162
 7219TIP3    H121614   4.776   2.507   5.108
 7219TIP3    H221615   4.797   2.640   5.177
 7220TIP3   OH221616   4.757   7.454   6.451
 7220TIP3    H121617   4.677   7.411   6.479
 7220TIP3    H221618   4.755   7.540   6.493
 7221TIP3   OH221619   3.464   5.949   0.903
 7221TIP3    H121620   3.385   5.907   0.869
 7221TIP3    H221621   3.461   6.038   0.868
 7222TIP3   OH221622   0.369   5.422   4.196
 7222TIP3    H121623   0.315   5.350   4.230
 7222TIP3    H221624   0.318   5.501   4.212
 7223TIP3   OH221625   5.954   1.314   0.348
 7223TIP3    H121626   6.042   1.346   0.330
 7223TIP3    H221627   5.898   1.392   0.341
 7224TIP3   OH221628   3.791   6.475   4.856
 7224TIP3    H121629   3.701   6.470   4.887
 7224TIP3    H221630   3.815   6.567   4.867
 7225TIP3   OH221631   0.958   2.309   3.479
 7225TIP3    H121632   0.986   2.352   3.560
 7225TIP3    H221633   1.018   2.235   3.469
 7226TIP3   OH221634   6.641   0.125   3.590
 7226TIP3    H121635   6.587   0.204   3.590
 7226TIP3    H221636   6.726   0.155   3.621
 7227TIP3   OH221637   2.031   2.504   1.832
 7227TIP3    H121638   2.075   2.433   1.878
 7227TIP3    H221639   1.956   2.526   1.888
 7228TIP3   OH221640   6.282   1.725   3.483
 7228TIP3    H121641   6.307   1.739   3.392
 7228TIP3    H221642   6.333   1.790   3.532
 7229TIP3   OH221643   6.242   3.972   1.423
 7229TIP3    H121644   6.230   3.890   1.374
 7229TIP3    H221645   6.211   3.951   1.511
 7230TIP3   OH221646   5.780   7.211   5.497
 7230TIP3    H121647   5.810   7.164   5.419
 7230TIP3    H221648   5.748   7.143   5.556
 7231TIP3   OH221649   0.410   4.175   3.398
 7231TIP3    H121650   0.422   4.171   3.492
 7231TIP3    H221651   0.466   4.105   3.363
 7232TIP3   OH221652   6.152   2.105   5.856
 7232TIP3    H121653   6.223   2.078   5.798
 7232TIP3    H221654   6.105   2.172   5.807
 7233TIP3   OH221655   4.236   0.227   4.473
 7233TIP3    H121656   4.144   0.251   4.466
 7233TIP3    H221657   4.254   0.173   4.396
 7234TIP3   OH221658   0.175   0.039   1.115
 7234TIP3    H121659   0.265   0.022   1.143
 7234TIP3    H221660   0.125   0.036   1.196
 7235TIP3   OH221661   8.097   5.893   0.055
 7235TIP3    H121662   8.139   5.845  -0.017
 7235TIP3    H221663   8.010   5.854   0.061
 7236TIP3   OH221664   1.621   4.149   2.466
 7236TIP3    H121665   1.597   4.187   2.550
 7236TIP3    H221666   1.548   4.169   2.408
 7237TIP3   OH221667   8.089   3.038   5.817
 7237TIP3    H121668   8.143   2.986   5.758
 7237TIP3    H221669   8.003   2.996   5.816
 7238TIP3   OH221670   7.973   6.321   2.603
 7238TIP3    H121671   7.983   6.291   2.512
 7238TIP3    H221672   7.891   6.370   2.602
 7239TIP3   OH221673   4.153   3.581   2.442
 7239TIP3    H121674   4.217   3.564   2.372
 7239TIP3    H221675   4.098   3.651   2.407
 7240TIP3   OH221676   4.939   2.838   6.454
 7240TIP3    H121677   4.926   2.763   6.512
 7240TIP3    H221678   4.892   2.815   6.374
 7241TIP3   OH221679   3.344   2.091   5.804
 7241TIP3    H121680   3.372   2.062   5.891
 7241TIP3    H221681   3.344   2.186   5.810
 7242TIP3   OH221682   5.784   4.839   0.747
 7242TIP3    H121683   5.799   4.893   0.825
 7242TIP3    H221684   5.866   4.844   0.698
 7243TIP3   OH221685   5.340   5.416   1.370
 7243TIP3    H121686   5.430   5.446   1.358
 7243TIP3    H221687   5.292   5.493   1.400
 7244TIP3   OH221688   0.038   5.144   3.671
 7244TIP3    H121689   0.043   5.210   3.740
 7244TIP3    H221690  -0.037   5.090   3.695
 7245TIP3   OH221691   6.403   3.085   2.428
 7245TIP3    H121692   6.458   3.111   2.354
 7245TIP3    H221693   6.375   3.168   2.467
 7246TIP3   OH221694   4.768   3.422   2.774
 7246TIP3    H121695   4.678   3.393   2.761
 7246TIP3    H221696   4.771   3.509   2.734
 7247TIP3   OH221697   3.484   7.200   2.542
 7247TIP3    H121698   3.422   7.196   2.614
 7247TIP3    H221699   3.434   7.172   2.465
 7248TIP3   OH221700   6.180   4.049   5.759
 7248TIP3    H121701   6.150   3.995   5.686
 7248TIP3    H221702   6.221   4.125   5.718
 7249TIP3   OH221703   4.780   6.382   4.590
 7249TIP3    H121704   4.864   6.376   4.544
 7249TIP3    H221705   4.793   6.333   4.671
 7250TIP3   OH221706   6.371   1.326   1.169
 7250TIP3    H121707   6.331   1.273   1.238
 7250TIP3    H221708   6.429   1.265   1.123
 7251TIP3   OH221709   7.433   0.894   1.025
 7251TIP3    H121710   7.517   0.892   1.071
 7251TIP3    H221711   7.420   0.804   0.994
 7252TIP3   OH221712   5.661   6.964   6.005
 7252TIP3    H121713   5.682   6.872   6.017
 7252TIP3    H221714   5.585   6.980   6.060
 7253TIP3   OH221715   3.378   2.518   3.465
 7253TIP3    H121716   3.396   2.483   3.552
 7253TIP3    H221717   3.294   2.562   3.473
 7254TIP3   OH221718   6.683   1.609   5.891
 7254TIP3    H121719   6.598   1.594   5.934
 7254TIP3    H221720   6.667   1.588   5.799
 7255TIP3   OH221721   5.560   3.969   0.731
 7255TIP3    H121722   5.609   3.911   0.672
 7255TIP3    H221723   5.476   3.983   0.687
 7256TIP3   OH221724   2.543   0.860   0.836
 7256TIP3    H121725   2.548   0.788   0.899
 7256TIP3    H221726   2.621   0.850   0.782
 7257TIP3   OH221727   8.068   0.721   0.568
 7257TIP3    H121728   8.081   0.727   0.663
 7257TIP3    H221729   7.983   0.679   0.558
 7258TIP3   OH221730   1.458   7.725   2.588
 7258TIP3    H121731   1.521   7.771   2.642
 7258TIP3    H221732   1.488   7.634   2.587
 7259TIP3   OH221733   0.933   2.216   1.414
 7259TIP3    H121734   1.025   2.205   1.389
 7259TIP3    H221735   0.890   2.139   1.377
 7260TIP3   OH221736   5.690   4.213   1.318
 7260TIP3    H121737   5.638   4.270   1.261
 7260TIP3    H221738   5.692   4.258   1.402
 7261TIP3   OH221739   3.060   2.819   4.228
 7261TIP3    H121740   3.098   2.869   4.156
 7261TIP3    H221741   3.050   2.883   4.299
 7262TIP3   OH221742   0.678   1.676   1.221
 7262TIP3    H121743   0.652   1.742   1.285
 7262TIP3    H221744   0.598   1.627   1.203
 7263TIP3   OH221745   6.706   7.369   2.685
 7263TIP3    H121746   6.775   7.307   2.708
 7263TIP3    H221747   6.625   7.318   2.692
 7264TIP3   OH221748   1.622   3.834   2.469
 7264TIP3    H121749   1.709   3.809   2.500
 7264TIP3    H221750   1.626   3.930   2.464
 7265TIP3   OH221751   6.196   1.179   0.124
 7265TIP3    H121752   6.104   1.189   0.148
 7265TIP3    H221753   6.202   1.093   0.084
 7266TIP3   OH221754   4.540   5.329   0.722
 7266TIP3    H121755   4.565   5.408   0.674
 7266TIP3    H221756   4.608   5.265   0.700
 7267TIP3   OH221757   6.601   0.560   3.932
 7267TIP3    H121758   6.622   0.529   3.844
 7267TIP3    H221759   6.543   0.635   3.918
 7268TIP3   OH221760   0.206   1.872   5.593
 7268TIP3    H121761   0.130   1.929   5.584
 7268TIP3    H221762   0.226   1.844   5.504
 7269TIP3   OH221763   7.232   3.155   4.962
 7269TIP3    H121764   7.265   3.084   5.017
 7269TIP3    H221765   7.191   3.111   4.888
 7270TIP3   OH221766   6.300   4.195   6.336
 7270TIP3    H121767   6.377   4.169   6.286
 7270TIP3    H221768   6.293   4.129   6.405
 7271TIP3   OH221769   4.022   0.362   3.827
 7271TIP3    H121770   3.932   0.392   3.846
 7271TIP3    H221771   4.040   0.395   3.739
 7272TIP3   OH221772   2.295   2.990   6.498
 7272TIP3    H121773   2.230   3.006   6.566
 7272TIP3    H221774   2.299   2.894   6.491
 7273TIP3   OH221775   7.025   3.155   3.044
 7273TIP3    H121776   6.947   3.206   3.023
 7273TIP3    H221777   7.088   3.220   3.074
 7274TIP3   OH221778   4.420   4.982   5.262
 7274TIP3    H121779   4.378   4.911   5.309
 7274TIP3    H221780   4.410   4.960   5.169
 7275TIP3   OH221781   2.017   1.932   0.579
 7275TIP3    H121782   2.027   1.892   0.666
 7275TIP3    H221783   1.971   2.014   0.595
 7276TIP3   OH221784   3.563   3.108   3.964
 7276TIP3    H121785   3.626   3.157   4.018
 7276TIP3    H221786   3.479   3.124   4.007
 7277TIP3   OH221787   5.940   2.876   1.328
 7277TIP3    H121788   5.992   2.924   1.392
 7277TIP3    H221789   5.958   2.921   1.245
 7278TIP3   OH221790   0.955   4.482   4.269
 7278TIP3    H121791   1.029   4.472   4.210
 7278TIP3    H221792   0.884   4.432   4.228
 7279TIP3   OH221793   2.167   2.611   3.237
 7279TIP3    H121794   2.183   2.701   3.207
 7279TIP3    H221795   2.072   2.600   3.227
 7280TIP3   OH221796   1.781   1.111   4.625
 7280TIP3    H121797   1.776   1.107   4.529
 7280TIP3    H221798   1.701   1.069   4.655
 7281TIP3   OH221799   4.618   7.032   2.051
 7281TIP3    H121800   4.627   6.942   2.020
 7281TIP3    H221801   4.595   7.023   2.143
 7282TIP3   OH221802   3.439   3.277   1.412
 7282TIP3    H121803   3.504   3.292   1.482
 7282TIP3    H221804   3.479   3.315   1.334
 7283TIP3   OH221805   6.046   4.777   4.182
 7283TIP3    H121806   6.017   4.722   4.109
 7283TIP3    H221807   6.069   4.860   4.142
 7284TIP3   OH221808   6.964   7.744   1.835
 7284TIP3    H121809   6.880   7.712   1.869
 7284TIP3    H221810   7.016   7.664   1.823
 7285TIP3   OH221811   1.257   7.704   4.477
 7285TIP3    H121812   1.187   7.741   4.531
 7285TIP3    H221813   1.218   7.695   4.390
 7286TIP3   OH221814   5.121   3.718   5.064
 7286TIP3    H121815   5.203   3.766   5.057
 7286TIP3    H221816   5.056   3.785   5.085
 7287TIP3   OH221817   2.153   6.882   4.290
 7287TIP3    H121818   2.160   6.790   4.312
 7287TIP3    H221819   2.059   6.902   4.299
 7288TIP3   OH221820   5.166   7.653   1.094
 7288TIP3    H121821   5.166   7.559   1.076
 7288TIP3    H221822   5.128   7.692   1.015
 7289TIP3   OH221823   7.287   5.696   2.883
 7289TIP3    H121824   7.239   5.707   2.964
 7289TIP3    H221825   7.228   5.728   2.815
 7290TIP3   OH221826   5.251   0.663   0.150
 7290TIP3    H121827   5.279   0.573   0.164
 7290TIP3    H221828   5.279   0.683   0.060
 7291TIP3   OH221829   4.814   1.431   1.927
 7291TIP3    H121830   4.756   1.486   1.980
 7291TIP3    H221831   4.868   1.384   1.990
 7292TIP3   OH221832   1.235   0.138   2.390
 7292TIP3    H121833   1.192   0.140   2.305
 7292TIP3    H221834   1.271   0.050   2.397
 7293TIP3   OH221835   6.071   1.161   3.517
 7293TIP3    H121836   6.134   1.140   3.448
 7293TIP3    H221837   6.093   1.101   3.589
 7294TIP3   OH221838   8.073   7.767   4.602
 7294TIP3    H121839   8.033   7.748   4.517
 7294TIP3    H221840   8.060   7.687   4.653
 7295TIP3   OH221841   6.114   3.930   5.343
 7295TIP3    H121842   6.087   3.941   5.434
 7295TIP3    H221843   6.045   3.975   5.293
 7296TIP3   OH221844   3.297   6.132   2.670
 7296TIP3    H121845   3.360   6.063   2.691
 7296TIP3    H221846   3.337   6.180   2.598
 7297TIP3   OH221847   2.734   4.142   4.286
 7297TIP3    H121848   2.762   4.193   4.210
 7297TIP3    H221849   2.654   4.185   4.316
 7298TIP3   OH221850   6.986   7.231   5.239
 7298TIP3    H121851   7.082   7.231   5.237
 7298TIP3    H221852   6.962   7.139   5.241
 7299TIP3   OH221853   2.955   3.763   1.839
 7299TIP3    H121854   2.991   3.680   1.870
 7299TIP3    H221855   2.896   3.740   1.767
 7300TIP3   OH221856   1.431   1.974   4.232
 7300TIP3    H121857   1.472   1.938   4.310
 7300TIP3    H221858   1.379   1.902   4.196
 7301TIP3   OH221859   5.039   7.679   0.217
 7301TIP3    H121860   4.996   7.724   0.145
 7301TIP3    H221861   5.133   7.688   0.198
 7302TIP3   OH221862   3.505   2.274   6.270
 7302TIP3    H121863   3.417   2.237   6.259
 7302TIP3    H221864   3.490   2.359   6.311
 7303TIP3   OH221865   0.539   4.191   4.124
 7303TIP3    H121866   0.447   4.173   4.141
 7303TIP3    H221867   0.540   4.276   4.081
 7304TIP3   OH221868   7.657   4.414   1.320
 7304TIP3    H121869   7.660   4.356   1.396
 7304TIP3    H221870   7.664   4.502   1.357
 7305TIP3   OH221871   3.788   4.646   2.377
 7305TIP3    H121872   3.798   4.557   2.409
 7305TIP3    H221873   3.784   4.700   2.457
 7306TIP3   OH221874   1.222   6.018   2.485
 7306TIP3    H121875   1.136   6.058   2.498
 7306TIP3    H221876   1.272   6.084   2.437
 7307TIP3   OH221877   7.155   6.832   0.309
 7307TIP3    H121878   7.164   6.776   0.386
 7307TIP3    H221879   7.063   6.860   0.311
 7308TIP3   OH221880   3.131   3.003   4.020
 7308TIP3    H121881   3.080   3.046   4.089
 7308TIP3    H221882   3.150   3.073   3.957
 7309TIP3   OH221883   4.916   2.720   6.046
 7309TIP3    H121884   4.924   2.649   6.109
 7309TIP3    H221885   4.859   2.686   5.977
 7310TIP3   OH221886   7.415   3.309   6.426
 7310TIP3    H121887   7.458   3.386   6.462
 7310TIP3    H221888   7.482   3.265   6.374
 7311TIP3   OH221889   3.813   1.040   2.807
 7311TIP3    H121890   3.763   1.029   2.726
 7311TIP3    H221891   3.753   1.010   2.875
 7312TIP3   OH221892   6.349   6.672   4.607
 7312TIP3    H121893   6.365   6.648   4.698
 7312TIP3    H221894   6.414   6.623   4.556
 7313TIP3   OH221895   3.310   2.346   1.717
 7313TIP3    H121896   3.358   2.350   1.799
 7313TIP3    H221897   3.339   2.423   1.668
 7314TIP3   OH221898   2.921   5.248   5.571
 7314TIP3    H121899   2.898   5.207   5.654
 7314TIP3    H221900   2.982   5.187   5.530
 7315TIP3   OH221901   6.071   0.253   6.364
 7315TIP3    H121902   6.034   0.321   6.308
 7315TIP3    H221903   6.113   0.192   6.304
 7316TIP3   OH221904   6.578   4.344   3.917
 7316TIP3    H121905   6.607   4.277   3.978
 7316TIP3    H221906   6.648   4.409   3.917
 7317TIP3   OH221907   2.156   5.155   1.360
 7317TIP3    H121908   2.140   5.080   1.303
 7317TIP3    H221909   2.079   5.210   1.351
 7318TIP3   OH221910   2.974   7.278   0.383
 7318TIP3    H121911   3.053   7.266   0.330
 7318TIP3    H221912   2.902   7.256   0.323
 7319TIP3   OH221913   7.660   7.272   2.753
 7319TIP3    H121914   7.588   7.215   2.725
 7319TIP3    H221915   7.627   7.317   2.830
 7320TIP3   OH221916   5.130   5.333   2.025
 7320TIP3    H121917   5.039   5.348   2.049
 7320TIP3    H221918   5.128   5.258   1.965
 7321TIP3   OH221919   7.827   5.006   5.750
 7321TIP3    H121920   7.732   5.017   5.744
 7321TIP3    H221921   7.840   4.911   5.750
 7322TIP3   OH221922   3.569   5.537   1.373
 7322TIP3    H121923   3.538   5.447   1.375
 7322TIP3    H221924   3.572   5.560   1.280
 7323TIP3   OH221925   4.809   4.908   1.864
 7323TIP3    H121926   4.836   4.833   1.916
 7323TIP3    H221927   4.854   4.896   1.780
 7324TIP3   OH221928   6.661   4.783   2.003
 7324TIP3    H121929   6.679   4.877   2.004
 7324TIP3    H221930   6.572   4.774   2.037
 7325TIP3   OH221931   3.683   7.844   4.569
 7325TIP3    H121932   3.746   7.779   4.599
 7325TIP3    H221933   3.623   7.795   4.512
 7326TIP3   OH221934   0.637   6.342   6.631
 7326TIP3    H121935   0.569   6.319   6.693
 7326TIP3    H221936   0.662   6.259   6.591
 7327TIP3   OH221937   1.700   4.988   0.398
 7327TIP3    H121938   1.779   4.936   0.390
 7327TIP3    H221939   1.629   4.924   0.405
 7328TIP3   OH221940   3.316   6.450   5.262
 7328TIP3    H121941   3.386   6.514   5.280
 7328TIP3    H221942   3.363   6.370   5.239
 7329TIP3   OH221943   6.268   2.976   2.830
 7329TIP3    H121944   6.187   2.946   2.871
 7329TIP3    H221945   6.315   3.021   2.900
 7330TIP3   OH221946   1.379   4.656   4.622
 7330TIP3    H121947   1.313   4.682   4.558
 7330TIP3    H221948   1.454   4.713   4.603
 7331TIP3   OH221949   4.386   1.036   0.083
 7331TIP3    H121950   4.482   1.034   0.083
 7331TIP3    H221951   4.360   0.968   0.145
 7332TIP3   OH221952   5.680   1.483   1.116
 7332TIP3    H121953   5.767   1.483   1.155
 7332TIP3    H221954   5.695   1.484   1.022
 7333TIP3   OH221955   7.531   4.633   3.931
 7333TIP3    H121956   7.514   4.586   3.850
 7333TIP3    H221957   7.551   4.723   3.903
 7334TIP3   OH221958   2.382   3.851   5.628
 7334TIP3    H121959   2.292   3.861   5.598
 7334TIP3    H221960   2.424   3.934   5.606
 7335TIP3   OH221961   5.112   6.355   6.740
 7335TIP3    H121962   5.144   6.279   6.692
 7335TIP3    H221963   5.172   6.364   6.814
 7336TIP3   OH221964   8.206   7.726   0.934
 7336TIP3    H121965   8.155   7.804   0.956
 7336TIP3    H221966   8.268   7.756   0.867
 7337TIP3   OH221967   1.110   4.491   0.720
 7337TIP3    H121968   1.054   4.448   0.655
 7337TIP3    H221969   1.164   4.420   0.756
 7338TIP3   OH221970   3.392   7.820   5.874
 7338TIP3    H121971   3.401   7.748   5.811
 7338TIP3    H221972   3.420   7.898   5.826
 7339TIP3   OH221973   7.411   2.287   5.148
 7339TIP3    H121974   7.365   2.280   5.231
 7339TIP3    H221975   7.449   2.375   5.148
 7340TIP3   OH221976   7.211   5.876   5.935
 7340TIP3    H121977   7.241   5.922   5.856
 7340TIP3    H221978   7.162   5.942   5.984
 7341TIP3   OH221979   7.486   4.612   5.913
 7341TIP3    H121980   7.464   4.678   5.847
 7341TIP3    H221981   7.514   4.662   5.989
 7342TIP3   OH221982   8.033   7.224   0.851
 7342TIP3    H121983   8.033   7.315   0.880
 7342TIP3    H221984   8.121   7.193   0.872
 7343TIP3   OH221985   6.885   2.232   1.536
 7343TIP3    H121986   6.855   2.160   1.481
 7343TIP3    H221987   6.814   2.296   1.533
 7344TIP3   OH221988   2.170   2.651   5.844
 7344TIP3    H121989   2.184   2.734   5.890
 7344TIP3    H221990   2.196   2.670   5.753
 7345TIP3   OH221991   6.051   4.197   4.852
 7345TIP3    H121992   5.959   4.195   4.878
 7345TIP3    H221993   6.072   4.107   4.830
 7346TIP3   OH221994   2.314   3.440   1.022
 7346TIP3    H121995   2.364   3.359   1.012
 7346TIP3    H221996   2.356   3.485   1.095
 7347TIP3   OH221997   3.890   5.050   0.311
 7347TIP3    H121998   3.871   4.996   0.234
 7347TIP3    H221999   3.946   4.996   0.366
 7348TIP3   OH222000   4.014   3.501   5.212
 7348TIP3    H122001   4.067   3.533   5.139
 7348TIP3    H222002   3.930   3.546   5.201
 7349TIP3   OH222003   3.042   4.978   5.399
 7349TIP3    H122004   3.045   4.897   5.349
 7349TIP3    H222005   3.129   4.985   5.438
 7350TIP3   OH222006   3.049   4.376   4.495
 7350TIP3    H122007   3.102   4.421   4.560
 7350TIP3    H222008   2.991   4.444   4.460
 7351TIP3   OH222009   6.689   1.933   4.203
 7351TIP3    H122010   6.693   1.999   4.133
 7351TIP3    H222011   6.710   1.850   4.159
 7352TIP3   OH222012   1.974   5.392   3.009
 7352TIP3    H122013   1.995   5.299   3.014
 7352TIP3    H222014   1.878   5.394   3.006
 7353TIP3   OH222015   2.393   5.956   6.189
 7353TIP3    H122016   2.316   5.956   6.245
 7353TIP3    H222017   2.365   5.911   6.109
 7354TIP3   OH222018   5.021   4.013   4.779
 7354TIP3    H122019   4.941   3.974   4.814
 7354TIP3    H222020   5.024   3.984   4.687
 7355TIP3   OH222021   6.708   2.522   2.704
 7355TIP3    H122022   6.632   2.579   2.690
 7355TIP3    H222023   6.710   2.465   2.627
 7356TIP3   OH222024   2.796   7.607   5.905
 7356TIP3    H122025   2.770   7.674   5.968
 7356TIP3    H222026   2.891   7.604   5.911
 7357TIP3   OH222027   6.786   0.146   2.268
 7357TIP3    H122028   6.770   0.071   2.325
 7357TIP3    H222029   6.844   0.112   2.200
 7358TIP3   OH222030   3.838   1.776   2.539
 7358TIP3    H122031   3.873   1.824   2.613
 7358TIP3    H222032   3.867   1.826   2.462
 7359TIP3   OH222033   3.711   5.526   3.384
 7359TIP3    H122034   3.781   5.581   3.420
 7359TIP3    H222035   3.727   5.527   3.290
 7360TIP3   OH222036   1.265   3.091   5.296
 7360TIP3    H122037   1.240   3.170   5.249
 7360TIP3    H222038   1.191   3.073   5.354
 7361TIP3   OH222039   3.691   3.991   1.520
 7361TIP3    H122040   3.725   4.078   1.498
 7361TIP3    H222041   3.763   3.931   1.497
 7362TIP3   OH222042   1.782   4.223   1.888
 7362TIP3    H122043   1.753   4.307   1.923
 7362TIP3    H222044   1.863   4.203   1.935
 7363TIP3   OH222045   5.628   3.792   1.987
 7363TIP3    H122046   5.674   3.875   1.979
 7363TIP3    H222047   5.536   3.814   1.972
 7364TIP3   OH222048   3.920   5.972   2.052
 7364TIP3    H122049   3.920   6.002   2.143
 7364TIP3    H222050   3.873   5.889   2.055
 7365TIP3   OH222051   2.761   6.963   3.843
 7365TIP3    H122052   2.740   7.049   3.807
 7365TIP3    H222053   2.708   6.957   3.923
 7366TIP3   OH222054   2.482   3.786   2.696
 7366TIP3    H122055   2.514   3.826   2.614
 7366TIP3    H222056   2.433   3.709   2.667
 7367TIP3   OH222057   3.768   4.131   3.694
 7367TIP3    H122058   3.854   4.172   3.687
 7367TIP3    H222059   3.766   4.067   3.623
 7368TIP3   OH222060   0.387   1.430   3.230
 7368TIP3    H122061   0.436   1.366   3.179
 7368TIP3    H222062   0.401   1.405   3.321
 7369TIP3   OH222063   7.761   3.230   1.760
 7369TIP3    H122064   7.827   3.256   1.824
 7369TIP3    H222065   7.734   3.142   1.787
 7370TIP3   OH222066   0.469   3.841   0.242
 7370TIP3    H122067   0.458   3.761   0.294
 7370TIP3    H222068   0.460   3.812   0.152
 7371TIP3   OH222069   7.908   7.664   3.609
 7371TIP3    H122070   7.872   7.629   3.527
 7371TIP3    H222071   7.968   7.597   3.640
 7372TIP3   OH222072   5.415   7.599   1.376
 7372TIP3    H122073   5.365   7.537   1.428
 7372TIP3    H222074   5.377   7.684   1.397
 7373TIP3   OH222075   6.927   7.230   4.052
 7373TIP3    H122076   6.878   7.309   4.075
 7373TIP3    H222077   6.866   7.158   4.068
 7374TIP3   OH222078   4.330   2.455   1.416
 7374TIP3    H122079   4.236   2.474   1.417
 7374TIP3    H222080   4.343   2.396   1.490
 7375TIP3   OH222081   6.921   3.088   5.696
 7375TIP3    H122082   6.988   3.155   5.679
 7375TIP3    H222083   6.855   3.103   5.630
 7376TIP3   OH222084   6.854   6.777   4.397
 7376TIP3    H122085   6.804   6.850   4.434
 7376TIP3    H222086   6.797   6.701   4.410
 7377TIP3   OH222087   8.026   3.443   1.121
 7377TIP3    H122088   8.064   3.525   1.154
 7377TIP3    H222089   8.011   3.459   1.028
 7378TIP3   OH222090   6.176   0.827   0.244
 7378TIP3    H122091   6.109   0.839   0.311
 7378TIP3    H222092   6.133   0.777   0.176
 7379TIP3   OH222093   8.128   5.748   5.228
 7379TIP3    H122094   8.133   5.665   5.180
 7379TIP3    H222095   8.191   5.739   5.299
 7380TIP3   OH222096   0.813   5.266   5.290
 7380TIP3    H122097   0.800   5.219   5.208
 7380TIP3    H222098   0.898   5.309   5.280
 7381TIP3   OH222099   3.653   5.060   2.812
 7381TIP3    H122100   3.707   5.070   2.733
 7381TIP3    H222101   3.716   5.061   2.884
 7382TIP3   OH222102   1.925   7.130   5.283
 7382TIP3    H122103   1.833   7.107   5.265
 7382TIP3    H222104   1.952   7.179   5.206
 7383TIP3   OH222105   0.762   0.714   6.711
 7383TIP3    H122106   0.686   0.760   6.674
 7383TIP3    H222107   0.819   0.697   6.636
 7384TIP3   OH222108   0.338   3.421   6.266
 7384TIP3    H122109   0.353   3.328   6.250
 7384TIP3    H222110   0.248   3.437   6.237
 7385TIP3   OH222111   1.775   6.283   4.883
 7385TIP3    H122112   1.719   6.307   4.958
 7385TIP3    H222113   1.861   6.268   4.922
 7386TIP3   OH222114   7.610   1.921   5.332
 7386TIP3    H122115   7.626   1.989   5.267
 7386TIP3    H222116   7.696   1.882   5.349
 7387TIP3   OH222117   6.553   6.803   3.285
 7387TIP3    H122118   6.568   6.885   3.238
 7387TIP3    H222119   6.469   6.815   3.328
 7388TIP3   OH222120   6.708   6.247   5.462
 7388TIP3    H122121   6.725   6.164   5.419
 7388TIP3    H222122   6.632   6.230   5.518
 7389TIP3   OH222123   4.367   1.819   0.509
 7389TIP3    H122124   4.295   1.759   0.528
 7389TIP3    H222125   4.417   1.823   0.591
 7390TIP3   OH222126   2.792   3.107   1.451
 7390TIP3    H122127   2.847   3.036   1.418
 7390TIP3    H222128   2.802   3.177   1.386
 7391TIP3   OH222129   1.302   5.249   1.769
 7391TIP3    H122130   1.337   5.298   1.844
 7391TIP3    H222131   1.369   5.184   1.749
 7392TIP3   OH222132   8.247   0.875   1.087
 7392TIP3    H122133   8.180   0.880   1.155
 7392TIP3    H222134   8.296   0.796   1.108
 7393TIP3   OH222135   7.197   4.438   6.441
 7393TIP3    H122136   7.120   4.458   6.494
 7393TIP3    H222137   7.265   4.417   6.505
 7394TIP3   OH222138   0.226   4.999   6.059
 7394TIP3    H122139   0.240   5.014   5.966
 7394TIP3    H222140   0.143   5.042   6.079
 7395TIP3   OH222141   7.546   2.399   4.528
 7395TIP3    H122142   7.491   2.326   4.554
 7395TIP3    H222143   7.555   2.390   4.433
 7396TIP3   OH222144   5.245   3.146   1.176
 7396TIP3    H122145   5.291   3.088   1.237
 7396TIP3    H222146   5.314   3.184   1.122
 7397TIP3   OH222147   2.575   1.113   6.561
 7397TIP3    H122148   2.559   1.138   6.470
 7397TIP3    H222149   2.500   1.149   6.609
 7398TIP3   OH222150   1.791   2.976   4.635
 7398TIP3    H122151   1.807   3.042   4.568
 7398TIP3    H222152   1.785   2.893   4.586
 7399TIP3   OH222153   3.097   2.106   3.485
 7399TIP3    H122154   3.113   2.183   3.429
 7399TIP3    H222155   3.075   2.143   3.571
 7400TIP3   OH222156   1.998   0.857   5.459
 7400TIP3    H122157   2.089   0.849   5.430
 7400TIP3    H222158   1.968   0.940   5.422
 7401TIP3   OH222159   5.947   2.433   4.071
 7401TIP3    H122160   6.026   2.486   4.084
 7401TIP3    H222161   5.980   2.343   4.062
 7402TIP3   OH222162   4.693   5.978   4.233
 7402TIP3    H122163   4.725   6.033   4.305
 7402TIP3    H222164   4.606   5.950   4.261
 7403TIP3   OH222165   2.616   0.204   5.258
 7403TIP3    H122166   2.699   0.225   5.303
 7403TIP3    H222167   2.564   0.158   5.324
 7404TIP3   OH222168   3.206   1.343   1.399
 7404TIP3    H122169   3.203   1.419   1.457
 7404TIP3    H222170   3.287   1.354   1.349
 7405TIP3   OH222171   1.367   4.066   4.904
 7405TIP3    H122172   1.459   4.086   4.921
 7405TIP3    H222173   1.369   4.008   4.827
 7406TIP3   OH222174   3.165   7.422   0.594
 7406TIP3    H122175   3.110   7.496   0.621
 7406TIP3    H222176   3.175   7.433   0.499
 7407TIP3   OH222177   2.943   1.385   6.347
 7407TIP3    H122178   2.876   1.359   6.284
 7407TIP3    H222179   2.896   1.437   6.412
 7408TIP3   OH222180   4.170   7.814   1.475
 7408TIP3    H122181   4.195   7.764   1.396
 7408TIP3    H222182   4.082   7.782   1.496
 7409TIP3   OH222183   6.577   6.436   1.625
 7409TIP3    H122184   6.556   6.413   1.535
 7409TIP3    H222185   6.673   6.434   1.629
 7410TIP3   OH222186   4.526   2.925   1.599
 7410TIP3    H122187   4.503   3.015   1.624
 7410TIP3    H222188   4.606   2.934   1.547
 7411TIP3   OH222189   1.917   2.328   3.414
 7411TIP3    H122190   1.831   2.311   3.451
 7411TIP3    H222191   1.954   2.241   3.398
 7412TIP3   OH222192   0.163   2.882   6.257
 7412TIP3    H122193   0.133   2.806   6.306
 7412TIP3    H222194   0.244   2.853   6.214
 7413TIP3   OH222195   0.604   4.726   1.490
 7413TIP3    H122196   0.651   4.723   1.573
 7413TIP3    H222197   0.598   4.819   1.469
 7414TIP3   OH222198   0.579   0.465   0.854
 7414TIP3    H122199   0.642   0.537   0.857
 7414TIP3    H222200   0.494   0.506   0.872
 7415TIP3   OH222201   0.918   5.959   2.757
 7415TIP3    H122202   0.834   5.928   2.790
 7415TIP3    H222203   0.973   5.881   2.755
 7416TIP3   OH222204   7.775   5.439   6.718
 7416TIP3    H122205   7.764   5.511   6.780
 7416TIP3    H222206   7.865   5.409   6.732
 7417TIP3   OH222207   6.709   3.451   0.514
 7417TIP3    H122208   6.640   3.388   0.536
 7417TIP3    H222209   6.695   3.523   0.576
 7418TIP3   OH222210   0.304   3.090   1.409
 7418TIP3    H122211   0.249   3.163   1.380
 7418TIP3    H222212   0.258   3.012   1.378
 7419TIP3   OH222213   3.815   7.633   5.254
 7419TIP3    H122214   3.864   7.667   5.178
 7419TIP3    H222215   3.725   7.624   5.222
 7420TIP3   OH222216   5.106   1.058   1.454
 7420TIP3    H122217   5.090   0.975   1.410
 7420TIP3    H222218   5.053   1.121   1.406
 7421TIP3   OH222219   7.472   4.705   1.129
 7421TIP3    H122220   7.385   4.743   1.143
 7421TIP3    H222221   7.461   4.648   1.052
 7422TIP3   OH222222   4.922   6.936   5.174
 7422TIP3    H122223   4.958   7.022   5.197
 7422TIP3    H222224   4.996   6.876   5.184
 7423TIP3   OH222225   4.493   2.520   5.635
 7423TIP3    H122226   4.552   2.565   5.695
 7423TIP3    H222227   4.405   2.553   5.658
 7424TIP3   OH222228   7.656   7.683   0.568
 7424TIP3    H122229   7.722   7.743   0.535
 7424TIP3    H222230   7.685   7.661   0.657
 7425TIP3   OH222231   6.651   7.638   2.738
 7425TIP3    H122232   6.681   7.550   2.713
 7425TIP3    H222233   6.562   7.643   2.703
 7426TIP3   OH222234   2.791   1.343   0.891
 7426TIP3    H122235   2.747   1.260   0.912
 7426TIP3    H222236   2.748   1.407   0.949
 7427TIP3   OH222237   6.740   0.873   1.480
 7427TIP3    H122238   6.743   0.791   1.529
 7427TIP3    H222239   6.777   0.938   1.540
 7428TIP3   OH222240   0.272   7.423   1.533
 7428TIP3    H122241   0.362   7.442   1.505
 7428TIP3    H222242   0.279   7.340   1.580
 7429TIP3   OH222243   1.592   7.506   6.350
 7429TIP3    H122244   1.625   7.551   6.427
 7429TIP3    H222245   1.628   7.417   6.357
 7430TIP3   OH222246   1.186   4.486   1.103
 7430TIP3    H122247   1.101   4.511   1.138
 7430TIP3    H222248   1.187   4.391   1.108
 7431TIP3   OH222249   5.571   4.028   0.116
 7431TIP3    H122250   5.511   3.986   0.177
 7431TIP3    H222251   5.610   4.100   0.166
 7432TIP3   OH222252   5.457   2.324   2.350
 7432TIP3    H122253   5.391   2.257   2.368
 7432TIP3    H222254   5.539   2.275   2.342
 7433TIP3   OH222255   8.129   2.692   2.177
 7433TIP3    H122256   8.073   2.769   2.167
 7433TIP3    H222257   8.067   2.618   2.179
 7434TIP3   OH222258   8.178   1.206   1.653
 7434TIP3    H122259   8.186   1.302   1.655
 7434TIP3    H222260   8.098   1.188   1.703
 7435TIP3   OH222261   6.437   0.822   2.187
 7435TIP3    H122262   6.397   0.902   2.222
 7435TIP3    H222263   6.464   0.846   2.098
 7436TIP3   OH222264   2.538   7.640   0.856
 7436TIP3    H122265   2.551   7.732   0.834
 7436TIP3    H222266   2.548   7.594   0.772
 7437TIP3   OH222267   2.776   3.560   4.945
 7437TIP3    H122268   2.812   3.587   5.030
 7437TIP3    H222269   2.688   3.597   4.943
 7438TIP3   OH222270   0.247   5.676   2.250
 7438TIP3    H122271   0.204   5.751   2.292
 7438TIP3    H222272   0.286   5.713   2.171
 7439TIP3   OH222273   5.699   4.933   6.004
 7439TIP3    H122274   5.724   4.842   5.994
 7439TIP3    H222275   5.780   4.978   6.028
 7440TIP3   OH222276   0.377   0.599   4.267
 7440TIP3    H122277   0.331   0.635   4.192
 7440TIP3    H222278   0.366   0.663   4.337
 7441TIP3   OH222279   8.167   5.548   1.596
 7441TIP3    H122280   8.137   5.614   1.657
 7441TIP3    H222281   8.088   5.501   1.570
 7442TIP3   OH222282   5.205   5.598   2.363
 7442TIP3    H122283   5.286   5.558   2.333
 7442TIP3    H222284   5.202   5.578   2.457
 7443TIP3   OH222285   2.879   6.051   0.933
 7443TIP3    H122286   2.793   6.050   0.975
 7443TIP3    H222287   2.861   6.072   0.841
 7444TIP3   OH222288   3.996   5.399   3.266
 7444TIP3    H122289   3.992   5.453   3.345
 7444TIP3    H222290   3.938   5.443   3.204
 7445TIP3   OH222291   0.629   2.093   2.060
 7445TIP3    H122292   0.536   2.115   2.049
 7445TIP3    H222293   0.634   1.999   2.043
 7446TIP3   OH222294   0.581   2.316   2.396
 7446TIP3    H122295   0.576   2.329   2.301
 7446TIP3    H222296   0.555   2.400   2.433
 7447TIP3   OH222297   3.138   0.228   0.669
 7447TIP3    H122298   3.165   0.170   0.740
 7447TIP3    H222299   3.196   0.304   0.676
 7448TIP3   OH222300   1.750   7.292   6.387
 7448TIP3    H122301   1.743   7.223   6.322
 7448TIP3    H222302   1.690   7.266   6.457
 7449TIP3   OH222303   2.858   6.732   4.166
 7449TIP3    H122304   2.763   6.742   4.157
 7449TIP3    H222305   2.892   6.753   4.079
 7450TIP3   OH222306   7.814   2.122   6.017
 7450TIP3    H122307   7.843   2.033   6.035
 7450TIP3    H222308   7.890   2.176   6.036
 7451TIP3   OH222309   1.387   1.268   0.154
 7451TIP3    H122310   1.418   1.358   0.156
 7451TIP3    H222311   1.325   1.265   0.081
 7452TIP3   OH222312   0.043   3.927   4.577
 7452TIP3    H122313   0.090   3.845   4.592
 7452TIP3    H222314   0.071   3.955   4.490
 7453TIP3   OH222315   4.287   1.988   1.643
 7453TIP3    H122316   4.318   1.912   1.594
 7453TIP3    H222317   4.192   1.985   1.636
 7454TIP3   OH222318   3.261   6.425   6.265
 7454TIP3    H122319   3.297   6.469   6.188
 7454TIP3    H222320   3.181   6.474   6.285
 7455TIP3   OH222321   4.396   3.816   5.531
 7455TIP3    H122322   4.334   3.746   5.508
 7455TIP3    H222323   4.422   3.797   5.621
 7456TIP3   OH222324   2.569   5.403   4.961
 7456TIP3    H122325   2.606   5.464   5.025
 7456TIP3    H222326   2.643   5.377   4.906
 7457TIP3   OH222327   1.166   1.632   4.909
 7457TIP3    H122328   1.253   1.669   4.897
 7457TIP3    H222329   1.180   1.537   4.907
 7458TIP3   OH222330   2.129   6.038   0.580
 7458TIP3    H122331   2.159   6.033   0.671
 7458TIP3    H222332   2.035   6.021   0.585
 7459TIP3   OH222333   7.876   7.161   1.531
 7459TIP3    H122334   7.945   7.163   1.464
 7459TIP3    H222335   7.821   7.237   1.511
 7460TIP3   OH222336   4.243   7.377   6.480
 7460TIP3    H122337   4.166   7.412   6.437
 7460TIP3    H222338   4.209   7.334   6.559
 7461TIP3   OH222339   3.087   7.008   4.906
 7461TIP3    H122340   3.140   7.069   4.854
 7461TIP3    H222341   2.997   7.027   4.880
 7462TIP3   OH222342   1.137   1.329   1.406
 7462TIP3    H122343   1.065   1.298   1.461
 7462TIP3    H222344   1.189   1.251   1.388
 7463TIP3   OH222345   6.656   6.809   0.052
 7463TIP3    H122346   6.700   6.732   0.016
 7463TIP3    H222347   6.725   6.859   0.095
 7464TIP3   OH222348   2.583   0.715   4.085
 7464TIP3    H122349   2.495   0.751   4.073
 7464TIP3    H222350   2.620   0.712   3.997
 7465TIP3   OH222351   7.884   4.214   1.565
 7465TIP3    H122352   7.972   4.215   1.527
 7465TIP3    H222353   7.898   4.226   1.659
 7466TIP3   OH222354   3.057   0.282   1.373
 7466TIP3    H122355   3.069   0.193   1.406
 7466TIP3    H222356   3.122   0.291   1.304
 7467TIP3   OH222357   7.525   5.172   0.992
 7467TIP3    H122358   7.547   5.079   0.980
 7467TIP3    H222359   7.511   5.204   0.904
 7468TIP3   OH222360   0.643   4.371   6.197
 7468TIP3    H122361   0.714   4.349   6.137
 7468TIP3    H222362   0.666   4.458   6.231
 7469TIP3   OH222363   7.901   2.665   3.383
 7469TIP3    H122364   7.828   2.688   3.325
 7469TIP3    H222365   7.859   2.623   3.458
 7470TIP3   OH222366   5.118   0.319   4.508
 7470TIP3    H122367   5.048   0.321   4.443
 7470TIP3    H222368   5.190   0.272   4.465
 7471TIP3   OH222369   3.966   2.643   6.731
 7471TIP3    H122370   3.962   2.574   6.797
 7471TIP3    H222371   3.962   2.596   6.647
 7472TIP3   OH222372   6.800   1.020   2.144
 7472TIP3    H122373   6.744   0.947   2.116
 7472TIP3    H222374   6.862   1.032   2.072
 7473TIP3   OH222375   6.824   2.803   4.954
 7473TIP3    H122376   6.729   2.794   4.960
 7473TIP3    H222377   6.840   2.839   4.867
 7474TIP3   OH222378   1.075   7.030   2.239
 7474TIP3    H122379   1.021   6.986   2.173
 7474TIP3    H222380   1.165   7.016   2.211
 7475TIP3   OH222381   0.136   3.942   2.669
 7475TIP3    H122382   0.137   3.945   2.573
 7475TIP3    H222383   0.200   4.008   2.696
 7476TIP3   OH222384   2.815   3.554   6.505
 7476TIP3    H122385   2.778   3.614   6.569
 7476TIP3    H222386   2.861   3.488   6.557
 7477TIP3   OH222387   2.628   0.502   4.650
 7477TIP3    H122388   2.629   0.407   4.636
 7477TIP3    H222389   2.547   0.519   4.697
 7478TIP3   OH222390   6.420   5.554   1.918
 7478TIP3    H122391   6.463   5.483   1.966
 7478TIP3    H222392   6.332   5.521   1.901
 7479TIP3   OH222393   2.166   0.824   3.756
 7479TIP3    H122394   2.195   0.757   3.694
 7479TIP3    H222395   2.100   0.781   3.810
 7480TIP3   OH222396   0.548   7.462   0.281
 7480TIP3    H122397   0.601   7.504   0.213
 7480TIP3    H222398   0.611   7.440   0.350
 7481TIP3   OH222399   3.199   6.470   3.239
 7481TIP3    H122400   3.162   6.402   3.183
 7481TIP3    H222401   3.148   6.466   3.320
 7482TIP3   OH222402   1.699   7.387   0.856
 7482TIP3    H122403   1.696   7.390   0.761
 7482TIP3    H222404   1.760   7.316   0.876
 7483TIP3   OH222405   0.723   7.650   4.675
 7483TIP3    H122406   0.658   7.719   4.666
 7483TIP3    H222407   0.747   7.653   4.768
 7484TIP3   OH222408   7.799   3.711   2.712
 7484TIP3    H122409   7.820   3.797   2.676
 7484TIP3    H222410   7.884   3.671   2.730
 7485TIP3   OH222411   0.609   0.166   2.920
 7485TIP3    H122412   0.545   0.236   2.927
 7485TIP3    H222413   0.607   0.123   3.005
 7486TIP3   OH222414   4.690   6.378   0.262
 7486TIP3    H122415   4.699   6.303   0.204
 7486TIP3    H222416   4.773   6.425   0.253
 7487TIP3   OH222417   2.887   4.300   1.747
 7487TIP3    H122418   2.918   4.292   1.657
 7487TIP3    H222419   2.845   4.217   1.766
 7488TIP3   OH222420   6.796   3.071   4.203
 7488TIP3    H122421   6.871   3.056   4.261
 7488TIP3    H222422   6.790   2.990   4.152
 7489TIP3   OH222423   6.605   6.840   6.514
 7489TIP3    H122424   6.565   6.925   6.537
 7489TIP3    H222425   6.669   6.824   6.583
 7490TIP3   OH222426   4.552   2.123   3.995
 7490TIP3    H122427   4.473   2.079   3.964
 7490TIP3    H222428   4.527   2.159   4.080
 7491TIP3   OH222429   0.885   3.671   5.042
 7491TIP3    H122430   0.894   3.611   4.968
 7491TIP3    H222431   0.975   3.685   5.073
 7492TIP3   OH222432   5.972   4.055   1.381
 7492TIP3    H122433   5.937   4.138   1.351
 7492TIP3    H222434   6.062   4.075   1.407
 7493TIP3   OH222435   6.259   3.302   1.376
 7493TIP3    H122436   6.234   3.390   1.406
 7493TIP3    H222437   6.349   3.291   1.407
 7494TIP3   OH222438   3.817   6.694   1.629
 7494TIP3    H122439   3.891   6.752   1.647
 7494TIP3    H222440   3.856   6.608   1.615
 7495TIP3   OH222441   0.122   6.549   3.843
 7495TIP3    H122442   0.037   6.536   3.884
 7495TIP3    H222443   0.118   6.497   3.763
 7496TIP3   OH222444   2.196   7.619   0.638
 7496TIP3    H122445   2.167   7.557   0.571
 7496TIP3    H222446   2.120   7.675   0.654
 7497TIP3   OH222447   3.918   0.279   1.628
 7497TIP3    H122448   3.918   0.331   1.548
 7497TIP3    H222449   4.000   0.229   1.625
 7498TIP3   OH222450   6.493   2.092   6.713
 7498TIP3    H122451   6.490   2.108   6.807
 7498TIP3    H222452   6.554   2.019   6.703
 7499TIP3   OH222453   3.003   6.468   4.288
 7499TIP3    H122454   2.918   6.505   4.312
 7499TIP3    H222455   3.062   6.544   4.283
 7500TIP3   OH222456   2.770   1.570   5.570
 7500TIP3    H122457   2.679   1.583   5.543
 7500TIP3    H222458   2.805   1.658   5.583
 7501TIP3   OH222459   4.859   4.337   6.016
 7501TIP3    H122460   4.929   4.322   5.953
 7501TIP3    H222461   4.842   4.431   6.010
 7502TIP3   OH222462   7.048   3.632   0.997
 7502TIP3    H122463   6.971   3.592   0.957
 7502TIP3    H222464   7.064   3.711   0.945
 7503TIP3   OH222465   6.207   5.994   4.017
 7503TIP3    H122466   6.146   5.923   4.039
 7503TIP3    H222467   6.151   6.071   4.008
 7504TIP3   OH222468   2.508   7.432   6.239
 7504TIP3    H122469   2.445   7.476   6.182
 7504TIP3    H222470   2.559   7.504   6.278
 7505TIP3   OH222471   4.104   5.947   3.302
 7505TIP3    H122472   4.080   6.024   3.354
 7505TIP3    H222473   4.154   5.893   3.363
 7506TIP3   OH222474   2.718   4.768   2.363
 7506TIP3    H122475   2.702   4.674   2.365
 7506TIP3    H222476   2.779   4.783   2.436
 7507TIP3   OH222477   6.485   3.647   4.650
 7507TIP3    H122478   6.521   3.569   4.691
 7507TIP3    H222479   6.410   3.615   4.599
 7508TIP3   OH222480   7.712   3.002   4.006
 7508TIP3    H122481   7.679   2.913   3.994
 7508TIP3    H222482   7.690   3.046   3.924
 7509TIP3   OH222483   3.945   4.380   4.875
 7509TIP3    H122484   3.968   4.471   4.856
 7509TIP3    H222485   3.988   4.361   4.958
 7510TIP3   OH222486   8.011   4.077   6.150
 7510TIP3    H122487   8.074   4.014   6.114
 7510TIP3    H222488   8.017   4.065   6.245
 7511TIP3   OH222489   3.057   2.886   2.081
 7511TIP3    H122490   3.122   2.898   2.150
 7511TIP3    H222491   3.050   2.972   2.040
 7512TIP3   OH222492   2.446   1.711   5.745
 7512TIP3    H122493   2.459   1.655   5.822
 7512TIP3    H222494   2.506   1.676   5.680
 7513TIP3   OH222495   3.055   0.647   5.396
 7513TIP3    H122496   3.033   0.560   5.364
 7513TIP3    H222497   3.144   0.663   5.365
 7514TIP3   OH222498   1.307   4.658   0.925
 7514TIP3    H122499   1.254   4.686   0.850
 7514TIP3    H222500   1.258   4.585   0.962
 7515TIP3   OH222501   4.397   6.800   5.005
 7515TIP3    H122502   4.465   6.797   5.073
 7515TIP3    H222503   4.320   6.837   5.050
 7516TIP3   OH222504   0.170   7.055   2.467
 7516TIP3    H122505   0.255   7.089   2.494
 7516TIP3    H222506   0.180   6.960   2.469
 7517TIP3   OH222507   2.192   7.607   3.597
 7517TIP3    H122508   2.147   7.559   3.666
 7517TIP3    H222509   2.130   7.610   3.525
 7518TIP3   OH222510   2.626   4.398   3.565
 7518TIP3    H122511   2.702   4.341   3.569
 7518TIP3    H222512   2.641   4.454   3.489
 7519TIP3   OH222513   4.826   0.507   0.168
 7519TIP3    H122514   4.879   0.575   0.209
 7519TIP3    H222515   4.735   0.534   0.186
 7520TIP3   OH222516   4.765   4.542   5.621
 7520TIP3    H122517   4.835   4.586   5.670
 7520TIP3    H222518   4.690   4.544   5.679
 7521TIP3   OH222519   3.924   6.520   3.451
 7521TIP3    H122520   3.946   6.598   3.501
 7521TIP3    H222521   3.983   6.452   3.485
 7522TIP3   OH222522   0.029   4.198   3.559
 7522TIP3    H122523  -0.016   4.270   3.515
 7522TIP3    H222524   0.071   4.149   3.488
 7523TIP3   OH222525   7.516   3.308   2.724
 7523TIP3    H122526   7.513   3.331   2.817
 7523TIP3    H222527   7.445   3.358   2.685
 7524TIP3   OH222528   1.382   6.544   1.669
 7524TIP3    H122529   1.401   6.617   1.611
 7524TIP3    H222530   1.334   6.482   1.614
 7525TIP3   OH222531   4.686   6.359   2.253
 7525TIP3    H122532   4.626   6.429   2.230
 7525TIP3    H222533   4.655   6.284   2.202
 7526TIP3   OH222534   5.565   7.698   5.033
 7526TIP3    H122535   5.521   7.630   5.084
 7526TIP3    H222536   5.556   7.777   5.086
 7527TIP3   OH222537   4.140   3.873   4.492
 7527TIP3    H122538   4.073   3.825   4.542
 7527TIP3    H222539   4.134   3.837   4.404
 7528TIP3   OH222540   6.453   4.231   5.328
 7528TIP3    H122541   6.534   4.274   5.300
 7528TIP3    H222542   6.482   4.166   5.392
 7529TIP3   OH222543   7.681   2.453   6.417
 7529TIP3    H122544   7.663   2.511   6.490
 7529TIP3    H222545   7.672   2.365   6.453
 7530TIP3   OH222546   5.253   1.918   1.535
 7530TIP3    H122547   5.254   1.960   1.621
 7530TIP3    H222548   5.174   1.953   1.493
 7531TIP3   OH222549   2.899   6.880   5.995
 7531TIP3    H122550   2.817   6.924   5.974
 7531TIP3    H222551   2.967   6.940   5.964
 7532TIP3   OH222552   2.224   3.394   0.483
 7532TIP3    H122553   2.219   3.403   0.578
 7532TIP3    H222554   2.234   3.300   0.468
 7533TIP3   OH222555   0.156   3.197   5.730
 7533TIP3    H122556   0.166   3.276   5.782
 7533TIP3    H222557   0.132   3.228   5.643
 7534TIP3   OH222558   0.313   4.386   3.090
 7534TIP3    H122559   0.272   4.306   3.058
 7534TIP3    H222560   0.395   4.392   3.041
 7535TIP3   OH222561   6.180   5.461   1.869
 7535TIP3    H122562   6.119   5.391   1.891
 7535TIP3    H222563   6.131   5.542   1.887
 7536TIP3   OH222564   7.281   6.300   5.849
 7536TIP3    H122565   7.189   6.326   5.859
 7536TIP3    H222566   7.326   6.347   5.919
 7537TIP3   OH222567   2.254   6.565   3.440
 7537TIP3    H122568   2.337   6.573   3.392
 7537TIP3    H222569   2.202   6.504   3.387
 7538TIP3   OH222570   1.767   4.631   4.677
 7538TIP3    H122571   1.722   4.703   4.632
 7538TIP3    H222572   1.785   4.568   4.608
 7539TIP3   OH222573   6.739   3.420   2.484
 7539TIP3    H122574   6.698   3.496   2.442
 7539TIP3    H222575   6.779   3.456   2.563
 7540TIP3   OH222576   6.388   3.902   0.387
 7540TIP3    H122577   6.311   3.854   0.355
 7540TIP3    H222578   6.426   3.844   0.453
 7541TIP3   OH222579   4.334   1.902   1.941
 7541TIP3    H122580   4.423   1.931   1.922
 7541TIP3    H222581   4.285   1.919   1.860
 7542TIP3   OH222582   2.139   4.054   1.901
 7542TIP3    H122583   2.133   4.073   1.995
 7542TIP3    H222584   2.225   4.086   1.875
 7543TIP3   OH222585   5.622   4.562   2.383
 7543TIP3    H122586   5.687   4.629   2.405
 7543TIP3    H222587   5.614   4.568   2.287
 7544TIP3   OH222588   4.909   5.357   4.440
 7544TIP3    H122589   4.848   5.415   4.486
 7544TIP3    H222590   4.994   5.399   4.450
 7545TIP3   OH222591   2.774   3.394   2.010
 7545TIP3    H122592   2.689   3.430   2.034
 7545TIP3    H222593   2.797   3.439   1.928
 7546TIP3   OH222594   4.697   0.904   2.452
 7546TIP3    H122595   4.690   0.923   2.546
 7546TIP3    H222596   4.784   0.864   2.442
 7547TIP3   OH222597   7.700   2.951   3.599
 7547TIP3    H122598   7.717   2.884   3.664
 7547TIP3    H222599   7.705   3.034   3.647
 7548TIP3   OH222600   6.363   3.447   2.806
 7548TIP3    H122601   6.291   3.428   2.866
 7548TIP3    H222602   6.322   3.499   2.736
 7549TIP3   OH222603   0.787   4.399   5.559
 7549TIP3    H122604   0.735   4.477   5.543
 7549TIP3    H222605   0.836   4.386   5.477
 7550TIP3   OH222606   3.864   2.242   5.871
 7550TIP3    H122607   3.878   2.337   5.868
 7550TIP3    H222608   3.952   2.205   5.875
 7551TIP3   OH222609   7.296   4.153   3.604
 7551TIP3    H122610   7.217   4.181   3.651
 7551TIP3    H222611   7.277   4.063   3.577
 7552TIP3   OH222612   3.237   5.444   1.557
 7552TIP3    H122613   3.172   5.462   1.489
 7552TIP3    H222614   3.225   5.351   1.577
 7553TIP3   OH222615   1.616   4.174   4.758
 7553TIP3    H122616   1.617   4.268   4.742
 7553TIP3    H222617   1.624   4.165   4.853
 7554TIP3   OH222618   7.995   7.641   5.294
 7554TIP3    H122619   7.997   7.629   5.199
 7554TIP3    H222620   7.959   7.560   5.328
 7555TIP3   OH222621   2.433   2.103   1.761
 7555TIP3    H122622   2.467   2.048   1.832
 7555TIP3    H222623   2.360   2.054   1.725
 7556TIP3   OH222624   4.233   5.048   2.990
 7556TIP3    H122625   4.176   5.092   3.053
 7556TIP3    H222626   4.286   4.989   3.044
 7557TIP3   OH222627   2.515   2.412   3.407
 7557TIP3    H122628   2.516   2.317   3.394
 7557TIP3    H222629   2.552   2.425   3.494
 7558TIP3   OH222630   5.910   2.313   4.425
 7558TIP3    H122631   5.894   2.220   4.411
 7558TIP3    H222632   5.831   2.356   4.391
 7559TIP3   OH222633   4.563   1.648   3.760
 7559TIP3    H122634   4.532   1.600   3.683
 7559TIP3    H222635   4.621   1.715   3.725
 7560TIP3   OH222636   5.747   1.994   4.814
 7560TIP3    H122637   5.747   1.924   4.879
 7560TIP3    H222638   5.793   2.067   4.857
 7561TIP3   OH222639   4.558   1.664   5.147
 7561TIP3    H122640   4.535   1.581   5.105
 7561TIP3    H222641   4.634   1.695   5.097
 7562TIP3   OH222642   0.821   5.596   3.404
 7562TIP3    H122643   0.906   5.595   3.360
 7562TIP3    H222644   0.813   5.684   3.439
 7563TIP3   OH222645   6.599   5.048   3.064
 7563TIP3    H122646   6.661   5.073   2.995
 7563TIP3    H222647   6.569   4.961   3.037
 7564TIP3   OH222648   7.266   2.346   1.175
 7564TIP3    H122649   7.227   2.309   1.254
 7564TIP3    H222650   7.194   2.389   1.129
 7565TIP3   OH222651   4.081   3.935   2.573
 7565TIP3    H122652   4.086   3.896   2.486
 7565TIP3    H222653   4.045   3.866   2.629
 7566TIP3   OH222654   3.027   5.358   0.103
 7566TIP3    H122655   3.099   5.333   0.161
 7566TIP3    H222656   3.027   5.292   0.034
 7567TIP3   OH222657   3.810   6.400   3.749
 7567TIP3    H122658   3.872   6.398   3.676
 7567TIP3    H222659   3.725   6.380   3.709
 7568TIP3   OH222660   7.855   6.620   6.607
 7568TIP3    H122661   7.946   6.647   6.620
 7568TIP3    H222662   7.843   6.625   6.512
 7569TIP3   OH222663   0.203   3.168   3.434
 7569TIP3    H122664   0.148   3.193   3.359
 7569TIP3    H222665   0.233   3.251   3.470
 7570TIP3   OH222666   4.717   1.091   5.437
 7570TIP3    H122667   4.703   1.026   5.368
 7570TIP3    H222668   4.767   1.160   5.395
 7571TIP3   OH222669   4.014   5.790   3.714
 7571TIP3    H122670   3.969   5.857   3.765
 7571TIP3    H222671   4.002   5.710   3.764
 7572TIP3   OH222672   0.163   5.614   1.091
 7572TIP3    H122673   0.166   5.519   1.082
 7572TIP3    H222674   0.183   5.647   1.003
 7573TIP3   OH222675   6.933   5.116   1.452
 7573TIP3    H122676   6.878   5.044   1.418
 7573TIP3    H222677   7.013   5.111   1.400
 7574TIP3   OH222678   6.543   4.856   1.038
 7574TIP3    H122679   6.594   4.912   0.980
 7574TIP3    H222680   6.585   4.770   1.031
 7575TIP3   OH222681   7.605   4.132   0.425
 7575TIP3    H122682   7.650   4.154   0.344
 7575TIP3    H222683   7.642   4.190   0.491
 7576TIP3   OH222684   4.931   5.233   3.982
 7576TIP3    H122685   4.869   5.294   4.021
 7576TIP3    H222686   4.896   5.217   3.894
 7577TIP3   OH222687   5.635   6.210   4.890
 7577TIP3    H122688   5.730   6.221   4.898
 7577TIP3    H222689   5.619   6.119   4.915
 7578TIP3   OH222690   3.245   0.285   1.182
 7578TIP3    H122691   3.219   0.216   1.121
 7578TIP3    H222692   3.322   0.324   1.142
 7579TIP3   OH222693   3.534   0.134   4.568
 7579TIP3    H122694   3.591   0.159   4.640
 7579TIP3    H222695   3.452   0.108   4.610
 7580TIP3   OH222696   2.430   1.514   3.041
 7580TIP3    H122697   2.382   1.465   3.108
 7580TIP3    H222698   2.523   1.500   3.063
 7581TIP3   OH222699   4.735   3.114   3.536
 7581TIP3    H122700   4.699   3.119   3.448
 7581TIP3    H222701   4.763   3.023   3.545
 7582TIP3   OH222702   6.782   5.787   2.124
 7582TIP3    H122703   6.711   5.755   2.070
 7582TIP3    H222704   6.844   5.714   2.129
 7583TIP3   OH222705   1.709   3.641   2.244
 7583TIP3    H122706   1.685   3.732   2.262
 7583TIP3    H222707   1.782   3.648   2.182
 7584TIP3   OH222708   4.898   1.418   5.650
 7584TIP3    H122709   4.967   1.398   5.714
 7584TIP3    H222710   4.860   1.500   5.681
 7585TIP3   OH222711   5.910   3.128   2.804
 7585TIP3    H122712   5.946   3.217   2.807
 7585TIP3    H222713   5.950   3.084   2.879
 7586TIP3   OH222714   2.024   4.921   3.831
 7586TIP3    H122715   2.086   4.946   3.762
 7586TIP3    H222716   1.960   4.865   3.786
 7587TIP3   OH222717   4.226   0.352   5.694
 7587TIP3    H122718   4.235   0.428   5.636
 7587TIP3    H222719   4.306   0.302   5.682
 7588TIP3   OH222720   5.742   0.559   4.111
 7588TIP3    H122721   5.706   0.644   4.138
 7588TIP3    H222722   5.834   0.563   4.138
 7589TIP3   OH222723   2.333   1.224   5.794
 7589TIP3    H122724   2.269   1.174   5.847
 7589TIP3    H222725   2.309   1.203   5.704
 7590TIP3   OH222726   8.165   4.387   0.428
 7590TIP3    H122727   8.201   4.302   0.401
 7590TIP3    H222728   8.167   4.384   0.523
 7591TIP3   OH222729   5.774   5.745   4.964
 7591TIP3    H122730   5.766   5.667   5.020
 7591TIP3    H222731   5.866   5.771   4.972
 7592TIP3   OH222732   2.935   5.039   4.954
 7592TIP3    H122733   2.866   5.020   5.017
 7592TIP3    H222734   2.889   5.077   4.879
 7593TIP3   OH222735   4.145   0.965  -0.030
 7593TIP3    H122736   4.236   0.978  -0.005
 7593TIP3    H222737   4.100   0.945   0.053
 7594TIP3   OH222738   2.388   4.571   4.096
 7594TIP3    H122739   2.387   4.663   4.069
 7594TIP3    H222740   2.431   4.572   4.182
 7595TIP3   OH222741   3.386   1.743   2.286
 7595TIP3    H122742   3.457   1.782   2.338
 7595TIP3    H222743   3.350   1.816   2.236
 7596TIP3   OH222744   3.619   0.810   1.615
 7596TIP3    H122745   3.553   0.768   1.669
 7596TIP3    H222746   3.661   0.739   1.567
 7597TIP3   OH222747   3.831   6.757   6.685
 7597TIP3    H122748   3.875   6.737   6.767
 7597TIP3    H222749   3.738   6.748   6.704
 7598TIP3   OH222750   5.395   5.987   5.125
 7598TIP3    H122751   5.329   6.051   5.098
 7598TIP3    H222752   5.354   5.902   5.110
 7599TIP3   OH222753   6.909   4.769   2.872
 7599TIP3    H122754   6.833   4.738   2.822
 7599TIP3    H222755   6.980   4.711   2.845
 7600TIP3   OH222756   5.894   4.398   3.345
 7600TIP3    H122757   5.962   4.339   3.379
 7600TIP3    H222758   5.906   4.479   3.394
 7601TIP3   OH222759   8.078   1.135   3.637
 7601TIP3    H122760   8.056   1.055   3.588
 7601TIP3    H222761   8.161   1.114   3.680
 7602TIP3   OH222762   0.707   5.958   4.201
 7602TIP3    H122763   0.690   5.901   4.276
 7602TIP3    H222764   0.801   5.949   4.185
 7603TIP3   OH222765   1.571   3.248   2.347
 7603TIP3    H122766   1.587   3.333   2.388
 7603TIP3    H222767   1.635   3.243   2.276
 7604TIP3   OH222768   6.907   5.759   4.392
 7604TIP3    H122769   6.863   5.700   4.453
 7604TIP3    H222770   6.953   5.701   4.332
 7605TIP3   OH222771   4.297   4.308   3.663
 7605TIP3    H122772   4.295   4.221   3.703
 7605TIP3    H222773   4.207   4.323   3.634
 7606TIP3   OH222774   2.877   7.463   1.807
 7606TIP3    H122775   2.845   7.546   1.841
 7606TIP3    H222776   2.809   7.400   1.831
 7607TIP3   OH222777   4.647   2.214   3.070
 7607TIP3    H122778   4.717   2.165   3.113
 7607TIP3    H222779   4.679   2.305   3.069
 7608TIP3   OH222780   0.336   5.529   0.873
 7608TIP3    H122781   0.256   5.538   0.820
 7608TIP3    H222782   0.401   5.581   0.827
 7609TIP3   OH222783   5.068   3.602   3.137
 7609TIP3    H122784   4.974   3.624   3.134
 7609TIP3    H222785   5.105   3.645   3.060
 7610TIP3   OH222786   2.689   4.181   5.807
 7610TIP3    H122787   2.716   4.221   5.890
 7610TIP3    H222788   2.745   4.223   5.742
 7611TIP3   OH222789   6.036   2.875   2.208
 7611TIP3    H122790   6.054   2.784   2.233
 7611TIP3    H222791   5.943   2.887   2.228
 7612TIP3   OH222792   5.925   7.686   2.359
 7612TIP3    H122793   5.956   7.605   2.319
 7612TIP3    H222794   5.830   7.687   2.342
 7613TIP3   OH222795   1.834   4.850   5.969
 7613TIP3    H122796   1.856   4.912   6.039
 7613TIP3    H222797   1.919   4.815   5.941
 7614TIP3   OH222798   6.678   7.799   4.873
 7614TIP3    H122799   6.618   7.834   4.807
 7614TIP3    H222800   6.684   7.706   4.852
 7615TIP3   OH222801   4.784   5.206   0.647
 7615TIP3    H122802   4.828   5.126   0.618
 7615TIP3    H222803   4.854   5.261   0.681
 7616TIP3   OH222804   0.617   7.388   5.212
 7616TIP3    H122805   0.591   7.476   5.185
 7616TIP3    H222806   0.535   7.344   5.235
 7617TIP3   OH222807   5.085   5.860   6.179
 7617TIP3    H122808   5.165   5.863   6.231
 7617TIP3    H222809   5.112   5.825   6.094
 7618TIP3   OH222810   8.176   2.122   4.441
 7618TIP3    H122811   8.266   2.098   4.461
 7618TIP3    H222812   8.124   2.082   4.510
 7619TIP3   OH222813   1.382   0.385   3.567
 7619TIP3    H122814   1.447   0.345   3.625
 7619TIP3    H222815   1.399   0.345   3.481
 7620TIP3   OH222816   0.643   1.120   0.255
 7620TIP3    H122817   0.690   1.059   0.197
 7620TIP3    H222818   0.654   1.206   0.214
 7621TIP3   OH222819   0.501   3.287   5.495
 7621TIP3    H122820   0.462   3.306   5.580
 7621TIP3    H222821   0.471   3.359   5.439
 7622TIP3   OH222822   0.081   1.861   0.745
 7622TIP3    H122823   0.060   1.954   0.754
 7622TIP3    H222824   0.110   1.834   0.833
 7623TIP3   OH222825   2.918   6.057   2.288
 7623TIP3    H122826   2.962   6.137   2.257
 7623TIP3    H222827   2.982   5.987   2.272
 7624TIP3   OH222828   5.855   4.450   5.477
 7624TIP3    H122829   5.940   4.437   5.521
 7624TIP3    H222830   5.809   4.512   5.533
 7625TIP3   OH222831   6.259   6.441   2.914
 7625TIP3    H122832   6.308   6.500   2.856
 7625TIP3    H222833   6.216   6.380   2.855
 7626TIP3   OH222834   3.392   5.492   3.138
 7626TIP3    H122835   3.425   5.413   3.095
 7626TIP3    H222836   3.331   5.461   3.204
 7627TIP3   OH222837   8.236   7.090   0.350
 7627TIP3    H122838   8.290   7.164   0.324
 7627TIP3    H222839   8.166   7.128   0.403
 7628TIP3   OH222840   4.998   2.082   0.134
 7628TIP3    H122841   4.964   2.015   0.194
 7628TIP3    H222842   4.950   2.068   0.053
 7629TIP3   OH222843   2.902   4.430   0.110
 7629TIP3    H122844   2.996   4.443   0.116
 7629TIP3    H222845   2.888   4.402   0.019
 7630TIP3   OH222846   2.927   1.809   5.759
 7630TIP3    H122847   2.994   1.798   5.691
 7630TIP3    H222848   2.865   1.872   5.722
 7631TIP3   OH222849   1.114   7.487   6.040
 7631TIP3    H122850   1.052   7.557   6.018
 7631TIP3    H222851   1.135   7.502   6.133
 7632TIP3   OH222852   1.835   2.593   4.101
 7632TIP3    H122853   1.760   2.573   4.156
 7632TIP3    H222854   1.880   2.665   4.147
 7633TIP3   OH222855   0.484   0.107   6.006
 7633TIP3    H122856   0.562   0.052   6.006
 7633TIP3    H222857   0.509   0.184   6.057
 7634TIP3   OH222858   6.429   6.103   0.084
 7634TIP3    H122859   6.499   6.090   0.148
 7634TIP3    H222860   6.365   6.157   0.128
 7635TIP3   OH222861   2.995   7.521   2.395
 7635TIP3    H122862   2.977   7.478   2.479
 7635TIP3    H222863   2.929   7.487   2.336
 7636TIP3   OH222864   6.906   0.753   3.654
 7636TIP3    H122865   6.851   0.676   3.669
 7636TIP3    H222866   6.858   0.804   3.589
 7637TIP3   OH222867   2.219   6.949   1.282
 7637TIP3    H122868   2.132   6.909   1.277
 7637TIP3    H222869   2.279   6.875   1.291
 7638TIP3   OH222870   4.732   4.177   3.099
 7638TIP3    H122871   4.645   4.145   3.073
 7638TIP3    H222872   4.717   4.269   3.122
 7639TIP3   OH222873   4.486   3.344   5.973
 7639TIP3    H122874   4.479   3.252   5.947
 7639TIP3    H222875   4.446   3.392   5.900
 7640TIP3   OH222876   0.467   4.981   1.511
 7640TIP3    H122877   0.513   5.060   1.540
 7640TIP3    H222878   0.420   5.009   1.432
 7641TIP3   OH222879   1.356   4.753   6.212
 7641TIP3    H122880   1.402   4.755   6.128
 7641TIP3    H222881   1.381   4.670   6.251
 7642TIP3   OH222882   1.370   3.278   6.505
 7642TIP3    H122883   1.401   3.312   6.588
 7642TIP3    H222884   1.365   3.355   6.448
 7643TIP3   OH222885   2.099   1.594   3.720
 7643TIP3    H122886   2.161   1.529   3.687
 7643TIP3    H222887   2.088   1.573   3.812
 7644TIP3   OH222888   4.718   1.037   3.061
 7644TIP3    H122889   4.791   1.086   3.100
 7644TIP3    H222890   4.744   0.945   3.069
 7645TIP3   OH222891   6.161   5.107   0.638
 7645TIP3    H122892   6.190   5.053   0.712
 7645TIP3    H222893   6.102   5.051   0.589
 7646TIP3   OH222894   3.209   5.251   0.266
 7646TIP3    H122895   3.289   5.297   0.293
 7646TIP3    H222896   3.210   5.168   0.314
 7647TIP3   OH222897   4.255   2.812   6.469
 7647TIP3    H122898   4.163   2.808   6.441
 7647TIP3    H222899   4.265   2.902   6.502
 7648TIP3   OH222900   6.476   6.329   2.149
 7648TIP3    H122901   6.504   6.336   2.058
 7648TIP3    H222902   6.523   6.253   2.183
 7649TIP3   OH222903   5.698   4.757   5.545
 7649TIP3    H122904   5.790   4.775   5.564
 7649TIP3    H222905   5.692   4.760   5.450
 7650TIP3   OH222906   0.977   4.178   6.357
 7650TIP3    H122907   0.991   4.162   6.264
 7650TIP3    H222908   1.047   4.239   6.382
 7651TIP3   OH222909   1.435   5.684   0.393
 7651TIP3    H122910   1.529   5.694   0.407
 7651TIP3    H222911   1.408   5.765   0.351
 7652TIP3   OH222912   6.472   1.860   6.354
 7652TIP3    H122913   6.535   1.794   6.386
 7652TIP3    H222914   6.396   1.809   6.327
 7653TIP3   OH222915   3.626   2.680   5.822
 7653TIP3    H122916   3.632   2.638   5.736
 7653TIP3    H222917   3.573   2.619   5.874
 7654TIP3   OH222918   4.318   3.882   6.699
 7654TIP3    H122919   4.286   3.828   6.772
 7654TIP3    H222920   4.364   3.955   6.741
 7655TIP3   OH222921   1.384   0.130   0.975
 7655TIP3    H122922   1.356   0.211   1.017
 7655TIP3    H222923   1.370   0.146   0.881
 7656TIP3   OH222924   4.141   5.608   6.757
 7656TIP3    H122925   4.156   5.653   6.839
 7656TIP3    H222926   4.216   5.631   6.702
 7657TIP3   OH222927   1.757   3.825   0.491
 7657TIP3    H122928   1.679   3.787   0.532
 7657TIP3    H222929   1.731   3.914   0.468
 7658TIP3   OH222930   7.237   2.243   3.119
 7658TIP3    H122931   7.276   2.240   3.032
 7658TIP3    H222932   7.254   2.332   3.149
 7659TIP3   OH222933   1.751   2.939   0.758
 7659TIP3    H122934   1.842   2.965   0.744
 7659TIP3    H222935   1.742   2.855   0.714
 7660TIP3   OH222936   5.579   5.553   1.383
 7660TIP3    H122937   5.630   5.541   1.463
 7660TIP3    H222938   5.640   5.595   1.322
 7661TIP3   OH222939   7.016   3.757   4.345
 7661TIP3    H122940   7.001   3.677   4.396
 7661TIP3    H222941   7.092   3.798   4.386
 7662TIP3   OH222942   2.377   7.265   4.565
 7662TIP3    H122943   2.415   7.317   4.495
 7662TIP3    H222944   2.344   7.187   4.521
 7663TIP3   OH222945   7.886   0.540   4.957
 7663TIP3    H122946   7.945   0.613   4.936
 7663TIP3    H222947   7.892   0.531   5.052
 7664TIP3   OH222948   1.113   0.000   3.786
 7664TIP3    H122949   1.201   0.035   3.789
 7664TIP3    H222950   1.091  -0.003   3.693
 7665TIP3   OH222951   2.707   5.472   0.835
 7665TIP3    H122952   2.697   5.521   0.917
 7665TIP3    H222953   2.740   5.536   0.772
 7666TIP3   OH222954   2.515   3.708   4.921
 7666TIP3    H122955   2.463   3.683   4.997
 7666TIP3    H222956   2.569   3.781   4.952
 7667TIP3   OH222957   1.825   5.782   0.800
 7667TIP3    H122958   1.814   5.853   0.862
 7667TIP3    H222959   1.908   5.741   0.824
 7668TIP3   OH222960   0.679   6.667   1.463
 7668TIP3    H122961   0.592   6.707   1.462
 7668TIP3    H222962   0.727   6.716   1.529
 7669TIP3   OH222963   7.658   4.211   4.110
 7669TIP3    H122964   7.636   4.292   4.154
 7669TIP3    H222965   7.610   4.214   4.028
 7670TIP3   OH222966   4.551   1.735   0.802
 7670TIP3    H122967   4.519   1.683   0.876
 7670TIP3    H222968   4.644   1.747   0.820
 7671TIP3   OH222969   7.138   0.270   2.818
 7671TIP3    H122970   7.228   0.293   2.796
 7671TIP3    H222971   7.128   0.294   2.910
 7672TIP3   OH222972   2.418   4.727   5.478
 7672TIP3    H122973   2.492   4.751   5.422
 7672TIP3    H222974   2.454   4.663   5.539
 7673TIP3   OH222975   4.873   5.056   3.401
 7673TIP3    H122976   4.922   5.090   3.476
 7673TIP3    H222977   4.920   5.089   3.325
 7674TIP3   OH222978   8.143   0.484   1.929
 7674TIP3    H122979   8.117   0.398   1.896
 7674TIP3    H222980   8.226   0.468   1.974
 7675TIP3   OH222981   7.634   2.403   1.961
 7675TIP3    H122982   7.656   2.310   1.959
 7675TIP3    H222983   7.709   2.445   2.004
 7676TIP3   OH222984   6.647   5.932   3.623
 7676TIP3    H122985   6.683   5.987   3.554
 7676TIP3    H222986   6.606   5.994   3.684
 7677TIP3   OH222987   1.245   3.559   4.868
 7677TIP3    H122988   1.182   3.563   4.939
 7677TIP3    H222989   1.229   3.638   4.817
 7678TIP3   OH222990   7.099   0.990   2.747
 7678TIP3    H122991   7.117   0.901   2.717
 7678TIP3    H222992   7.185   1.032   2.749
 7679TIP3   OH222993   0.987   0.842   0.049
 7679TIP3    H122994   0.972   0.829  -0.045
 7679TIP3    H222995   1.048   0.916   0.053
 7680TIP3   OH222996   2.030   5.505   1.012
 7680TIP3    H122997   1.958   5.462   0.967
 7680TIP3    H222998   1.988   5.562   1.077
 7681TIP3   OH222999   2.435   3.195   0.948
 7681TIP3    H123000   2.368   3.126   0.948
 7681TIP3    H223001   2.500   3.165   0.885
 7682TIP3   OH223002   0.168   3.495   4.385
 7682TIP3    H123003   0.256   3.501   4.422
 7682TIP3    H223004   0.156   3.578   4.338
 7683TIP3   OH223005   5.888   7.219   2.382
 7683TIP3    H123006   5.827   7.276   2.429
 7683TIP3    H223007   5.856   7.130   2.398
 7684TIP3   OH223008   5.568   7.409   0.728
 7684TIP3    H123009   5.537   7.481   0.782
 7684TIP3    H223010   5.626   7.359   0.786
 7685TIP3   OH223011   5.031   3.604   1.608
 7685TIP3    H123012   4.974   3.529   1.627
 7685TIP3    H223013   4.994   3.643   1.529
 7686TIP3   OH223014   5.201   4.877   1.052
 7686TIP3    H123015   5.157   4.954   1.015
 7686TIP3    H223016   5.222   4.823   0.976
 7687TIP3   OH223017   4.531   5.445   3.516
 7687TIP3    H123018   4.589   5.441   3.441
 7687TIP3    H223019   4.452   5.398   3.489
 7688TIP3   OH223020   6.094   7.599   4.531
 7688TIP3    H123021   6.101   7.527   4.593
 7688TIP3    H223022   6.122   7.561   4.447
 7689TIP3   OH223023   5.249   2.609   5.988
 7689TIP3    H123024   5.174   2.550   5.979
 7689TIP3    H223025   5.219   2.676   6.051
 7690TIP3   OH223026   3.423   6.545   6.537
 7690TIP3    H123027   3.344   6.502   6.569
 7690TIP3    H223028   3.467   6.479   6.484
 7691TIP3   OH223029   1.285   2.058   6.520
 7691TIP3    H123030   1.266   1.986   6.460
 7691TIP3    H223031   1.299   2.134   6.463
 7692TIP3   OH223032   3.083   2.322   1.331
 7692TIP3    H123033   3.039   2.256   1.278
 7692TIP3    H223034   3.066   2.296   1.422
 7693TIP3   OH223035   6.016   3.672   0.887
 7693TIP3    H123036   5.974   3.596   0.847
 7693TIP3    H223037   6.110   3.656   0.876
 7694TIP3   OH223038   3.924   1.527   6.505
 7694TIP3    H123039   3.866   1.565   6.571
 7694TIP3    H223040   3.879   1.446   6.478
 7695TIP3   OH223041   1.854   2.018   2.207
 7695TIP3    H123042   1.814   1.933   2.191
 7695TIP3    H223043   1.899   2.008   2.291
 7696TIP3   OH223044   1.038   4.829   6.597
 7696TIP3    H123045   1.106   4.809   6.661
 7696TIP3    H223046   1.046   4.760   6.531
 7697TIP3   OH223047   5.823   3.914   2.313
 7697TIP3    H123048   5.851   3.922   2.221
 7697TIP3    H223049   5.728   3.918   2.310
 7698TIP3   OH223050   2.138   5.478   2.499
 7698TIP3    H123051   2.100   5.391   2.495
 7698TIP3    H223052   2.210   5.476   2.437
 7699TIP3   OH223053   6.985   0.605   4.734
 7699TIP3    H123054   7.031   0.535   4.687
 7699TIP3    H223055   6.991   0.681   4.675
 7700TIP3   OH223056   5.669   6.960   3.087
 7700TIP3    H123057   5.617   7.025   3.134
 7700TIP3    H223058   5.606   6.891   3.064
 7701TIP3   OH223059   6.232   7.065   2.527
 7701TIP3    H123060   6.269   6.996   2.583
 7701TIP3    H223061   6.309   7.113   2.497
 7702TIP3   OH223062   0.289   4.585   6.512
 7702TIP3    H123063   0.343   4.520   6.557
 7702TIP3    H223064   0.316   4.669   6.550
 7703TIP3   OH223065   0.983   2.598   1.036
 7703TIP3    H123066   0.922   2.603   1.109
 7703TIP3    H223067   0.996   2.504   1.021
 7704TIP3   OH223068   5.792   0.945   6.293
 7704TIP3    H123069   5.839   0.994   6.361
 7704TIP3    H223070   5.700   0.964   6.310
 7705TIP3   OH223071   2.063   6.816   3.219
 7705TIP3    H123072   2.129   6.749   3.204
 7705TIP3    H223073   1.995   6.772   3.270
 7706TIP3   OH223074   4.464   5.686   3.629
 7706TIP3    H123075   4.413   5.645   3.699
 7706TIP3    H223076   4.474   5.617   3.564
 7707TIP3   OH223077   6.757   1.438   4.188
 7707TIP3    H123078   6.848   1.433   4.160
 7707TIP3    H223079   6.733   1.347   4.208
 7708TIP3   OH223080   6.647   2.444   5.573
 7708TIP3    H123081   6.567   2.393   5.561
 7708TIP3    H223082   6.704   2.387   5.624
 7709TIP3   OH223083   7.779   4.548   2.375
 7709TIP3    H123084   7.711   4.489   2.341
 7709TIP3    H223085   7.854   4.534   2.316
 7710TIP3   OH223086   7.850   1.804   5.035
 7710TIP3    H123087   7.934   1.825   4.993
 7710TIP3    H223088   7.787   1.863   4.994
 7711TIP3   OH223089   7.408   1.478   1.969
 7711TIP3    H123090   7.466   1.533   2.021
 7711TIP3    H223091   7.450   1.472   1.884
 7712TIP3   OH223092   6.784   6.506   4.395
 7712TIP3    H123093   6.793   6.444   4.323
 7712TIP3    H223094   6.874   6.524   4.423
 7713TIP3   OH223095   5.091   3.149   3.084
 7713TIP3    H123096   5.035   3.167   3.159
 7713TIP3    H223097   5.040   3.180   3.009
 7714TIP3   OH223098   6.022   0.341   5.828
 7714TIP3    H123099   6.110   0.319   5.797
 7714TIP3    H223100   5.977   0.374   5.750
 7715TIP3   OH223101   4.002   1.294   1.695
 7715TIP3    H123102   3.912   1.263   1.686
 7715TIP3    H223103   4.052   1.216   1.720
 7716TIP3   OH223104   2.486   1.602   6.001
 7716TIP3    H123105   2.433   1.582   6.078
 7716TIP3    H223106   2.505   1.517   5.962
 7717TIP3   OH223107   0.601   4.679   6.553
 7717TIP3    H123108   0.617   4.663   6.460
 7717TIP3    H223109   0.529   4.741   6.555
 7718TIP3   OH223110   5.910   1.791   1.608
 7718TIP3    H123111   5.967   1.760   1.678
 7718TIP3    H223112   5.862   1.713   1.581
 7719TIP3   OH223113   3.883   3.416   1.728
 7719TIP3    H123114   3.820   3.371   1.784
 7719TIP3    H223115   3.843   3.415   1.641
 7720TIP3   OH223116   2.921   6.427   6.291
 7720TIP3    H123117   2.923   6.454   6.382
 7720TIP3    H223118   2.917   6.509   6.241
 7721TIP3   OH223119   6.196   6.993   6.621
 7721TIP3    H123120   6.150   6.925   6.670
 7721TIP3    H223121   6.140   7.071   6.629
 7722TIP3   OH223122   6.009   4.392   1.898
 7722TIP3    H123123   6.071   4.465   1.896
 7722TIP3    H223124   5.923   4.432   1.889
 7723TIP3   OH223125   2.395   5.620   4.109
 7723TIP3    H123126   2.469   5.680   4.106
 7723TIP3    H223127   2.362   5.626   4.199
 7724TIP3   OH223128   5.437   2.189   5.682
 7724TIP3    H123129   5.412   2.138   5.760
 7724TIP3    H223130   5.470   2.124   5.620
 7725TIP3   OH223131   2.258   3.914   2.795
 7725TIP3    H123132   2.343   3.870   2.802
 7725TIP3    H223133   2.219   3.877   2.716
 7726TIP3   OH223134   6.287   2.741   5.173
 7726TIP3    H123135   6.348   2.755   5.246
 7726TIP3    H223136   6.212   2.796   5.193
 7727TIP3   OH223137   3.315   6.928   0.846
 7727TIP3    H123138   3.224   6.920   0.874
 7727TIP3    H223139   3.317   7.007   0.793
 7728TIP3   OH223140   1.329   5.722   4.071
 7728TIP3    H123141   1.393   5.783   4.034
 7728TIP3    H223142   1.249   5.774   4.079
 7729TIP3   OH223143   7.833   3.432   2.795
 7729TIP3    H123144   7.883   3.410   2.716
 7729TIP3    H223145   7.755   3.477   2.762
 7730TIP3   OH223146   0.090   0.798   4.982
 7730TIP3    H123147   0.003   0.762   4.996
 7730TIP3    H223148   0.148   0.742   5.033
 7731TIP3   OH223149   5.982   1.368   0.864
 7731TIP3    H123150   5.962   1.278   0.891
 7731TIP3    H223151   6.039   1.401   0.934
 7732TIP3   OH223152   8.070   4.032   2.450
 7732TIP3    H123153   7.997   4.090   2.431
 7732TIP3    H223154   8.096   3.997   2.365
 7733TIP3   OH223155   5.529   5.107   1.846
 7733TIP3    H123156   5.488   5.175   1.792
 7733TIP3    H223157   5.599   5.071   1.791
 7734TIP3   OH223158   3.516   5.689   0.739
 7734TIP3    H123159   3.459   5.765   0.730
 7734TIP3    H223160   3.576   5.712   0.810
 7735TIP3   OH223161   8.164   4.454   1.428
 7735TIP3    H123162   8.156   4.363   1.456
 7735TIP3    H223163   8.248   4.482   1.462
 7736TIP3   OH223164   4.465   1.778   6.382
 7736TIP3    H123165   4.398   1.805   6.445
 7736TIP3    H223166   4.511   1.705   6.425
 7737TIP3   OH223167   1.055   3.077   3.393
 7737TIP3    H123168   1.093   3.101   3.309
 7737TIP3    H223169   1.104   2.999   3.420
 7738TIP3   OH223170   0.361   0.931   3.913
 7738TIP3    H123171   0.373   0.932   4.008
 7738TIP3    H223172   0.392   0.845   3.886
 7739TIP3   OH223173   2.894   2.595   2.043
 7739TIP3    H123174   2.830   2.577   1.974
 7739TIP3    H223175   2.936   2.677   2.017
 7740TIP3   OH223176   2.081   1.771   6.726
 7740TIP3    H123177   2.102   1.679   6.738
 7740TIP3    H223178   1.999   1.783   6.774
 7741TIP3   OH223179   5.318   0.345   2.181
 7741TIP3    H123180   5.379   0.277   2.153
 7741TIP3    H223181   5.251   0.299   2.231
 7742TIP3   OH223182   6.328   2.866   3.280
 7742TIP3    H123183   6.382   2.827   3.349
 7742TIP3    H223184   6.323   2.799   3.212
 7743TIP3   OH223185   3.980   7.338   0.701
 7743TIP3    H123186   4.032   7.351   0.780
 7743TIP3    H223187   3.955   7.426   0.673
 7744TIP3   OH223188   7.760   0.977   1.805
 7744TIP3    H123189   7.742   1.018   1.890
 7744TIP3    H223190   7.688   1.006   1.749
 7745TIP3   OH223191   0.038   4.920   1.111
 7745TIP3    H123192   0.091   4.999   1.098
 7745TIP3    H223193  -0.026   4.922   1.041
 7746TIP3   OH223194   5.546   2.696   3.258
 7746TIP3    H123195   5.500   2.635   3.316
 7746TIP3    H223196   5.623   2.723   3.309
 7747TIP3   OH223197   7.423   2.286   6.234
 7747TIP3    H123198   7.492   2.308   6.295
 7747TIP3    H223199   7.434   2.192   6.218
 7748TIP3   OH223200   2.564   0.766   4.897
 7748TIP3    H123201   2.567   0.697   4.962
 7748TIP3    H223202   2.594   0.724   4.816
 7749TIP3   OH223203   6.508   3.926   0.809
 7749TIP3    H123204   6.436   3.874   0.845
 7749TIP3    H223205   6.579   3.914   0.872
 7750TIP3   OH223206   1.948   2.693   1.636
 7750TIP3    H123207   1.991   2.615   1.670
 7750TIP3    H223208   2.019   2.749   1.606
 7751TIP3   OH223209   7.972   7.420   3.858
 7751TIP3    H123210   8.014   7.435   3.773
 7751TIP3    H223211   8.021   7.348   3.897
 7752TIP3   OH223212   0.028   7.182   0.835
 7752TIP3    H123213   0.061   7.100   0.797
 7752TIP3    H223214   0.069   7.251   0.783
 7753TIP3   OH223215   3.977   1.503   3.824
 7753TIP3    H123216   4.011   1.456   3.748
 7753TIP3    H223217   4.049   1.504   3.887
 7754TIP3   OH223218   4.174   0.761   4.144
 7754TIP3    H123219   4.117   0.729   4.074
 7754TIP3    H223220   4.118   0.817   4.197
 7755TIP3   OH223221   3.038   1.829   0.203
 7755TIP3    H123222   3.119   1.815   0.252
 7755TIP3    H223223   3.001   1.909   0.239
 7756TIP3   OH223224   4.180   5.816   6.493
 7756TIP3    H123225   4.228   5.734   6.503
 7756TIP3    H223226   4.183   5.834   6.399
 7757TIP3   OH223227   0.739   5.693   2.777
 7757TIP3    H123228   0.771   5.606   2.753
 7757TIP3    H223229   0.685   5.720   2.703
 7758TIP3   OH223230   6.100   3.717   4.003
 7758TIP3    H123231   6.010   3.714   3.970
 7758TIP3    H223232   6.135   3.630   3.987
 7759TIP3   OH223233   0.743   2.983   2.663
 7759TIP3    H123234   0.734   3.076   2.682
 7759TIP3    H223235   0.680   2.967   2.592
 7760TIP3   OH223236   8.210   0.330   6.215
 7760TIP3    H123237   8.202   0.235   6.223
 7760TIP3    H223238   8.135   0.365   6.263
 7761TIP3   OH223239   5.579   5.197   3.703
 7761TIP3    H123240   5.560   5.271   3.644
 7761TIP3    H223241   5.494   5.174   3.740
 7762TIP3   OH223242   5.459   4.244   3.895
 7762TIP3    H123243   5.516   4.176   3.929
 7762TIP3    H223244   5.375   4.230   3.939
 7763TIP3   OH223245   6.120   6.511   1.486
 7763TIP3    H123246   6.152   6.523   1.397
 7763TIP3    H223247   6.039   6.460   1.476
 7764TIP3   OH223248   1.630   0.529   4.208
 7764TIP3    H123249   1.653   0.480   4.286
 7764TIP3    H223250   1.672   0.614   4.219
 7765TIP3   OH223251   5.086   7.506   2.272
 7765TIP3    H123252   5.000   7.469   2.289
 7765TIP3    H223253   5.076   7.600   2.285
 7766TIP3   OH223254   1.615   7.622   2.177
 7766TIP3    H123255   1.556   7.551   2.150
 7766TIP3    H223256   1.670   7.637   2.100
 7767TIP3   OH223257   7.037   6.526   4.511
 7767TIP3    H123258   7.117   6.512   4.562
 7767TIP3    H223259   7.034   6.620   4.496
 7768TIP3   OH223260   2.341   6.131   6.786
 7768TIP3    H123261   2.251   6.100   6.772
 7768TIP3    H223262   2.368   6.167   6.701
 7769TIP3   OH223263   2.513   7.789   0.341
 7769TIP3    H123264   2.529   7.733   0.265
 7769TIP3    H223265   2.600   7.816   0.369
 7770TIP3   OH223266   4.505   1.154   5.208
 7770TIP3    H123267   4.484   1.168   5.300
 7770TIP3    H223268   4.527   1.061   5.202
 7771TIP3   OH223269   2.056   0.929   0.175
 7771TIP3    H123270   2.106   0.971   0.245
 7771TIP3    H223271   1.964   0.941   0.201
 7772TIP3   OH223272   5.830   5.512   0.091
 7772TIP3    H123273   5.878   5.473   0.019
 7772TIP3    H223274   5.760   5.449   0.110
 7773TIP3   OH223275   3.039   1.360   5.816
 7773TIP3    H123276   3.067   1.309   5.740
 7773TIP3    H223277   3.118   1.408   5.842
 7774TIP3   OH223278   1.802   6.838   1.155
 7774TIP3    H123279   1.824   6.870   1.242
 7774TIP3    H223280   1.828   6.746   1.155
 7775TIP3   OH223281   5.493   0.386   0.407
 7775TIP3    H123282   5.507   0.297   0.441
 7775TIP3    H223283   5.426   0.423   0.465
 7776TIP3   OH223284   2.987   5.405   3.262
 7776TIP3    H123285   2.925   5.413   3.335
 7776TIP3    H223286   2.967   5.480   3.206
 7777TIP3   OH223287   3.169   4.882   4.988
 7777TIP3    H123288   3.095   4.919   4.940
 7777TIP3    H223289   3.188   4.948   5.056
 7778TIP3   OH223290   4.646   1.332   4.263
 7778TIP3    H123291   4.631   1.257   4.320
 7778TIP3    H223292   4.578   1.395   4.287
 7779TIP3   OH223293   3.921   3.348   2.252
 7779TIP3    H123294   3.969   3.341   2.335
 7779TIP3    H223295   3.845   3.291   2.264
 7780TIP3   OH223296   5.668   3.147   3.024
 7780TIP3    H123297   5.753   3.184   3.049
 7780TIP3    H223298   5.604   3.206   3.063
 7781TIP3   OH223299   7.927   0.194   5.620
 7781TIP3    H123300   8.018   0.185   5.592
 7781TIP3    H223301   7.897   0.104   5.634
 7782TIP3   OH223302   6.673   7.137   0.464
 7782TIP3    H123303   6.627   7.055   0.484
 7782TIP3    H223304   6.648   7.197   0.535
 7783TIP3   OH223305   1.612   0.135   6.313
 7783TIP3    H123306   1.707   0.132   6.304
 7783TIP3    H223307   1.581   0.056   6.270
 7784TIP3   OH223308   3.977   0.980   2.313
 7784TIP3    H123309   3.953   0.907   2.370
 7784TIP3    H223310   3.905   1.042   2.323
 7785TIP3   OH223311   6.252   0.001   1.630
 7785TIP3    H123312   6.182   0.067   1.630
 7785TIP3    H223313   6.329   0.048   1.597
 7786TIP3   OH223314   0.366   0.616   3.918
 7786TIP3    H123315   0.431   0.556   3.953
 7786TIP3    H223316   0.282   0.573   3.936
 7787TIP3   OH223317   0.832   0.699   2.629
 7787TIP3    H123318   0.784   0.696   2.546
 7787TIP3    H223319   0.786   0.640   2.687
 7788TIP3   OH223320   0.617   5.094   5.932
 7788TIP3    H123321   0.601   5.149   6.008
 7788TIP3    H223322   0.555   5.125   5.866
 7789TIP3   OH223323   0.570   1.857   3.497
 7789TIP3    H123324   0.585   1.783   3.556
 7789TIP3    H223325   0.656   1.875   3.459
 7790TIP3   OH223326   1.541   0.617   1.572
 7790TIP3    H123327   1.542   0.676   1.497
 7790TIP3    H223328   1.450   0.617   1.602
 7791TIP3   OH223329   7.629   3.382   0.459
 7791TIP3    H123330   7.634   3.477   0.452
 7791TIP3    H223331   7.713   3.351   0.425
 7792TIP3   OH223332   5.865   7.822   2.875
 7792TIP3    H123333   5.843   7.853   2.787
 7792TIP3    H223334   5.930   7.752   2.860
 7793TIP3   OH223335   3.190   5.639   1.279
 7793TIP3    H123336   3.271   5.689   1.271
 7793TIP3    H223337   3.202   5.564   1.221
 7794TIP3   OH223338   5.722   5.889   5.461
 7794TIP3    H123339   5.779   5.966   5.468
 7794TIP3    H223340   5.730   5.845   5.545
 7795TIP3   OH223341   7.406   1.327   1.314
 7795TIP3    H123342   7.329   1.359   1.360
 7795TIP3    H223343   7.461   1.405   1.300
 7796TIP3   OH223344   2.303   6.366   6.578
 7796TIP3    H123345   2.322   6.353   6.485
 7796TIP3    H223346   2.207   6.365   6.583
 7797TIP3   OH223347   5.393   0.934   1.363
 7797TIP3    H123348   5.379   0.953   1.455
 7797TIP3    H223349   5.310   0.959   1.321
 7798TIP3   OH223350   2.295   6.844   5.971
 7798TIP3    H123351   2.372   6.796   5.941
 7798TIP3    H223352   2.320   6.936   5.963
 7799TIP3   OH223353   7.778   6.168   3.020
 7799TIP3    H123354   7.835   6.244   3.025
 7799TIP3    H223355   7.837   6.093   3.015
 7800TIP3   OH223356   8.150   0.070   6.203
 7800TIP3    H123357   8.058   0.047   6.216
 7800TIP3    H223358   8.193  -0.012   6.179
 7801TIP3   OH223359   8.262   7.268   4.796
 7801TIP3    H123360   8.173   7.234   4.807
 7801TIP3    H223361   8.263   7.305   4.708
 7802TIP3   OH223362   5.841   0.074   4.669
 7802TIP3    H123363   5.823   0.100   4.579
 7802TIP3    H223364   5.755   0.058   4.708
 7803TIP3   OH223365   6.177   2.979   1.486
 7803TIP3    H123366   6.128   3.059   1.506
 7803TIP3    H223367   6.188   2.935   1.570
 7804TIP3   OH223368   2.601   5.508   5.340
 7804TIP3    H123369   2.577   5.480   5.428
 7804TIP3    H223370   2.638   5.430   5.299
 7805TIP3   OH223371   8.209   1.678   5.191
 7805TIP3    H123372   8.144   1.622   5.234
 7805TIP3    H223373   8.246   1.730   5.263
 7806TIP3   OH223374   3.806   1.590   2.903
 7806TIP3    H123375   3.810   1.498   2.929
 7806TIP3    H223376   3.813   1.639   2.985
 7807TIP3   OH223377   1.857   4.668   6.348
 7807TIP3    H123378   1.819   4.756   6.338
 7807TIP3    H223379   1.950   4.685   6.365
 7808TIP3   OH223380   4.589   0.467   1.744
 7808TIP3    H123381   4.647   0.520   1.799
 7808TIP3    H223382   4.539   0.531   1.693
 7809TIP3   OH223383   3.989   0.267   2.769
 7809TIP3    H123384   4.001   0.213   2.690
 7809TIP3    H223385   3.908   0.235   2.807
 7810TIP3   OH223386   6.218   0.545   6.372
 7810TIP3    H123387   6.132   0.575   6.341
 7810TIP3    H223388   6.198   0.485   6.444
 7811TIP3   OH223389   5.851   3.617   2.103
 7811TIP3    H123390   5.842   3.565   2.023
 7811TIP3    H223391   5.787   3.687   2.093
 7812TIP3   OH223392   3.192   2.686   1.556
 7812TIP3    H123393   3.243   2.764   1.580
 7812TIP3    H223394   3.173   2.644   1.639
 7813TIP3   OH223395   0.402   6.464   5.653
 7813TIP3    H123396   0.307   6.453   5.659
 7813TIP3    H223397   0.431   6.393   5.595
 7814TIP3   OH223398   7.892   4.798   1.757
 7814TIP3    H123399   7.947   4.854   1.703
 7814TIP3    H223400   7.865   4.854   1.830
 7815TIP3   OH223401   0.664   2.854   1.589
 7815TIP3    H123402   0.722   2.778   1.583
 7815TIP3    H223403   0.582   2.819   1.624
 7816TIP3   OH223404   3.031   1.185   1.929
 7816TIP3    H123405   2.964   1.253   1.938
 7816TIP3    H223406   2.983   1.108   1.900
 7817TIP3   OH223407   7.612   7.381   1.487
 7817TIP3    H123408   7.691   7.429   1.512
 7817TIP3    H223409   7.589   7.416   1.401
 7818TIP3   OH223410   0.383   6.339   0.406
 7818TIP3    H123411   0.375   6.276   0.335
 7818TIP3    H223412   0.377   6.287   0.486
 7819TIP3   OH223413   2.283   5.669   4.938
 7819TIP3    H123414   2.214   5.699   4.879
 7819TIP3    H223415   2.241   5.601   4.992
 7820TIP3   OH223416   1.136   7.468   5.734
 7820TIP3    H123417   1.054   7.477   5.783
 7820TIP3    H223418   1.204   7.495   5.796
 7821TIP3   OH223419   2.469   6.547   3.888
 7821TIP3    H123420   2.452   6.641   3.890
 7821TIP3    H223421   2.409   6.513   3.822
 7822TIP3   OH223422   2.120   7.093   0.510
 7822TIP3    H123423   2.186   7.151   0.474
 7822TIP3    H223424   2.084   7.141   0.585
 7823TIP3   OH223425   4.905   0.982   5.598
 7823TIP3    H123426   4.956   0.974   5.517
 7823TIP3    H223427   4.816   0.998   5.568
 7824TIP3   OH223428   0.106   1.050   3.976
 7824TIP3    H123429   0.180   0.997   4.005
 7824TIP3    H223430   0.142   1.105   3.906
 7825TIP3   OH223431   2.291   5.887   2.649
 7825TIP3    H123432   2.241   5.958   2.610
 7825TIP3    H223433   2.346   5.855   2.578
 7826TIP3   OH223434   0.783   7.219   3.496
 7826TIP3    H123435   0.874   7.230   3.523
 7826TIP3    H223436   0.742   7.172   3.569
 7827TIP3   OH223437   7.507   5.438   0.270
 7827TIP3    H123438   7.495   5.343   0.270
 7827TIP3    H223439   7.424   5.473   0.303
 7828TIP3   OH223440   3.208   3.143   4.331
 7828TIP3    H123441   3.259   3.076   4.377
 7828TIP3    H223442   3.123   3.142   4.375
 7829TIP3   OH223443   1.557   1.572   2.263
 7829TIP3    H123444   1.493   1.564   2.334
 7829TIP3    H223445   1.545   1.494   2.210
 7830TIP3   OH223446   2.414   6.986  -0.001
 7830TIP3    H123447   2.326   7.016   0.021
 7830TIP3    H223448   2.419   6.898   0.036
 7831TIP3   OH223449   0.465   0.490   6.422
 7831TIP3    H123450   0.385   0.542   6.417
 7831TIP3    H223451   0.487   0.488   6.515
 7832TIP3   OH223452   6.504   6.489   5.981
 7832TIP3    H123453   6.486   6.469   5.890
 7832TIP3    H223454   6.594   6.522   5.981
 7833TIP3   OH223455   4.325   2.386   3.270
 7833TIP3    H123456   4.334   2.352   3.359
 7833TIP3    H223457   4.334   2.310   3.214
 7834TIP3   OH223458   0.854   3.202   4.362
 7834TIP3    H123459   0.771   3.213   4.409
 7834TIP3    H223460   0.853   3.111   4.332
 7835TIP3   OH223461   0.877   5.336   6.580
 7835TIP3    H123462   0.947   5.338   6.646
 7835TIP3    H223463   0.885   5.250   6.539
 7836TIP3   OH223464   5.067   0.122   1.018
 7836TIP3    H123465   5.093   0.032   1.038
 7836TIP3    H223466   5.063   0.126   0.923
 7837TIP3   OH223467   2.900   5.510   2.965
 7837TIP3    H123468   2.904   5.567   3.041
 7837TIP3    H223469   2.990   5.503   2.934
 7838TIP3   OH223470   7.073   0.436   1.897
 7838TIP3    H123471   6.997   0.397   1.853
 7838TIP3    H223472   7.035   0.505   1.951
 7839TIP3   OH223473   6.181   7.726   5.889
 7839TIP3    H123474   6.184   7.789   5.817
 7839TIP3    H223475   6.181   7.640   5.846
 7840TIP3   OH223476   4.834   1.231   6.789
 7840TIP3    H123477   4.915   1.198   6.751
 7840TIP3    H223478   4.765   1.178   6.748
 7841TIP3   OH223479   8.029   5.232   4.730
 7841TIP3    H123480   7.968   5.241   4.656
 7841TIP3    H223481   8.009   5.306   4.787
 7842TIP3   OH223482   2.045   3.675   0.317
 7842TIP3    H123483   2.013   3.625   0.392
 7842TIP3    H223484   2.016   3.624   0.241
 7843TIP3   OH223485   0.574   3.303   0.885
 7843TIP3    H123486   0.613   3.216   0.887
 7843TIP3    H223487   0.484   3.288   0.856
 7844TIP3   OH223488   5.159   1.061   3.962
 7844TIP3    H123489   5.141   1.014   3.880
 7844TIP3    H223490   5.079   1.112   3.979
 7845TIP3   OH223491   0.513   1.268   4.716
 7845TIP3    H123492   0.491   1.357   4.688
 7845TIP3    H223493   0.458   1.211   4.663
 7846TIP3   OH223494   0.906   1.756   4.857
 7846TIP3    H123495   0.936   1.692   4.793
 7846TIP3    H223496   0.978   1.763   4.920
 7847TIP3   OH223497   4.460   6.958   0.066
 7847TIP3    H123498   4.400   6.885   0.049
 7847TIP3    H223499   4.526   6.952  -0.003
 7848TIP3   OH223500   3.055   3.401   3.023
 7848TIP3    H123501   3.009   3.324   2.993
 7848TIP3    H223502   2.997   3.440   3.089
 7849TIP3   OH223503   6.107   4.856   5.028
 7849TIP3    H123504   6.066   4.943   5.030
 7849TIP3    H223505   6.064   4.812   4.954
 7850TIP3   OH223506   7.477   3.324   1.083
 7850TIP3    H123507   7.461   3.301   1.175
 7850TIP3    H223508   7.506   3.415   1.086
 7851TIP3   OH223509   1.460   6.666   2.963
 7851TIP3    H123510   1.446   6.638   2.872
 7851TIP3    H223511   1.379   6.711   2.987
 7852TIP3   OH223512   7.976   2.065   0.268
 7852TIP3    H123513   7.990   2.156   0.293
 7852TIP3    H223514   7.992   2.063   0.174
 7853TIP3   OH223515   1.211   6.243   3.128
 7853TIP3    H123516   1.282   6.305   3.115
 7853TIP3    H223517   1.252   6.166   3.166
 7854TIP3   OH223518   3.225   1.783   1.857
 7854TIP3    H123519   3.159   1.772   1.789
 7854TIP3    H223520   3.273   1.862   1.831
 7855TIP3   OH223521   0.201   5.837   2.686
 7855TIP3    H123522   0.174   5.919   2.727
 7855TIP3    H223523   0.222   5.779   2.760
 7856TIP3   OH223524   4.327   3.760   0.933
 7856TIP3    H123525   4.238   3.761   0.966
 7856TIP3    H223526   4.335   3.839   0.880
 7857TIP3   OH223527   4.516   6.005   1.208
 7857TIP3    H123528   4.497   6.080   1.265
 7857TIP3    H223529   4.610   6.014   1.188
 7858TIP3   OH223530   3.256   4.270   6.067
 7858TIP3    H123531   3.256   4.362   6.041
 7858TIP3    H223532   3.299   4.225   5.994
 7859TIP3   OH223533   7.587   5.325   4.414
 7859TIP3    H123534   7.593   5.419   4.395
 7859TIP3    H223535   7.493   5.309   4.425
 7860TIP3   OH223536   8.169   6.555   1.642
 7860TIP3    H123537   8.082   6.516   1.637
 7860TIP3    H223538   8.157   6.646   1.616
 7861TIP3   OH223539   5.773   3.392   3.999
 7861TIP3    H123540   5.711   3.418   4.066
 7861TIP3    H223541   5.719   3.367   3.924
 7862TIP3   OH223542   0.958   3.911   1.899
 7862TIP3    H123543   0.925   4.000   1.895
 7862TIP3    H223544   0.924   3.869   1.820
 7863TIP3   OH223545   6.399   3.838   6.132
 7863TIP3    H123546   6.366   3.922   6.101
 7863TIP3    H223547   6.490   3.836   6.104
 7864TIP3   OH223548   4.704   7.416   1.009
 7864TIP3    H123549   4.706   7.433   1.103
 7864TIP3    H223550   4.666   7.329   1.001
 7865TIP3   OH223551   0.406   4.865   6.539
 7865TIP3    H123552   0.414   4.881   6.445
 7865TIP3    H223553   0.381   4.950   6.575
 7866TIP3   OH223554   2.783   6.901   5.663
 7866TIP3    H123555   2.709   6.863   5.616
 7866TIP3    H223556   2.744   6.939   5.742
 7867TIP3   OH223557   2.624   0.223   2.074
 7867TIP3    H123558   2.595   0.190   2.159
 7867TIP3    H223559   2.716   0.247   2.088
 7868TIP3   OH223560   2.409   1.039   3.123
 7868TIP3    H123561   2.445   1.041   3.212
 7868TIP3    H223562   2.483   1.060   3.067
 7869TIP3   OH223563   5.286   5.825   2.894
 7869TIP3    H123564   5.320   5.737   2.877
 7869TIP3    H223565   5.220   5.839   2.827
 7870TIP3   OH223566   8.285   1.818   6.432
 7870TIP3    H123567   8.254   1.887   6.372
 7870TIP3    H223568   8.351   1.770   6.381
 7871TIP3   OH223569   7.771   0.477   6.456
 7871TIP3    H123570   7.744   0.442   6.541
 7871TIP3    H223571   7.690   0.510   6.417
 7872TIP3   OH223572   5.863   1.159   3.126
 7872TIP3    H123573   5.956   1.155   3.107
 7872TIP3    H223574   5.824   1.094   3.068
 7873TIP3   OH223575   1.397   6.998   1.392
 7873TIP3    H123576   1.408   6.981   1.299
 7873TIP3    H223577   1.421   7.091   1.403
 7874TIP3   OH223578   0.092   3.058   0.138
 7874TIP3    H123579   0.045   3.007   0.204
 7874TIP3    H223580   0.029   3.124   0.109
 7875TIP3   OH223581   1.179   2.396   5.423
 7875TIP3    H123582   1.167   2.436   5.509
 7875TIP3    H223583   1.123   2.319   5.423
 7876TIP3   OH223584   5.925   5.334   5.174
 7876TIP3    H123585   5.866   5.367   5.242
 7876TIP3    H223586   5.888   5.366   5.092
 7877TIP3   OH223587   4.147   7.109   4.453
 7877TIP3    H123588   4.070   7.075   4.499
 7877TIP3    H223589   4.220   7.090   4.511
 7878TIP3   OH223590   8.287   4.864   3.979
 7878TIP3    H123591   8.318   4.800   3.915
 7878TIP3    H223592   8.204   4.828   4.010
 7879TIP3   OH223593   5.820   5.925   3.877
 7879TIP3    H123594   5.903   5.938   3.922
 7879TIP3    H223595   5.830   5.972   3.794
 7880TIP3   OH223596   7.090   5.636   5.460
 7880TIP3    H123597   7.127   5.708   5.409
 7880TIP3    H223598   7.016   5.605   5.408
 7881TIP3   OH223599   5.366   4.785   6.079
 7881TIP3    H123600   5.328   4.698   6.091
 7881TIP3    H223601   5.367   4.797   5.984
 7882TIP3   OH223602   3.782   7.182   1.742
 7882TIP3    H123603   3.713   7.120   1.719
 7882TIP3    H223604   3.756   7.265   1.701
 7883TIP3   OH223605   6.696   2.271   4.998
 7883TIP3    H123606   6.652   2.196   4.958
 7883TIP3    H223607   6.723   2.326   4.925
 7884TIP3   OH223608   0.658   2.480   3.429
 7884TIP3    H123609   0.737   2.431   3.452
 7884TIP3    H223610   0.605   2.418   3.378
 7885TIP3   OH223611   5.143   1.732   0.106
 7885TIP3    H123612   5.121   1.776   0.187
 7885TIP3    H223613   5.086   1.771   0.040
 7886TIP3   OH223614   4.783   1.464   0.698
 7886TIP3    H123615   4.846   1.408   0.652
 7886TIP3    H223616   4.774   1.424   0.785
 7887TIP3   OH223617   4.495   3.496   0.688
 7887TIP3    H123618   4.437   3.434   0.732
 7887TIP3    H223619   4.569   3.443   0.659
 7888TIP3   OH223620   7.571   6.504   3.230
 7888TIP3    H123621   7.617   6.492   3.148
 7888TIP3    H223622   7.639   6.499   3.297
 7889TIP3   OH223623   7.533   4.903   0.952
 7889TIP3    H123624   7.625   4.898   0.925
 7889TIP3    H223625   7.528   4.850   1.032
 7890TIP3   OH223626   3.433   3.163   0.418
 7890TIP3    H123627   3.458   3.176   0.509
 7890TIP3    H223628   3.344   3.198   0.411
 7891TIP3   OH223629   3.350   3.145   4.906
 7891TIP3    H123630   3.375   3.227   4.948
 7891TIP3    H223631   3.326   3.087   4.978
 7892TIP3   OH223632   5.889   0.294   2.632
 7892TIP3    H123633   5.904   0.380   2.670
 7892TIP3    H223634   5.847   0.311   2.548
 7893TIP3   OH223635   5.750   3.187   1.048
 7893TIP3    H123636   5.833   3.222   1.080
 7893TIP3    H223637   5.758   3.092   1.058
 7894TIP3   OH223638   5.054   2.274   0.972
 7894TIP3    H123639   5.116   2.341   1.001
 7894TIP3    H223640   5.007   2.314   0.898
 7895TIP3   OH223641   7.183   7.171   4.839
 7895TIP3    H123642   7.238   7.247   4.859
 7895TIP3    H223643   7.187   7.164   4.743
 7896TIP3   OH223644   7.118   4.395   2.971
 7896TIP3    H123645   7.084   4.306   2.982
 7896TIP3    H223646   7.107   4.436   3.057
 7897TIP3   OH223647   1.756   7.528   3.670
 7897TIP3    H123648   1.843   7.490   3.665
 7897TIP3    H223649   1.739   7.563   3.583
 7898TIP3   OH223650   2.847   2.228   6.349
 7898TIP3    H123651   2.907   2.157   6.372
 7898TIP3    H223652   2.828   2.272   6.433
 7899TIP3   OH223653   4.416   2.403   0.844
 7899TIP3    H123654   4.354   2.362   0.785
 7899TIP3    H223655   4.398   2.497   0.837
 7900TIP3   OH223656   7.335   1.944   1.284
 7900TIP3    H123657   7.242   1.937   1.304
 7900TIP3    H223658   7.369   2.008   1.346
 7901TIP3   OH223659   8.184   3.755   0.835
 7901TIP3    H123660   8.255   3.728   0.778
 7901TIP3    H223661   8.123   3.802   0.777
 7902TIP3   OH223662   7.332   0.546   5.857
 7902TIP3    H123663   7.253   0.523   5.807
 7902TIP3    H223664   7.381   0.604   5.799
 7903TIP3   OH223665   7.968   4.849   5.140
 7903TIP3    H123666   7.920   4.925   5.173
 7903TIP3    H223667   8.039   4.887   5.088
 7904TIP3   OH223668   3.029   3.867   2.827
 7904TIP3    H123669   2.992   3.947   2.789
 7904TIP3    H223670   3.095   3.899   2.889
 7905TIP3   OH223671   7.604   6.007   6.353
 7905TIP3    H123672   7.510   6.008   6.335
 7905TIP3    H223673   7.615   6.071   6.423
 7906TIP3   OH223674   4.720   4.334   1.211
 7906TIP3    H123675   4.628   4.348   1.234
 7906TIP3    H223676   4.718   4.262   1.148
 7907TIP3   OH223677   7.139   0.390   3.058
 7907TIP3    H123678   7.208   0.362   3.117
 7907TIP3    H223679   7.058   0.362   3.101
 7908TIP3   OH223680   6.328   4.024   1.184
 7908TIP3    H123681   6.288   4.031   1.271
 7908TIP3    H223682   6.289   4.096   1.135
 7909TIP3   OH223683   7.518   4.400   4.244
 7909TIP3    H123684   7.439   4.440   4.209
 7909TIP3    H223685   7.517   4.424   4.337
 7910TIP3   OH223686   1.704   6.591   0.866
 7910TIP3    H123687   1.608   6.588   0.869
 7910TIP3    H223688   1.725   6.676   0.829
 7911TIP3   OH223689   4.469   7.108   5.171
 7911TIP3    H123690   4.504   7.056   5.099
 7911TIP3    H223691   4.545   7.127   5.226
 7912TIP3   OH223692   6.093   7.251   6.729
 7912TIP3    H123693   6.163   7.241   6.793
 7912TIP3    H223694   6.019   7.285   6.780
 7913TIP3   OH223695   4.974   7.121   5.430
 7913TIP3    H123696   4.990   7.103   5.523
 7913TIP3    H223697   4.975   7.216   5.423
 7914TIP3   OH223698   7.425   5.278   5.598
 7914TIP3    H123699   7.492   5.343   5.616
 7914TIP3    H223700   7.343   5.319   5.626
 7915TIP3   OH223701   0.354   5.221   4.696
 7915TIP3    H123702   0.302   5.184   4.768
 7915TIP3    H223703   0.441   5.236   4.734
 7916TIP3   OH223704   3.705   7.379   2.863
 7916TIP3    H123705   3.757   7.300   2.860
 7916TIP3    H223706   3.716   7.419   2.777
 7917TIP3   OH223707   7.251   1.353   4.173
 7917TIP3    H123708   7.320   1.409   4.208
 7917TIP3    H223709   7.194   1.336   4.247
 7918TIP3   OH223710   1.781   2.693   0.978
 7918TIP3    H123711   1.839   2.635   1.027
 7918TIP3    H223712   1.840   2.757   0.938
 7919TIP3   OH223713   0.992   4.842   1.435
 7919TIP3    H123714   0.967   4.867   1.524
 7919TIP3    H223715   0.969   4.750   1.428
 7920TIP3   OH223716   3.685   1.403   6.147
 7920TIP3    H123717   3.676   1.425   6.240
 7920TIP3    H223718   3.630   1.325   6.136
 7921TIP3   OH223719   2.856   1.324   0.156
 7921TIP3    H123720   2.848   1.243   0.106
 7921TIP3    H223721   2.766   1.358   0.162
 7922TIP3   OH223722   4.561   2.050   2.795
 7922TIP3    H123723   4.562   2.001   2.713
 7922TIP3    H223724   4.478   2.096   2.795
 7923TIP3   OH223725   0.183   0.479   4.570
 7923TIP3    H123726   0.225   0.463   4.654
 7923TIP3    H223727   0.190   0.573   4.557
 7924TIP3   OH223728   3.347   0.996   2.324
 7924TIP3    H123729   3.270   1.026   2.277
 7924TIP3    H223730   3.351   0.902   2.308
 7925TIP3   OH223731   2.034   6.666   0.361
 7925TIP3    H123732   2.105   6.715   0.403
 7925TIP3    H223733   2.004   6.606   0.429
 7926TIP3   OH223734   5.995   0.679   2.913
 7926TIP3    H123735   6.023   0.732   2.838
 7926TIP3    H223736   6.066   0.689   2.977
 7927TIP3   OH223737   0.817   5.908   6.159
 7927TIP3    H123738   0.723   5.906   6.177
 7927TIP3    H223739   0.823   5.897   6.064
 7928TIP3   OH223740   6.332   5.383   2.452
 7928TIP3    H123741   6.314   5.398   2.360
 7928TIP3    H223742   6.294   5.459   2.497
 7929TIP3   OH223743   1.918   5.240   4.071
 7929TIP3    H123744   1.834   5.227   4.115
 7929TIP3    H223745   1.981   5.189   4.122
 7930TIP3   OH223746   2.930   1.770   5.271
 7930TIP3    H123747   2.960   1.859   5.286
 7930TIP3    H223748   3.004   1.715   5.296
 7931TIP3   OH223749   3.449   5.754   3.119
 7931TIP3    H123750   3.417   5.667   3.141
 7931TIP3    H223751   3.524   5.739   3.061
 7932TIP3   OH223752   6.812   0.490   5.731
 7932TIP3    H123753   6.876   0.422   5.712
 7932TIP3    H223754   6.793   0.531   5.647
 7933TIP3   OH223755   5.881   3.444   0.795
 7933TIP3    H123756   5.799   3.457   0.842
 7933TIP3    H223757   5.857   3.449   0.702
 7934TIP3   OH223758   1.333   1.975   1.235
 7934TIP3    H123759   1.290   1.895   1.267
 7934TIP3    H223760   1.363   1.953   1.147
 7935TIP3   OH223761   2.412   1.555   5.113
 7935TIP3    H123762   2.434   1.473   5.157
 7935TIP3    H223763   2.368   1.607   5.180
 7936TIP3   OH223764   6.354   1.287   4.228
 7936TIP3    H123765   6.410   1.224   4.273
 7936TIP3    H223766   6.385   1.287   4.138
 7937TIP3   OH223767   4.527   3.798   1.516
 7937TIP3    H123768   4.500   3.793   1.424
 7937TIP3    H223769   4.506   3.711   1.551
 7938TIP3   OH223770   5.349   6.880   6.582
 7938TIP3    H123771   5.289   6.888   6.656
 7938TIP3    H223772   5.388   6.966   6.573
 7939TIP3   OH223773   1.160   2.969   1.085
 7939TIP3    H123774   1.182   3.047   1.136
 7939TIP3    H223775   1.117   3.003   1.007
 7940TIP3   OH223776   2.401   3.558   1.251
 7940TIP3    H123777   2.486   3.596   1.271
 7940TIP3    H223778   2.339   3.632   1.259
 7941TIP3   OH223779   4.773   4.736   6.687
 7941TIP3    H123780   4.712   4.798   6.647
 7941TIP3    H223781   4.776   4.763   6.779
 7942TIP3   OH223782   5.101   3.550   3.402
 7942TIP3    H123783   5.080   3.573   3.311
 7942TIP3    H223784   5.115   3.635   3.445
 7943TIP3   OH223785   1.578   6.106   1.481
 7943TIP3    H123786   1.634   6.062   1.545
 7943TIP3    H223787   1.599   6.199   1.492
 7944TIP3   OH223788   4.458   4.264   5.432
 7944TIP3    H123789   4.404   4.195   5.469
 7944TIP3    H223790   4.447   4.256   5.338
 7945TIP3   OH223791   8.202   2.776   0.665
 7945TIP3    H123792   8.148   2.837   0.616
 7945TIP3    H223793   8.180   2.793   0.757
 7946TIP3   OH223794   3.649   3.319   3.107
 7946TIP3    H123795   3.613   3.235   3.136
 7946TIP3    H223796   3.585   3.384   3.137
 7947TIP3   OH223797   5.825   1.897   3.858
 7947TIP3    H123798   5.742   1.850   3.869
 7947TIP3    H223799   5.802   1.975   3.808
 7948TIP3   OH223800   7.075   3.112   3.302
 7948TIP3    H123801   7.063   3.125   3.207
 7948TIP3    H223802   7.139   3.178   3.327
 7949TIP3   OH223803   7.356   1.315   3.913
 7949TIP3    H123804   7.323   1.335   4.000
 7949TIP3    H223805   7.361   1.219   3.911
 7950TIP3   OH223806   5.382   3.200   2.695
 7950TIP3    H123807   5.361   3.174   2.785
 7950TIP3    H223808   5.326   3.144   2.640
 7951TIP3   OH223809   2.071   1.832   1.424
 7951TIP3    H123810   2.003   1.896   1.443
 7951TIP3    H223811   2.074   1.827   1.329
 7952TIP3   OH223812   0.456   6.883   4.724
 7952TIP3    H123813   0.416   6.804   4.689
 7952TIP3    H223814   0.529   6.901   4.664
 7953TIP3   OH223815   2.151   3.735   4.277
 7953TIP3    H123816   2.077   3.675   4.281
 7953TIP3    H223817   2.128   3.806   4.337
 7954TIP3   OH223818   6.146   7.779   0.386
 7954TIP3    H123819   6.055   7.763   0.410
 7954TIP3    H223820   6.197   7.727   0.448
 7955TIP3   OH223821   5.071   1.608   3.811
 7955TIP3    H123822   5.122   1.579   3.736
 7955TIP3    H223823   5.110   1.692   3.836
 7956TIP3   OH223824   7.630   0.258   0.966
 7956TIP3    H123825   7.536   0.275   0.961
 7956TIP3    H223826   7.645   0.229   1.055
 7957TIP3   OH223827   6.077   3.915   1.961
 7957TIP3    H123828   6.149   3.852   1.955
 7957TIP3    H223829   6.082   3.949   2.050
 7958TIP3   OH223830   2.684   4.498   3.053
 7958TIP3    H123831   2.622   4.443   3.005
 7958TIP3    H223832   2.733   4.543   2.985
 7959TIP3   OH223833   0.034   1.332   2.880
 7959TIP3    H123834   0.019   1.322   2.786
 7959TIP3    H223835   0.080   1.252   2.906
 7960TIP3   OH223836   7.781   4.867   0.843
 7960TIP3    H123837   7.791   4.810   0.767
 7960TIP3    H223838   7.870   4.880   0.875
 7961TIP3   OH223839   0.823   7.084   2.573
 7961TIP3    H123840   0.842   7.116   2.485
 7961TIP3    H223841   0.895   7.117   2.627
 7962TIP3   OH223842   2.030   0.358   1.055
 7962TIP3    H123843   2.055   0.450   1.063
 7962TIP3    H223844   2.020   0.344   0.961
 7963TIP3   OH223845   2.097   5.712   0.848
 7963TIP3    H123846   2.085   5.637   0.905
 7963TIP3    H223847   2.146   5.678   0.773
 7964TIP3   OH223848   4.114   4.273   3.898
 7964TIP3    H123849   4.154   4.354   3.930
 7964TIP3    H223850   4.030   4.268   3.945
 7965TIP3   OH223851   7.554   0.408   1.314
 7965TIP3    H123852   7.476   0.437   1.266
 7965TIP3    H223853   7.560   0.314   1.295
 7966TIP3   OH223854   2.489   7.602   2.668
 7966TIP3    H123855   2.549   7.627   2.598
 7966TIP3    H223856   2.435   7.533   2.630
 7967TIP3   OH223857   6.663   5.838   4.756
 7967TIP3    H123858   6.635   5.919   4.712
 7967TIP3    H223859   6.616   5.838   4.839
 7968TIP3   OH223860   1.700   4.879   2.101
 7968TIP3    H123861   1.690   4.842   2.189
 7968TIP3    H223862   1.690   4.973   2.113
 7969TIP3   OH223863   2.330   5.520   0.228
 7969TIP3    H123864   2.241   5.551   0.211
 7969TIP3    H223865   2.365   5.582   0.292
 7970TIP3   OH223866   2.837   1.648   6.675
 7970TIP3    H123867   2.799   1.694   6.600
 7970TIP3    H223868   2.833   1.555   6.650
 7971TIP3   OH223869   6.038   4.330   2.499
 7971TIP3    H123870   6.005   4.243   2.477
 7971TIP3    H223871   6.121   4.314   2.543
 7972TIP3   OH223872   0.767   0.226   0.096
 7972TIP3    H123873   0.765   0.319   0.070
 7972TIP3    H223874   0.857   0.213   0.127
 7973TIP3   OH223875   2.019   4.447   3.389
 7973TIP3    H123876   2.041   4.368   3.340
 7973TIP3    H223877   2.021   4.419   3.481
 7974TIP3   OH223878   0.595   0.661   3.686
 7974TIP3    H123879   0.533   0.664   3.759
 7974TIP3    H223880   0.593   0.570   3.656
 7975TIP3   OH223881   0.672   4.060   0.050
 7975TIP3    H123882   0.601   4.006   0.084
 7975TIP3    H223883   0.645   4.150   0.066
 7976TIP3   OH223884   2.584   7.205   2.676
 7976TIP3    H123885   2.671   7.172   2.697
 7976TIP3    H223886   2.539   7.213   2.760
 7977TIP3   OH223887   7.241   7.034   3.787
 7977TIP3    H123888   7.157   7.018   3.831
 7977TIP3    H223889   7.277   7.110   3.833
 7978TIP3   OH223890   4.242   5.344   0.583
 7978TIP3    H123891   4.284   5.334   0.497
 7978TIP3    H223892   4.305   5.307   0.645
 7979TIP3   OH223893   6.193   2.263   4.926
 7979TIP3    H123894   6.258   2.199   4.955
 7979TIP3    H223895   6.165   2.231   4.840
 7980TIP3   OH223896   7.857   2.353   0.922
 7980TIP3    H123897   7.917   2.291   0.880
 7980TIP3    H223898   7.912   2.406   0.979
 7981TIP3   OH223899   0.201   5.947   3.195
 7981TIP3    H123900   0.246   5.886   3.253
 7981TIP3    H223901   0.224   6.034   3.229
 7982TIP3   OH223902   3.452   6.183   2.341
 7982TIP3    H123903   3.450   6.194   2.246
 7982TIP3    H223904   3.511   6.252   2.372
 7983TIP3   OH223905   0.624   7.184   2.124
 7983TIP3    H123906   0.706   7.157   2.081
 7983TIP3    H223907   0.645   7.269   2.164
 7984TIP3   OH223908   5.535   1.949   1.289
 7984TIP3    H123909   5.528   1.971   1.382
 7984TIP3    H223910   5.531   1.853   1.286
 7985TIP3   OH223911   1.556   6.104   1.184
 7985TIP3    H123912   1.522   6.126   1.271
 7985TIP3    H223913   1.601   6.184   1.155
 7986TIP3   OH223914   0.326   1.560   5.467
 7986TIP3    H123915   0.299   1.641   5.424
 7986TIP3    H223916   0.266   1.551   5.541
 7987TIP3   OH223917   1.920   4.969   2.419
 7987TIP3    H123918   1.836   5.015   2.424
 7987TIP3    H223919   1.955   4.992   2.333
 7988TIP3   OH223920   4.704   2.836   0.968
 7988TIP3    H123921   4.625   2.793   1.002
 7988TIP3    H223922   4.774   2.772   0.979
 7989TIP3   OH223923   8.328   7.619   1.895
 7989TIP3    H123924   8.323   7.562   1.972
 7989TIP3    H223925   8.238   7.630   1.867
 7990TIP3   OH223926   7.206   0.189   4.931
 7990TIP3    H123927   7.116   0.170   4.906
 7990TIP3    H223928   7.231   0.118   4.989
 7991TIP3   OH223929   1.795   0.128   4.212
 7991TIP3    H123930   1.813   0.038   4.241
 7991TIP3    H223931   1.859   0.143   4.142
 7992TIP3   OH223932   6.919   6.276   5.159
 7992TIP3    H123933   6.919   6.237   5.072
 7992TIP3    H223934   6.834   6.318   5.167
 7993TIP3   OH223935   1.205   7.474   4.337
 7993TIP3    H123936   1.232   7.384   4.355
 7993TIP3    H223937   1.245   7.526   4.406
 7994TIP3   OH223938   0.087   7.466   0.346
 7994TIP3    H123939   0.044   7.412   0.281
 7994TIP3    H223940   0.022   7.532   0.370
 7995TIP3   OH223941   5.476   4.997   0.735
 7995TIP3    H123942   5.488   4.947   0.816
 7995TIP3    H223943   5.465   5.088   0.764
 7996TIP3   OH223944   2.065   3.732   5.299
 7996TIP3    H123945   2.049   3.773   5.214
 7996TIP3    H223946   2.150   3.689   5.289
 7997TIP3   OH223947   3.899   1.931   2.051
 7997TIP3    H123948   3.937   1.873   1.986
 7997TIP3    H223949   3.817   1.888   2.077
 7998TIP3   OH223950   2.913   0.255   5.601
 7998TIP3    H123951   2.876   0.336   5.566
 7998TIP3    H223952   3.003   0.278   5.623
 7999TIP3   OH223953   7.454   0.086   3.549
 7999TIP3    H123954   7.483   0.006   3.504
 7999TIP3    H223955   7.411   0.137   3.481
 8000TIP3   OH223956   7.755   3.165   5.280
 8000TIP3    H123957   7.796   3.126   5.203
 8000TIP3    H223958   7.670   3.197   5.249
 8001TIP3   OH223959   8.065   4.950   2.606
 8001TIP3    H123960   8.116   5.026   2.577
 8001TIP3    H223961   8.129   4.895   2.652
 8002TIP3   OH223962   4.819   3.674   5.292
 8002TIP3    H123963   4.762   3.598   5.298
 8002TIP3    H223964   4.873   3.671   5.371
 8003TIP3   OH223965   7.684   4.709   6.712
 8003TIP3    H123966   7.745   4.778   6.737
 8003TIP3    H223967   7.739   4.631   6.703
 8004TIP3   OH223968   7.407   6.768   5.013
 8004TIP3    H123969   7.341   6.701   5.028
 8004TIP3    H223970   7.440   6.750   4.925
 8005TIP3   OH223971   6.571   5.470   5.821
 8005TIP3    H123972   6.604   5.495   5.735
 8005TIP3    H223973   6.516   5.543   5.848
 8006TIP3   OH223974   1.862   6.820   6.532
 8006TIP3    H123975   1.939   6.851   6.484
 8006TIP3    H223976   1.856   6.879   6.607
 8007TIP3   OH223977   8.083   4.693   3.644
 8007TIP3    H123978   8.088   4.610   3.691
 8007TIP3    H223979   8.161   4.694   3.588
 8008TIP3   OH223980   7.285   7.554   0.204
 8008TIP3    H123981   7.368   7.600   0.210
 8008TIP3    H223982   7.309   7.464   0.180
 8009TIP3   OH223983   0.408   3.817   0.543
 8009TIP3    H123984   0.499   3.809   0.513
 8009TIP3    H223985   0.413   3.810   0.638
 8010TIP3   OH223986   4.031   4.931   5.461
 8010TIP3    H123987   4.026   4.836   5.465
 8010TIP3    H223988   3.963   4.962   5.520
 8011TIP3   OH223989   7.943   2.266   4.241
 8011TIP3    H123990   7.961   2.207   4.168
 8011TIP3    H223991   7.927   2.207   4.315
 8012TIP3   OH223992   7.934   5.019   2.393
 8012TIP3    H123993   7.967   4.996   2.479
 8012TIP3    H223994   7.859   4.961   2.379
 8013TIP3   OH223995   6.411   3.203   5.168
 8013TIP3    H123996   6.400   3.233   5.258
 8013TIP3    H223997   6.471   3.128   5.174
 8014TIP3   OH223998   1.917   1.700   1.749
 8014TIP3    H123999   1.954   1.752   1.820
 8014TIP3    H224000   1.960   1.732   1.670
 8015TIP3   OH224001   0.800   0.224   3.333
 8015TIP3    H124002   0.864   0.272   3.281
 8015TIP3    H224003   0.767   0.156   3.274
 8016TIP3   OH224004   5.941   4.588   2.449
 8016TIP3    H124005   5.974   4.575   2.360
 8016TIP3    H224006   5.958   4.504   2.493
 8017TIP3   OH224007   0.911   2.862   4.548
 8017TIP3    H124008   0.878   2.859   4.458
 8017TIP3    H224009   0.913   2.770   4.576
 8018TIP3   OH224010   3.974   4.511   1.615
 8018TIP3    H124011   3.914   4.575   1.576
 8018TIP3    H224012   3.922   4.468   1.683
 8019TIP3   OH224013   5.771   6.838   0.509
 8019TIP3    H124014   5.784   6.763   0.450
 8019TIP3    H224015   5.717   6.804   0.580
 8020TIP3   OH224016   3.522   2.189   2.483
 8020TIP3    H124017   3.569   2.164   2.563
 8020TIP3    H224018   3.430   2.194   2.510
 8021TIP3   OH224019   5.448   4.024   1.669
 8021TIP3    H124020   5.515   4.017   1.601
 8021TIP3    H224021   5.390   3.949   1.653
 8022TIP3   OH224022   3.513   4.108   2.503
 8022TIP3    H124023   3.593   4.124   2.553
 8022TIP3    H224024   3.539   4.114   2.412
 8023TIP3   OH224025   5.694   1.205   3.697
 8023TIP3    H124026   5.689   1.111   3.712
 8023TIP3    H224027   5.687   1.214   3.602
 8024TIP3   OH224028   6.603   0.743   5.701
 8024TIP3    H124029   6.571   0.833   5.697
 8024TIP3    H224030   6.670   0.744   5.768
 8025TIP3   OH224031   3.278   0.143   1.878
 8025TIP3    H124032   3.250   0.077   1.814
 8025TIP3    H224033   3.373   0.131   1.885
 8026TIP3   OH224034   3.263   5.867   3.961
 8026TIP3    H124035   3.292   5.958   3.958
 8026TIP3    H224036   3.285   5.832   3.874
 8027TIP3   OH224037   7.804   1.181   0.521
 8027TIP3    H124038   7.810   1.107   0.461
 8027TIP3    H224039   7.744   1.242   0.479
 8028TIP3   OH224040   6.390   6.034   2.729
 8028TIP3    H124041   6.382   6.010   2.822
 8028TIP3    H224042   6.373   5.952   2.682
 8029TIP3   OH224043   7.095   3.595   2.105
 8029TIP3    H124044   7.050   3.671   2.067
 8029TIP3    H224045   7.148   3.560   2.034
 8030TIP3   OH224046   5.355   7.520   2.242
 8030TIP3    H124047   5.349   7.607   2.203
 8030TIP3    H224048   5.264   7.493   2.255
 8031TIP3   OH224049   5.018   3.168   0.854
 8031TIP3    H124050   5.063   3.247   0.882
 8031TIP3    H224051   4.985   3.188   0.766
 8032TIP3   OH224052   8.150   0.870   6.166
 8032TIP3    H124053   8.136   0.926   6.090
 8032TIP3    H224054   8.187   0.789   6.129
 8033TIP3   OH224055   0.048   1.144   5.364
 8033TIP3    H124056   0.043   1.240   5.359
 8033TIP3    H224057   0.010   1.114   5.281
 8034TIP3   OH224058   5.420   1.371   2.386
 8034TIP3    H124059   5.336   1.388   2.343
 8034TIP3    H224060   5.416   1.422   2.467
 8035TIP3   OH224061   2.036   4.094   1.633
 8035TIP3    H124062   2.065   4.086   1.724
 8035TIP3    H224063   2.087   4.168   1.598
 8036TIP3   OH224064   7.546   3.423   2.021
 8036TIP3    H124065   7.569   3.457   1.935
 8036TIP3    H224066   7.621   3.442   2.076
 8037TIP3   OH224067   1.705   7.387   0.128
 8037TIP3    H124068   1.655   7.393   0.047
 8037TIP3    H224069   1.708   7.477   0.161
 8038TIP3   OH224070   2.977   2.009   1.720
 8038TIP3    H124071   2.945   2.023   1.809
 8038TIP3    H224072   2.898   1.991   1.669
 8039TIP3   OH224073   2.960   4.407   4.805
 8039TIP3    H124074   2.910   4.466   4.861
 8039TIP3    H224075   3.015   4.464   4.752
 8040TIP3   OH224076   4.642   5.762   2.791
 8040TIP3    H124077   4.718   5.713   2.822
 8040TIP3    H224078   4.625   5.728   2.704
 8041TIP3   OH224079   6.029   5.038   2.526
 8041TIP3    H124080   6.115   5.066   2.558
 8041TIP3    H224081   6.001   4.972   2.589
 8042TIP3   OH224082   3.475   1.288   0.729
 8042TIP3    H124083   3.457   1.306   0.821
 8042TIP3    H224084   3.568   1.262   0.727
 8043TIP3   OH224085   0.554   0.526   0.205
 8043TIP3    H124086   0.646   0.516   0.228
 8043TIP3    H224087   0.508   0.462   0.258
 8044TIP3   OH224088   2.015   4.497   1.757
 8044TIP3    H124089   1.925   4.472   1.777
 8044TIP3    H224090   2.051   4.528   1.840
 8045TIP3   OH224091   0.701   7.395   1.822
 8045TIP3    H124092   0.761   7.415   1.750
 8045TIP3    H224093   0.756   7.352   1.887
 8046TIP3   OH224094   5.600   6.295   6.142
 8046TIP3    H124095   5.621   6.379   6.101
 8046TIP3    H224096   5.664   6.234   6.105
 8047TIP3   OH224097   4.331   5.336   4.935
 8047TIP3    H124098   4.236   5.351   4.943
 8047TIP3    H224099   4.361   5.405   4.876
 8048TIP3   OH224100   1.894   5.789   5.274
 8048TIP3    H124101   1.969   5.730   5.277
 8048TIP3    H224102   1.910   5.853   5.343
 8049TIP3   OH224103   5.382   3.430   0.821
 8049TIP3    H124104   5.384   3.503   0.759
 8049TIP3    H224105   5.470   3.428   0.859
 8050TIP3   OH224106   0.839   6.973   3.979
 8050TIP3    H124107   0.841   6.976   4.075
 8050TIP3    H224108   0.883   7.052   3.951
 8051TIP3   OH224109   6.190   6.433   4.623
 8051TIP3    H124110   6.264   6.415   4.565
 8051TIP3    H224111   6.168   6.525   4.605
 8052TIP3   OH224112   7.732   7.023   0.069
 8052TIP3    H124113   7.758   6.933   0.050
 8052TIP3    H224114   7.731   7.029   0.165
 8053TIP3   OH224115   8.250   5.940   5.063
 8053TIP3    H124116   8.284   5.891   4.989
 8053TIP3    H224117   8.245   5.875   5.134
 8054TIP3   OH224118   6.985   2.343   0.045
 8054TIP3    H124119   7.080   2.353   0.040
 8054TIP3    H224120   6.961   2.301  -0.038
 8055TIP3   OH224121   5.622   1.781   4.992
 8055TIP3    H124122   5.693   1.745   5.046
 8055TIP3    H224123   5.586   1.853   5.044
 8056TIP3   OH224124   7.485   0.356   4.070
 8056TIP3    H124125   7.414   0.359   4.135
 8056TIP3    H224126   7.519   0.267   4.076
 8057TIP3   OH224127   3.492   7.021   6.470
 8057TIP3    H124128   3.413   7.068   6.443
 8057TIP3    H224129   3.488   6.938   6.421
 8058TIP3   OH224130   2.479   0.581   2.369
 8058TIP3    H124131   2.537   0.505   2.369
 8058TIP3    H224132   2.446   0.586   2.279
 8059TIP3   OH224133   1.422   1.954   0.638
 8059TIP3    H124134   1.326   1.958   0.646
 8059TIP3    H224135   1.442   2.012   0.565
 8060TIP3   OH224136   3.974   4.068   1.832
 8060TIP3    H124137   4.047   4.060   1.771
 8060TIP3    H224138   3.924   3.987   1.820
 8061TIP3   OH224139   2.067   4.816   0.946
 8061TIP3    H124140   2.147   4.855   0.982
 8061TIP3    H224141   2.084   4.722   0.944
 8062TIP3   OH224142   3.080   0.435   6.261
 8062TIP3    H124143   3.015   0.494   6.223
 8062TIP3    H224144   3.035   0.352   6.271
 8063TIP3   OH224145   5.175   5.699   0.784
 8063TIP3    H124146   5.108   5.721   0.849
 8063TIP3    H224147   5.146   5.742   0.704
 8064TIP3   OH224148   7.680   2.711   5.421
 8064TIP3    H124149   7.601   2.736   5.374
 8064TIP3    H224150   7.670   2.750   5.508
 8065TIP3   OH224151   3.324   1.374   6.455
 8065TIP3    H124152   3.265   1.382   6.529
 8065TIP3    H224153   3.401   1.424   6.480
 8066TIP3   OH224154   1.699   4.394   5.064
 8066TIP3    H124155   1.751   4.472   5.085
 8066TIP3    H224156   1.665   4.411   4.976
 8067TIP3   OH224157   5.086   2.858   1.873
 8067TIP3    H124158   5.056   2.939   1.914
 8067TIP3    H224159   5.091   2.878   1.780
 8068TIP3   OH224160   6.943   0.501   5.440
 8068TIP3    H124161   6.890   0.570   5.399
 8068TIP3    H224162   6.927   0.423   5.387
 8069TIP3   OH224163   1.851   1.121   4.031
 8069TIP3    H124164   1.890   1.046   4.076
 8069TIP3    H224165   1.842   1.094   3.940
 8070TIP3   OH224166   5.740   0.611   2.890
 8070TIP3    H124167   5.688   0.686   2.921
 8070TIP3    H224168   5.829   0.633   2.917
 8071TIP3   OH224169   2.092   0.707   0.712
 8071TIP3    H124170   2.085   0.744   0.801
 8071TIP3    H224171   2.012   0.656   0.701
 8072TIP3   OH224172   8.197   1.350   2.637
 8072TIP3    H124173   8.200   1.404   2.557
 8072TIP3    H224174   8.116   1.377   2.681
 8073TIP3   OH224175   2.127   7.786   6.649
 8073TIP3    H124176   2.190   7.852   6.679
 8073TIP3    H224177   2.042   7.829   6.657
 8074TIP3   OH224178   2.554   0.379   5.781
 8074TIP3    H124179   2.549   0.408   5.690
 8074TIP3    H224180   2.477   0.418   5.823
 8075TIP3   OH224181   0.162   4.183   1.606
 8075TIP3    H124182   0.229   4.252   1.610
 8075TIP3    H224183   0.089   4.223   1.558
 8076TIP3   OH224184   5.230   6.559   0.302
 8076TIP3    H124185   5.169   6.533   0.233
 8076TIP3    H224186   5.192   6.526   0.383
 8077TIP3   OH224187   7.894   6.187   3.727
 8077TIP3    H124188   7.873   6.128   3.655
 8077TIP3    H224189   7.826   6.173   3.792
 8078TIP3   OH224190   3.920   5.252   2.703
 8078TIP3    H124191   3.861   5.323   2.677
 8078TIP3    H224192   3.869   5.172   2.691
 8079TIP3   OH224193   4.115   6.073   1.240
 8079TIP3    H124194   4.045   6.008   1.249
 8079TIP3    H224195   4.089   6.127   1.165
 8080TIP3   OH224196   0.682   6.480   1.707
 8080TIP3    H124197   0.591   6.453   1.691
 8080TIP3    H224198   0.716   6.501   1.621
 8081TIP3   OH224199   5.478   3.126   1.779
 8081TIP3    H124200   5.500   3.187   1.850
 8081TIP3    H224201   5.536   3.051   1.793
 8082TIP3   OH224202   1.153   2.177   1.248
 8082TIP3    H124203   1.219   2.227   1.298
 8082TIP3    H224204   1.204   2.108   1.206
 8083TIP3   OH224205   2.424   1.764   6.445
 8083TIP3    H124206   2.484   1.816   6.393
 8083TIP3    H224207   2.479   1.697   6.486
 8084TIP3   OH224208   7.335   2.258   5.807
 8084TIP3    H124209   7.283   2.178   5.805
 8084TIP3    H224210   7.422   2.230   5.836
 8085TIP3   OH224211   0.825   0.112   3.603
 8085TIP3    H124212   0.832   0.139   3.512
 8085TIP3    H224213   0.858   0.022   3.604
 8086TIP3   OH224214   0.773   3.682   6.257
 8086TIP3    H124215   0.699   3.739   6.279
 8086TIP3    H224216   0.733   3.605   6.218
 8087TIP3   OH224217   0.767   2.146   3.198
 8087TIP3    H124218   0.725   2.222   3.237
 8087TIP3    H224219   0.695   2.094   3.163
 8088TIP3   OH224220   7.440   0.098   2.220
 8088TIP3    H124221   7.440   0.106   2.315
 8088TIP3    H224222   7.400   0.013   2.203
 8089TIP3   OH224223   0.872   5.199   4.669
 8089TIP3    H124224   0.937   5.264   4.645
 8089TIP3    H224225   0.850   5.155   4.587
 8090TIP3   OH224226   5.305   7.652   2.865
 8090TIP3    H124227   5.345   7.566   2.853
 8090TIP3    H224228   5.370   7.713   2.830
 8091TIP3   OH224229   2.499   6.097   0.708
 8091TIP3    H124230   2.529   6.187   0.719
 8091TIP3    H224231   2.433   6.085   0.777
 8092TIP3   OH224232   7.281   7.260   1.759
 8092TIP3    H124233   7.302   7.302   1.842
 8092TIP3    H224234   7.297   7.167   1.775
 8093TIP3   OH224235   2.625   3.214   0.461
 8093TIP3    H124236   2.621   3.267   0.381
 8093TIP3    H224237   2.718   3.195   0.474
 8094TIP3   OH224238   7.615   2.887   6.027
 8094TIP3    H124239   7.602   2.981   6.030
 8094TIP3    H224240   7.536   2.853   5.985
 8095TIP3   OH224241   1.959   2.004   2.478
 8095TIP3    H124242   1.962   1.909   2.492
 8095TIP3    H224243   2.037   2.037   2.521
 8096TIP3   OH224244   0.877   3.744   0.582
 8096TIP3    H124245   0.864   3.839   0.584
 8096TIP3    H224246   0.939   3.727   0.652
 8097TIP3   OH224247   4.060   5.336   2.490
 8097TIP3    H124248   3.971   5.361   2.464
 8097TIP3    H224249   4.049   5.292   2.574
 8098TIP3   OH224250   6.887   1.666   0.148
 8098TIP3    H124251   6.980   1.677   0.165
 8098TIP3    H224252   6.844   1.720   0.214
 8099TIP3   OH224253   7.058   1.055   2.456
 8099TIP3    H124254   7.111   0.986   2.495
 8099TIP3    H224255   7.092   1.136   2.494
 8100TIP3   OH224256   8.240   1.148   1.076
 8100TIP3    H124257   8.144   1.146   1.079
 8100TIP3    H224258   8.265   1.055   1.077
 8101TIP3   OH224259   1.444   5.910   6.392
 8101TIP3    H124260   1.538   5.893   6.396
 8101TIP3    H224261   1.430   5.947   6.305
 8102TIP3   OH224262   1.297   6.964   2.106
 8102TIP3    H124263   1.276   6.979   2.014
 8102TIP3    H224264   1.368   6.900   2.104
 8103TIP3   OH224265   4.478   6.587   4.257
 8103TIP3    H124266   4.389   6.555   4.271
 8103TIP3    H224267   4.471   6.647   4.182
 8104TIP3   OH224268   6.301   6.464   1.010
 8104TIP3    H124269   6.215   6.497   0.983
 8104TIP3    H224270   6.284   6.374   1.040
 8105TIP3   OH224271   6.310   1.012   2.335
 8105TIP3    H124272   6.224   1.055   2.336
 8105TIP3    H224273   6.358   1.051   2.408
 8106TIP3   OH224274   0.617   3.154   4.683
 8106TIP3    H124275   0.588   3.167   4.593
 8106TIP3    H224276   0.539   3.123   4.730
 8107TIP3   OH224277   3.107   0.902   4.327
 8107TIP3    H124278   3.130   0.917   4.235
 8107TIP3    H224279   3.180   0.852   4.362
 8108TIP3   OH224280   1.209   5.260   1.496
 8108TIP3    H124281   1.131   5.216   1.529
 8108TIP3    H224282   1.271   5.257   1.570
 8109TIP3   OH224283   4.823   7.507   1.502
 8109TIP3    H124284   4.845   7.546   1.586
 8109TIP3    H224285   4.896   7.530   1.444
 8110TIP3   OH224286   7.373   2.483   1.886
 8110TIP3    H124287   7.334   2.407   1.929
 8110TIP3    H224288   7.467   2.473   1.900
 8111TIP3   OH224289   3.204   1.598   3.145
 8111TIP3    H124290   3.180   1.682   3.106
 8111TIP3    H224291   3.128   1.542   3.130
 8112TIP3   OH224292   3.353   1.392   4.987
 8112TIP3    H124293   3.357   1.415   5.080
 8112TIP3    H224294   3.444   1.373   4.963
 8113TIP3   OH224295   2.439   0.092   3.417
 8113TIP3    H124296   2.371   0.035   3.451
 8113TIP3    H224297   2.520   0.057   3.454
 8114TIP3   OH224298   3.364   3.183   4.110
 8114TIP3    H124299   3.310   3.170   4.189
 8114TIP3    H224300   3.304   3.219   4.045
 8115TIP3   OH224301   1.905   3.221   0.946
 8115TIP3    H124302   1.944   3.307   0.958
 8115TIP3    H224303   1.836   3.235   0.880
 8116TIP3   OH224304   7.482   3.937   0.967
 8116TIP3    H124305   7.424   4.007   0.937
 8116TIP3    H224306   7.424   3.861   0.977
 8117TIP3   OH224307   2.525   6.931   6.502
 8117TIP3    H124308   2.614   6.963   6.514
 8117TIP3    H224309   2.506   6.947   6.409
 8118TIP3   OH224310   4.880   7.156   4.637
 8118TIP3    H124311   4.926   7.170   4.720
 8118TIP3    H224312   4.950   7.147   4.572
 8119TIP3   OH224313   5.064   7.782   5.245
 8119TIP3    H124314   5.049   7.876   5.246
 8119TIP3    H224315   5.159   7.772   5.250
 8120TIP3   OH224316   2.431   2.573   4.029
 8120TIP3    H124317   2.502   2.509   4.031
 8120TIP3    H224318   2.388   2.558   3.945
 8121TIP3   OH224319   4.459   4.611   6.637
 8121TIP3    H124320   4.368   4.602   6.664
 8121TIP3    H224321   4.465   4.699   6.601
 8122TIP3   OH224322   2.102   2.059   4.293
 8122TIP3    H124323   2.188   2.097   4.276
 8122TIP3    H224324   2.041   2.112   4.240
 8123TIP3   OH224325   7.827   1.092   6.693
 8123TIP3    H124326   7.751   1.099   6.636
 8123TIP3    H224327   7.867   1.179   6.691
 8124TIP3   OH224328   1.330   4.063   0.658
 8124TIP3    H124329   1.276   4.113   0.597
 8124TIP3    H224330   1.418   4.101   0.649
 8125TIP3   OH224331   2.503   5.130   1.563
 8125TIP3    H124332   2.598   5.132   1.553
 8125TIP3    H224333   2.484   5.197   1.628
 8126TIP3   OH224334   7.994   0.138   0.381
 8126TIP3    H124335   7.951   0.110   0.300
 8126TIP3    H224336   8.050   0.064   0.405
 8127TIP3   OH224337   6.264   3.150   0.244
 8127TIP3    H124338   6.295   3.100   0.169
 8127TIP3    H224339   6.174   3.174   0.221
 8128TIP3   OH224340   3.269   6.575   5.780
 8128TIP3    H124341   3.331   6.612   5.717
 8128TIP3    H224342   3.187   6.621   5.762
 8129TIP3   OH224343   1.331   3.018   6.529
 8129TIP3    H124344   1.340   3.113   6.536
 8129TIP3    H224345   1.326   3.000   6.435
 8130TIP3   OH224346   4.337   2.070   3.781
 8130TIP3    H124347   4.351   2.108   3.694
 8130TIP3    H224348   4.258   2.112   3.813
 8131TIP3   OH224349   1.776   0.493   1.409
 8131TIP3    H124350   1.870   0.511   1.397
 8131TIP3    H224351   1.751   0.544   1.485
 8132TIP3   OH224352   4.757   4.604   6.425
 8132TIP3    H124353   4.726   4.643   6.507
 8132TIP3    H224354   4.789   4.678   6.373
 8133TIP3   OH224355   0.453   3.813   2.109
 8133TIP3    H124356   0.431   3.843   2.021
 8133TIP3    H224357   0.420   3.723   2.113
 8134TIP3   OH224358   5.834   3.008   3.317
 8134TIP3    H124359   5.849   3.085   3.372
 8134TIP3    H224360   5.764   2.960   3.362
 8135TIP3   OH224361   5.854   4.074   4.055
 8135TIP3    H124362   5.801   4.128   4.114
 8135TIP3    H224363   5.869   3.993   4.104
 8136TIP3   OH224364   6.093   6.871   1.127
 8136TIP3    H124365   6.103   6.964   1.148
 8136TIP3    H224366   6.078   6.870   1.032
 8137TIP3   OH224367   2.487   5.064   3.381
 8137TIP3    H124368   2.447   5.142   3.343
 8137TIP3    H224369   2.578   5.066   3.351
 8138TIP3   OH224370   0.088   4.472   1.566
 8138TIP3    H124371   0.183   4.483   1.562
 8138TIP3    H224372   0.067   4.479   1.659
 8139TIP3   OH224373   5.089   3.757   2.003
 8139TIP3    H124374   5.034   3.678   1.999
 8139TIP3    H224375   5.051   3.816   1.939
 8140TIP3   OH224376   1.637   1.892   5.489
 8140TIP3    H124377   1.584   1.820   5.523
 8140TIP3    H224378   1.656   1.946   5.566
 8141TIP3   OH224379   2.773   1.397   5.791
 8141TIP3    H124380   2.764   1.449   5.711
 8141TIP3    H224381   2.867   1.384   5.801
 8142TIP3   OH224382   4.142   3.176   4.247
 8142TIP3    H124383   4.140   3.092   4.292
 8142TIP3    H224384   4.208   3.227   4.294
 8143TIP3   OH224385   0.991   0.128   2.699
 8143TIP3    H124386   1.013   0.049   2.749
 8143TIP3    H224387   0.950   0.186   2.764
 8144TIP3   OH224388   3.139   4.178   4.752
 8144TIP3    H124389   3.214   4.227   4.720
 8144TIP3    H224390   3.070   4.244   4.764
 8145TIP3   OH224391   1.050   3.415   2.178
 8145TIP3    H124392   1.020   3.486   2.122
 8145TIP3    H224393   1.124   3.451   2.226
 8146TIP3   OH224394   6.106   5.065   4.729
 8146TIP3    H124395   6.029   5.052   4.674
 8146TIP3    H224396   6.077   5.044   4.817
 8147TIP3   OH224397   0.751   4.496   1.963
 8147TIP3    H124398   0.751   4.401   1.974
 8147TIP3    H224399   0.684   4.526   2.024
 8148TIP3   OH224400   3.890   4.231   5.462
 8148TIP3    H124401   3.835   4.255   5.536
 8148TIP3    H224402   3.835   4.247   5.385
 8149TIP3   OH224403   5.133   4.453   6.453
 8149TIP3    H124404   5.112   4.539   6.488
 8149TIP3    H224405   5.192   4.470   6.380
 8150TIP3   OH224406   7.727   3.681   5.704
 8150TIP3    H124407   7.815   3.711   5.680
 8150TIP3    H224408   7.695   3.633   5.627
 8151TIP3   OH224409   3.559   6.609   1.398
 8151TIP3    H124410   3.628   6.653   1.348
 8151TIP3    H224411   3.596   6.522   1.417
 8152TIP3   OH224412   5.253   6.443   2.809
 8152TIP3    H124413   5.313   6.382   2.852
 8152TIP3    H224414   5.309   6.506   2.764
 8153TIP3   OH224415   3.982   2.772   1.385
 8153TIP3    H124416   3.888   2.756   1.373
 8153TIP3    H224417   4.004   2.834   1.316
 8154TIP3   OH224418   4.048   4.211   2.616
 8154TIP3    H124419   4.042   4.238   2.708
 8154TIP3    H224420   4.064   4.117   2.620
 8155TIP3   OH224421   3.817   6.437   0.640
 8155TIP3    H124422   3.722   6.433   0.629
 8155TIP3    H224423   3.851   6.373   0.577
 8156TIP3   OH224424   0.382   0.635   0.979
 8156TIP3    H124425   0.460   0.686   1.000
 8156TIP3    H224426   0.315   0.700   0.960
 8157TIP3   OH224427   0.530   0.101   0.158
 8157TIP3    H124428   0.563   0.067   0.241
 8157TIP3    H224429   0.593   0.169   0.132
 8158TIP3   OH224430   6.270   2.420   0.997
 8158TIP3    H124431   6.183   2.449   0.968
 8158TIP3    H224432   6.311   2.383   0.919
 8159TIP3   OH224433   0.344   0.161   4.766
 8159TIP3    H124434   0.413   0.105   4.732
 8159TIP3    H224435   0.375   0.250   4.751
 8160TIP3   OH224436   2.422   4.461   4.868
 8160TIP3    H124437   2.452   4.468   4.777
 8160TIP3    H224438   2.339   4.414   4.862
 8161TIP3   OH224439   2.648   3.815   0.051
 8161TIP3    H124440   2.623   3.905   0.073
 8161TIP3    H224441   2.646   3.812  -0.044
 8162TIP3   OH224442   0.111   0.643   0.110
 8162TIP3    H124443   0.163   0.723   0.107
 8162TIP3    H224444   0.081   0.630   0.021
 8163TIP3   OH224445   6.042   5.058   1.093
 8163TIP3    H124446   6.128   5.017   1.102
 8163TIP3    H224447   6.060   5.152   1.092
 8164TIP3   OH224448   0.428   6.360   1.970
 8164TIP3    H124449   0.522   6.364   1.989
 8164TIP3    H224450   0.386   6.380   2.054
 8165TIP3   OH224451   3.582   2.948   5.924
 8165TIP3    H124452   3.493   2.951   5.959
 8165TIP3    H224453   3.599   2.855   5.910
 8166TIP3   OH224454   7.462   5.546   5.242
 8166TIP3    H124455   7.557   5.544   5.244
 8166TIP3    H224456   7.435   5.476   5.301
 8167TIP3   OH224457   6.530   6.911   2.342
 8167TIP3    H124458   6.603   6.933   2.284
 8167TIP3    H224459   6.486   6.838   2.298
 8168TIP3   OH224460   6.101   2.164   4.697
 8168TIP3    H124461   6.068   2.099   4.635
 8168TIP3    H224462   6.194   2.171   4.676
 8169TIP3   OH224463   1.996   5.719   1.925
 8169TIP3    H124464   2.087   5.728   1.954
 8169TIP3    H224465   1.964   5.809   1.921
 8170TIP3   OH224466   3.674   2.854   1.063
 8170TIP3    H124467   3.706   2.781   1.116
 8170TIP3    H224468   3.741   2.866   0.996
 8171TIP3   OH224469   5.699   3.555   2.677
 8171TIP3    H124470   5.647   3.539   2.598
 8171TIP3    H224471   5.652   3.508   2.746
 8172TIP3   OH224472   3.002   1.250   5.158
 8172TIP3    H124473   2.997   1.301   5.239
 8172TIP3    H224474   3.095   1.236   5.143
 8173TIP3   OH224475   3.510   7.261   6.239
 8173TIP3    H124476   3.440   7.213   6.284
 8173TIP3    H224477   3.475   7.349   6.229
 8174TIP3   OH224478   6.979   4.463   1.538
 8174TIP3    H124479   6.936   4.457   1.624
 8174TIP3    H224480   6.936   4.396   1.486
 8175TIP3   OH224481   2.932   1.946   4.343
 8175TIP3    H124482   2.938   2.022   4.285
 8175TIP3    H224483   3.020   1.906   4.339
 8176TIP3   OH224484   0.356   5.013   4.114
 8176TIP3    H124485   0.315   4.933   4.147
 8176TIP3    H224486   0.305   5.084   4.155
 8177TIP3   OH224487   4.694   0.486   5.602
 8177TIP3    H124488   4.710   0.392   5.592
 8177TIP3    H224489   4.741   0.509   5.682
 8178TIP3   OH224490   5.259   5.117   6.430
 8178TIP3    H124491   5.166   5.125   6.452
 8178TIP3    H224492   5.260   5.090   6.338
 8179TIP3   OH224493   5.877   2.579   4.909
 8179TIP3    H124494   5.904   2.505   4.856
 8179TIP3    H224495   5.824   2.633   4.850
 8180TIP3   OH224496   1.449   5.003   6.263
 8180TIP3    H124497   1.509   5.026   6.192
 8180TIP3    H224498   1.405   4.924   6.233
 8181TIP3   OH224499   3.765   0.105   5.444
 8181TIP3    H124500   3.689   0.047   5.437
 8181TIP3    H224501   3.828   0.071   5.381
 8182TIP3   OH224502   0.554   5.410   6.624
 8182TIP3    H124503   0.588   5.321   6.627
 8182TIP3    H224504   0.511   5.417   6.539
 8183TIP3   OH224505   1.335   3.102   4.363
 8183TIP3    H124506   1.335   3.074   4.454
 8183TIP3    H224507   1.427   3.114   4.341
 8184TIP3   OH224508   7.372   0.202   1.082
 8184TIP3    H124509   7.334   0.114   1.079
 8184TIP3    H224510   7.417   0.205   1.167
 8185TIP3   OH224511   5.847   3.934   1.655
 8185TIP3    H124512   5.820   3.850   1.692
 8185TIP3    H224513   5.932   3.916   1.613
 8186TIP3   OH224514   6.624   2.966   0.580
 8186TIP3    H124515   6.666   2.880   0.581
 8186TIP3    H224516   6.568   2.965   0.503
 8187TIP3   OH224517   7.524   4.850   1.844
 8187TIP3    H124518   7.455   4.784   1.834
 8187TIP3    H224519   7.569   4.827   1.924
 8188TIP3   OH224520   1.661   5.126   5.344
 8188TIP3    H124521   1.744   5.079   5.352
 8188TIP3    H224522   1.659   5.156   5.253
 8189TIP3   OH224523   3.506   2.879   5.629
 8189TIP3    H124524   3.511   2.974   5.624
 8189TIP3    H224525   3.556   2.856   5.707
 8190TIP3   OH224526   1.964   7.127   5.022
 8190TIP3    H124527   1.954   7.033   5.010
 8190TIP3    H224528   1.951   7.164   4.935
 8191TIP3   OH224529   6.248   0.236   4.266
 8191TIP3    H124530   6.259   0.267   4.176
 8191TIP3    H224531   6.209   0.311   4.312
 8192TIP3   OH224532   7.566   6.103   3.619
 8192TIP3    H124533   7.614   6.020   3.621
 8192TIP3    H224534   7.589   6.143   3.535
 8193TIP3   OH224535   1.824   6.857   6.046
 8193TIP3    H124536   1.812   6.794   6.117
 8193TIP3    H224537   1.835   6.803   5.968
 8194TIP3   OH224538   4.643   4.181   5.963
 8194TIP3    H124539   4.720   4.238   5.959
 8194TIP3    H224540   4.659   4.124   6.038
 8195TIP3   OH224541   6.927   2.446   5.273
 8195TIP3    H124542   6.918   2.358   5.309
 8195TIP3    H224543   6.953   2.433   5.182
 8196TIP3   OH224544   4.599   3.784   0.588
 8196TIP3    H124545   4.524   3.809   0.643
 8196TIP3    H224546   4.647   3.721   0.641
 8197TIP3   OH224547   6.793   1.797   4.424
 8197TIP3    H124548   6.756   1.849   4.352
 8197TIP3    H224549   6.732   1.724   4.435
 8198TIP3   OH224550   1.679   6.456   3.164
 8198TIP3    H124551   1.712   6.518   3.099
 8198TIP3    H224552   1.672   6.373   3.117
 8199TIP3   OH224553   7.204   3.422   6.625
 8199TIP3    H124554   7.137   3.422   6.557
 8199TIP3    H224555   7.283   3.454   6.581
 8200TIP3   OH224556   3.480   7.574   1.721
 8200TIP3    H124557   3.505   7.535   1.637
 8200TIP3    H224558   3.479   7.668   1.704
 8201TIP3   OH224559   5.223   5.350   0.998
 8201TIP3    H124560   5.164   5.423   1.019
 8201TIP3    H224561   5.226   5.299   1.079
 8202TIP3   OH224562   4.496   6.854   2.243
 8202TIP3    H124563   4.572   6.797   2.238
 8202TIP3    H224564   4.421   6.795   2.244
 8203TIP3   OH224565   1.553   1.899   4.496
 8203TIP3    H124566   1.593   1.969   4.548
 8203TIP3    H224567   1.623   1.867   4.440
 8204TIP3   OH224568   6.294   5.311   4.627
 8204TIP3    H124569   6.241   5.232   4.640
 8204TIP3    H224570   6.232   5.383   4.640
 8205TIP3   OH224571   3.864   2.386   5.024
 8205TIP3    H124572   3.856   2.305   4.973
 8205TIP3    H224573   3.957   2.408   5.019
 8206TIP3   OH224574   5.858   6.677   2.405
 8206TIP3    H124575   5.889   6.624   2.331
 8206TIP3    H224576   5.886   6.628   2.483
 8207TIP3   OH224577   0.566   5.459   3.401
 8207TIP3    H124578   0.648   5.504   3.420
 8207TIP3    H224579   0.532   5.502   3.323
 8208TIP3   OH224580   5.124   5.174   3.728
 8208TIP3    H124581   5.163   5.211   3.649
 8208TIP3    H224582   5.194   5.180   3.794
 8209TIP3   OH224583   1.445   4.255   4.055
 8209TIP3    H124584   1.378   4.313   4.090
 8209TIP3    H224585   1.395   4.182   4.016
 8210TIP3   OH224586   2.711   1.883   5.597
 8210TIP3    H124587   2.646   1.927   5.652
 8210TIP3    H224588   2.667   1.869   5.513
 8211TIP3   OH224589   5.000   3.970   5.150
 8211TIP3    H124590   4.984   4.060   5.122
 8211TIP3    H224591   4.913   3.936   5.171
 8212TIP3   OH224592   2.688   3.467   0.617
 8212TIP3    H124593   2.666   3.383   0.577
 8212TIP3    H224594   2.772   3.451   0.660
 8213TIP3   OH224595   5.739   1.128   5.383
 8213TIP3    H124596   5.678   1.198   5.405
 8213TIP3    H224597   5.768   1.148   5.294
 8214TIP3   OH224598   4.048   5.692   1.055
 8214TIP3    H124599   3.998   5.652   1.126
 8214TIP3    H224600   4.004   5.776   1.039
 8215TIP3   OH224601   1.159   7.290   1.971
 8215TIP3    H124602   1.245   7.267   1.935
 8215TIP3    H224603   1.178   7.324   2.058
 8216TIP3   OH224604   2.323   2.719   6.436
 8216TIP3    H124605   2.274   2.675   6.367
 8216TIP3    H224606   2.405   2.670   6.443
 8217TIP3   OH224607   1.274   4.835   4.320
 8217TIP3    H124608   1.334   4.909   4.306
 8217TIP3    H224609   1.220   4.863   4.395
 8218TIP3   OH224610   6.394   4.008   3.225
 8218TIP3    H124611   6.379   4.056   3.143
 8218TIP3    H224612   6.306   3.993   3.260
 8219TIP3   OH224613   5.632   1.429   1.408
 8219TIP3    H124614   5.666   1.471   1.329
 8219TIP3    H224615   5.556   1.379   1.377
 8220TIP3   OH224616   2.455   6.105   2.360
 8220TIP3    H124617   2.419   6.191   2.336
 8220TIP3    H224618   2.505   6.077   2.283
 8221TIP3   OH224619   3.252   6.224   4.451
 8221TIP3    H124620   3.317   6.153   4.455
 8221TIP3    H224621   3.170   6.183   4.480
 8222TIP3   OH224622   5.648   6.506   5.610
 8222TIP3    H124623   5.620   6.597   5.623
 8222TIP3    H224624   5.567   6.457   5.601
 8223TIP3   OH224625   7.775   7.071   5.208
 8223TIP3    H124626   7.861   7.082   5.167
 8223TIP3    H224627   7.751   7.159   5.239
 8224TIP3   OH224628   0.797   7.594   0.699
 8224TIP3    H124629   0.812   7.686   0.677
 8224TIP3    H224630   0.874   7.549   0.665
 8225TIP3   OH224631   1.337   6.835   2.677
 8225TIP3    H124632   1.248   6.838   2.642
 8225TIP3    H224633   1.392   6.871   2.608
 8226TIP3   OH224634   4.876   7.657   5.415
 8226TIP3    H124635   4.925   7.706   5.349
 8226TIP3    H224636   4.788   7.694   5.412
 8227TIP3   OH224637   7.110   5.097   3.423
 8227TIP3    H124638   7.121   5.094   3.328
 8227TIP3    H224639   7.032   5.150   3.436
 8228TIP3   OH224640   1.553   7.544   4.092
 8228TIP3    H124641   1.590   7.517   4.177
 8228TIP3    H224642   1.616   7.606   4.057
 8229TIP3   OH224643   1.633   0.042   1.692
 8229TIP3    H124644   1.561   0.001   1.741
 8229TIP3    H224645   1.590   0.092   1.623
 8230TIP3   OH224646   6.052   3.955   1.092
 8230TIP3    H124647   6.080   3.939   1.182
 8230TIP3    H224648   6.002   4.037   1.097
 8231TIP3   OH224649   8.185   6.211   2.120
 8231TIP3    H124650   8.147   6.255   2.044
 8231TIP3    H224651   8.154   6.121   2.114
 8232TIP3   OH224652   2.415   7.623   2.258
 8232TIP3    H124653   2.371   7.687   2.314
 8232TIP3    H224654   2.477   7.676   2.207
 8233TIP3   OH224655   3.816   1.556   1.788
 8233TIP3    H124656   3.781   1.568   1.877
 8233TIP3    H224657   3.889   1.496   1.800
 8234TIP3   OH224658   7.193   2.576   6.621
 8234TIP3    H124659   7.204   2.564   6.715
 8234TIP3    H224660   7.114   2.525   6.599
 8235TIP3   OH224661   2.732   5.268   0.667
 8235TIP3    H124662   2.679   5.189   0.672
 8235TIP3    H224663   2.700   5.324   0.738
 8236TIP3   OH224664   7.658   1.650   5.479
 8236TIP3    H124665   7.665   1.633   5.385
 8236TIP3    H224666   7.665   1.564   5.519
 8237TIP3   OH224667   7.475   2.456   1.013
 8237TIP3    H124668   7.417   2.423   0.944
 8237TIP3    H224669   7.427   2.442   1.094
 8238TIP3   OH224670   5.344   7.459   1.958
 8238TIP3    H124671   5.361   7.462   2.052
 8238TIP3    H224672   5.404   7.523   1.920
 8239TIP3   OH224673   3.707   6.201   6.027
 8239TIP3    H124674   3.674   6.243   5.948
 8239TIP3    H224675   3.791   6.244   6.044
 8240TIP3   OH224676   6.135   5.666   1.259
 8240TIP3    H124677   6.187   5.585   1.266
 8240TIP3    H224678   6.111   5.670   1.166
 8241TIP3   OH224679   5.511   4.591   1.351
 8241TIP3    H124680   5.474   4.629   1.271
 8241TIP3    H224681   5.581   4.652   1.376
 8242TIP3   OH224682   0.776   3.390   1.827
 8242TIP3    H124683   0.711   3.420   1.763
 8242TIP3    H224684   0.732   3.321   1.876
 8243TIP3   OH224685   3.313   7.408   2.311
 8243TIP3    H124686   3.235   7.442   2.267
 8243TIP3    H224687   3.303   7.435   2.402
 8244TIP3   OH224688   0.875   6.652   3.086
 8244TIP3    H124689   0.924   6.569   3.083
 8244TIP3    H224690   0.816   6.641   3.161
 8245TIP3   OH224691   0.564   0.053   4.651
 8245TIP3    H124692   0.622   0.057   4.575
 8245TIP3    H224693   0.595  -0.022   4.701
 8246TIP3   OH224694   2.998   7.126   5.646
 8246TIP3    H124695   2.956   7.040   5.654
 8246TIP3    H224696   2.950   7.169   5.575
 8247TIP3   OH224697   2.939   3.816   1.096
 8247TIP3    H124698   2.942   3.910   1.113
 8247TIP3    H224699   3.019   3.781   1.136
 8248TIP3   OH224700   5.191   7.137   4.634
 8248TIP3    H124701   5.206   7.225   4.599
 8248TIP3    H224702   5.234   7.138   4.719
 8249TIP3   OH224703   3.948   7.123   4.917
 8249TIP3    H124704   3.978   7.205   4.956
 8249TIP3    H224705   4.027   7.070   4.910
 8250TIP3   OH224706   7.103   7.711   4.377
 8250TIP3    H124707   7.059   7.627   4.384
 8250TIP3    H224708   7.033   7.774   4.361
 8251TIP3   OH224709   3.539   1.193   5.274
 8251TIP3    H124710   3.594   1.142   5.215
 8251TIP3    H224711   3.535   1.142   5.354
 8252TIP3   OH224712   8.270   0.879   6.628
 8252TIP3    H124713   8.176   0.890   6.612
 8252TIP3    H224714   8.310   0.884   6.541
 8253TIP3   OH224715   1.902   1.519   6.218
 8253TIP3    H124716   1.989   1.559   6.220
 8253TIP3    H224717   1.855   1.565   6.148
 8254TIP3   OH224718   0.511   4.265   5.309
 8254TIP3    H124719   0.564   4.236   5.235
 8254TIP3    H224720   0.553   4.224   5.385
 8255TIP3   OH224721   7.214   0.533   2.848
 8255TIP3    H124722   7.306   0.551   2.864
 8255TIP3    H224723   7.185   0.482   2.924
 8256TIP3   OH224724   0.096   4.465   3.663
 8256TIP3    H124725   0.083   4.371   3.647
 8256TIP3    H224726   0.073   4.506   3.579
 8257TIP3   OH224727   4.002   3.797   2.328
 8257TIP3    H124728   4.013   3.795   2.233
 8257TIP3    H224729   3.928   3.855   2.343
 8258TIP3   OH224730   0.990   0.856   2.825
 8258TIP3    H124731   0.923   0.801   2.785
 8258TIP3    H224732   1.022   0.806   2.900
 8259TIP3   OH224733   2.789   2.010   4.901
 8259TIP3    H124734   2.789   1.914   4.905
 8259TIP3    H224735   2.704   2.033   4.862
 8260TIP3   OH224736   4.696   6.121   0.826
 8260TIP3    H124737   4.689   6.178   0.903
 8260TIP3    H224738   4.632   6.052   0.842
 8261TIP3   OH224739   2.456   4.505   3.256
 8261TIP3    H124740   2.519   4.498   3.184
 8261TIP3    H224741   2.489   4.578   3.310
 8262TIP3   OH224742  -0.019   2.392   2.329
 8262TIP3    H124743   0.028   2.367   2.409
 8262TIP3    H224744   0.049   2.421   2.268
 8263TIP3   OH224745   8.007   1.831   3.292
 8263TIP3    H124746   8.052   1.814   3.374
 8263TIP3    H224747   8.050   1.774   3.228
 8264TIP3   OH224748   7.290   0.138   4.660
 8264TIP3    H124749   7.206   0.096   4.679
 8264TIP3    H224750   7.335   0.140   4.744
 8265TIP3   OH224751   1.571   0.009   3.022
 8265TIP3    H124752   1.639  -0.040   2.977
 8265TIP3    H224753   1.576   0.097   2.985
 8266TIP3   OH224754   6.214   2.624   6.082
 8266TIP3    H124755   6.231   2.549   6.025
 8266TIP3    H224756   6.206   2.698   6.021
 8267TIP3   OH224757   6.007   2.280   1.081
 8267TIP3    H124758   5.931   2.306   1.134
 8267TIP3    H224759   5.986   2.311   0.993
 8268TIP3   OH224760   3.122   6.807   1.427
 8268TIP3    H124761   3.207   6.850   1.437
 8268TIP3    H224762   3.063   6.876   1.398
 8269TIP3   OH224763   0.788   4.330   4.129
 8269TIP3    H124764   0.826   4.350   4.043
 8269TIP3    H224765   0.728   4.257   4.111
 8270TIP3   OH224766   7.677   5.635   4.907
 8270TIP3    H124767   7.750   5.607   4.853
 8270TIP3    H224768   7.599   5.599   4.865
 8271TIP3   OH224769   4.075   0.170   2.221
 8271TIP3    H124770   4.060   0.251   2.270
 8271TIP3    H224771   4.150   0.130   2.264
 8272TIP3   OH224772   1.417   5.470   6.507
 8272TIP3    H124773   1.451   5.383   6.486
 8272TIP3    H224774   1.414   5.516   6.423
 8273TIP3   OH224775   6.891   7.166   4.802
 8273TIP3    H124776   6.879   7.256   4.831
 8273TIP3    H224777   6.985   7.157   4.787
 8274TIP3   OH224778   8.024   7.505   4.112
 8274TIP3    H124779   8.010   7.551   4.030
 8274TIP3    H224780   7.979   7.421   4.101
 8275TIP3   OH224781   2.051   1.178   6.417
 8275TIP3    H124782   1.994   1.104   6.396
 8275TIP3    H224783   2.022   1.205   6.504
 8276TIP3   OH224784   4.287   2.814   2.483
 8276TIP3    H124785   4.266   2.861   2.563
 8276TIP3    H224786   4.382   2.799   2.488
 8277TIP3   OH224787   3.850   1.966   3.535
 8277TIP3    H124788   3.820   1.930   3.619
 8277TIP3    H224789   3.773   2.010   3.499
 8278TIP3   OH224790   1.830   5.654   3.213
 8278TIP3    H124791   1.742   5.622   3.231
 8278TIP3    H224792   1.883   5.619   3.284
 8279TIP3   OH224793   4.707   0.063   2.159
 8279TIP3    H124794   4.716   0.146   2.206
 8279TIP3    H224795   4.685   0.000   2.227
 8280TIP3   OH224796   1.781   6.009   3.169
 8280TIP3    H124797   1.750   6.097   3.189
 8280TIP3    H224798   1.873   6.021   3.145
 8281TIP3   OH224799   2.136   1.974   3.472
 8281TIP3    H124800   2.045   1.987   3.448
 8281TIP3    H224801   2.176   1.935   3.394
 8282TIP3   OH224802   4.581   5.226   5.603
 8282TIP3    H124803   4.575   5.318   5.629
 8282TIP3    H224804   4.532   5.221   5.521
 8283TIP3   OH224805   7.846   0.569   1.984
 8283TIP3    H124806   7.844   0.475   1.966
 8283TIP3    H224807   7.807   0.610   1.906
 8284TIP3   OH224808   3.554   7.528   6.768
 8284TIP3    H124809   3.570   7.475   6.689
 8284TIP3    H224810   3.624   7.594   6.767
 8285TIP3   OH224811   7.922   3.054   0.719
 8285TIP3    H124812   7.833   3.032   0.691
 8285TIP3    H224813   7.911   3.121   0.787
 8286TIP3   OH224814   0.285   2.174   3.397
 8286TIP3    H124815   0.274   2.090   3.352
 8286TIP3    H224816   0.227   2.169   3.473
 8287TIP3   OH224817   4.811   5.500   1.638
 8287TIP3    H124818   4.756   5.538   1.707
 8287TIP3    H224819   4.796   5.406   1.644
 8288TIP3   OH224820   6.609   6.396   4.669
 8288TIP3    H124821   6.590   6.443   4.588
 8288TIP3    H224822   6.703   6.405   4.681
 8289TIP3   OH224823   0.213   1.507   2.539
 8289TIP3    H124824   0.144   1.573   2.539
 8289TIP3    H224825   0.237   1.499   2.632
 8290TIP3   OH224826   3.411   4.621   4.451
 8290TIP3    H124827   3.331   4.633   4.399
 8290TIP3    H224828   3.434   4.709   4.480
 8291TIP3   OH224829   5.090   6.531   6.503
 8291TIP3    H124830   5.088   6.485   6.587
 8291TIP3    H224831   5.052   6.468   6.441
 8292TIP3   OH224832   0.440   3.691   1.288
 8292TIP3    H124833   0.350   3.661   1.304
 8292TIP3    H224834   0.494   3.613   1.298
 8293TIP3   OH224835   8.147   6.586   4.849
 8293TIP3    H124836   8.227   6.541   4.823
 8293TIP3    H224837   8.176   6.674   4.874
 8294TIP3   OH224838   7.448   6.696   6.017
 8294TIP3    H124839   7.369   6.720   6.066
 8294TIP3    H224840   7.508   6.769   6.032
 8295TIP3   OH224841   1.221   2.275   0.260
 8295TIP3    H124842   1.185   2.222   0.189
 8295TIP3    H224843   1.313   2.287   0.236
 8296TIP3   OH224844   3.200   0.626   3.593
 8296TIP3    H124845   3.201   0.685   3.668
 8296TIP3    H224846   3.151   0.674   3.526
 8297TIP3   OH224847   7.738   5.314   3.225
 8297TIP3    H124848   7.748   5.407   3.205
 8297TIP3    H224849   7.754   5.269   3.143
 8298TIP3   OH224850   3.461   0.990   5.933
 8298TIP3    H124851   3.403   0.960   6.003
 8298TIP3    H224852   3.547   1.000   5.975
 8299TIP3   OH224853   7.233   4.590   0.154
 8299TIP3    H124854   7.304   4.634   0.106
 8299TIP3    H224855   7.266   4.582   0.243
 8300TIP3   OH224856   5.670   7.074   5.708
 8300TIP3    H124857   5.666   7.166   5.735
 8300TIP3    H224858   5.592   7.034   5.746
 8301TIP3   OH224859   1.016   7.463   0.561
 8301TIP3    H124860   0.981   7.529   0.501
 8301TIP3    H224861   1.103   7.444   0.526
 8302TIP3   OH224862   4.255   5.590   4.381
 8302TIP3    H124863   4.256   5.617   4.289
 8302TIP3    H224864   4.222   5.500   4.380
 8303TIP3   OH224865   6.104   0.403   2.894
 8303TIP3    H124866   6.130   0.384   2.803
 8303TIP3    H224867   6.082   0.496   2.893
 8304TIP3   OH224868   1.298   2.668   6.051
 8304TIP3    H124869   1.308   2.696   6.142
 8304TIP3    H224870   1.373   2.610   6.036
 8305TIP3   OH224871   4.826   0.329   6.580
 8305TIP3    H124872   4.899   0.276   6.611
 8305TIP3    H224873   4.793   0.373   6.658
 8306TIP3   OH224874   6.393   7.397   2.095
 8306TIP3    H124875   6.339   7.349   2.157
 8306TIP3    H224876   6.479   7.355   2.102
 8307TIP3   OH224877   3.940   6.985   6.105
 8307TIP3    H124878   3.949   6.975   6.010
 8307TIP3    H224879   3.918   6.897   6.136
 8308TIP3   OH224880   5.437   0.026   6.031
 8308TIP3    H124881   5.378   0.080   6.084
 8308TIP3    H224882   5.520   0.028   6.078
 8309TIP3   OH224883   3.036   3.286   5.567
 8309TIP3    H124884   3.001   3.212   5.517
 8309TIP3    H224885   2.982   3.360   5.540
 8310TIP3   OH224886   5.204   5.202   1.228
 8310TIP3    H124887   5.242   5.274   1.277
 8310TIP3    H224888   5.109   5.212   1.240
 8311TIP3   OH224889   0.847   5.466   4.179
 8311TIP3    H124890   0.911   5.397   4.194
 8311TIP3    H224891   0.779   5.424   4.126
 8312TIP3   OH224892   2.124   4.935   2.733
 8312TIP3    H124893   2.099   5.018   2.692
 8312TIP3    H224894   2.220   4.939   2.738
 8313TIP3   OH224895   1.880   0.759   4.899
 8313TIP3    H124896   1.886   0.854   4.902
 8313TIP3    H224897   1.854   0.734   4.988
 8314TIP3   OH224898   0.945   6.890   4.906
 8314TIP3    H124899   0.961   6.857   4.817
 8314TIP3    H224900   0.942   6.985   4.896
 8315TIP3   OH224901   5.231   6.608   1.052
 8315TIP3    H124902   5.282   6.667   1.107
 8315TIP3    H224903   5.196   6.543   1.113
 8316TIP3   OH224904   7.750   2.412   3.889
 8316TIP3    H124905   7.719   2.489   3.936
 8316TIP3    H224906   7.672   2.358   3.876
 8317TIP3   OH224907   0.338   5.904   1.363
 8317TIP3    H124908   0.293   5.897   1.279
 8317TIP3    H224909   0.363   5.996   1.369
 8318TIP3   OH224910   5.629   6.922   4.442
 8318TIP3    H124911   5.619   7.017   4.441
 8318TIP3    H224912   5.681   6.903   4.363
 8319TIP3   OH224913   0.233   7.610   4.294
 8319TIP3    H124914   0.168   7.603   4.224
 8319TIP3    H224915   0.213   7.537   4.353
 8320TIP3   OH224916   7.501   0.824   6.720
 8320TIP3    H124917   7.590   0.849   6.747
 8320TIP3    H224918   7.494   0.732   6.746
 8321TIP3   OH224919   4.005   0.637   2.248
 8321TIP3    H124920   4.032   0.710   2.193
 8321TIP3    H224921   3.959   0.578   2.189
 8322TIP3   OH224922   1.977   4.470   0.674
 8322TIP3    H124923   1.937   4.556   0.689
 8322TIP3    H224924   1.906   4.417   0.637
 8323TIP3   OH224925   3.241   2.923   2.276
 8323TIP3    H124926   3.285   2.839   2.291
 8323TIP3    H224927   3.228   2.959   2.364
 8324TIP3   OH224928   6.021   1.958   4.506
 8324TIP3    H124929   5.927   1.956   4.525
 8324TIP3    H224930   6.036   1.883   4.448
 8325TIP3   OH224931   0.793   6.531   6.096
 8325TIP3    H124932   0.812   6.442   6.068
 8325TIP3    H224933   0.832   6.586   6.029
 8326TIP3   OH224934   6.738   1.117   0.244
 8326TIP3    H124935   6.762   1.204   0.277
 8326TIP3    H224936   6.644   1.124   0.226
 8327TIP3   OH224937   5.077   2.742   5.782
 8327TIP3    H124938   5.018   2.684   5.734
 8327TIP3    H224939   5.048   2.736   5.873
 8328TIP3   OH224940   5.491   1.865   6.109
 8328TIP3    H124941   5.446   1.844   6.191
 8328TIP3    H224942   5.556   1.796   6.099
 8329TIP3   OH224943   3.340   4.600   3.495
 8329TIP3    H124944   3.349   4.512   3.458
 8329TIP3    H224945   3.343   4.659   3.419
 8330TIP3   OH224946   5.670   6.136   3.015
 8330TIP3    H124947   5.754   6.096   3.033
 8330TIP3    H224948   5.652   6.190   3.092
 8331TIP3   OH224949   6.190   5.055   2.220
 8331TIP3    H124950   6.268   5.094   2.180
 8331TIP3    H224951   6.144   5.128   2.261
 8332TIP3   OH224952   0.518   0.446   5.085
 8332TIP3    H124953   0.561   0.485   5.009
 8332TIP3    H224954   0.569   0.479   5.160
 8333TIP3   OH224955   0.865   3.579   5.790
 8333TIP3    H124956   0.834   3.488   5.790
 8333TIP3    H224957   0.950   3.576   5.746
 8334TIP3   OH224958   7.543   2.262   3.819
 8334TIP3    H124959   7.563   2.170   3.800
 8334TIP3    H224960   7.461   2.278   3.771
 8335TIP3   OH224961   5.399   1.258   6.761
 8335TIP3    H124962   5.386   1.197   6.833
 8335TIP3    H224963   5.471   1.220   6.710
 8336TIP3   OH224964   5.142   0.500   2.816
 8336TIP3    H124965   5.222   0.552   2.814
 8336TIP3    H224966   5.167   0.417   2.856
 8337TIP3   OH224967   6.445   7.191   2.382
 8337TIP3    H124968   6.528   7.238   2.374
 8337TIP3    H224969   6.462   7.105   2.344
 8338TIP3   OH224970   2.240   3.110   5.305
 8338TIP3    H124971   2.274   3.173   5.242
 8338TIP3    H224972   2.243   3.026   5.259
 8339TIP3   OH224973   4.948   7.564   0.938
 8339TIP3    H124974   5.018   7.525   0.886
 8339TIP3    H224975   4.896   7.489   0.967
 8340TIP3   OH224976   2.482   6.947   0.516
 8340TIP3    H124977   2.389   6.944   0.540
 8340TIP3    H224978   2.519   6.865   0.550
 8341TIP3   OH224979   1.061   3.084   1.704
 8341TIP3    H124980   1.110   3.018   1.655
 8341TIP3    H224981   0.979   3.095   1.654
 8342TIP3   OH224982   5.047   7.585   5.862
 8342TIP3    H124983   5.112   7.516   5.853
 8342TIP3    H224984   4.974   7.558   5.806
 8343TIP3   OH224985   3.755   3.553   6.568
 8343TIP3    H124986   3.759   3.505   6.651
 8343TIP3    H224987   3.822   3.513   6.513
 8344TIP3   OH224988   6.808   1.157   5.843
 8344TIP3    H124989   6.799   1.063   5.861
 8344TIP3    H224990   6.762   1.170   5.760
 8345TIP3   OH224991   7.444   7.204   6.281
 8345TIP3    H124992   7.529   7.160   6.279
 8345TIP3    H224993   7.458   7.285   6.232
 8346TIP3   OH224994   1.712   1.314   1.389
 8346TIP3    H124995   1.754   1.272   1.464
 8346TIP3    H224996   1.738   1.406   1.396
 8347TIP3   OH224997   0.371   7.089   0.449
 8347TIP3    H124998   0.359   7.134   0.365
 8347TIP3    H224999   0.454   7.042   0.439
 8348TIP3   OH225000   4.299   1.905   5.351
 8348TIP3    H125001   4.365   1.855   5.399
 8348TIP3    H225002   4.338   1.923   5.266
 8349TIP3   OH225003   5.496   4.099   2.226
 8349TIP3    H125004   5.491   4.015   2.271
 8349TIP3    H225005   5.405   4.119   2.202
 8350TIP3   OH225006   8.211   7.336   0.539
 8350TIP3    H125007   8.258   7.320   0.621
 8350TIP3    H225008   8.150   7.406   0.560
 8351TIP3   OH225009   3.298   0.031   4.677
 8351TIP3    H125010   3.206   0.027   4.650
 8351TIP3    H225011   3.299   0.090   4.752
 8352TIP3   OH225012   7.357   7.314   0.549
 8352TIP3    H125013   7.445   7.321   0.513
 8352TIP3    H225014   7.319   7.238   0.505
 8353TIP3   OH225015   4.702   3.881   2.689
 8353TIP3    H125016   4.631   3.870   2.752
 8353TIP3    H225017   4.749   3.959   2.718
 8354TIP3   OH225018   1.910   3.075   3.313
 8354TIP3    H125019   1.977   3.064   3.380
 8354TIP3    H225020   1.877   2.986   3.297
 8355TIP3   OH225021   1.927   0.619   4.301
 8355TIP3    H125022   2.016   0.629   4.335
 8355TIP3    H225023   1.874   0.601   4.379
 8356TIP3   OH225024   3.670   5.815   2.165
 8356TIP3    H125025   3.631   5.740   2.210
 8356TIP3    H225026   3.626   5.816   2.080
 8357TIP3   OH225027   0.477   7.774   3.535
 8357TIP3    H125028   0.395   7.811   3.568
 8357TIP3    H225029   0.452   7.692   3.494
 8358TIP3   OH225030   5.085   1.299   6.341
 8358TIP3    H125031   4.992   1.277   6.353
 8358TIP3    H225032   5.130   1.253   6.412
 8359TIP3   OH225033   4.280   0.303   2.532
 8359TIP3    H125034   4.356   0.245   2.538
 8359TIP3    H225035   4.315   0.391   2.544
 8360TIP3   OH225036   0.118   7.254   6.725
 8360TIP3    H125037   0.038   7.250   6.778
 8360TIP3    H225038   0.106   7.332   6.670
 8361TIP3   OH225039   6.450   0.336   2.829
 8361TIP3    H125040   6.432   0.386   2.749
 8361TIP3    H225041   6.543   0.348   2.844
 8362TIP3   OH225042   7.829   7.188   1.795
 8362TIP3    H125043   7.871   7.170   1.711
 8362TIP3    H225044   7.860   7.118   1.853
 8363TIP3   OH225045   7.416   0.051   6.713
 8363TIP3    H125046   7.423   0.144   6.692
 8363TIP3    H225047   7.482   0.036   6.781
 8364TIP3   OH225048   6.382   6.520   3.421
 8364TIP3    H125049   6.381   6.496   3.329
 8364TIP3    H225050   6.461   6.478   3.456
 8365TIP3   OH225051   0.805   5.271   5.565
 8365TIP3    H125052   0.801   5.285   5.470
 8365TIP3    H225053   0.886   5.314   5.592
 8366TIP3   OH225054   5.927   2.616   0.201
 8366TIP3    H125055   6.003   2.674   0.209
 8366TIP3    H225056   5.852   2.675   0.196
 8367TIP3   OH225057   7.712   4.619   5.067
 8367TIP3    H125058   7.784   4.665   5.024
 8367TIP3    H225059   7.735   4.527   5.062
 8368TIP3   OH225060   3.586   6.402   6.322
 8368TIP3    H125061   3.641   6.413   6.244
 8368TIP3    H225062   3.513   6.348   6.291
 8369TIP3   OH225063   1.382   3.402   4.209
 8369TIP3    H125064   1.402   3.457   4.285
 8369TIP3    H225065   1.440   3.326   4.219
 8370TIP3   OH225066   1.156   2.824   2.204
 8370TIP3    H125067   1.202   2.884   2.146
 8370TIP3    H225068   1.081   2.874   2.236
 8371TIP3   OH225069   4.365   3.383   5.720
 8371TIP3    H125070   4.362   3.466   5.672
 8371TIP3    H225071   4.276   3.371   5.752
 8372TIP3   OH225072   2.932   4.632   5.513
 8372TIP3    H125073   2.997   4.613   5.445
 8372TIP3    H225074   2.850   4.598   5.478
 8373TIP3   OH225075   8.084   3.577   6.577
 8373TIP3    H125076   8.092   3.511   6.646
 8373TIP3    H225077   8.150   3.643   6.601
 8374TIP3   OH225078   2.862   1.884   2.680
 8374TIP3    H125079   2.797   1.822   2.713
 8374TIP3    H225080   2.946   1.841   2.694
 8375TIP3   OH225081   6.628   3.259   1.930
 8375TIP3    H125082   6.635   3.185   1.990
 8375TIP3    H225083   6.560   3.315   1.968
 8376TIP3   OH225084   1.586   4.073   0.932
 8376TIP3    H125085   1.503   4.120   0.924
 8376TIP3    H225086   1.592   4.021   0.852
 8377TIP3   OH225087   0.636   3.781   1.125
 8377TIP3    H125088   0.651   3.875   1.136
 8377TIP3    H225089   0.553   3.765   1.171
 8378TIP3   OH225090   6.454   3.643   1.661
 8378TIP3    H125091   6.454   3.738   1.669
 8378TIP3    H225092   6.538   3.622   1.620
 8379TIP3   OH225093   5.738   4.053   3.794
 8379TIP3    H125094   5.770   4.057   3.885
 8379TIP3    H225095   5.657   4.105   3.796
 8380TIP3   OH225096   5.012   4.190   6.633
 8380TIP3    H125097   5.093   4.177   6.584
 8380TIP3    H225098   4.953   4.233   6.570
 8381TIP3   OH225099   3.623   4.754   5.496
 8381TIP3    H125100   3.651   4.665   5.474
 8381TIP3    H225101   3.565   4.780   5.424
 8382TIP3   OH225102   2.698   2.907   4.387
 8382TIP3    H125103   2.727   2.827   4.341
 8382TIP3    H225104   2.603   2.907   4.378
 8383TIP3   OH225105   0.857   6.547   2.376
 8383TIP3    H125106   0.941   6.571   2.413
 8383TIP3    H225107   0.792   6.594   2.429
 8384TIP3   OH225108   5.651   6.819   2.259
 8384TIP3    H125109   5.730   6.785   2.301
 8384TIP3    H225110   5.580   6.792   2.316
 8385TIP3   OH225111   4.500   7.372   4.805
 8385TIP3    H125112   4.553   7.339   4.732
 8385TIP3    H225113   4.548   7.345   4.883
 8386TIP3   OH225114   2.064   7.049   3.610
 8386TIP3    H125115   2.064   7.141   3.639
 8386TIP3    H225116   2.100   7.053   3.522
 8387TIP3   OH225117   4.381   0.960   4.203
 8387TIP3    H125118   4.320   0.892   4.174
 8387TIP3    H225119   4.345   1.041   4.168
 8388TIP3   OH225120   0.268   7.145   4.638
 8388TIP3    H125121   0.344   7.176   4.688
 8388TIP3    H225122   0.306   7.087   4.571
 8389TIP3   OH225123   5.958   4.868   2.277
 8389TIP3    H125124   6.014   4.795   2.302
 8389TIP3    H225125   5.991   4.942   2.328
 8390TIP3   OH225126   6.267   3.588   0.860
 8390TIP3    H125127   6.345   3.539   0.832
 8390TIP3    H225128   6.302   3.662   0.909
 8391TIP3   OH225129   6.821   4.040   3.235
 8391TIP3    H125130   6.822   3.994   3.319
 8391TIP3    H225131   6.892   3.998   3.185
 8392TIP3   OH225132   7.054   6.454   5.826
 8392TIP3    H125133   7.131   6.478   5.773
 8392TIP3    H225134   7.033   6.533   5.875
 8393TIP3   OH225135   3.085   2.046   6.651
 8393TIP3    H125136   3.027   2.109   6.694
 8393TIP3    H225137   3.082   1.968   6.707
 8394TIP3   OH225138   3.380   7.196   4.529
 8394TIP3    H125139   3.286   7.214   4.519
 8394TIP3    H225140   3.405   7.154   4.447
 8395TIP3   OH225141   6.826   3.056   3.358
 8395TIP3    H125142   6.823   2.986   3.423
 8395TIP3    H225143   6.919   3.067   3.340
 8396TIP3   OH225144   3.980   5.316   0.949
 8396TIP3    H125145   4.021   5.330   1.034
 8396TIP3    H225146   3.990   5.222   0.933
 8397TIP3   OH225147   4.461   4.006   5.832
 8397TIP3    H125148   4.498   3.922   5.806
 8397TIP3    H225149   4.530   4.047   5.884
 8398TIP3   OH225150   4.720   6.440   4.188
 8398TIP3    H125151   4.640   6.491   4.197
 8398TIP3    H225152   4.710   6.394   4.104
 8399TIP3   OH225153   5.630   2.421   0.789
 8399TIP3    H125154   5.598   2.494   0.842
 8399TIP3    H225155   5.600   2.343   0.835
 8400TIP3   OH225156   5.962   7.071   4.180
 8400TIP3    H125157   5.991   7.158   4.155
 8400TIP3    H225158   5.881   7.057   4.130
 8401TIP3   OH225159   6.659   5.338   4.108
 8401TIP3    H125160   6.649   5.430   4.132
 8401TIP3    H225161   6.665   5.340   4.012
 8402TIP3   OH225162   1.722   2.413   1.756
 8402TIP3    H125163   1.720   2.497   1.801
 8402TIP3    H225164   1.644   2.367   1.787
 8403TIP3   OH225165   3.279   0.564   1.372
 8403TIP3    H125166   3.221   0.635   1.346
 8403TIP3    H225167   3.366   0.593   1.345
 8404TIP3   OH225168   8.034   4.398   0.183
 8404TIP3    H125169   7.957   4.341   0.191
 8404TIP3    H225170   8.079   4.389   0.267
 8405TIP3   OH225171   5.218   2.283   5.412
 8405TIP3    H125172   5.222   2.368   5.456
 8405TIP3    H225173   5.140   2.241   5.449
 8406TIP3   OH225174   0.989   6.628   2.609
 8406TIP3    H125175   1.026   6.649   2.695
 8406TIP3    H225176   1.044   6.675   2.547
 8407TIP3   OH225177   0.432   6.282   5.464
 8407TIP3    H125178   0.391   6.305   5.381
 8407TIP3    H225179   0.388   6.202   5.492
 8408TIP3   OH225180   7.625   2.102   4.354
 8408TIP3    H125181   7.594   2.047   4.282
 8408TIP3    H225182   7.610   2.192   4.324
 8409TIP3   OH225183   2.873   2.350   1.743
 8409TIP3    H125184   2.813   2.284   1.779
 8409TIP3    H225185   2.933   2.299   1.688
 8410TIP3   OH225186   0.142   6.487   0.435
 8410TIP3    H125187   0.208   6.419   0.430
 8410TIP3    H225188   0.101   6.476   0.521
 8411TIP3   OH225189   0.272   2.412   4.818
 8411TIP3    H125190   0.357   2.405   4.776
 8411TIP3    H225191   0.266   2.504   4.845
 8412TIP3   OH225192   0.042   3.104   1.108
 8412TIP3    H125193   0.089   3.060   1.179
 8412TIP3    H225194  -0.011   3.170   1.151
 8413TIP3   OH225195   0.404   6.761   1.513
 8413TIP3    H125196   0.402   6.848   1.553
 8413TIP3    H225197   0.328   6.716   1.551
 8414TIP3   OH225198   4.072   7.161   6.259
 8414TIP3    H125199   4.116   7.229   6.207
 8414TIP3    H225200   4.030   7.105   6.193
 8415TIP3   OH225201   3.837   5.104   4.696
 8415TIP3    H125202   3.918   5.054   4.686
 8415TIP3    H225203   3.808   5.086   4.785
 8416TIP3   OH225204   8.107   5.002   2.169
 8416TIP3    H125205   8.065   4.948   2.102
 8416TIP3    H225206   8.035   5.027   2.228
 8417TIP3   OH225207   5.587   5.197   2.466
 8417TIP3    H125208   5.654   5.165   2.526
 8417TIP3    H225209   5.562   5.283   2.502
 8418TIP3   OH225210   6.916   0.242   1.347
 8418TIP3    H125211   6.831   0.283   1.330
 8418TIP3    H225212   6.895   0.163   1.396
 8419TIP3   OH225213   1.607   5.876   1.681
 8419TIP3    H125214   1.536   5.880   1.745
 8419TIP3    H225215   1.647   5.791   1.695
 8420TIP3   OH225216   2.060   1.101   1.532
 8420TIP3    H125217   2.000   1.167   1.568
 8420TIP3    H225218   2.032   1.090   1.441
 8421TIP3   OH225219   2.644   0.103   3.222
 8421TIP3    H125220   2.714   0.056   3.267
 8421TIP3    H225221   2.567   0.046   3.230
 8422TIP3   OH225222   7.013   3.901   3.108
 8422TIP3    H125223   7.106   3.917   3.096
 8422TIP3    H225224   7.008   3.819   3.157
 8423TIP3   OH225225   1.949   2.236   5.750
 8423TIP3    H125226   1.940   2.143   5.770
 8423TIP3    H225227   1.934   2.241   5.656
 8424TIP3   OH225228   3.073   0.283   4.952
 8424TIP3    H125229   3.102   0.372   4.934
 8424TIP3    H225230   3.005   0.265   4.887
 8425TIP3   OH225231   1.036   6.288   1.759
 8425TIP3    H125232   0.985   6.303   1.679
 8425TIP3    H225233   1.127   6.293   1.730
 8426TIP3   OH225234   8.080   6.342   3.608
 8426TIP3    H125235   8.030   6.269   3.645
 8426TIP3    H225236   8.144   6.300   3.550
 8427TIP3   OH225237   4.134   5.563   3.575
 8427TIP3    H125238   4.173   5.541   3.490
 8427TIP3    H225239   4.063   5.501   3.587
 8428TIP3   OH225240   5.636   4.415   5.305
 8428TIP3    H125241   5.587   4.473   5.364
 8428TIP3    H225242   5.719   4.399   5.351
 8429TIP3   OH225243   2.979   2.642   6.557
 8429TIP3    H125244   3.024   2.558   6.551
 8429TIP3    H225245   2.986   2.667   6.649
 8430TIP3   OH225246   8.177   4.018   3.741
 8430TIP3    H125247   8.212   3.955   3.805
 8430TIP3    H225248   8.139   3.964   3.672
 8431TIP3   OH225249   8.220   4.449   6.375
 8431TIP3    H125250   8.231   4.402   6.292
 8431TIP3    H225251   8.259   4.535   6.359
 8432TIP3   OH225252   3.399   3.518   0.709
 8432TIP3    H125253   3.371   3.551   0.624
 8432TIP3    H225254   3.478   3.569   0.729
 8433TIP3   OH225255   3.978   6.222   3.927
 8433TIP3    H125256   3.991   6.256   4.015
 8433TIP3    H225257   3.931   6.291   3.881
 8434TIP3   OH225258   0.129   7.680   3.827
 8434TIP3    H125259   0.225   7.689   3.822
 8434TIP3    H225260   0.114   7.585   3.824
 8435TIP3   OH225261   7.287   3.573   1.924
 8435TIP3    H125262   7.365   3.621   1.953
 8435TIP3    H225263   7.286   3.585   1.829
 8436TIP3   OH225264   7.287   2.360   4.875
 8436TIP3    H125265   7.271   2.294   4.808
 8436TIP3    H225266   7.325   2.311   4.948
 8437TIP3   OH225267   5.632   4.987   2.067
 8437TIP3    H125268   5.585   5.042   2.005
 8437TIP3    H225269   5.711   4.960   2.020
 8438TIP3   OH225270   5.769   0.443   6.040
 8438TIP3    H125271   5.750   0.464   5.949
 8438TIP3    H225272   5.779   0.529   6.082
 8439TIP3   OH225273   1.942   3.320   4.155
 8439TIP3    H125274   1.929   3.225   4.151
 8439TIP3    H225275   2.036   3.332   4.144
 8440TIP3   OH225276   2.896   2.809   0.064
 8440TIP3    H125277   2.916   2.790   0.156
 8440TIP3    H225278   2.896   2.905   0.059
 8441TIP3   OH225279   0.451   2.719   1.705
 8441TIP3    H125280   0.409   2.721   1.619
 8441TIP3    H225281   0.400   2.781   1.758
 8442TIP3   OH225282   0.330   6.045   1.959
 8442TIP3    H125283   0.362   6.136   1.960
 8442TIP3    H225284   0.235   6.054   1.950
 8443TIP3   OH225285   5.387   1.604   0.898
 8443TIP3    H125286   5.458   1.611   0.962
 8443TIP3    H225287   5.344   1.521   0.919
 8444TIP3   OH225288   2.325   1.605   0.529
 8444TIP3    H125289   2.299   1.651   0.609
 8444TIP3    H225290   2.382   1.535   0.560
 8445TIP3   OH225291   3.675   5.634   5.077
 8445TIP3    H125292   3.656   5.541   5.070
 8445TIP3    H225293   3.591   5.674   5.099
 8446TIP3   OH225294   6.046   5.402   5.493
 8446TIP3    H125295   5.985   5.476   5.499
 8446TIP3    H225296   6.018   5.342   5.562
 8447TIP3   OH225297   2.468   0.963   3.904
 8447TIP3    H125298   2.523   0.888   3.881
 8447TIP3    H225299   2.396   0.926   3.955
 8448TIP3   OH225300   3.642   5.229   0.111
 8448TIP3    H125301   3.582   5.155   0.099
 8448TIP3    H225302   3.635   5.250   0.204
 8449TIP3   OH225303   7.702   3.480   3.863
 8449TIP3    H125304   7.638   3.550   3.863
 8449TIP3    H225305   7.688   3.434   3.945
 8450TIP3   OH225306   5.302   6.440   4.434
 8450TIP3    H125307   5.335   6.527   4.454
 8450TIP3    H225308   5.380   6.392   4.404
 8451TIP3   OH225309   3.001   3.934   0.677
 8451TIP3    H125310   3.068   3.948   0.610
 8451TIP3    H225311   2.921   3.916   0.627
 8452TIP3   OH225312   8.296   3.957   4.295
 8452TIP3    H125313   8.224   3.906   4.257
 8452TIP3    H225314   8.286   4.044   4.256
 8453TIP3   OH225315   8.201   4.999   4.599
 8453TIP3    H125316   8.140   5.049   4.654
 8453TIP3    H225317   8.238   4.933   4.658
 8454TIP3   OH225318   3.227   4.487   2.859
 8454TIP3    H125319   3.227   4.442   2.943
 8454TIP3    H225320   3.279   4.566   2.875
 8455TIP3   OH225321   1.134   1.506   0.312
 8455TIP3    H125322   1.124   1.569   0.383
 8455TIP3    H225323   1.223   1.472   0.323
 8456TIP3   OH225324   0.527   1.964   1.262
 8456TIP3    H125325   0.565   2.051   1.276
 8456TIP3    H225326   0.556   1.913   1.338
 8457TIP3   OH225327   0.519   2.380   5.383
 8457TIP3    H125328   0.614   2.367   5.389
 8457TIP3    H225329   0.486   2.353   5.469
 8458TIP3   OH225330   0.886   5.399   6.301
 8458TIP3    H125331   0.953   5.422   6.365
 8458TIP3    H225332   0.809   5.448   6.328
 8459TIP3   OH225333   4.093   2.959   0.712
 8459TIP3    H125334   4.067   2.883   0.764
 8459TIP3    H225335   4.070   2.936   0.622
 8460TIP3   OH225336   4.098   7.173   2.131
 8460TIP3    H125337   4.190   7.176   2.158
 8460TIP3    H225338   4.087   7.086   2.094
 8461TIP3   OH225339   5.814   0.035   5.792
 8461TIP3    H125340   5.831   0.107   5.853
 8461TIP3    H225341   5.852  -0.042   5.834
 8462TIP3   OH225342   3.050   3.055   0.508
 8462TIP3    H125343   3.120   3.115   0.480
 8462TIP3    H225344   2.983   3.112   0.544
 8463TIP3   OH225345   1.655   6.083   3.436
 8463TIP3    H125346   1.659   6.007   3.494
 8463TIP3    H225347   1.746   6.111   3.428
 8464TIP3   OH225348   5.848   7.367   5.900
 8464TIP3    H125349   5.778   7.382   5.836
 8464TIP3    H225350   5.881   7.454   5.920
 8465TIP3   OH225351   4.554   6.231   4.904
 8465TIP3    H125352   4.475   6.179   4.893
 8465TIP3    H225353   4.524   6.315   4.938
 8466TIP3   OH225354   6.526   1.395   4.679
 8466TIP3    H125355   6.584   1.341   4.625
 8466TIP3    H225356   6.545   1.485   4.652
 8467TIP3   OH225357   7.241   7.281   4.377
 8467TIP3    H125358   7.283   7.361   4.411
 8467TIP3    H225359   7.314   7.223   4.357
 8468TIP3   OH225360   5.100   6.156   0.654
 8468TIP3    H125361   5.193   6.137   0.657
 8468TIP3    H225362   5.068   6.113   0.575
 8469TIP3   OH225363   5.964   6.146   6.235
 8469TIP3    H125364   5.966   6.093   6.315
 8469TIP3    H225365   6.002   6.230   6.261
 8470TIP3   OH225366   4.256   1.593   3.926
 8470TIP3    H125367   4.341   1.579   3.969
 8470TIP3    H225368   4.220   1.670   3.969
 8471TIP3   OH225369   3.950   5.128   6.149
 8471TIP3    H125370   3.984   5.064   6.087
 8471TIP3    H225371   3.918   5.076   6.223
 8472TIP3   OH225372   1.147   5.489   0.876
 8472TIP3    H125373   1.077   5.554   0.867
 8472TIP3    H225374   1.225   5.535   0.846
 8473TIP3   OH225375   4.059   0.276   6.622
 8473TIP3    H125376   3.984   0.275   6.682
 8473TIP3    H225377   4.039   0.208   6.558
 8474TIP3   OH225378   4.943   3.288   5.402
 8474TIP3    H125379   5.029   3.318   5.430
 8474TIP3    H225380   4.904   3.251   5.482
 8475TIP3   OH225381   2.435   4.664   0.756
 8475TIP3    H125382   2.402   4.584   0.717
 8475TIP3    H225383   2.363   4.727   0.747
 8476TIP3   OH225384   7.610   2.759   2.535
 8476TIP3    H125385   7.675   2.766   2.605
 8476TIP3    H225386   7.655   2.789   2.456
 8477TIP3   OH225387   4.870   5.752   1.210
 8477TIP3    H125388   4.830   5.835   1.186
 8477TIP3    H225389   4.816   5.720   1.282
 8478TIP3   OH225390   3.442   6.342   0.400
 8478TIP3    H125391   3.349   6.326   0.419
 8478TIP3    H225392   3.441   6.396   0.321
 8479TIP3   OH225393   6.918   4.382   5.743
 8479TIP3    H125394   6.929   4.365   5.650
 8479TIP3    H225395   7.007   4.399   5.775
 8480TIP3   OH225396   2.254   0.711   2.926
 8480TIP3    H125397   2.330   0.752   2.885
 8480TIP3    H225398   2.288   0.674   3.008
 8481TIP3   OH225399   3.629   3.677   0.761
 8481TIP3    H125400   3.637   3.754   0.704
 8481TIP3    H225401   3.697   3.617   0.731
 8482TIP3   OH225402   0.823   6.335   4.150
 8482TIP3    H125403   0.889   6.340   4.081
 8482TIP3    H225404   0.844   6.255   4.198
 8483TIP3   OH225405   8.265   6.929   5.998
 8483TIP3    H125406   8.309   6.984   6.062
 8483TIP3    H225407   8.273   6.840   6.034
 8484TIP3   OH225408   8.240   1.335   3.378
 8484TIP3    H125409   8.202   1.247   3.390
 8484TIP3    H225410   8.306   1.323   3.310
 8485TIP3   OH225411   0.235   7.359   4.443
 8485TIP3    H125412   0.229   7.271   4.479
 8485TIP3    H225413   0.297   7.350   4.370
 8486TIP3   OH225414   7.389   4.274   4.830
 8486TIP3    H125415   7.447   4.228   4.770
 8486TIP3    H225416   7.416   4.365   4.825
 8487TIP3   OH225417   2.426   7.408   4.806
 8487TIP3    H125418   2.336   7.421   4.836
 8487TIP3    H225419   2.418   7.357   4.726
 8488TIP3   OH225420   6.796   2.555   4.482
 8488TIP3    H125421   6.875   2.582   4.436
 8488TIP3    H225422   6.798   2.459   4.479
 8489TIP3   OH225423   0.801   6.294   2.324
 8489TIP3    H125424   0.863   6.289   2.251
 8489TIP3    H225425   0.806   6.384   2.354
 8490TIP3   OH225426   0.075   7.435   2.983
 8490TIP3    H125427   0.006   7.500   2.987
 8490TIP3    H225428   0.095   7.427   2.890
 8491TIP3   OH225429   1.888   4.872   6.573
 8491TIP3    H125430   1.817   4.934   6.553
 8491TIP3    H225431   1.853   4.819   6.645
 8492TIP3   OH225432   7.560   6.820   3.835
 8492TIP3    H125433   7.553   6.758   3.908
 8492TIP3    H225434   7.655   6.829   3.821
 8493TIP3   OH225435   4.971   6.962   2.676
 8493TIP3    H125436   5.051   6.909   2.682
 8493TIP3    H225437   4.901   6.899   2.660
 8494TIP3   OH225438   0.254   6.052   3.971
 8494TIP3    H125439   0.234   6.145   3.974
 8494TIP3    H225440   0.348   6.048   3.956
 8495TIP3   OH225441   7.095   0.049   3.062
 8495TIP3    H125442   7.095   0.025   2.969
 8495TIP3    H225443   7.022   0.110   3.071
 8496TIP3   OH225444   6.929   5.634   2.588
 8496TIP3    H125445   6.845   5.652   2.630
 8496TIP3    H225446   6.968   5.720   2.575
 8497TIP3   OH225447   7.898   7.394   2.716
 8497TIP3    H125448   7.807   7.362   2.711
 8497TIP3    H225449   7.948   7.330   2.667
 8498TIP3   OH225450   6.858   5.367   4.967
 8498TIP3    H125451   6.883   5.274   4.966
 8498TIP3    H225452   6.941   5.414   4.967
 8499TIP3   OH225453   4.793   4.645   2.918
 8499TIP3    H125454   4.843   4.585   2.862
 8499TIP3    H225455   4.721   4.675   2.863
 8500TIP3   OH225456   7.639   4.293   3.221
 8500TIP3    H125457   7.621   4.211   3.266
 8500TIP3    H225458   7.734   4.298   3.216
 8501TIP3   OH225459   2.456   0.163   0.012
 8501TIP3    H125460   2.530   0.159   0.073
 8501TIP3    H225461   2.439   0.257   0.002
 8502TIP3   OH225462   2.173   7.014   0.897
 8502TIP3    H125463   2.128   6.939   0.937
 8502TIP3    H225464   2.207   7.064   0.971
 8503TIP3   OH225465   1.110   0.615   0.219
 8503TIP3    H125466   1.047   0.666   0.167
 8503TIP3    H225467   1.130   0.539   0.164
 8504TIP3   OH225468   8.129   1.949   0.053
 8504TIP3    H125469   8.210   1.945   0.104
 8504TIP3    H225470   8.155   1.989  -0.030
 8505TIP3   OH225471   3.215   7.556   0.354
 8505TIP3    H125472   3.282   7.597   0.408
 8505TIP3    H225473   3.201   7.619   0.282
 8506TIP3   OH225474   7.070   1.893   1.342
 8506TIP3    H125475   7.000   1.958   1.332
 8506TIP3    H225476   7.073   1.874   1.436
 8507TIP3   OH225477   3.101   1.863   2.823
 8507TIP3    H125478   3.196   1.852   2.821
 8507TIP3    H225479   3.089   1.953   2.854
 8508TIP3   OH225480   4.743   1.742   6.287
 8508TIP3    H125481   4.771   1.781   6.369
 8508TIP3    H225482   4.678   1.803   6.252
 8509TIP3   OH225483   5.279   4.930   1.742
 8509TIP3    H125484   5.319   4.868   1.802
 8509TIP3    H225485   5.325   4.917   1.659
 8510TIP3   OH225486   0.389   5.609   0.139
 8510TIP3    H125487   0.443   5.685   0.158
 8510TIP3    H225488   0.299   5.638   0.157
 8511TIP3   OH225489   7.151   4.827   1.471
 8511TIP3    H125490   7.235   4.788   1.446
 8511TIP3    H225491   7.173   4.916   1.498
 8512TIP3   OH225492   7.139   2.328   6.236
 8512TIP3    H125493   7.229   2.357   6.250
 8512TIP3    H225494   7.085   2.403   6.262
 8513TIP3   OH225495   5.135   0.047   1.972
 8513TIP3    H125496   5.221   0.012   1.946
 8513TIP3    H225497   5.128   0.129   1.923
 8514TIP3   OH225498   6.103   3.012   1.117
 8514TIP3    H125499   6.158   3.091   1.117
 8514TIP3    H225500   6.156   2.946   1.163
 8515TIP3   OH225501   0.917   2.906   1.225
 8515TIP3    H125502   0.997   2.927   1.178
 8515TIP3    H225503   0.942   2.834   1.283
 8516TIP3   OH225504   2.062   2.041   3.055
 8516TIP3    H125505   2.150   2.079   3.045
 8516TIP3    H225506   2.077   1.947   3.064
 8517TIP3   OH225507   4.084   6.943   0.189
 8517TIP3    H125508   4.039   6.877   0.241
 8517TIP3    H225509   4.060   6.923   0.099
 8518TIP3   OH225510   1.618   3.772   0.917
 8518TIP3    H125511   1.704   3.729   0.924
 8518TIP3    H225512   1.602   3.778   0.823
 8519TIP3   OH225513   4.164   0.294   4.058
 8519TIP3    H125514   4.117   0.346   3.993
 8519TIP3    H225515   4.096   0.248   4.106
 8520TIP3   OH225516   0.163   1.003   2.558
 8520TIP3    H125517   0.170   1.005   2.654
 8520TIP3    H225518   0.125   0.917   2.539
 8521TIP3   OH225519   5.234   1.033   6.174
 8521TIP3    H125520   5.269   1.114   6.139
 8521TIP3    H225521   5.309   0.975   6.183
 8522TIP3   OH225522   2.549   6.879   2.360
 8522TIP3    H125523   2.577   6.788   2.350
 8522TIP3    H225524   2.629   6.930   2.352
 8523TIP3   OH225525   1.663   3.442   0.983
 8523TIP3    H125526   1.575   3.442   0.947
 8523TIP3    H225527   1.655   3.394   1.066
 8524TIP3   OH225528   2.729   0.970   2.645
 8524TIP3    H125529   2.805   0.939   2.693
 8524TIP3    H225530   2.654   0.930   2.690
 8525TIP3   OH225531   5.704   4.372   5.974
 8525TIP3    H125532   5.693   4.422   5.893
 8525TIP3    H225533   5.665   4.286   5.953
 8526TIP3   OH225534   5.737   4.236   2.244
 8526TIP3    H125535   5.739   4.272   2.333
 8526TIP3    H225536   5.651   4.193   2.238
 8527TIP3   OH225537   6.088   4.993   2.966
 8527TIP3    H125538   6.021   5.060   2.953
 8527TIP3    H225539   6.076   4.933   2.893
 8528TIP3   OH225540   2.066   7.266   0.823
 8528TIP3    H125541   2.124   7.340   0.840
 8528TIP3    H225542   2.121   7.189   0.839
 8529TIP3   OH225543   2.740   4.915   5.116
 8529TIP3    H125544   2.686   4.886   5.189
 8529TIP3    H225545   2.813   4.853   5.115
 8530TIP3   OH225546   5.969   0.498   1.046
 8530TIP3    H125547   5.954   0.555   1.122
 8530TIP3    H225548   5.932   0.414   1.071
 8531TIP3   OH225549   2.839   6.624   1.987
 8531TIP3    H125550   2.917   6.614   1.932
 8531TIP3    H225551   2.851   6.708   2.031
 8532TIP3   OH225552   7.970   5.752   1.598
 8532TIP3    H125553   7.877   5.744   1.574
 8532TIP3    H225554   8.015   5.764   1.515
 8533TIP3   OH225555   1.064   2.787   0.169
 8533TIP3    H125556   1.002   2.792   0.241
 8533TIP3    H225557   1.122   2.714   0.192
 8534TIP3   OH225558   5.754   1.931   4.550
 8534TIP3    H125559   5.774   1.939   4.643
 8534TIP3    H225560   5.659   1.920   4.547
 8535TIP3   OH225561   2.527   5.744   4.990
 8535TIP3    H125562   2.441   5.704   4.983
 8535TIP3    H225563   2.586   5.683   4.945
 8536TIP3   OH225564   6.301   7.197   5.315
 8536TIP3    H125565   6.342   7.188   5.401
 8536TIP3    H225566   6.211   7.166   5.328
 8537TIP3   OH225567   6.189   3.853   4.226
 8537TIP3    H125568   6.159   3.786   4.164
 8537TIP3    H225569   6.130   3.846   4.300
 8538TIP3   OH225570   2.612   5.245   5.580
 8538TIP3    H125571   2.568   5.313   5.630
 8538TIP3    H225572   2.679   5.211   5.639
 8539TIP3   OH225573   2.589   2.863   2.427
 8539TIP3    H125574   2.560   2.945   2.387
 8539TIP3    H225575   2.647   2.824   2.362
 8540TIP3   OH225576   3.261   6.532   0.032
 8540TIP3    H125577   3.183   6.574  -0.004
 8540TIP3    H225578   3.252   6.541   0.127
 8541TIP3   OH225579   7.783   2.549   1.304
 8541TIP3    H125580   7.724   2.474   1.294
 8541TIP3    H225581   7.733   2.623   1.271
 8542TIP3   OH225582   7.468   6.377   2.136
 8542TIP3    H125583   7.458   6.310   2.068
 8542TIP3    H225584   7.379   6.411   2.149
 8543TIP3   OH225585   3.224   1.486   0.541
 8543TIP3    H125586   3.168   1.509   0.615
 8543TIP3    H225587   3.216   1.391   0.534
 8544TIP3   OH225588   8.000   2.359   5.352
 8544TIP3    H125589   8.042   2.429   5.302
 8544TIP3    H225590   7.907   2.374   5.340
 8545TIP3   OH225591   3.012   4.025   3.888
 8545TIP3    H125592   3.106   4.011   3.882
 8545TIP3    H225593   2.987   4.051   3.799
 8546TIP3   OH225594   0.683   3.599   3.193
 8546TIP3    H125595   0.669   3.680   3.143
 8546TIP3    H225596   0.653   3.529   3.135
 8547TIP3   OH225597   3.483   5.053   5.007
 8547TIP3    H125598   3.454   5.123   4.949
 8547TIP3    H225599   3.405   5.028   5.056
 8548TIP3   OH225600  -0.002   4.153   1.866
 8548TIP3    H125601   0.031   4.121   1.950
 8548TIP3    H225602  -0.028   4.075   1.818
 8549TIP3   OH225603   2.750   1.223   2.232
 8549TIP3    H125604   2.748   1.134   2.266
 8549TIP3    H225605   2.713   1.277   2.302
 8550TIP3   OH225606   4.930   2.679   3.727
 8550TIP3    H125607   5.010   2.729   3.740
 8550TIP3    H225608   4.896   2.664   3.816
 8551TIP3   OH225609   3.946   3.656   4.897
 8551TIP3    H125610   4.004   3.581   4.899
 8551TIP3    H225611   3.946   3.688   4.988
 8552TIP3   OH225612   3.567   1.972   4.983
 8552TIP3    H125613   3.576   1.941   5.073
 8552TIP3    H225614   3.479   1.945   4.957
 8553TIP3   OH225615   8.216   1.554   0.056
 8553TIP3    H125616   8.140   1.563  -0.001
 8553TIP3    H225617   8.211   1.628   0.116
 8554TIP3   OH225618   2.130   6.499   5.500
 8554TIP3    H125619   2.079   6.498   5.581
 8554TIP3    H225620   2.162   6.589   5.494
 8555TIP3   OH225621   2.041   1.247   3.524
 8555TIP3    H125622   2.135   1.261   3.536
 8555TIP3    H225623   2.034   1.155   3.496
 8556TIP3   OH225624   1.210   4.449   2.860
 8556TIP3    H125625   1.197   4.354   2.863
 8556TIP3    H225626   1.265   4.464   2.783
 8557TIP3   OH225627   2.644   6.360   4.842
 8557TIP3    H125628   2.721   6.417   4.848
 8557TIP3    H225629   2.599   6.370   4.925
 8558TIP3   OH225630   7.660   7.218   0.713
 8558TIP3    H125631   7.656   7.287   0.646
 8558TIP3    H225632   7.717   7.151   0.674
 8559TIP3   OH225633   6.092   7.409   2.945
 8559TIP3    H125634   6.111   7.444   3.032
 8559TIP3    H225635   6.031   7.337   2.961
 8560TIP3   OH225636   0.927   5.467   2.744
 8560TIP3    H125637   0.873   5.391   2.723
 8560TIP3    H225638   0.992   5.435   2.806
 8561TIP3   OH225639   5.382   4.692   0.914
 8561TIP3    H125640   5.310   4.735   0.868
 8561TIP3    H225641   5.437   4.764   0.944
 8562TIP3   OH225642   7.242   4.285   5.075
 8562TIP3    H125643   7.309   4.290   5.007
 8562TIP3    H225644   7.184   4.359   5.057
 8563TIP3   OH225645   5.398   1.379   3.193
 8563TIP3    H125646   5.366   1.427   3.116
 8563TIP3    H225647   5.340   1.304   3.200
 8564TIP3   OH225648   7.523   6.809   1.629
 8564TIP3    H125649   7.549   6.816   1.537
 8564TIP3    H225650   7.544   6.894   1.667
 8565TIP3   OH225651   0.211   5.319   2.420
 8565TIP3    H125652   0.231   5.239   2.373
 8565TIP3    H225653   0.138   5.295   2.477
 8566TIP3   OH225654   0.712   6.194   5.492
 8566TIP3    H125655   0.690   6.108   5.455
 8566TIP3    H225656   0.627   6.232   5.515
 8567TIP3   OH225657   4.028   2.271   1.593
 8567TIP3    H125658   4.076   2.350   1.570
 8567TIP3    H225659   3.937   2.300   1.600
 8568TIP3   OH225660   1.517   0.372   6.276
 8568TIP3    H125661   1.551   0.284   6.290
 8568TIP3    H225662   1.581   0.413   6.217
 8569TIP3   OH225663   1.785   6.066   4.588
 8569TIP3    H125664   1.875   6.100   4.584
 8569TIP3    H225665   1.774   6.017   4.507
 8570TIP3   OH225666   0.479   4.247   0.960
 8570TIP3    H125667   0.400   4.292   0.990
 8570TIP3    H225668   0.447   4.166   0.919
 8571TIP3   OH225669   6.855   4.378   1.300
 8571TIP3    H125670   6.822   4.301   1.347
 8571TIP3    H225671   6.927   4.344   1.246
 8572TIP3   OH225672   5.831   4.548   0.873
 8572TIP3    H125673   5.849   4.566   0.781
 8572TIP3    H225674   5.851   4.630   0.918
 8573TIP3   OH225675   4.969   7.384   5.104
 8573TIP3    H125676   4.998   7.345   5.186
 8573TIP3    H225677   5.049   7.390   5.051
 8574TIP3   OH225678   7.079   4.813   3.418
 8574TIP3    H125679   7.079   4.909   3.426
 8574TIP3    H225680   7.038   4.796   3.333
 8575TIP3   OH225681   2.537   2.140   4.799
 8575TIP3    H125682   2.559   2.160   4.708
 8575TIP3    H225683   2.539   2.225   4.843
 8576TIP3   OH225684   3.423   5.011   4.257
 8576TIP3    H125685   3.467   4.992   4.174
 8576TIP3    H225686   3.330   5.000   4.239
 8577TIP3   OH225687   3.425   1.300   2.063
 8577TIP3    H125688   3.494   1.332   2.121
 8577TIP3    H225689   3.417   1.367   1.995
 8578TIP3   OH225690   3.216   2.453   4.046
 8578TIP3    H125691   3.302   2.459   4.089
 8578TIP3    H225692   3.154   2.467   4.117
 8579TIP3   OH225693   4.241   1.496   5.962
 8579TIP3    H125694   4.316   1.540   6.002
 8579TIP3    H225695   4.226   1.418   6.016
 8580TIP3   OH225696   0.846   7.105   6.391
 8580TIP3    H125697   0.829   7.185   6.441
 8580TIP3    H225698   0.761   7.060   6.388
 8581TIP3   OH225699   8.020   4.197   1.805
 8581TIP3    H125700   8.048   4.112   1.769
 8581TIP3    H225701   8.101   4.238   1.834
 8582TIP3   OH225702   0.284   5.648   2.844
 8582TIP3    H125703   0.340   5.620   2.916
 8582TIP3    H225704   0.304   5.587   2.773
 8583TIP3   OH225705   0.901   4.379   3.896
 8583TIP3    H125706   0.969   4.446   3.901
 8583TIP3    H225707   0.948   4.296   3.906
 8584TIP3   OH225708   0.682   5.035   5.302
 8584TIP3    H125709   0.611   5.025   5.365
 8584TIP3    H225710   0.707   5.128   5.308
 8585TIP3   OH225711   7.085   0.838   5.264
 8585TIP3    H125712   7.093   0.821   5.170
 8585TIP3    H225713   7.001   0.798   5.288
 8586TIP3   OH225714   4.608   3.405   1.773
 8586TIP3    H125715   4.591   3.317   1.738
 8586TIP3    H225716   4.692   3.431   1.734
 8587TIP3   OH225717   1.551   2.673   0.138
 8587TIP3    H125718   1.464   2.660   0.177
 8587TIP3    H225719   1.610   2.678   0.213
 8588TIP3   OH225720   2.005   0.218   6.718
 8588TIP3    H125721   1.967   0.304   6.699
 8588TIP3    H225722   1.938   0.156   6.691
 8589TIP3   OH225723   0.469   2.994   2.143
 8589TIP3    H125724   0.516   2.958   2.068
 8589TIP3    H225725   0.538   3.028   2.200
 8590TIP3   OH225726   8.240   0.728   3.172
 8590TIP3    H125727   8.300   0.798   3.147
 8590TIP3    H225728   8.159   0.773   3.196
 8591TIP3   OH225729   0.479   0.424   2.866
 8591TIP3    H125730   0.454   0.405   2.776
 8591TIP3    H225731   0.419   0.493   2.894
 8592TIP3   OH225732   4.947   3.250   4.888
 8592TIP3    H125733   4.931   3.325   4.945
 8592TIP3    H225734   4.982   3.288   4.807
 8593TIP3   OH225735   6.958   0.302   6.041
 8593TIP3    H125736   6.999   0.227   6.084
 8593TIP3    H225737   6.966   0.284   5.948
 8594TIP3   OH225738   3.686   1.813   2.181
 8594TIP3    H125739   3.604   1.862   2.178
 8594TIP3    H225740   3.718   1.826   2.270
 8595TIP3   OH225741   7.018   5.554   4.256
 8595TIP3    H125742   7.106   5.536   4.290
 8595TIP3    H225743   6.985   5.468   4.231
 8596TIP3   OH225744   0.369   2.718   1.435
 8596TIP3    H125745   0.304   2.774   1.393
 8596TIP3    H225746   0.417   2.679   1.363
 8597TIP3   OH225747   6.194   6.130   2.277
 8597TIP3    H125748   6.190   6.048   2.327
 8597TIP3    H225749   6.267   6.118   2.216
 8598TIP3   OH225750   2.004   7.793   0.688
 8598TIP3    H125751   1.933   7.744   0.729
 8598TIP3    H225752   1.969   7.817   0.601
 8599TIP3   OH225753   3.080   2.864   0.972
 8599TIP3    H125754   3.038   2.862   0.886
 8599TIP3    H225755   3.104   2.955   0.985
 8600TIP3   OH225756   0.737   6.919   6.793
 8600TIP3    H125757   0.645   6.903   6.775
 8600TIP3    H225758   0.782   6.903   6.710
 8601TIP3   OH225759   4.979   4.785   0.415
 8601TIP3    H125760   5.052   4.731   0.447
 8601TIP3    H225761   4.995   4.793   0.321
 8602TIP3   OH225762   6.955   0.340   1.664
 8602TIP3    H125763   7.021   0.410   1.666
 8602TIP3    H225764   7.001   0.264   1.629
 8603TIP3   OH225765   3.722   1.592   5.521
 8603TIP3    H125766   3.679   1.573   5.604
 8603TIP3    H225767   3.666   1.657   5.478
 8604TIP3   OH225768   4.859   2.643   0.594
 8604TIP3    H125769   4.871   2.575   0.529
 8604TIP3    H225770   4.931   2.631   0.656
 8605TIP3   OH225771   0.690   3.713   2.693
 8605TIP3    H125772   0.785   3.716   2.691
 8605TIP3    H225773   0.664   3.713   2.601
 8606TIP3   OH225774   0.535   1.626   5.998
 8606TIP3    H125775   0.575   1.694   6.053
 8606TIP3    H225776   0.472   1.674   5.944
 8607TIP3   OH225777   3.449   4.701   4.020
 8607TIP3    H125778   3.539   4.725   3.997
 8607TIP3    H225779   3.450   4.605   4.020
 8608TIP3   OH225780   1.400   0.142   4.771
 8608TIP3    H125781   1.324   0.135   4.713
 8608TIP3    H225782   1.476   0.135   4.712
 8609TIP3   OH225783   6.821   6.747   4.749
 8609TIP3    H125784   6.902   6.789   4.778
 8609TIP3    H225785   6.843   6.654   4.741
 8610TIP3   OH225786   5.818   3.459   4.518
 8610TIP3    H125787   5.741   3.465   4.574
 8610TIP3    H225788   5.827   3.365   4.500
 8611TIP3   OH225789   5.347   0.889   3.495
 8611TIP3    H125790   5.290   0.813   3.485
 8611TIP3    H225791   5.425   0.855   3.538
 8612TIP3   OH225792   6.600   3.345   2.729
 8612TIP3    H125793   6.618   3.338   2.636
 8612TIP3    H225794   6.515   3.388   2.735
 8613TIP3   OH225795   6.838   2.786   4.665
 8613TIP3    H125796   6.801   2.698   4.658
 8613TIP3    H225797   6.772   2.843   4.624
 8614TIP3   OH225798   5.890   3.688   5.688
 8614TIP3    H125799   5.908   3.697   5.781
 8614TIP3    H225800   5.940   3.610   5.661
 8615TIP3   OH225801   4.624   1.230   2.363
 8615TIP3    H125802   4.678   1.209   2.439
 8615TIP3    H225803   4.550   1.279   2.400
 8616TIP3   OH225804   1.200   7.366   4.034
 8616TIP3    H125805   1.204   7.403   3.946
 8616TIP3    H225806   1.250   7.285   4.029
 8617TIP3   OH225807   5.399   1.137   2.843
 8617TIP3    H125808   5.335   1.208   2.852
 8617TIP3    H225809   5.475   1.166   2.892
 8618TIP3   OH225810   1.871   5.918   0.537
 8618TIP3    H125811   1.801   5.896   0.477
 8618TIP3    H225812   1.868   5.851   0.605
 8619TIP3   OH225813   1.601   1.146   3.512
 8619TIP3    H125814   1.650   1.185   3.584
 8619TIP3    H225815   1.526   1.205   3.499
 8620TIP3   OH225816   7.441   1.545   6.691
 8620TIP3    H125817   7.451   1.453   6.715
 8620TIP3    H225818   7.381   1.544   6.616
 8621TIP3   OH225819   5.215   6.001   0.050
 8621TIP3    H125820   5.137   6.025   0.000
 8621TIP3    H225821   5.287   6.010  -0.013
 8622TIP3   OH225822   1.312   0.107   2.994
 8622TIP3    H125823   1.378   0.049   3.033
 8622TIP3    H225824   1.344   0.195   3.015
 8623TIP3   OH225825   6.826   5.986   5.171
 8623TIP3    H125826   6.875   6.067   5.184
 8623TIP3    H225827   6.893   5.918   5.159
 8624TIP3   OH225828   0.683   3.702   4.072
 8624TIP3    H125829   0.649   3.709   3.983
 8624TIP3    H225830   0.771   3.665   4.062
 8625TIP3   OH225831   6.581   5.754   6.490
 8625TIP3    H125832   6.539   5.837   6.511
 8625TIP3    H225833   6.533   5.720   6.415
 8626TIP3   OH225834   2.004   6.920   2.786
 8626TIP3    H125835   1.928   6.952   2.737
 8626TIP3    H225836   2.078   6.967   2.747
 8627TIP3   OH225837   4.019   6.499   1.678
 8627TIP3    H125838   3.976   6.452   1.607
 8627TIP3    H225839   3.978   6.466   1.758
 8628TIP3   OH225840   3.533   6.852   5.760
 8628TIP3    H125841   3.455   6.857   5.814
 8628TIP3    H225842   3.515   6.781   5.698
 8629TIP3   OH225843   1.688   3.721   3.920
 8629TIP3    H125844   1.782   3.728   3.934
 8629TIP3    H225845   1.674   3.757   3.833
 8630TIP3   OH225846   3.199   5.857   3.144
 8630TIP3    H125847   3.280   5.882   3.100
 8630TIP3    H225848   3.226   5.796   3.212
 8631TIP3   OH225849   0.408   2.052   5.616
 8631TIP3    H125850   0.340   1.989   5.642
 8631TIP3    H225851   0.428   2.029   5.525
 8632TIP3   OH225852   2.323   7.409   6.520
 8632TIP3    H125853   2.289   7.388   6.433
 8632TIP3    H225854   2.379   7.485   6.506
 8633TIP3   OH225855   7.815   6.039   4.265
 8633TIP3    H125856   7.801   6.128   4.234
 8633TIP3    H225857   7.732   5.994   4.248
 8634TIP3   OH225858   4.791   1.936   1.576
 8634TIP3    H125859   4.841   1.865   1.535
 8634TIP3    H225860   4.752   1.983   1.502
 8635TIP3   OH225861   0.165   6.003   3.504
 8635TIP3    H125862   0.209   5.919   3.494
 8635TIP3    H225863   0.106   5.990   3.579
 8636TIP3   OH225864   3.209   2.739   3.835
 8636TIP3    H125865   3.172   2.660   3.874
 8636TIP3    H225866   3.210   2.804   3.905
 8637TIP3   OH225867   5.908   7.490   2.637
 8637TIP3    H125868   5.985   7.487   2.580
 8637TIP3    H225869   5.852   7.420   2.606
 8638TIP3   OH225870   6.986   1.898   0.713
 8638TIP3    H125871   7.002   1.976   0.660
 8638TIP3    H225872   6.945   1.931   0.793
 8639TIP3   OH225873   3.279   3.430   2.176
 8639TIP3    H125874   3.308   3.493   2.242
 8639TIP3    H225875   3.295   3.474   2.092
 8640TIP3   OH225876   0.779   2.291   0.931
 8640TIP3    H125877   0.705   2.318   0.985
 8640TIP3    H225878   0.856   2.310   0.985
 8641TIP3   OH225879   0.531   3.039   2.481
 8641TIP3    H125880   0.530   3.129   2.513
 8641TIP3    H225881   0.442   3.008   2.493
 8642TIP3   OH225882   4.645   7.134   0.941
 8642TIP3    H125883   4.614   7.139   0.851
 8642TIP3    H225884   4.577   7.084   0.987
 8643TIP3   OH225885   8.029   7.316   4.386
 8643TIP3    H125886   8.026   7.237   4.333
 8643TIP3    H225887   7.976   7.296   4.463
 8644TIP3   OH225888   1.747   7.167   2.344
 8644TIP3    H125889   1.671   7.204   2.300
 8644TIP3    H225890   1.712   7.125   2.422
 8645TIP3   OH225891   8.229   2.834   3.954
 8645TIP3    H125892   8.174   2.823   4.032
 8645TIP3    H225893   8.199   2.765   3.895
 8646TIP3   OH225894   1.354   2.649   4.295
 8646TIP3    H125895   1.308   2.732   4.309
 8646TIP3    H225896   1.294   2.597   4.241
 8647TIP3   OH225897   7.871   0.136   0.142
 8647TIP3    H125898   7.785   0.171   0.117
 8647TIP3    H225899   7.934   0.200   0.106
 8648TIP3   OH225900   2.046   0.425   5.036
 8648TIP3    H125901   2.083   0.485   4.972
 8648TIP3    H225902   1.983   0.372   4.986
 8649TIP3   OH225903   4.222   3.973   3.138
 8649TIP3    H125904   4.189   3.898   3.088
 8649TIP3    H225905   4.307   3.992   3.100
 8650TIP3   OH225906   6.268   5.426   1.375
 8650TIP3    H125907   6.350   5.413   1.327
 8650TIP3    H225908   6.291   5.412   1.467
 8651TIP3   OH225909   1.744   5.165   1.537
 8651TIP3    H125910   1.767   5.249   1.496
 8651TIP3    H225911   1.689   5.121   1.471
 8652TIP3   OH225912   3.220   7.258   3.661
 8652TIP3    H125913   3.268   7.274   3.742
 8652TIP3    H225914   3.139   7.308   3.671
 8653TIP3   OH225915   3.078   6.357   5.197
 8653TIP3    H125916   3.167   6.378   5.224
 8653TIP3    H225917   3.084   6.346   5.102
 8654TIP3   OH225918   7.080   2.503   2.910
 8654TIP3    H125919   6.996   2.460   2.928
 8654TIP3    H225920   7.072   2.535   2.820
 8655TIP3   OH225921   1.784   1.857   5.806
 8655TIP3    H125922   1.872   1.882   5.780
 8655TIP3    H225923   1.738   1.940   5.819
 8656TIP3   OH225924   1.340   0.828   2.152
 8656TIP3    H125925   1.263   0.791   2.109
 8656TIP3    H225926   1.369   0.759   2.212
 8657TIP3   OH225927  -0.015   4.620   1.139
 8657TIP3    H125928   0.046   4.691   1.161
 8657TIP3    H225929  -0.019   4.566   1.217
 8658TIP3   OH225930   7.457   3.929   4.400
 8658TIP3    H125931   7.445   3.857   4.462
 8658TIP3    H225932   7.519   3.895   4.335
 8659TIP3   OH225933   2.998   4.041   2.469
 8659TIP3    H125934   3.023   4.131   2.450
 8659TIP3    H225935   3.078   3.990   2.460
 8660TIP3   OH225936   4.981   7.816   2.295
 8660TIP3    H125937   4.926   7.770   2.359
 8660TIP3    H225938   5.042   7.867   2.348
 8661TIP3   OH225939   4.745   2.017   5.833
 8661TIP3    H125940   4.707   2.101   5.808
 8661TIP3    H225941   4.724   1.958   5.760
 8662TIP3   OH225942   7.440   0.703   0.244
 8662TIP3    H125943   7.355   0.734   0.212
 8662TIP3    H225944   7.465   0.766   0.311
 8663TIP3   OH225945   4.565   7.686   5.919
 8663TIP3    H125946   4.515   7.747   5.974
 8663TIP3    H225947   4.580   7.735   5.838
 8664TIP3   OH225948   3.386   2.289   3.301
 8664TIP3    H125949   3.382   2.367   3.357
 8664TIP3    H225950   3.468   2.247   3.326
 8665TIP3   OH225951   6.305   2.419   5.871
 8665TIP3    H125952   6.262   2.334   5.863
 8665TIP3    H225953   6.299   2.458   5.784
 8666TIP3   OH225954   7.540   5.054   5.676
 8666TIP3    H125955   7.500   5.128   5.631
 8666TIP3    H225956   7.478   4.982   5.662
 8667TIP3   OH225957   5.954   4.043   2.764
 8667TIP3    H125958   5.895   3.991   2.709
 8667TIP3    H225959   5.917   4.131   2.763
 8668TIP3   OH225960   3.184   1.402   1.007
 8668TIP3    H125961   3.258   1.345   0.989
 8668TIP3    H225962   3.154   1.431   0.921
 8669TIP3   OH225963   7.927   0.026   3.010
 8669TIP3    H125964   7.985  -0.028   2.956
 8669TIP3    H225965   7.962   0.017   3.099
 8670TIP3   OH225966   1.885   6.395   6.097
 8670TIP3    H125967   1.967   6.399   6.146
 8670TIP3    H225968   1.828   6.339   6.150
 8671TIP3   OH225969   6.681   0.422   5.303
 8671TIP3    H125970   6.632   0.456   5.229
 8671TIP3    H225971   6.650   0.473   5.378
 8672TIP3   OH225972   3.472   2.717   4.178
 8672TIP3    H125973   3.482   2.622   4.172
 8672TIP3    H225974   3.426   2.731   4.261
 8673TIP3   OH225975   6.343   4.939   6.201
 8673TIP3    H125976   6.294   4.875   6.253
 8673TIP3    H225977   6.434   4.925   6.224
 8674TIP3   OH225978   7.881   2.136   1.284
 8674TIP3    H125979   7.878   2.217   1.334
 8674TIP3    H225980   7.974   2.114   1.281
 8675TIP3   OH225981   4.442   1.208   0.493
 8675TIP3    H125982   4.463   1.290   0.447
 8675TIP3    H225983   4.511   1.148   0.466
 8676TIP3   OH225984   1.151   5.193   1.021
 8676TIP3    H125985   1.128   5.178   1.112
 8676TIP3    H225986   1.175   5.107   0.987
 8677TIP3   OH225987   2.348   5.212   2.877
 8677TIP3    H125988   2.430   5.205   2.927
 8677TIP3    H225989   2.349   5.135   2.820
 8678TIP3   OH225990   4.419   4.794   0.798
 8678TIP3    H125991   4.410   4.767   0.707
 8678TIP3    H225992   4.500   4.844   0.801
 8679TIP3   OH225993   2.429   3.424   4.380
 8679TIP3    H125994   2.362   3.390   4.439
 8679TIP3    H225995   2.408   3.518   4.373
 8680TIP3   OH225996   2.523   2.706   5.618
 8680TIP3    H125997   2.433   2.698   5.587
 8680TIP3    H225998   2.561   2.775   5.563
 8681TIP3   OH225999   4.248   0.149   5.455
 8681TIP3    H126000   4.202   0.129   5.537
 8681TIP3    H226001   4.229   0.074   5.398
 8682TIP3   OH226002   7.906   3.019   3.411
 8682TIP3    H126003   7.858   2.984   3.486
 8682TIP3    H226004   7.845   3.081   3.370
 8683TIP3   OH226005   0.408   3.396   2.173
 8683TIP3    H126006   0.339   3.368   2.233
 8683TIP3    H226007   0.376   3.370   2.086
 8684TIP3   OH226008   0.814   4.082   4.453
 8684TIP3    H126009   0.777   4.037   4.377
 8684TIP3    H226010   0.878   4.020   4.489
 8685TIP3   OH226011   0.379   2.802   0.176
 8685TIP3    H126012   0.403   2.719   0.135
 8685TIP3    H226013   0.434   2.867   0.132
 8686TIP3   OH226014   3.433   1.311   0.998
 8686TIP3    H126015   3.422   1.222   1.034
 8686TIP3    H226016   3.523   1.334   1.021
 8687TIP3   OH226017   8.317   6.029   2.751
 8687TIP3    H126018   8.321   6.113   2.707
 8687TIP3    H226019   8.254   5.978   2.700
 8688TIP3   OH226020   3.462   0.665   6.804
 8688TIP3    H126021   3.557   0.666   6.794
 8688TIP3    H226022   3.428   0.654   6.715
 8689TIP3   OH226023   4.050   5.340   6.741
 8689TIP3    H126024   4.023   5.318   6.652
 8689TIP3    H226025   4.086   5.429   6.735
 8690TIP3   OH226026   3.832   7.164   1.411
 8690TIP3    H126027   3.819   7.069   1.405
 8690TIP3    H226028   3.771   7.192   1.479
 8691TIP3   OH226029   6.392   0.423   2.255
 8691TIP3    H126030   6.357   0.402   2.169
 8691TIP3    H226031   6.315   0.429   2.311
 8692TIP3   OH226032   2.615   1.309   1.990
 8692TIP3    H126033   2.650   1.268   2.070
 8692TIP3    H226034   2.681   1.374   1.966
 8693TIP3   OH226035   6.582   6.098   4.641
 8693TIP3    H126036   6.513   6.147   4.686
 8693TIP3    H226037   6.660   6.153   4.649
 8694TIP3   OH226038   2.827   6.191   0.598
 8694TIP3    H126039   2.813   6.113   0.545
 8694TIP3    H226040   2.801   6.264   0.542
 8695TIP3   OH226041   7.780   0.295   2.990
 8695TIP3    H126042   7.819   0.209   2.997
 8695TIP3    H226043   7.846   0.348   2.945
 8696TIP3   OH226044   6.814   7.739   0.306
 8696TIP3    H126045   6.871   7.663   0.309
 8696TIP3    H226046   6.782   7.742   0.216
 8697TIP3   OH226047   1.608   4.875   1.357
 8697TIP3    H126048   1.569   4.811   1.416
 8697TIP3    H226049   1.550   4.875   1.280
 8698TIP3   OH226050   2.108   2.762   2.251
 8698TIP3    H126051   2.123   2.794   2.162
 8698TIP3    H226052   2.193   2.769   2.294
 8699TIP3   OH226053   4.515   3.585   6.333
 8699TIP3    H126054   4.472   3.504   6.304
 8699TIP3    H226055   4.505   3.645   6.260
 8700TIP3   OH226056   4.760   6.404   5.683
 8700TIP3    H126057   4.670   6.424   5.710
 8700TIP3    H226058   4.808   6.392   5.766
 8701TIP3   OH226059   4.781   3.856   6.744
 8701TIP3    H126060   4.875   3.861   6.730
 8701TIP3    H226061   4.750   3.946   6.733
 8702TIP3   OH226062   2.183   6.327   4.325
 8702TIP3    H126063   2.195   6.309   4.232
 8702TIP3    H226064   2.272   6.327   4.361
 8703TIP3   OH226065   3.728   2.227   4.314
 8703TIP3    H126066   3.804   2.204   4.368
 8703TIP3    H226067   3.766   2.262   4.233
 8704TIP3   OH226068   1.074   3.713   4.684
 8704TIP3    H126069   1.003   3.769   4.715
 8704TIP3    H226070   1.031   3.633   4.655
 8705TIP3   OH226071   7.077   7.188   5.730
 8705TIP3    H126072   7.107   7.160   5.644
 8705TIP3    H226073   7.014   7.258   5.712
 8706TIP3   OH226074   3.769   2.065   5.351
 8706TIP3    H126075   3.844   2.017   5.387
 8706TIP3    H226076   3.715   1.997   5.311
 8707TIP3   OH226077   5.972   7.513   2.150
 8707TIP3    H126078   6.013   7.427   2.160
 8707TIP3    H226079   5.879   7.495   2.137
 8708TIP3   OH226080   1.414   5.994   6.136
 8708TIP3    H126081   1.496   5.961   6.099
 8708TIP3    H226082   1.349   5.979   6.068
 8709TIP3   OH226083   5.594   3.709   1.360
 8709TIP3    H126084   5.522   3.662   1.402
 8709TIP3    H226085   5.663   3.713   1.426
 8710TIP3   OH226086   3.808   7.414   4.043
 8710TIP3    H126087   3.872   7.401   3.973
 8710TIP3    H226088   3.836   7.354   4.112
 8711TIP3   OH226089   2.708   1.515   0.683
 8711TIP3    H126090   2.751   1.452   0.742
 8711TIP3    H226091   2.762   1.514   0.604
 8712TIP3   OH226092   6.074   1.070   4.677
 8712TIP3    H126093   6.060   1.081   4.583
 8712TIP3    H226094   6.136   1.140   4.701
 8713TIP3   OH226095   7.721   6.222   4.684
 8713TIP3    H126096   7.650   6.172   4.643
 8713TIP3    H226097   7.691   6.239   4.773
 8714TIP3   OH226098   0.126   6.428   6.119
 8714TIP3    H126099   0.221   6.413   6.124
 8714TIP3    H226100   0.088   6.341   6.119
 8715TIP3   OH226101   5.924   6.211   0.317
 8715TIP3    H126102   5.898   6.187   0.406
 8715TIP3    H226103   5.841   6.224   0.271
 8716TIP3   OH226104   1.786   0.442   6.154
 8716TIP3    H126105   1.755   0.465   6.066
 8716TIP3    H226106   1.784   0.525   6.202
 8717TIP3   OH226107   1.581   5.206   0.890
 8717TIP3    H126108   1.536   5.125   0.914
 8717TIP3    H226109   1.584   5.206   0.795
 8718TIP3   OH226110   4.533   2.438   1.207
 8718TIP3    H126111   4.493   2.515   1.167
 8718TIP3    H226112   4.475   2.415   1.279
 8719TIP3   OH226113   3.503   4.780   2.362
 8719TIP3    H126114   3.478   4.792   2.270
 8719TIP3    H226115   3.576   4.719   2.359
 8720TIP3   OH226116   2.825   1.104   0.652
 8720TIP3    H126117   2.788   1.173   0.707
 8720TIP3    H226118   2.830   1.143   0.564
 8721TIP3   OH226119   6.817   2.098   6.278
 8721TIP3    H126120   6.901   2.103   6.324
 8721TIP3    H226121   6.758   2.152   6.330
 8722TIP3   OH226122   2.408   0.980   1.369
 8722TIP3    H126123   2.389   1.056   1.424
 8722TIP3    H226124   2.483   0.938   1.411
 8723TIP3   OH226125   6.341   4.635   0.837
 8723TIP3    H126126   6.377   4.612   0.923
 8723TIP3    H226127   6.329   4.552   0.792
 8724TIP3   OH226128   7.423   5.816   5.286
 8724TIP3    H126129   7.491   5.853   5.229
 8724TIP3    H226130   7.433   5.721   5.276
 8725TIP3   OH226131   6.959   2.810   3.954
 8725TIP3    H126132   6.890   2.847   4.008
 8725TIP3    H226133   7.040   2.827   4.004
 8726TIP3   OH226134   7.169   5.675   4.071
 8726TIP3    H126135   7.177   5.597   4.016
 8726TIP3    H226136   7.113   5.647   4.143
 8727TIP3   OH226137   4.563   2.760   1.939
 8727TIP3    H126138   4.639   2.808   1.906
 8727TIP3    H226139   4.519   2.729   1.860
 8728TIP3   OH226140   5.455   1.423   4.410
 8728TIP3    H126141   5.443   1.375   4.492
 8728TIP3    H226142   5.483   1.357   4.347
 8729TIP3   OH226143   2.228   1.504   2.347
 8729TIP3    H126144   2.160   1.503   2.415
 8729TIP3    H226145   2.180   1.489   2.266
 8730TIP3   OH226146   3.384   2.649   6.614
 8730TIP3    H126147   3.478   2.655   6.602
 8730TIP3    H226148   3.366   2.699   6.693
 8731TIP3   OH226149   4.432   5.104   4.805
 8731TIP3    H126150   4.408   5.192   4.833
 8731TIP3    H226151   4.421   5.050   4.883
 8732TIP3   OH226152   5.368   5.184   5.441
 8732TIP3    H126153   5.283   5.142   5.431
 8732TIP3    H226154   5.427   5.133   5.385
 8733TIP3   OH226155   1.985   6.718   0.767
 8733TIP3    H126156   2.000   6.767   0.848
 8733TIP3    H226157   2.054   6.651   0.766
 8734TIP3   OH226158   7.840   6.317   4.459
 8734TIP3    H126159   7.789   6.398   4.463
 8734TIP3    H226160   7.816   6.271   4.539
 8735TIP3   OH226161   2.688   1.949   4.038
 8735TIP3    H126162   2.669   1.874   4.095
 8735TIP3    H226163   2.626   1.939   3.965
 8736TIP3   OH226164   5.833   7.631   5.867
 8736TIP3    H126165   5.867   7.664   5.784
 8736TIP3    H226166   5.814   7.710   5.918
 8737TIP3   OH226167   7.560   1.047   1.637
 8737TIP3    H126168   7.495   1.001   1.691
 8737TIP3    H226169   7.517   1.128   1.611
 8738TIP3   OH226170   7.634   4.761   3.492
 8738TIP3    H126171   7.557   4.812   3.514
 8738TIP3    H226172   7.650   4.780   3.399
 8739TIP3   OH226173   4.119   7.563   3.934
 8739TIP3    H126174   4.070   7.577   3.852
 8739TIP3    H226175   4.129   7.468   3.940
 8740TIP3   OH226176   1.760   2.106   2.648
 8740TIP3    H126177   1.836   2.077   2.698
 8740TIP3    H226178   1.776   2.072   2.560
 8741TIP3   OH226179   3.064   3.998   1.742
 8741TIP3    H126180   2.991   4.051   1.776
 8741TIP3    H226181   3.043   3.909   1.769
 8742TIP3   OH226182   5.409   4.506   5.815
 8742TIP3    H126183   5.382   4.486   5.905
 8742TIP3    H226184   5.488   4.560   5.825
 8743TIP3   OH226185   7.525   3.938   2.280
 8743TIP3    H126186   7.548   4.020   2.324
 8743TIP3    H226187   7.431   3.931   2.292
 8744TIP3   OH226188   7.620   4.522   2.104
 8744TIP3    H126189   7.574   4.605   2.117
 8744TIP3    H226190   7.561   4.471   2.048
 8745TIP3   OH226191   6.978   0.683   1.977
 8745TIP3    H126192   7.023   0.722   2.053
 8745TIP3    H226193   6.886   0.706   1.989
 8746TIP3   OH226194   0.153   2.061   4.494
 8746TIP3    H126195   0.215   2.001   4.452
 8746TIP3    H226196   0.197   2.086   4.576
 8747TIP3   OH226197   4.419   5.737   4.639
 8747TIP3    H126198   4.347   5.799   4.633
 8747TIP3    H226199   4.493   5.782   4.600
 8748TIP3   OH226200   2.653   0.566   1.352
 8748TIP3    H126201   2.693   0.488   1.314
 8748TIP3    H226202   2.559   0.551   1.344
 8749TIP3   OH226203   7.365   0.348   3.227
 8749TIP3    H126204   7.360   0.425   3.285
 8749TIP3    H226205   7.428   0.374   3.159
 8750TIP3   OH226206   3.839   4.321   6.192
 8750TIP3    H126207   3.763   4.370   6.161
 8750TIP3    H226208   3.822   4.231   6.165
 8751TIP3   OH226209   6.959   4.945   5.287
 8751TIP3    H126210   6.867   4.970   5.295
 8751TIP3    H226211   6.979   4.901   5.369
 8752TIP3   OH226212   5.953   2.753   3.957
 8752TIP3    H126213   5.942   2.805   4.036
 8752TIP3    H226214   5.959   2.818   3.886
 8753TIP3   OH226215   0.665   4.369   2.375
 8753TIP3    H126216   0.576   4.382   2.407
 8753TIP3    H226217   0.655   4.315   2.297
 8754TIP3   OH226218   6.088   1.254   2.544
 8754TIP3    H126219   6.137   1.312   2.485
 8754TIP3    H226220   6.007   1.302   2.563
 8755TIP3   OH226221   5.407   2.296   1.112
 8755TIP3    H126222   5.474   2.283   1.179
 8755TIP3    H226223   5.326   2.265   1.153
 8756TIP3   OH226224   2.229   6.553   5.860
 8756TIP3    H126225   2.278   6.621   5.813
 8756TIP3    H226226   2.148   6.596   5.887
 8757TIP3   OH226227   2.303   2.401   5.871
 8757TIP3    H126228   2.338   2.404   5.960
 8757TIP3    H226229   2.231   2.465   5.872
 8758TIP3   OH226230   1.409   3.918   0.245
 8758TIP3    H126231   1.411   3.830   0.283
 8758TIP3    H226232   1.355   3.970   0.304
 8759TIP3   OH226233   0.572   7.762   2.300
 8759TIP3    H126234   0.599   7.793   2.214
 8759TIP3    H226235   0.645   7.709   2.332
 8760TIP3   OH226236   2.591   4.072   2.923
 8760TIP3    H126237   2.641   3.994   2.945
 8760TIP3    H226238   2.548   4.051   2.840
 8761TIP3   OH226239   4.667   4.753   0.129
 8761TIP3    H126240   4.685   4.750   0.223
 8761TIP3    H226241   4.739   4.805   0.093
 8762TIP3   OH226242   7.368   1.162   1.024
 8762TIP3    H126243   7.421   1.193   1.097
 8762TIP3    H226244   7.406   1.077   1.001
 8763TIP3   OH226245   0.301   6.729   0.390
 8763TIP3    H126246   0.318   6.763   0.478
 8763TIP3    H226247   0.237   6.659   0.403
 8764TIP3   OH226248   2.082   7.430   0.417
 8764TIP3    H126249   2.003   7.397   0.460
 8764TIP3    H226250   2.051   7.464   0.332
 8765TIP3   OH226251   1.726   4.370   3.365
 8765TIP3    H126252   1.684   4.416   3.438
 8765TIP3    H226253   1.817   4.398   3.367
 8766TIP3   OH226254   7.405   4.583   1.751
 8766TIP3    H126255   7.316   4.618   1.739
 8766TIP3    H226256   7.393   4.504   1.803
 8767TIP3   OH226257   1.593   6.052   2.925
 8767TIP3    H126258   1.621   6.144   2.924
 8767TIP3    H226259   1.556   6.037   2.838
 8768TIP3   OH226260   4.467   4.031   2.352
 8768TIP3    H126261   4.437   3.943   2.376
 8768TIP3    H226262   4.391   4.087   2.367
 8769TIP3   OH226263   0.350   4.185   4.722
 8769TIP3    H126264   0.395   4.194   4.638
 8769TIP3    H226265   0.418   4.156   4.783
 8770TIP3   OH226266   1.926   4.495   0.053
 8770TIP3    H126267   1.840   4.494   0.094
 8770TIP3    H226268   1.987   4.477   0.124
 8771TIP3   OH226269   3.174   7.684   1.248
 8771TIP3    H126270   3.248   7.713   1.196
 8771TIP3    H226271   3.125   7.626   1.190
 8772TIP3   OH226272   4.531   1.306   6.520
 8772TIP3    H126273   4.480   1.258   6.455
 8772TIP3    H226274   4.575   1.238   6.571
 8773TIP3   OH226275   1.229   5.390   1.997
 8773TIP3    H126276   1.177   5.469   2.005
 8773TIP3    H226277   1.272   5.380   2.082
 8774TIP3   OH226278   1.874   6.087   2.432
 8774TIP3    H126279   1.799   6.030   2.450
 8774TIP3    H226280   1.857   6.122   2.345
 8775TIP3   OH226281   6.107   6.410   1.737
 8775TIP3    H126282   6.108   6.443   1.647
 8775TIP3    H226283   6.015   6.393   1.756
 8776TIP3   OH226284   2.973   1.307   2.723
 8776TIP3    H126285   3.048   1.281   2.670
 8776TIP3    H226286   3.000   1.290   2.813
 8777TIP3   OH226287   4.059   3.448   1.300
 8777TIP3    H126288   4.096   3.365   1.330
 8777TIP3    H226289   4.064   3.505   1.377
 8778TIP3   OH226290   7.232   0.060   6.102
 8778TIP3    H126291   7.227   0.131   6.039
 8778TIP3    H226292   7.315   0.073   6.147
 8779TIP3   OH226293   6.138   5.895   1.490
 8779TIP3    H126294   6.124   5.973   1.545
 8779TIP3    H226295   6.125   5.821   1.550
 8780TIP3   OH226296   1.382   0.182   0.693
 8780TIP3    H126297   1.452   0.192   0.629
 8780TIP3    H226298   1.303   0.208   0.647
 8781TIP3   OH226299   4.913   1.104   0.833
 8781TIP3    H126300   4.841   1.161   0.860
 8781TIP3    H226301   4.872   1.038   0.777
 8782TIP3   OH226302   6.593   7.654   4.355
 8782TIP3    H126303   6.593   7.623   4.265
 8782TIP3    H226304   6.553   7.583   4.405
 8783TIP3   OH226305   0.162   2.598   3.601
 8783TIP3    H126306   0.209   2.516   3.587
 8783TIP3    H226307   0.181   2.621   3.692
 8784TIP3   OH226308   6.056   6.035   5.244
 8784TIP3    H126309   6.061   5.943   5.270
 8784TIP3    H226310   6.130   6.047   5.185
 8785TIP3   OH226311   3.460   3.415   6.335
 8785TIP3    H126312   3.434   3.348   6.272
 8785TIP3    H226313   3.532   3.376   6.385
 8786TIP3   OH226314   8.085   4.721   4.097
 8786TIP3    H126315   8.009   4.776   4.080
 8786TIP3    H226316   8.071   4.643   4.043
 8787TIP3   OH226317   6.236   4.122   0.239
 8787TIP3    H126318   6.164   4.061   0.223
 8787TIP3    H226319   6.252   4.116   0.333
 8788TIP3   OH226320   0.065   4.830   6.585
 8788TIP3    H126321   0.037   4.867   6.501
 8788TIP3    H226322   0.064   4.736   6.572
 8789TIP3   OH226323   3.883   7.613   6.016
 8789TIP3    H126324   3.937   7.683   6.052
 8789TIP3    H226325   3.807   7.658   5.979
 8790TIP3   OH226326   7.102   1.582   3.551
 8790TIP3    H126327   7.093   1.622   3.464
 8790TIP3    H226328   7.025   1.612   3.599
 8791TIP3   OH226329   7.183   3.777   4.133
 8791TIP3    H126330   7.251   3.736   4.187
 8791TIP3    H226331   7.103   3.766   4.183
 8792TIP3   OH226332   5.586   0.024   5.285
 8792TIP3    H126333   5.516   0.001   5.224
 8792TIP3    H226334   5.570   0.117   5.306
 8793TIP3   OH226335   1.237   5.986   4.108
 8793TIP3    H126336   1.313   6.034   4.076
 8793TIP3    H226337   1.197   6.044   4.173
 8794TIP3   OH226338   1.558   6.002   2.072
 8794TIP3    H126339   1.515   5.935   2.019
 8794TIP3    H226340   1.638   5.959   2.104
 8795TIP3   OH226341   0.473   1.762   5.190
 8795TIP3    H126342   0.494   1.682   5.239
 8795TIP3    H226343   0.524   1.755   5.109
 8796TIP3   OH226344   3.711   6.682   2.335
 8796TIP3    H126345   3.729   6.654   2.245
 8796TIP3    H226346   3.676   6.771   2.326
 8797TIP3   OH226347   2.286   0.263   4.631
 8797TIP3    H126348   2.309   0.212   4.553
 8797TIP3    H226349   2.214   0.215   4.670
 8798TIP3   OH226350   7.062   2.490   1.077
 8798TIP3    H126351   6.998   2.501   1.148
 8798TIP3    H226352   7.023   2.423   1.021
 8799TIP3   OH226353   8.217   6.775   2.726
 8799TIP3    H126354   8.204   6.688   2.689
 8799TIP3    H226355   8.141   6.826   2.696
 8800TIP3   OH226356   0.367   0.171   3.480
 8800TIP3    H126357   0.280   0.160   3.518
 8800TIP3    H226358   0.361   0.250   3.427
 8801TIP3   OH226359   7.398   2.065   2.807
 8801TIP3    H126360   7.347   2.146   2.816
 8801TIP3    H226361   7.333   1.995   2.807
 8802TIP3   OH226362   7.988   6.674   0.308
 8802TIP3    H126363   7.937   6.716   0.377
 8802TIP3    H226364   8.072   6.653   0.349
 8803TIP3   OH226365   2.805   7.527   6.620
 8803TIP3    H126366   2.849   7.609   6.641
 8803TIP3    H226367   2.766   7.541   6.534
 8804TIP3   OH226368   7.980   3.401   5.581
 8804TIP3    H126369   8.022   3.316   5.570
 8804TIP3    H226370   7.932   3.393   5.664
 8805TIP3   OH226371   3.637   6.674   0.327
 8805TIP3    H126372   3.674   6.692   0.414
 8805TIP3    H226373   3.707   6.628   0.281
 8806TIP3   OH226374   8.078   0.994   1.932
 8806TIP3    H126375   8.055   0.909   1.895
 8806TIP3    H226376   7.998   1.023   1.976
 8807TIP3   OH226377   4.877   0.482   4.282
 8807TIP3    H126378   4.792   0.448   4.307
 8807TIP3    H226379   4.863   0.523   4.197
 8808TIP3   OH226380   1.816   7.643   0.836
 8808TIP3    H126381   1.764   7.565   0.852
 8808TIP3    H226382   1.824   7.685   0.921
 8809TIP3   OH226383   3.186   5.710   3.376
 8809TIP3    H126384   3.146   5.670   3.453
 8809TIP3    H226385   3.280   5.701   3.390
 8810TIP3   OH226386   1.982   7.245   5.940
 8810TIP3    H126387   2.065   7.203   5.917
 8810TIP3    H226388   1.998   7.338   5.925
 8811TIP3   OH226389   2.499   6.870   2.761
 8811TIP3    H126390   2.494   6.813   2.838
 8811TIP3    H226391   2.476   6.957   2.795
 8812TIP3   OH226392   6.967   6.758   6.181
 8812TIP3    H126393   6.970   6.763   6.085
 8812TIP3    H226394   7.048   6.712   6.204
 8813TIP3   OH226395   7.366   1.568   5.195
 8813TIP3    H126396   7.325   1.490   5.233
 8813TIP3    H226397   7.426   1.599   5.263
 8814TIP3   OH226398   7.167   2.559   3.555
 8814TIP3    H126399   7.211   2.474   3.557
 8814TIP3    H226400   7.232   2.620   3.589
 8815TIP3   OH226401   1.690   4.509   0.208
 8815TIP3    H126402   1.662   4.419   0.227
 8815TIP3    H226403   1.704   4.549   0.294
 8816TIP3   OH226404   3.329   4.758   3.280
 8816TIP3    H126405   3.264   4.799   3.223
 8816TIP3    H226406   3.406   4.815   3.274
 8817TIP3   OH226407   6.248   3.448   6.631
 8817TIP3    H126408   6.294   3.364   6.636
 8817TIP3    H226409   6.155   3.424   6.626
 8818TIP3   OH226410   1.972   5.034   6.178
 8818TIP3    H126411   1.927   5.115   6.151
 8818TIP3    H226412   2.014   5.056   6.261
 8819TIP3   OH226413   2.855   3.615   0.360
 8819TIP3    H126414   2.890   3.667   0.288
 8819TIP3    H226415   2.764   3.598   0.336
 8820TIP3   OH226416   4.920   1.776   5.604
 8820TIP3    H126417   4.857   1.734   5.662
 8820TIP3    H226418   4.945   1.857   5.649
 8821TIP3   OH226419   3.484   7.613   4.702
 8821TIP3    H126420   3.565   7.664   4.695
 8821TIP3    H226421   3.507   7.527   4.665
 8822TIP3   OH226422   0.943   1.038   4.828
 8822TIP3    H126423   0.889   0.960   4.839
 8822TIP3    H226424   0.911   1.078   4.748
 8823TIP3   OH226425   3.596   6.090   6.245
 8823TIP3    H126426   3.512   6.065   6.205
 8823TIP3    H226427   3.647   6.126   6.172
 8824TIP3   OH226428   5.819   3.995   2.038
 8824TIP3    H126429   5.899   3.966   1.992
 8824TIP3    H226430   5.834   4.088   2.056
 8825TIP3   OH226431   5.355   5.485   3.574
 8825TIP3    H126432   5.287   5.426   3.544
 8825TIP3    H226433   5.327   5.510   3.663
 8826TIP3   OH226434   2.885   2.137   2.755
 8826TIP3    H126435   2.959   2.168   2.703
 8826TIP3    H226436   2.867   2.049   2.722
 8827TIP3   OH226437   1.565   7.048   0.938
 8827TIP3    H126438   1.637   7.112   0.944
 8827TIP3    H226439   1.600   6.978   0.882
 8828TIP3   OH226440   4.627   6.966   3.836
 8828TIP3    H126441   4.643   7.060   3.844
 8828TIP3    H226442   4.663   6.943   3.750
 8829TIP3   OH226443   0.117   7.094   0.094
 8829TIP3    H126444   0.092   7.005   0.068
 8829TIP3    H226445   0.210   7.099   0.075
 8830TIP3   OH226446   2.759   5.207   2.169
 8830TIP3    H126447   2.830   5.216   2.232
 8830TIP3    H226448   2.717   5.123   2.191
 8831TIP3   OH226449   6.809   4.550   3.894
 8831TIP3    H126450   6.839   4.534   3.983
 8831TIP3    H226451   6.834   4.641   3.876
 8832TIP3   OH226452   7.780   4.983   3.686
 8832TIP3    H126453   7.846   5.051   3.692
 8832TIP3    H226454   7.823   4.911   3.641
 8833TIP3   OH226455   0.034   3.509   2.006
 8833TIP3    H126456   0.036   3.464   2.090
 8833TIP3    H226457  -0.055   3.544   1.999
 8834TIP3   OH226458   5.256   5.873   4.501
 8834TIP3    H126459   5.235   5.829   4.419
 8834TIP3    H226460   5.276   5.963   4.476
 8835TIP3   OH226461   4.046   2.837   6.015
 8835TIP3    H126462   3.956   2.827   6.045
 8835TIP3    H226463   4.093   2.765   6.057
 8836TIP3   OH226464   2.180   2.236   6.164
 8836TIP3    H126465   2.151   2.145   6.153
 8836TIP3    H226466   2.098   2.287   6.159
 8837TIP3   OH226467   2.230   5.620   5.755
 8837TIP3    H126468   2.311   5.648   5.713
 8837TIP3    H226469   2.199   5.547   5.702
 8838TIP3   OH226470   6.660   5.942   4.396
 8838TIP3    H126471   6.672   6.004   4.468
 8838TIP3    H226472   6.733   5.881   4.404
 8839TIP3   OH226473   3.365   2.115   4.174
 8839TIP3    H126474   3.404   2.145   4.093
 8839TIP3    H226475   3.437   2.073   4.222
 8840TIP3   OH226476   1.439   0.245   5.858
 8840TIP3    H126477   1.467   0.209   5.942
 8840TIP3    H226478   1.383   0.319   5.881
 8841TIP3   OH226479   5.840   1.285   3.417
 8841TIP3    H126480   5.918   1.238   3.446
 8841TIP3    H226481   5.818   1.246   3.332
 8842TIP3   OH226482   4.808   6.317   1.565
 8842TIP3    H126483   4.904   6.325   1.567
 8842TIP3    H226484   4.781   6.379   1.497
 8843TIP3   OH226485   0.843   6.443   0.093
 8843TIP3    H126486   0.893   6.475   0.018
 8843TIP3    H226487   0.761   6.491   0.089
 8844TIP3   OH226488   6.908   5.487   5.298
 8844TIP3    H126489   6.910   5.399   5.261
 8844TIP3    H226490   6.823   5.493   5.341
 8845TIP3   OH226491   2.272   0.172   6.356
 8845TIP3    H126492   2.291   0.171   6.262
 8845TIP3    H226493   2.300   0.085   6.386
 8846TIP3   OH226494   5.255   4.580   5.064
 8846TIP3    H126495   5.343   4.601   5.033
 8846TIP3    H226496   5.265   4.497   5.111
 8847TIP3   OH226497   1.419   3.394   4.678
 8847TIP3    H126498   1.359   3.403   4.753
 8847TIP3    H226499   1.464   3.311   4.694
 8848TIP3   OH226500   2.079   2.162   3.769
 8848TIP3    H126501   2.050   2.102   3.700
 8848TIP3    H226502   2.014   2.232   3.769
 8849TIP3   OH226503   6.762   6.613   1.358
 8849TIP3    H126504   6.687   6.616   1.298
 8849TIP3    H226505   6.815   6.540   1.328
 8850TIP3   OH226506   1.950   3.882   2.236
 8850TIP3    H126507   1.857   3.900   2.247
 8850TIP3    H226508   1.989   3.968   2.218
 8851TIP3   OH226509   4.104   1.515   1.848
 8851TIP3    H126510   4.193   1.526   1.814
 8851TIP3    H226511   4.079   1.427   1.820
 8852TIP3   OH226512   4.300   2.035   0.341
 8852TIP3    H126513   4.250   1.967   0.295
 8852TIP3    H226514   4.342   1.990   0.414
 8853TIP3   OH226515   5.256   7.461   5.416
 8853TIP3    H126516   5.177   7.407   5.425
 8853TIP3    H226517   5.327   7.405   5.447
 8854TIP3   OH226518   5.794   5.135   2.640
 8854TIP3    H126519   5.840   5.188   2.705
 8854TIP3    H226520   5.864   5.101   2.584
 8855TIP3   OH226521   0.664   4.641   3.252
 8855TIP3    H126522   0.604   4.689   3.309
 8855TIP3    H226523   0.672   4.555   3.294
 8856TIP3   OH226524   1.644   2.056   4.703
 8856TIP3    H126525   1.718   2.005   4.737
 8856TIP3    H226526   1.594   2.080   4.781
 8857TIP3   OH226527   0.446   0.270   5.753
 8857TIP3    H126528   0.454   0.209   5.826
 8857TIP3    H226529   0.411   0.350   5.792
 8858TIP3   OH226530   5.368   6.714   3.791
 8858TIP3    H126531   5.313   6.786   3.824
 8858TIP3    H226532   5.374   6.653   3.864
 8859TIP3   OH226533   1.067   6.262   3.977
 8859TIP3    H126534   1.147   6.212   3.957
 8859TIP3    H226535   0.998   6.216   3.930
 8860TIP3   OH226536   3.516   0.511   3.692
 8860TIP3    H126537   3.480   0.444   3.634
 8860TIP3    H226538   3.511   0.472   3.779
 8861TIP3   OH226539   7.340   7.578   3.956
 8861TIP3    H126540   7.424   7.550   3.920
 8861TIP3    H226541   7.363   7.636   4.029
 8862TIP3   OH226542   0.891   7.232   1.976
 8862TIP3    H126543   0.954   7.304   1.982
 8862TIP3    H226544   0.945   7.155   1.962
 8863TIP3   OH226545   1.246   7.044   1.116
 8863TIP3    H126546   1.286   7.130   1.106
 8863TIP3    H226547   1.192   7.051   1.195
 8864TIP3   OH226548   5.177   3.966   2.924
 8864TIP3    H126549   5.143   3.996   2.839
 8864TIP3    H226550   5.159   3.872   2.924
 8865TIP3   OH226551   4.235   5.581   3.325
 8865TIP3    H126552   4.187   5.612   3.249
 8865TIP3    H226553   4.310   5.534   3.288
 8866TIP3   OH226554   6.481   1.703   2.702
 8866TIP3    H126555   6.474   1.607   2.695
 8866TIP3    H226556   6.390   1.733   2.707
 8867TIP3   OH226557   3.026   0.690   1.895
 8867TIP3    H126558   3.081   0.658   1.967
 8867TIP3    H226559   3.084   0.688   1.819
 8868TIP3   OH226560   4.718   2.465   3.073
 8868TIP3    H126561   4.750   2.469   3.163
 8868TIP3    H226562   4.759   2.540   3.030
 8869TIP3   OH226563   2.891   1.581   4.231
 8869TIP3    H126564   2.926   1.549   4.315
 8869TIP3    H226565   2.927   1.521   4.166
 8870TIP3   OH226566   8.003   4.170   4.353
 8870TIP3    H126567   8.061   4.177   4.429
 8870TIP3    H226568   8.010   4.256   4.310
 8871TIP3   OH226569   7.855   0.405   2.278
 8871TIP3    H126570   7.933   0.460   2.270
 8871TIP3    H226571   7.785   0.458   2.240
 8872TIP3   OH226572   2.139   6.745   6.156
 8872TIP3    H126573   2.212   6.745   6.094
 8872TIP3    H226574   2.110   6.837   6.159
 8873TIP3   OH226575   0.214   1.314   3.897
 8873TIP3    H126576   0.253   1.363   3.825
 8873TIP3    H226577   0.122   1.341   3.896
 8874TIP3   OH226578   4.866   7.790   1.071
 8874TIP3    H126579   4.926   7.852   1.028
 8874TIP3    H226580   4.895   7.704   1.042
 8875TIP3   OH226581   3.238   1.298   6.076
 8875TIP3    H126582   3.228   1.338   5.989
 8875TIP3    H226583   3.304   1.353   6.119
 8876TIP3   OH226584   8.132   5.786   3.116
 8876TIP3    H126585   8.157   5.730   3.189
 8876TIP3    H226586   8.209   5.785   3.059
 8877TIP3   OH226587   1.558   5.953   4.083
 8877TIP3    H126588   1.646   5.960   4.121
 8877TIP3    H226589   1.573   5.920   3.994
 8878TIP3   OH226590   2.168   7.512   0.931
 8878TIP3    H126591   2.186   7.590   0.984
 8878TIP3    H226592   2.202   7.534   0.845
 8879TIP3   OH226593   1.065   2.374   6.700
 8879TIP3    H126594   1.141   2.418   6.737
 8879TIP3    H226595   1.079   2.281   6.720
 8880TIP3   OH226596   7.138   2.864   4.469
 8880TIP3    H126597   7.131   2.832   4.559
 8880TIP3    H226598   7.131   2.786   4.415
 8881TIP3   OH226599   0.653   1.492   1.799
 8881TIP3    H126600   0.593   1.505   1.726
 8881TIP3    H226601   0.595   1.482   1.875
 8882TIP3   OH226602   3.029   3.950   6.391
 8882TIP3    H126603   3.059   3.978   6.304
 8882TIP3    H226604   2.959   3.887   6.373
 8883TIP3   OH226605   7.058   7.263   1.512
 8883TIP3    H126606   7.008   7.293   1.435
 8883TIP3    H226607   7.149   7.281   1.489
 8884TIP3   OH226608   3.560   7.397   3.787
 8884TIP3    H126609   3.548   7.474   3.843
 8884TIP3    H226610   3.525   7.325   3.839
 8885TIP3   OH226611   1.263   6.229   2.803
 8885TIP3    H126612   1.320   6.270   2.867
 8885TIP3    H226613   1.323   6.180   2.746
 8886TIP3   OH226614   3.322   5.930   2.041
 8886TIP3    H126615   3.355   6.010   2.081
 8886TIP3    H226616   3.330   5.945   1.947
 8887TIP3   OH226617   6.631   6.913   4.330
 8887TIP3    H126618   6.601   6.878   4.414
 8887TIP3    H226619   6.595   6.851   4.266
 8888TIP3   OH226620   7.429   0.099   4.438
 8888TIP3    H126621   7.489   0.171   4.457
 8888TIP3    H226622   7.358   0.109   4.501
 8889TIP3   OH226623   8.024   3.167   3.960
 8889TIP3    H126624   7.995   3.084   3.998
 8889TIP3    H226625   8.119   3.156   3.950
 8890TIP3   OH226626   2.111   3.844   5.569
 8890TIP3    H126627   2.065   3.836   5.485
 8890TIP3    H226628   2.045   3.877   5.630
 8891TIP3   OH226629   4.777   2.475   3.636
 8891TIP3    H126630   4.815   2.535   3.700
 8891TIP3    H226631   4.751   2.399   3.687
 8892TIP3   OH226632   1.280   0.491   4.823
 8892TIP3    H126633   1.306   0.421   4.763
 8892TIP3    H226634   1.216   0.450   4.882
 8893TIP3   OH226635   1.040   5.596   3.614
 8893TIP3    H126636   1.045   5.598   3.518
 8893TIP3    H226637   0.970   5.533   3.632
 8894TIP3   OH226638   0.549   5.844   3.285
 8894TIP3    H126639   0.637   5.846   3.246
 8894TIP3    H226640   0.491   5.827   3.211
 8895TIP3   OH226641   2.849   3.765   6.309
 8895TIP3    H126642   2.768   3.748   6.260
 8895TIP3    H226643   2.849   3.698   6.378
 8896TIP3   OH226644   3.787   3.599   5.540
 8896TIP3    H126645   3.698   3.605   5.573
 8896TIP3    H226646   3.780   3.614   5.446
 8897TIP3   OH226647   2.387   4.947   2.750
 8897TIP3    H126648   2.453   4.960   2.682
 8897TIP3    H226649   2.421   4.876   2.804
 8898TIP3   OH226650   3.043   6.882   6.711
 8898TIP3    H126651   3.033   6.805   6.655
 8898TIP3    H226652   2.980   6.869   6.781
 8899TIP3   OH226653   1.342   3.253   6.160
 8899TIP3    H126654   1.287   3.198   6.105
 8899TIP3    H226655   1.380   3.193   6.224
 8900TIP3   OH226656   3.911   5.306   1.695
 8900TIP3    H126657   3.942   5.395   1.684
 8900TIP3    H226658   3.829   5.315   1.743
 8901TIP3   OH226659   7.368   4.470   1.305
 8901TIP3    H126660   7.458   4.454   1.278
 8901TIP3    H226661   7.369   4.561   1.336
 8902TIP3   OH226662   6.146   7.463   2.441
 8902TIP3    H126663   6.167   7.546   2.399
 8902TIP3    H226664   6.205   7.458   2.516
 8903TIP3   OH226665   6.478   5.479   6.218
 8903TIP3    H126666   6.567   5.490   6.253
 8903TIP3    H226667   6.484   5.403   6.161
 8904TIP3   OH226668   6.664   5.262   0.678
 8904TIP3    H126669   6.757   5.238   0.676
 8904TIP3    H226670   6.663   5.357   0.671
 8905TIP3   OH226671   6.502   6.859   0.502
 8905TIP3    H126672   6.494   6.838   0.409
 8905TIP3    H226673   6.421   6.825   0.541
 8906TIP3   OH226674   4.481   5.769   4.195
 8906TIP3    H126675   4.413   5.806   4.138
 8906TIP3    H226676   4.460   5.676   4.200
 8907TIP3   OH226677   1.801   6.445   4.420
 8907TIP3    H126678   1.843   6.523   4.456
 8907TIP3    H226679   1.856   6.373   4.450
 8908TIP3   OH226680   4.928   3.653   6.354
 8908TIP3    H126681   4.866   3.594   6.397
 8908TIP3    H226682   5.010   3.604   6.350
 8909TIP3   OH226683   6.657   5.425   5.383
 8909TIP3    H126684   6.602   5.368   5.438
 8909TIP3    H226685   6.637   5.398   5.293
 8910TIP3   OH226686   1.648   4.564   1.374
 8910TIP3    H126687   1.625   4.598   1.461
 8910TIP3    H226688   1.569   4.578   1.321
 8911TIP3   OH226689   3.482   0.544   2.413
 8911TIP3    H126690   3.505   0.585   2.497
 8911TIP3    H226691   3.486   0.616   2.350
 8912TIP3   OH226692   2.929   7.685   3.776
 8912TIP3    H126693   2.846   7.730   3.793
 8912TIP3    H226694   2.949   7.705   3.685
 8913TIP3   OH226695   5.952   1.933   1.133
 8913TIP3    H126696   5.906   1.938   1.217
 8913TIP3    H226697   5.974   2.023   1.113
 8914TIP3   OH226698   0.064   2.738   0.051
 8914TIP3    H126699   0.038   2.648   0.072
 8914TIP3    H226700   0.127   2.762   0.119
 8915TIP3   OH226701   7.344   7.259   0.144
 8915TIP3    H126702   7.388   7.214   0.071
 8915TIP3    H226703   7.252   7.234   0.136
 8916TIP3   OH226704   3.640   5.814   1.077
 8916TIP3    H126705   3.593   5.826   1.159
 8916TIP3    H226706   3.592   5.867   1.013
 8917TIP3   OH226707   4.351   7.164   1.838
 8917TIP3    H126708   4.256   7.169   1.824
 8917TIP3    H226709   4.376   7.253   1.863
 8918TIP3   OH226710   6.439   2.039   3.341
 8918TIP3    H126711   6.401   1.999   3.263
 8918TIP3    H226712   6.375   2.105   3.368
 8919TIP3   OH226713   2.494   3.151   3.449
 8919TIP3    H126714   2.449   3.101   3.516
 8919TIP3    H226715   2.561   3.201   3.497
 8920TIP3   OH226716   0.579   0.886   1.075
 8920TIP3    H126717   0.633   0.911   0.999
 8920TIP3    H226718   0.618   0.804   1.106
 8921TIP3   OH226719   2.534   5.210   3.669
 8921TIP3    H126720   2.490   5.224   3.753
 8921TIP3    H226721   2.607   5.273   3.669
 8922TIP3   OH226722   7.237   6.583   5.457
 8922TIP3    H126723   7.298   6.540   5.517
 8922TIP3    H226724   7.204   6.511   5.402
 8923TIP3   OH226725   0.650   6.173   1.572
 8923TIP3    H126726   0.655   6.135   1.660
 8923TIP3    H226727   0.707   6.249   1.576
 8924TIP3   OH226728   7.328   4.281   1.490
 8924TIP3    H126729   7.308   4.358   1.437
 8924TIP3    H226730   7.418   4.295   1.520
 8925TIP3   OH226731   0.239   2.580   2.346
 8925TIP3    H126732   0.324   2.579   2.304
 8925TIP3    H226733   0.176   2.593   2.274
 8926TIP3   OH226734   3.339   2.926   6.063
 8926TIP3    H126735   3.250   2.956   6.083
 8926TIP3    H226736   3.370   2.888   6.144
 8927TIP3   OH226737   2.490   1.958   3.864
 8927TIP3    H126738   2.480   1.978   3.771
 8927TIP3    H226739   2.460   1.868   3.872
 8928TIP3   OH226740   6.094   3.553   5.026
 8928TIP3    H126741   6.060   3.464   5.036
 8928TIP3    H226742   6.071   3.577   4.936
 8929TIP3   OH226743   2.108   3.153   4.859
 8929TIP3    H126744   2.170   3.159   4.787
 8929TIP3    H226745   2.149   3.094   4.922
 8930TIP3   OH226746   7.876   1.405   3.880
 8930TIP3    H126747   7.818   1.334   3.850
 8930TIP3    H226748   7.928   1.427   3.803
 8931TIP3   OH226749   7.133   1.837   1.666
 8931TIP3    H126750   7.062   1.806   1.721
 8931TIP3    H226751   7.184   1.758   1.645
 8932TIP3   OH226752   3.680   5.407   0.829
 8932TIP3    H126753   3.703   5.449   0.746
 8932TIP3    H226754   3.763   5.377   0.864
 8933TIP3   OH226755   5.121   4.461   4.131
 8933TIP3    H126756   5.132   4.424   4.219
 8933TIP3    H226757   5.122   4.556   4.145
 8934TIP3   OH226758   0.950   1.273   3.477
 8934TIP3    H126759   0.887   1.284   3.547
 8934TIP3    H226760   0.901   1.232   3.406
 8935TIP3   OH226761   7.723   6.826   3.409
 8935TIP3    H126762   7.702   6.733   3.404
 8935TIP3    H226763   7.781   6.841   3.335
 8936TIP3   OH226764   6.964   4.637   4.701
 8936TIP3    H126765   7.055   4.613   4.715
 8936TIP3    H226766   6.967   4.730   4.679
 8937TIP3   OH226767   6.504   4.313   0.627
 8937TIP3    H126768   6.434   4.362   0.670
 8937TIP3    H226769   6.551   4.271   0.699
 8938TIP3   OH226770   5.572   4.173   5.835
 8938TIP3    H126771   5.537   4.162   5.746
 8938TIP3    H226772   5.494   4.181   5.890
 8939TIP3   OH226773   0.336   3.143   3.850
 8939TIP3    H126774   0.267   3.156   3.785
 8939TIP3    H226775   0.303   3.187   3.928
 8940TIP3   OH226776   1.687   0.544   3.399
 8940TIP3    H126777   1.630   0.593   3.458
 8940TIP3    H226778   1.725   0.610   3.342
 8941TIP3   OH226779   6.031   1.831   5.324
 8941TIP3    H126780   6.068   1.897   5.266
 8941TIP3    H226781   6.075   1.750   5.299
 8942TIP3   OH226782   3.603   5.611   5.836
 8942TIP3    H126783   3.508   5.606   5.836
 8942TIP3    H226784   3.627   5.629   5.927
 8943TIP3   OH226785   1.637   4.094   5.017
 8943TIP3    H126786   1.718   4.120   5.060
 8943TIP3    H226787   1.590   4.042   5.083
 8944TIP3   OH226788   3.915   1.029   1.066
 8944TIP3    H126789   3.948   0.951   1.023
 8944TIP3    H226790   3.932   1.100   1.004
 8945TIP3   OH226791   6.663   3.522   5.896
 8945TIP3    H126792   6.737   3.461   5.890
 8945TIP3    H226793   6.606   3.484   5.962
 8946TIP3   OH226794   5.894   5.132   4.153
 8946TIP3    H126795   5.986   5.140   4.177
 8946TIP3    H226796   5.894   5.085   4.070
 8947TIP3   OH226797   8.203   4.781   5.774
 8947TIP3    H126798   8.194   4.763   5.680
 8947TIP3    H226799   8.128   4.738   5.814
 8948TIP3   OH226800   5.253   0.658   4.408
 8948TIP3    H126801   5.283   0.739   4.367
 8948TIP3    H226802   5.305   0.589   4.367
 8949TIP3   OH226803   4.422   3.762   6.135
 8949TIP3    H126804   4.372   3.718   6.066
 8949TIP3    H226805   4.406   3.855   6.121
 8950TIP3   OH226806   8.194   0.466   4.915
 8950TIP3    H126807   8.158   0.379   4.898
 8950TIP3    H226808   8.248   0.456   4.993
 8951TIP3   OH226809   3.324   4.136   5.840
 8951TIP3    H126810   3.326   4.040   5.843
 8951TIP3    H226811   3.385   4.159   5.770
 8952TIP3   OH226812   3.397   2.059   0.005
 8952TIP3    H126813   3.447   1.985  -0.029
 8952TIP3    H226814   3.452   2.097   0.074
 8953TIP3   OH226815   2.674   4.009   1.038
 8953TIP3    H126816   2.749   4.055   1.074
 8953TIP3    H226817   2.698   3.916   1.042
 8954TIP3   OH226818   5.304   2.973   1.549
 8954TIP3    H126819   5.360   3.043   1.582
 8954TIP3    H226820   5.365   2.902   1.528
 8955TIP3   OH226821   3.760   3.057   3.788
 8955TIP3    H126822   3.731   2.971   3.757
 8955TIP3    H226823   3.688   3.088   3.843
 8956TIP3   OH226824   5.033   2.332   3.595
 8956TIP3    H126825   4.995   2.412   3.560
 8956TIP3    H226826   4.959   2.285   3.632
 8957TIP3   OH226827   7.806   5.851   1.357
 8957TIP3    H126828   7.899   5.860   1.337
 8957TIP3    H226829   7.765   5.931   1.323
 8958TIP3   OH226830   4.476   4.554   1.358
 8958TIP3    H126831   4.566   4.587   1.355
 8958TIP3    H226832   4.426   4.625   1.398
 8959TIP3   OH226833   6.826   2.563   3.957
 8959TIP3    H126834   6.806   2.526   3.871
 8959TIP3    H226835   6.909   2.609   3.944
 8960TIP3   OH226836   8.174   0.237   2.891
 8960TIP3    H126837   8.254   0.187   2.908
 8960TIP3    H226838   8.121   0.180   2.835
 8961TIP3   OH226839   5.189   7.702   4.535
 8961TIP3    H126840   5.264   7.682   4.479
 8961TIP3    H226841   5.221   7.771   4.593
 8962TIP3   OH226842   5.847   0.530   4.606
 8962TIP3    H126843   5.926   0.573   4.574
 8962TIP3    H226844   5.845   0.446   4.560
 8963TIP3   OH226845   2.517   3.427   2.042
 8963TIP3    H126846   2.506   3.506   1.988
 8963TIP3    H226847   2.433   3.382   2.036
 8964TIP3   OH226848   0.850   1.527   6.304
 8964TIP3    H126849   0.881   1.543   6.393
 8964TIP3    H226850   0.897   1.592   6.251
 8965TIP3   OH226851   4.076   4.374   5.823
 8965TIP3    H126852   4.074   4.442   5.755
 8965TIP3    H226853   4.033   4.414   5.898
 8966TIP3   OH226854   4.669   2.718   3.969
 8966TIP3    H126855   4.762   2.703   3.952
 8966TIP3    H226856   4.638   2.635   4.004
 8967TIP3   OH226857   2.730   6.328   4.192
 8967TIP3    H126858   2.795   6.263   4.219
 8967TIP3    H226859   2.727   6.321   4.097
 8968TIP3   OH226860   4.307   5.837   2.394
 8968TIP3    H126861   4.251   5.913   2.408
 8968TIP3    H226862   4.396   5.869   2.409
 8969TIP3   OH226863   2.296   1.806   0.345
 8969TIP3    H126864   2.305   1.761   0.261
 8969TIP3    H226865   2.321   1.740   0.410
 8970TIP3   OH226866   6.239   1.843   4.747
 8970TIP3    H126867   6.266   1.849   4.655
 8970TIP3    H226868   6.262   1.754   4.773
 8971TIP3   OH226869   7.579   0.641   2.960
 8971TIP3    H126870   7.553   0.732   2.974
 8971TIP3    H226871   7.584   0.632   2.865
 8972TIP3   OH226872   5.598   6.245   6.413
 8972TIP3    H126873   5.581   6.266   6.321
 8972TIP3    H226874   5.589   6.328   6.459
 8973TIP3   OH226875   7.470   3.686   5.554
 8973TIP3    H126876   7.539   3.738   5.594
 8973TIP3    H226877   7.514   3.606   5.525
 8974TIP3   OH226878   6.933   6.527   0.713
 8974TIP3    H126879   6.972   6.614   0.705
 8974TIP3    H226880   6.859   6.539   0.773
 8975TIP3   OH226881   3.220   1.194   0.611
 8975TIP3    H126882   3.208   1.099   0.611
 8975TIP3    H226883   3.311   1.207   0.638
 8976TIP3   OH226884   3.704   2.539   2.414
 8976TIP3    H126885   3.657   2.600   2.358
 8976TIP3    H226886   3.639   2.512   2.479
 8977TIP3   OH226887   3.116   2.157   0.067
 8977TIP3    H126888   3.051   2.219   0.034
 8977TIP3    H226889   3.090   2.073   0.029
 8978TIP3   OH226890   4.810   2.156   2.860
 8978TIP3    H126891   4.793   2.179   2.769
 8978TIP3    H226892   4.724   2.157   2.902
 8979TIP3   OH226893   8.054   6.988   0.189
 8979TIP3    H126894   8.122   7.013   0.251
 8979TIP3    H226895   7.984   6.952   0.243
 8980TIP3   OH226896   4.485   0.086   3.701
 8980TIP3    H126897   4.449   0.174   3.701
 8980TIP3    H226898   4.454   0.048   3.618
 8981TIP3   OH226899   6.504   1.096   4.346
 8981TIP3    H126900   6.500   1.097   4.441
 8981TIP3    H226901   6.537   1.009   4.323
 8982TIP3   OH226902   3.712   6.845   2.911
 8982TIP3    H126903   3.712   6.891   2.827
 8982TIP3    H226904   3.639   6.783   2.903
 8983TIP3   OH226905   7.056   0.766   1.746
 8983TIP3    H126906   7.047   0.709   1.822
 8983TIP3    H226907   7.139   0.740   1.706
 8984TIP3   OH226908   7.904   0.995   2.976
 8984TIP3    H126909   7.985   1.026   2.936
 8984TIP3    H226910   7.835   1.039   2.927
 8985TIP3   OH226911   8.143   4.131   6.726
 8985TIP3    H126912   8.201   4.064   6.690
 8985TIP3    H226913   8.189   4.214   6.710
 8986TIP3   OH226914   7.523   6.101   4.474
 8986TIP3    H126915   7.576   6.058   4.406
 8986TIP3    H226916   7.475   6.030   4.515
 8987TIP3   OH226917   0.705   5.444   1.891
 8987TIP3    H126918   0.707   5.434   1.986
 8987TIP3    H226919   0.686   5.356   1.858
 8988TIP3   OH226920   5.068   3.368   4.656
 8988TIP3    H126921   4.994   3.393   4.601
 8988TIP3    H226922   5.097   3.450   4.697
 8989TIP3   OH226923   0.802   4.962   3.025
 8989TIP3    H126924   0.883   5.014   3.027
 8989TIP3    H226925   0.758   4.985   3.107
 8990TIP3   OH226926   3.348   1.767   3.789
 8990TIP3    H126927   3.328   1.673   3.797
 8990TIP3    H226928   3.267   1.805   3.753
 8991TIP3   OH226929   4.463   1.991   0.083
 8991TIP3    H126930   4.447   1.899   0.065
 8991TIP3    H226931   4.413   2.010   0.162
 8992TIP3   OH226932   5.895   4.406   2.757
 8992TIP3    H126933   5.931   4.357   2.683
 8992TIP3    H226934   5.881   4.340   2.825
 8993TIP3   OH226935   8.006   1.370   4.127
 8993TIP3    H126936   8.082   1.313   4.120
 8993TIP3    H226937   7.941   1.331   4.069
 8994TIP3   OH226938   6.202   7.615   3.733
 8994TIP3    H126939   6.179   7.687   3.674
 8994TIP3    H226940   6.290   7.636   3.764
 8995TIP3   OH226941   7.632   2.158   0.765
 8995TIP3    H126942   7.570   2.094   0.729
 8995TIP3    H226943   7.590   2.242   0.752
 8996TIP3   OH226944   7.214   4.568   6.086
 8996TIP3    H126945   7.308   4.562   6.069
 8996TIP3    H226946   7.203   4.648   6.137
 8997TIP3   OH226947   0.428   4.351   6.578
 8997TIP3    H126948   0.510   4.300   6.576
 8997TIP3    H226949   0.362   4.289   6.606
 8998TIP3   OH226950   3.198   1.709   1.405
 8998TIP3    H126951   3.145   1.742   1.478
 8998TIP3    H226952   3.280   1.679   1.446
 8999TIP3   OH226953   2.480   0.684   4.454
 8999TIP3    H126954   2.520   0.631   4.522
 8999TIP3    H226955   2.468   0.770   4.494
 9000TIP3   OH226956   3.091   3.185   3.797
 9000TIP3    H126957   3.146   3.144   3.731
 9000TIP3    H226958   3.065   3.269   3.759
 9001TIP3   OH226959   3.103   4.905   2.148
 9001TIP3    H126960   3.014   4.878   2.128
 9001TIP3    H226961   3.093   4.976   2.212
 9002TIP3   OH226962   3.196   5.411   3.982
 9002TIP3    H126963   3.219   5.319   3.969
 9002TIP3    H226964   3.162   5.440   3.897
 9003TIP3   OH226965   4.754   7.593   0.755
 9003TIP3    H126966   4.805   7.589   0.836
 9003TIP3    H226967   4.757   7.685   0.729
 9004TIP3   OH226968   5.329   1.894   5.426
 9004TIP3    H126969   5.258   1.871   5.486
 9004TIP3    H226970   5.293   1.965   5.372
 9005TIP3   OH226971   2.801   5.338   4.469
 9005TIP3    H126972   2.736   5.405   4.447
 9005TIP3    H226973   2.763   5.256   4.438
 9006TIP3   OH226974   5.932   3.378   1.179
 9006TIP3    H126975   5.969   3.403   1.264
 9006TIP3    H226976   5.879   3.454   1.153
 9007TIP3   OH226977   8.113   2.438   4.333
 9007TIP3    H126978   8.069   2.363   4.293
 9007TIP3    H226979   8.152   2.485   4.259
 9008TIP3   OH226980   7.580   6.794   0.466
 9008TIP3    H126981   7.567   6.702   0.442
 9008TIP3    H226982   7.525   6.842   0.405
 9009TIP3   OH226983   3.794   6.960   5.802
 9009TIP3    H126984   3.709   6.920   5.784
 9009TIP3    H226985   3.856   6.888   5.794
 9010TIP3   OH226986   1.706   7.700   3.915
 9010TIP3    H126987   1.732   7.634   3.851
 9010TIP3    H226988   1.750   7.780   3.886
 9011TIP3   OH226989   5.007   0.881   6.231
 9011TIP3    H126990   4.972   0.915   6.313
 9011TIP3    H226991   5.082   0.937   6.211
 9012TIP3   OH226992   8.066   7.003   5.037
 9012TIP3    H126993   8.059   6.923   5.090
 9012TIP3    H226994   8.158   7.007   5.011
 9013TIP3   OH226995   2.821   4.353   2.112
 9013TIP3    H126996   2.898   4.403   2.142
 9013TIP3    H226997   2.842   4.262   2.131
 9014TIP3   OH226998   6.647   3.891   6.020
 9014TIP3    H126999   6.724   3.908   6.074
 9014TIP3    H227000   6.682   3.851   5.940
 9015TIP3   OH227001   5.894   2.205   4.968
 9015TIP3    H127002   5.826   2.262   5.003
 9015TIP3    H227003   5.942   2.259   4.906
 9016TIP3   OH227004   2.489   3.573   3.454
 9016TIP3    H127005   2.444   3.531   3.527
 9016TIP3    H227006   2.579   3.541   3.460
 9017TIP3   OH227007   4.838   1.792   6.595
 9017TIP3    H127008   4.788   1.714   6.619
 9017TIP3    H227009   4.929   1.762   6.594
 9018TIP3   OH227010   6.793   6.305   1.996
 9018TIP3    H127011   6.731   6.310   1.924
 9018TIP3    H227012   6.820   6.396   2.012
 9019TIP3   OH227013   5.304   1.743   3.071
 9019TIP3    H127014   5.210   1.738   3.090
 9019TIP3    H227015   5.335   1.815   3.125
 9020TIP3   OH227016   5.050   0.707   6.601
 9020TIP3    H127017   4.997   0.631   6.577
 9020TIP3    H227018   5.132   0.695   6.554
 9021TIP3   OH227019   7.409   2.843   4.853
 9021TIP3    H127020   7.328   2.892   4.870
 9021TIP3    H227021   7.386   2.752   4.872
 9022TIP3   OH227022   5.017   5.489   4.148
 9022TIP3    H127023   4.930   5.500   4.109
 9022TIP3    H227024   5.030   5.394   4.151
 9023TIP3   OH227025   3.328   2.661   4.414
 9023TIP3    H127026   3.339   2.634   4.505
 9023TIP3    H227027   3.283   2.587   4.372
 9024TIP3   OH227028   3.174   3.958   4.575
 9024TIP3    H127029   3.171   4.042   4.621
 9024TIP3    H227030   3.114   3.970   4.501
 9025TIP3   OH227031   0.564  -0.002   3.576
 9025TIP3    H127032   0.483   0.049   3.576
 9025TIP3    H227033   0.628   0.055   3.618
 9026TIP3   OH227034   5.861   0.231   3.317
 9026TIP3    H127035   5.913   0.245   3.238
 9026TIP3    H227036   5.923   0.195   3.380
 9027TIP3   OH227037   8.076   4.941   2.907
 9027TIP3    H127038   8.156   4.901   2.942
 9027TIP3    H227039   8.008   4.919   2.971
 9028TIP3   OH227040   5.555   0.676   2.007
 9028TIP3    H127041   5.500   0.699   1.932
 9028TIP3    H227042   5.644   0.686   1.974
 9029TIP3   OH227043   3.736   4.754   2.622
 9029TIP3    H127044   3.821   4.730   2.659
 9029TIP3    H227045   3.672   4.720   2.685
 9030TIP3   OH227046   7.782   7.439   0.066
 9030TIP3    H127047   7.818   7.354   0.040
 9030TIP3    H227048   7.833   7.465   0.142
 9031TIP3   OH227049   6.075   3.728   2.797
 9031TIP3    H127050   6.128   3.804   2.777
 9031TIP3    H227051   6.101   3.662   2.732
 9032TIP3   OH227052   8.001   1.403   6.637
 9032TIP3    H127053   7.959   1.425   6.720
 9032TIP3    H227054   8.046   1.484   6.611
 9033TIP3   OH227055   0.374   0.096   0.500
 9033TIP3    H127056   0.299   0.092   0.441
 9033TIP3    H227057   0.441   0.142   0.450
 9034TIP3   OH227058   2.970   0.166   6.243
 9034TIP3    H127059   2.909   0.109   6.291
 9034TIP3    H227060   2.951   0.150   6.151
 9035TIP3   OH227061   2.967   3.900   5.504
 9035TIP3    H127062   2.995   3.940   5.421
 9035TIP3    H227063   3.007   3.813   5.503
 9036TIP3   OH227064   8.171   3.234   1.282
 9036TIP3    H127065   8.112   3.261   1.212
 9036TIP3    H227066   8.115   3.196   1.349
 9037TIP3   OH227067   3.086   5.024   1.101
 9037TIP3    H127068   3.172   5.010   1.062
 9037TIP3    H227069   3.101   5.091   1.168
 9038TIP3   OH227070   0.259   2.777   3.000
 9038TIP3    H127071   0.214   2.694   2.984
 9038TIP3    H227072   0.206   2.842   2.954
 9039TIP3   OH227073   6.803   6.572   2.089
 9039TIP3    H127074   6.782   6.618   2.008
 9039TIP3    H227075   6.740   6.606   2.153
 9040TIP3   OH227076   1.425   5.277   4.425
 9040TIP3    H127077   1.476   5.339   4.478
 9040TIP3    H227078   1.336   5.285   4.458
 9041TIP3   OH227079   1.421   2.975   4.978
 9041TIP3    H127080   1.334   2.934   4.977
 9041TIP3    H227081   1.475   2.917   4.925
 9042TIP3   OH227082   2.875   3.414   0.795
 9042TIP3    H127083   2.880   3.321   0.818
 9042TIP3    H227084   2.931   3.457   0.859
 9043TIP3   OH227085   3.068   0.783   5.879
 9043TIP3    H127086   3.084   0.690   5.895
 9043TIP3    H227087   3.064   0.791   5.784
 9044TIP3   OH227088   4.058   6.704   3.611
 9044TIP3    H127089   4.010   6.702   3.694
 9044TIP3    H227090   4.140   6.657   3.629
 9045TIP3   OH227091   1.544   4.739   0.094
 9045TIP3    H127092   1.613   4.794   0.057
 9045TIP3    H227093   1.591   4.666   0.135
 9046TIP3   OH227094   4.792   0.934   4.458
 9046TIP3    H127095   4.822   0.970   4.542
 9046TIP3    H227096   4.860   0.960   4.396
 9047TIP3   OH227097   7.391   1.057   4.175
 9047TIP3    H127098   7.306   1.028   4.206
 9047TIP3    H227099   7.425   1.113   4.244
 9048TIP3   OH227100   0.515   6.471   4.513
 9048TIP3    H127101   0.452   6.399   4.519
 9048TIP3    H227102   0.600   6.430   4.533
 9049TIP3   OH227103   0.758   3.918   5.026
 9049TIP3    H127104   0.771   3.955   5.113
 9049TIP3    H227105   0.788   3.827   5.033
 9050TIP3   OH227106   3.417   1.496   6.790
 9050TIP3    H127107   3.476   1.505   6.715
 9050TIP3    H227108   3.368   1.416   6.773
 9051TIP3   OH227109   8.225   6.038   2.426
 9051TIP3    H127110   8.179   6.015   2.506
 9051TIP3    H227111   8.292   5.970   2.416
 9052TIP3   OH227112   3.345   6.432   2.560
 9052TIP3    H127113   3.408   6.497   2.590
 9052TIP3    H227114   3.349   6.436   2.465
 9053TIP3   OH227115   4.694   3.748   0.019
 9053TIP3    H127116   4.669   3.728   0.109
 9053TIP3    H227117   4.675   3.668  -0.030
 9054TIP3   OH227118   3.713   6.604   1.141
 9054TIP3    H127119   3.657   6.526   1.140
 9054TIP3    H227120   3.740   6.615   1.050
 9055TIP3   OH227121   2.962   4.786   4.550
 9055TIP3    H127122   3.036   4.829   4.507
 9055TIP3    H227123   2.934   4.849   4.617
 9056TIP3   OH227124   0.764   5.177   4.424
 9056TIP3    H127125   0.679   5.219   4.436
 9056TIP3    H227126   0.748   5.105   4.363
 9057TIP3   OH227127   6.501   5.096   1.550
 9057TIP3    H127128   6.511   5.004   1.577
 9057TIP3    H227129   6.534   5.146   1.625
 9058TIP3   OH227130   7.333   4.000   2.606
 9058TIP3    H127131   7.396   4.071   2.597
 9058TIP3    H227132   7.385   3.926   2.638
 9059TIP3   OH227133   5.079   7.700   6.593
 9059TIP3    H127134   4.985   7.687   6.577
 9059TIP3    H227135   5.091   7.795   6.589
 9060TIP3   OH227136   6.512   1.642   4.592
 9060TIP3    H127137   6.556   1.622   4.510
 9060TIP3    H227138   6.426   1.674   4.566
 9061TIP3   OH227139   6.172   0.114   6.140
 9061TIP3    H127140   6.177   0.122   6.045
 9061TIP3    H227141   6.175   0.020   6.156
 9062TIP3   OH227142   6.126   3.635   5.407
 9062TIP3    H127143   6.144   3.722   5.373
 9062TIP3    H227144   6.196   3.619   5.470
 9063TIP3   OH227145   4.224   3.433   0.311
 9063TIP3    H127146   4.244   3.477   0.228
 9063TIP3    H227147   4.260   3.492   0.378
 9064TIP3   OH227148   1.812   5.384   0.874
 9064TIP3    H127149   1.845   5.352   0.791
 9064TIP3    H227150   1.723   5.350   0.880
 9065TIP3   OH227151   2.118   4.069   4.069
 9065TIP3    H127152   2.071   4.137   4.022
 9065TIP3    H227153   2.127   4.104   4.158
 9066TIP3   OH227154   4.635   3.296   4.326
 9066TIP3    H127155   4.728   3.315   4.333
 9066TIP3    H227156   4.628   3.240   4.249
 9067TIP3   OH227157   3.690   5.637   4.207
 9067TIP3    H127158   3.626   5.594   4.150
 9067TIP3    H227159   3.766   5.652   4.150
 9068TIP3   OH227160   7.286   4.984   4.123
 9068TIP3    H127161   7.282   5.066   4.172
 9068TIP3    H227162   7.349   4.930   4.170
 9069TIP3   OH227163   7.883   2.120   3.012
 9069TIP3    H127164   7.834   2.130   2.930
 9069TIP3    H227165   7.973   2.102   2.984
 9070TIP3   OH227166   6.206   4.255   5.218
 9070TIP3    H127167   6.296   4.254   5.251
 9070TIP3    H227168   6.212   4.213   5.133
 9071TIP3   OH227169   3.569   7.542   2.462
 9071TIP3    H127170   3.657   7.546   2.500
 9071TIP3    H227171   3.556   7.450   2.440
 9072TIP3   OH227172   6.502   3.813   3.000
 9072TIP3    H127173   6.444   3.886   3.021
 9072TIP3    H227174   6.555   3.845   2.927
 9073TIP3   OH227175   7.824   7.754   6.527
 9073TIP3    H127176   7.783   7.787   6.606
 9073TIP3    H227177   7.907   7.717   6.557
 9074TIP3   OH227178   2.202   0.580   1.062
 9074TIP3    H127179   2.292   0.561   1.037
 9074TIP3    H227180   2.181   0.662   1.015
 9075TIP3   OH227181   3.659   0.401   4.990
 9075TIP3    H127182   3.661   0.369   5.081
 9075TIP3    H227183   3.735   0.457   4.982
 9076TIP3   OH227184   1.393   7.040   3.217
 9076TIP3    H127185   1.329   6.985   3.262
 9076TIP3    H227186   1.477   6.997   3.233
 9077TIP3   OH227187   0.669   3.557   0.663
 9077TIP3    H127188   0.733   3.606   0.610
 9077TIP3    H227189   0.690   3.582   0.753
 9078TIP3   OH227190   5.197   5.609   2.049
 9078TIP3    H127191   5.200   5.514   2.063
 9078TIP3    H227192   5.261   5.625   1.980
 9079TIP3   OH227193   2.824   2.545   5.390
 9079TIP3    H127194   2.831   2.517   5.481
 9079TIP3    H227195   2.843   2.466   5.339
 9080TIP3   OH227196   8.130   6.777   6.323
 9080TIP3    H127197   8.098   6.693   6.356
 9080TIP3    H227198   8.181   6.755   6.245
 9081TIP3   OH227199   2.227   2.348   4.349
 9081TIP3    H127200   2.308   2.366   4.397
 9081TIP3    H227201   2.241   2.261   4.312
 9082TIP3   OH227202   2.987   3.280   2.264
 9082TIP3    H127203   3.078   3.305   2.279
 9082TIP3    H227204   2.938   3.361   2.272
 9083TIP3   OH227205   1.091   7.542   1.794
 9083TIP3    H127206   1.109   7.460   1.840
 9083TIP3    H227207   1.097   7.610   1.861
 9084TIP3   OH227208   7.330   6.262   3.364
 9084TIP3    H127209   7.292   6.313   3.293
 9084TIP3    H227210   7.327   6.320   3.440
 9085TIP3   OH227211   3.177   7.362   5.387
 9085TIP3    H127212   3.106   7.382   5.325
 9085TIP3    H227213   3.244   7.321   5.333
 9086TIP3   OH227214   1.741   5.735   5.597
 9086TIP3    H127215   1.715   5.661   5.541
 9086TIP3    H227216   1.837   5.734   5.593
 9087TIP3   OH227217   0.449   6.714   5.523
 9087TIP3    H127218   0.436   6.632   5.571
 9087TIP3    H227219   0.371   6.722   5.468
 9088TIP3   OH227220   4.843   5.877   4.996
 9088TIP3    H127221   4.922   5.896   5.048
 9088TIP3    H227222   4.778   5.938   5.029
 9089TIP3   OH227223   7.403   1.498   0.952
 9089TIP3    H127224   7.445   1.451   1.023
 9089TIP3    H227225   7.440   1.461   0.872
 9090TIP3   OH227226   6.447   3.921   3.699
 9090TIP3    H127227   6.509   3.984   3.737
 9090TIP3    H227228   6.483   3.901   3.613
 9091TIP3   OH227229   1.728   7.393   6.706
 9091TIP3    H127230   1.720   7.488   6.692
 9091TIP3    H227231   1.642   7.358   6.683
 9092TIP3   OH227232   1.701   3.611   5.721
 9092TIP3    H127233   1.793   3.593   5.740
 9092TIP3    H227234   1.702   3.694   5.674
 9093TIP3   OH227235   4.106   1.012   5.341
 9093TIP3    H127236   4.061   1.034   5.423
 9093TIP3    H227237   4.073   1.076   5.278
 9094TIP3   OH227238   8.203   4.620   2.516
 9094TIP3    H127239   8.289   4.612   2.475
 9094TIP3    H227240   8.215   4.687   2.583
 9095TIP3   OH227241   0.141   5.729   0.208
 9095TIP3    H127242   0.123   5.666   0.278
 9095TIP3    H227243   0.192   5.798   0.251
 9096TIP3   OH227244   2.985   2.075   1.172
 9096TIP3    H127245   2.978   2.052   1.080
 9096TIP3    H227246   2.903   2.046   1.211
 9097TIP3   OH227247   7.564   5.012   2.438
 9097TIP3    H127248   7.537   4.965   2.517
 9097TIP3    H227249   7.561   5.104   2.463
 9098TIP3   OH227250   3.389   6.478   6.037
 9098TIP3    H127251   3.394   6.470   5.942
 9098TIP3    H227252   3.463   6.533   6.060
 9099TIP3   OH227253   3.185   3.734   0.762
 9099TIP3    H127254   3.123   3.804   0.741
 9099TIP3    H227255   3.241   3.727   0.685
 9100TIP3   OH227256   8.203   7.716   5.062
 9100TIP3    H127257   8.170   7.803   5.040
 9100TIP3    H227258   8.289   7.712   5.021
 9101TIP3   OH227259   3.455   7.325   3.480
 9101TIP3    H127260   3.539   7.296   3.516
 9101TIP3    H227261   3.391   7.298   3.545
 9102TIP3   OH227262   7.887   3.981   5.211
 9102TIP3    H127263   7.799   3.956   5.241
 9102TIP3    H227264   7.912   3.912   5.149
 9103TIP3   OH227265   3.065   4.618   1.070
 9103TIP3    H127266   3.099   4.670   1.142
 9103TIP3    H227267   3.139   4.607   1.010
 9104TIP3   OH227268   6.271   3.225   1.099
 9104TIP3    H127269   6.243   3.268   1.180
 9104TIP3    H227270   6.204   3.250   1.035
 9105TIP3   OH227271   2.718   0.550   0.318
 9105TIP3    H127272   2.623   0.541   0.313
 9105TIP3    H227273   2.735   0.640   0.289
 9106TIP3   OH227274   3.351   5.149   3.531
 9106TIP3    H127275   3.440   5.120   3.548
 9106TIP3    H227276   3.333   5.120   3.441
 9107TIP3   OH227277   5.907   1.563   3.078
 9107TIP3    H127278   5.837   1.563   3.143
 9107TIP3    H227279   5.984   1.532   3.126
 9108TIP3   OH227280   2.351   4.147   5.917
 9108TIP3    H127281   2.325   4.076   5.858
 9108TIP3    H227282   2.405   4.204   5.863
 9109TIP3   OH227283   2.822   3.192   4.961
 9109TIP3    H127284   2.813   3.255   4.889
 9109TIP3    H227285   2.835   3.247   5.039
 9110TIP3   OH227286   7.925   2.107   3.320
 9110TIP3    H127287   7.964   2.020   3.330
 9110TIP3    H227288   7.899   2.110   3.227
 9111TIP3   OH227289   0.619   1.149   0.517
 9111TIP3    H127290   0.592   1.058   0.533
 9111TIP3    H227291   0.633   1.153   0.422
 9112TIP3   OH227292   2.010   3.169   0.390
 9112TIP3    H127293   2.007   3.184   0.484
 9112TIP3    H227294   1.974   3.249   0.352
 9113TIP3   OH227295   6.854   4.498   4.172
 9113TIP3    H127296   6.832   4.414   4.211
 9113TIP3    H227297   6.943   4.516   4.202
 9114TIP3   OH227298   0.347   0.826   1.214
 9114TIP3    H127299   0.426   0.859   1.172
 9114TIP3    H227300   0.284   0.898   1.208
 9115TIP3   OH227301   2.284   3.828   0.296
 9115TIP3    H127302   2.229   3.751   0.282
 9115TIP3    H227303   2.369   3.792   0.321
 9116TIP3   OH227304   6.235   6.605   5.972
 9116TIP3    H127305   6.249   6.696   5.999
 9116TIP3    H227306   6.318   6.561   5.992
 9117TIP3   OH227307   4.865   1.266   3.810
 9117TIP3    H127308   4.948   1.299   3.775
 9117TIP3    H227309   4.890   1.222   3.891
 9118TIP3   OH227310   3.591   7.102   2.030
 9118TIP3    H127311   3.589   7.195   2.054
 9118TIP3    H227312   3.542   7.098   1.948
 9119TIP3   OH227313   0.755   7.589   2.871
 9119TIP3    H127314   0.699   7.555   2.941
 9119TIP3    H227315   0.712   7.668   2.841
 9120TIP3   OH227316   1.585   5.107   5.682
 9120TIP3    H127317   1.605   5.014   5.693
 9120TIP3    H227318   1.640   5.151   5.748
 9121TIP3   OH227319   5.062   2.339   3.203
 9121TIP3    H127320   5.059   2.272   3.272
 9121TIP3    H227321   5.053   2.422   3.250
 9122TIP3   OH227322   2.668   7.194   1.316
 9122TIP3    H127323   2.620   7.111   1.317
 9122TIP3    H227324   2.754   7.171   1.282
 9123TIP3   OH227325   4.939   1.318   5.413
 9123TIP3    H127326   4.906   1.350   5.496
 9123TIP3    H227327   4.924   1.389   5.351
 9124TIP3   OH227328   5.033   0.021   2.742
 9124TIP3    H127329   5.029   0.019   2.837
 9124TIP3    H227330   5.111   0.071   2.722
 9125TIP3   OH227331   4.636   5.036   2.985
 9125TIP3    H127332   4.704   4.993   3.036
 9125TIP3    H227333   4.669   5.034   2.895
 9126TIP3   OH227334   5.582   4.908   3.835
 9126TIP3    H127335   5.562   4.848   3.763
 9126TIP3    H227336   5.678   4.915   3.834
 9127TIP3   OH227337   3.485   2.222   5.079
 9127TIP3    H127338   3.549   2.151   5.070
 9127TIP3    H227339   3.515   2.271   5.157
 9128TIP3   OH227340   6.808   6.850   3.059
 9128TIP3    H127341   6.835   6.788   3.127
 9128TIP3    H227342   6.844   6.934   3.088
 9129TIP3   OH227343   3.291   2.647   3.120
 9129TIP3    H127344   3.336   2.730   3.141
 9129TIP3    H227345   3.297   2.640   3.025
 9130TIP3   OH227346   2.199   4.475   5.649
 9130TIP3    H127347   2.187   4.538   5.578
 9130TIP3    H227348   2.143   4.402   5.626
 9131TIP3   OH227349   0.533   2.283   5.642
 9131TIP3    H127350   0.493   2.197   5.653
 9131TIP3    H227351   0.535   2.319   5.731
 9132TIP3   OH227352   4.691   5.468   3.301
 9132TIP3    H127353   4.756   5.410   3.262
 9132TIP3    H227354   4.739   5.548   3.324
 9133TIP3   OH227355   6.200   6.123   3.063
 9133TIP3    H127356   6.191   6.212   3.028
 9133TIP3    H227357   6.294   6.107   3.064
 9134TIP3   OH227358   2.367   3.643   5.995
 9134TIP3    H127359   2.355   3.594   6.077
 9134TIP3    H227360   2.335   3.583   5.927
 9135TIP3   OH227361   6.263   7.096   3.264
 9135TIP3    H127362   6.193   7.122   3.324
 9135TIP3    H227363   6.229   7.020   3.218
 9136TIP3   OH227364   0.836   1.498   2.395
 9136TIP3    H127365   0.829   1.572   2.454
 9136TIP3    H227366   0.907   1.445   2.431
 9137TIP3   OH227367   0.421   5.457   2.296
 9137TIP3    H127368   0.383   5.544   2.310
 9137TIP3    H227369   0.359   5.397   2.338
 9138TIP3   OH227370   0.618   2.775   2.381
 9138TIP3    H127371   0.537   2.727   2.361
 9138TIP3    H227372   0.592   2.867   2.381
 9139TIP3   OH227373   6.834   0.644   4.963
 9139TIP3    H127374   6.754   0.604   4.928
 9139TIP3    H227375   6.890   0.657   4.887
 9140TIP3   OH227376   2.114   1.489   5.634
 9140TIP3    H127377   2.073   1.441   5.706
 9140TIP3    H227378   2.207   1.470   5.642
 9141TIP3   OH227379   6.936   7.360   1.285
 9141TIP3    H127380   6.843   7.364   1.261
 9141TIP3    H227381   6.970   7.447   1.262
 9142TIP3   OH227382   1.158   6.407   4.370
 9142TIP3    H127383   1.103   6.428   4.445
 9142TIP3    H227384   1.175   6.492   4.328
 9143TIP3   OH227385   6.859   4.136   6.049
 9143TIP3    H127386   6.787   4.182   6.005
 9143TIP3    H227387   6.917   4.110   5.978
 9144TIP3   OH227388   3.369   1.974   2.869
 9144TIP3    H127389   3.384   2.028   2.946
 9144TIP3    H227390   3.383   1.884   2.900
 9145TIP3   OH227391   0.334   5.459   4.992
 9145TIP3    H127392   0.322   5.406   5.072
 9145TIP3    H227393   0.415   5.508   5.007
 9146TIP3   OH227394   6.179   3.989   3.359
 9146TIP3    H127395   6.198   3.953   3.445
 9146TIP3    H227396   6.091   3.958   3.339
 9147TIP3   OH227397   6.946   5.327   6.412
 9147TIP3    H127398   7.036   5.313   6.441
 9147TIP3    H227399   6.935   5.267   6.338
 9148TIP3   OH227400   4.509   3.367   2.992
 9148TIP3    H127401   4.601   3.390   3.005
 9148TIP3    H227402   4.509   3.271   2.984
 9149TIP3   OH227403   8.253   0.561   4.416
 9149TIP3    H127404   8.267   0.605   4.500
 9149TIP3    H227405   8.296   0.618   4.352
 9150TIP3   OH227406   1.742   7.238   5.823
 9150TIP3    H127407   1.796   7.280   5.755
 9150TIP3    H227408   1.800   7.231   5.899
 9151TIP3   OH227409   5.137   2.918   0.216
 9151TIP3    H127410   5.169   2.871   0.293
 9151TIP3    H227411   5.052   2.878   0.197
 9152TIP3   OH227412   7.814   0.066   1.828
 9152TIP3    H127413   7.791   0.053   1.736
 9152TIP3    H227414   7.772  -0.007   1.874
 9153TIP3   OH227415   4.154   1.769   2.647
 9153TIP3    H127416   4.177   1.753   2.555
 9153TIP3    H227417   4.104   1.851   2.645
 9154TIP3   OH227418   3.026   3.633   3.412
 9154TIP3    H127419   2.980   3.712   3.383
 9154TIP3    H227420   2.958   3.566   3.417
 9155TIP3   OH227421   0.257   0.583   5.072
 9155TIP3    H127422   0.173   0.539   5.060
 9155TIP3    H227423   0.322   0.513   5.063
 9156TIP3   OH227424   1.477   4.701   2.456
 9156TIP3    H127425   1.565   4.704   2.420
 9156TIP3    H227426   1.463   4.610   2.479
 9157TIP3   OH227427   6.693   4.105   4.032
 9157TIP3    H127428   6.733   4.116   4.118
 9157TIP3    H227429   6.764   4.124   3.970
 9158TIP3   OH227430   3.101   1.861   3.125
 9158TIP3    H127431   3.079   1.827   3.212
 9158TIP3    H227432   3.039   1.933   3.111
 9159TIP3   OH227433   7.551   3.605   2.299
 9159TIP3    H127434   7.554   3.700   2.311
 9159TIP3    H227435   7.471   3.578   2.344
 9160TIP3   OH227436   7.139   2.082   3.877
 9160TIP3    H127437   7.052   2.071   3.839
 9160TIP3    H227438   7.141   2.174   3.904
 9161TIP3   OH227439   6.247   7.110   4.322
 9161TIP3    H127440   6.199   7.189   4.298
 9161TIP3    H227441   6.253   7.113   4.417
 9162TIP3   OH227442   6.410   3.497   2.169
 9162TIP3    H127443   6.478   3.556   2.138
 9162TIP3    H227444   6.359   3.476   2.091
 9163TIP3   OH227445   1.206   4.278   0.869
 9163TIP3    H127446   1.162   4.256   0.951
 9163TIP3    H227447   1.181   4.208   0.809
 9164TIP3   OH227448   0.171   5.018   6.754
 9164TIP3    H127449   0.179   5.099   6.703
 9164TIP3    H227450   0.123   4.959   6.696
 9165TIP3   OH227451   2.296   6.285   2.213
 9165TIP3    H127452   2.219   6.235   2.184
 9165TIP3    H227453   2.260   6.355   2.267
 9166TIP3   OH227454   6.395   2.940   4.845
 9166TIP3    H127455   6.460   3.010   4.833
 9166TIP3    H227456   6.340   2.972   4.917
 9167TIP3   OH227457   0.736   3.130   6.142
 9167TIP3    H127458   0.728   3.129   6.047
 9167TIP3    H227459   0.815   3.182   6.159
 9168TIP3   OH227460   7.969   2.909   1.052
 9168TIP3    H127461   8.009   2.994   1.071
 9168TIP3    H227462   7.888   2.931   1.006
 9169TIP3   OH227463   2.783   0.734   2.343
 9169TIP3    H127464   2.815   0.661   2.290
 9169TIP3    H227465   2.711   0.697   2.394
 9170TIP3   OH227466   1.648   5.449   1.975
 9170TIP3    H127467   1.681   5.410   1.894
 9170TIP3    H227468   1.572   5.499   1.948
 9171TIP3   OH227469   3.769   0.083   0.047
 9171TIP3    H127470   3.850   0.101  -0.001
 9171TIP3    H227471   3.701   0.084  -0.020
 9172TIP3   OH227472   1.119   5.234   4.502
 9172TIP3    H127473   1.068   5.220   4.422
 9172TIP3    H227474   1.099   5.324   4.527
 9173TIP3   OH227475   3.122   5.514   5.881
 9173TIP3    H127476   3.093   5.500   5.972
 9173TIP3    H227477   3.160   5.430   5.856
 9174TIP3   OH227478   2.488   2.945   0.417
 9174TIP3    H127479   2.535   3.016   0.460
 9174TIP3    H227480   2.411   2.988   0.377
 9175TIP3   OH227481   1.878   6.369   0.033
 9175TIP3    H127482   1.925   6.452   0.041
 9175TIP3    H227483   1.807   6.375   0.096
 9176TIP3   OH227484   7.931   2.978   4.431
 9176TIP3    H127485   7.884   2.944   4.355
 9176TIP3    H227486   7.989   2.906   4.457
 9177TIP3   OH227487   2.385   5.741   1.820
 9177TIP3    H127488   2.419   5.666   1.772
 9177TIP3    H227489   2.328   5.785   1.757
 9178TIP3   OH227490   4.759   0.335   1.081
 9178TIP3    H127491   4.844   0.348   1.123
 9178TIP3    H227492   4.780   0.302   0.993
 9179TIP3   OH227493   2.059   0.225   1.581
 9179TIP3    H127494   2.103   0.304   1.612
 9179TIP3    H227495   2.059   0.166   1.657
 9180TIP3   OH227496   3.440   4.515   4.880
 9180TIP3    H127497   3.367   4.544   4.934
 9180TIP3    H227498   3.488   4.596   4.860
 9181TIP3   OH227499   5.954   5.798   5.879
 9181TIP3    H127500   5.984   5.836   5.961
 9181TIP3    H227501   5.954   5.871   5.817
 9182TIP3   OH227502   4.536   6.475   5.004
 9182TIP3    H127503   4.572   6.509   4.922
 9182TIP3    H227504   4.461   6.532   5.022
 9183TIP3   OH227505   2.921   0.257   2.062
 9183TIP3    H127506   3.001   0.309   2.062
 9183TIP3    H227507   2.921   0.212   1.977
 9184TIP3   OH227508   2.778   7.021   6.565
 9184TIP3    H127509   2.854   7.034   6.509
 9184TIP3    H227510   2.785   7.090   6.631
 9185TIP3   OH227511   2.000   5.281   5.279
 9185TIP3    H127512   1.967   5.218   5.342
 9185TIP3    H227513   1.998   5.235   5.195
 9186TIP3   OH227514   2.127   4.972   5.401
 9186TIP3    H127515   2.172   4.914   5.340
 9186TIP3    H227516   2.037   4.977   5.367
 9187TIP3   OH227517   0.778   0.288   1.535
 9187TIP3    H127518   0.755   0.250   1.450
 9187TIP3    H227519   0.869   0.317   1.524
 9188TIP3   OH227520   6.704   1.493   1.331
 9188TIP3    H127521   6.653   1.439   1.390
 9188TIP3    H227522   6.639   1.544   1.283
 9189TIP3   OH227523   1.960   0.007   2.754
 9189TIP3    H127524   1.953   0.095   2.792
 9189TIP3    H227525   1.977   0.022   2.661
 9190TIP3   OH227526   2.713   2.750   3.296
 9190TIP3    H127527   2.635   2.738   3.349
 9190TIP3    H227528   2.706   2.683   3.228
 9191TIP3   OH227529   7.161   2.335   3.960
 9191TIP3    H127530   7.237   2.333   4.018
 9191TIP3    H227531   7.086   2.338   4.018
 9192TIP3   OH227532   3.896   3.791   6.509
 9192TIP3    H127533   3.841   3.770   6.584
 9192TIP3    H227534   3.845   3.765   6.433
 9193TIP3   OH227535   4.451   5.831   3.925
 9193TIP3    H127536   4.482   5.754   3.878
 9193TIP3    H227537   4.404   5.882   3.860
 9194TIP3   OH227538   4.518   6.955   1.137
 9194TIP3    H127539   4.539   7.019   1.205
 9194TIP3    H227540   4.431   6.980   1.107
 9195TIP3   OH227541   7.274   6.422   4.664
 9195TIP3    H127542   7.315   6.368   4.732
 9195TIP3    H227543   7.243   6.499   4.711
 9196TIP3   OH227544   1.101   6.458   3.413
 9196TIP3    H127545   1.146   6.393   3.359
 9196TIP3    H227546   1.162   6.476   3.484
 9197TIP3   OH227547   2.628   4.613   6.481
 9197TIP3    H127548   2.625   4.646   6.392
 9197TIP3    H227549   2.563   4.543   6.483
 9198TIP3   OH227550   5.604   5.901   0.864
 9198TIP3    H127551   5.543   5.878   0.934
 9198TIP3    H227552   5.573   5.852   0.788
 9199TIP3   OH227553   5.700   4.283   3.202
 9199TIP3    H127554   5.784   4.299   3.243
 9199TIP3    H227555   5.689   4.188   3.206
 9200TIP3   OH227556   2.791   4.706   0.575
 9200TIP3    H127557   2.789   4.710   0.479
 9200TIP3    H227558   2.803   4.613   0.594
 9201TIP3   OH227559   4.721   3.061   4.887
 9201TIP3    H127560   4.804   3.107   4.873
 9201TIP3    H227561   4.705   3.067   4.981
 9202TIP3   OH227562   5.036   3.880   6.667
 9202TIP3    H127563   5.087   3.952   6.704
 9202TIP3    H227564   5.010   3.912   6.580
 9203TIP3   OH227565   5.468   1.997   3.551
 9203TIP3    H127566   5.414   1.973   3.476
 9203TIP3    H227567   5.425   1.956   3.626
 9204TIP3   OH227568   0.438   5.238   5.731
 9204TIP3    H127569   0.436   5.299   5.805
 9204TIP3    H227570   0.364   5.178   5.747
 9205TIP3   OH227571   7.183   2.842   4.125
 9205TIP3    H127572   7.269   2.840   4.083
 9205TIP3    H227573   7.177   2.758   4.171
 9206TIP3   OH227574   6.766   5.452   1.807
 9206TIP3    H127575   6.818   5.527   1.836
 9206TIP3    H227576   6.825   5.403   1.749
 9207TIP3   OH227577   0.906   4.311   6.063
 9207TIP3    H127578   0.989   4.262   6.064
 9207TIP3    H227579   0.901   4.348   5.975
 9208TIP3   OH227580   4.866   3.155   0.148
 9208TIP3    H127581   4.858   3.136   0.055
 9208TIP3    H227582   4.835   3.076   0.192
 9209TIP3   OH227583   7.258   6.996   6.328
 9209TIP3    H127584   7.258   6.988   6.424
 9209TIP3    H227585   7.327   7.059   6.309
 9210TIP3   OH227586   0.968   3.760   4.225
 9210TIP3    H127587   0.951   3.701   4.153
 9210TIP3    H227588   0.881   3.781   4.261
 9211TIP3   OH227589   0.445   7.547   1.769
 9211TIP3    H127590   0.411   7.605   1.837
 9211TIP3    H227591   0.528   7.515   1.804
 9212TIP3   OH227592   4.528   7.534   3.585
 9212TIP3    H127593   4.477   7.613   3.571
 9212TIP3    H227594   4.559   7.540   3.675
 9213TIP3   OH227595   5.829   3.390   1.641
 9213TIP3    H127596   5.829   3.363   1.732
 9213TIP3    H227597   5.754   3.345   1.602
 9214TIP3   OH227598   4.127   7.110   0.396
 9214TIP3    H127599   4.133   7.049   0.323
 9214TIP3    H227600   4.084   7.187   0.360
 9215TIP3   OH227601   3.205   1.153   2.129
 9215TIP3    H127602   3.289   1.199   2.123
 9215TIP3    H227603   3.161   1.172   2.047
 9216TIP3   OH227604   3.498   5.961   2.749
 9216TIP3    H127605   3.568   5.952   2.684
 9216TIP3    H227606   3.543   5.988   2.829
 9217TIP3   OH227607   0.460   2.000   5.964
 9217TIP3    H127608   0.502   2.014   6.049
 9217TIP3    H227609   0.463   2.086   5.922
 9218TIP3   OH227610   6.764   2.690   0.110
 9218TIP3    H127611   6.761   2.651   0.198
 9218TIP3    H227612   6.708   2.633   0.057
 9219TIP3   OH227613   7.363   6.254   4.094
 9219TIP3    H127614   7.330   6.165   4.095
 9219TIP3    H227615   7.401   6.264   4.006
 9220TIP3   OH227616   3.337   2.190   6.611
 9220TIP3    H127617   3.316   2.223   6.698
 9220TIP3    H227618   3.273   2.121   6.594
 9221TIP3   OH227619   2.373   0.303   3.256
 9221TIP3    H127620   2.340   0.250   3.184
 9221TIP3    H227621   2.392   0.240   3.326
 9222TIP3   OH227622   4.644   1.496   4.773
 9222TIP3    H127623   4.609   1.414   4.738
 9222TIP3    H227624   4.700   1.469   4.846
 9223TIP3   OH227625   5.852   6.436   4.926
 9223TIP3    H127626   5.879   6.404   5.013
 9223TIP3    H227627   5.774   6.489   4.943
 9224TIP3   OH227628   5.298   5.387   4.105
 9224TIP3    H127629   5.250   5.305   4.094
 9224TIP3    H227630   5.233   5.449   4.137
 9225TIP3   OH227631   6.265   0.723   3.017
 9225TIP3    H127632   6.336   0.778   3.051
 9225TIP3    H227633   6.284   0.636   3.051
 9226TIP3   OH227634   2.770   2.973   0.451
 9226TIP3    H127635   2.751   3.031   0.377
 9226TIP3    H227636   2.847   2.923   0.424
 9227TIP3   OH227637   3.864   2.800   0.601
 9227TIP3    H127638   3.896   2.711   0.616
 9227TIP3    H227639   3.911   2.830   0.524
 9228TIP3   OH227640   0.699   4.461   5.164
 9228TIP3    H127641   0.760   4.483   5.093
 9228TIP3    H227642   0.700   4.365   5.166
 9229TIP3   OH227643   0.314   4.664   1.789
 9229TIP3    H127644   0.293   4.589   1.844
 9229TIP3    H227645   0.356   4.726   1.848
 9230TIP3   OH227646   2.817   5.035   4.661
 9230TIP3    H127647   2.776   4.994   4.585
 9230TIP3    H227648   2.750   5.095   4.695
 9231TIP3   OH227649   7.481   6.635   1.151
 9231TIP3    H127650   7.541   6.657   1.222
 9231TIP3    H227651   7.412   6.584   1.193
 9232TIP3   OH227652   3.343   2.435   6.444
 9232TIP3    H127653   3.308   2.360   6.492
 9232TIP3    H227654   3.347   2.505   6.509
 9233TIP3   OH227655   1.508   4.983   1.053
 9233TIP3    H127656   1.417   4.989   1.022
 9233TIP3    H227657   1.517   5.056   1.115
 9234TIP3   OH227658   2.055   5.058   5.815
 9234TIP3    H127659   2.069   4.964   5.822
 9234TIP3    H227660   2.125   5.089   5.758
 9235TIP3   OH227661   5.334   1.637   3.546
 9235TIP3    H127662   5.243   1.612   3.531
 9235TIP3    H227663   5.329   1.706   3.612
 9236TIP3   OH227664   3.106   6.537   2.419
 9236TIP3    H127665   3.185   6.526   2.367
 9236TIP3    H227666   3.064   6.451   2.417
 9237TIP3   OH227667   4.296   4.786   2.245
 9237TIP3    H127668   4.207   4.809   2.272
 9237TIP3    H227669   4.351   4.854   2.282
 9238TIP3   OH227670   1.915   6.331   5.293
 9238TIP3    H127671   1.872   6.253   5.328
 9238TIP3    H227672   1.897   6.399   5.359
 9239TIP3   OH227673   1.050   6.678   1.480
 9239TIP3    H127674   1.017   6.634   1.558
 9239TIP3    H227675   1.091   6.758   1.513
 9240TIP3   OH227676   4.283   0.569   1.080
 9240TIP3    H127677   4.202   0.614   1.105
 9240TIP3    H227678   4.347   0.639   1.066
 9241TIP3   OH227679   5.059   3.548   5.644
 9241TIP3    H127680   5.077   3.604   5.568
 9241TIP3    H227681   4.967   3.565   5.664
 9242TIP3   OH227682   0.841   6.421   0.752
 9242TIP3    H127683   0.756   6.394   0.717
 9242TIP3    H227684   0.841   6.389   0.842
 9243TIP3   OH227685   4.982   5.635   2.210
 9243TIP3    H127686   5.044   5.627   2.138
 9243TIP3    H227687   5.033   5.610   2.288
 9244TIP3   OH227688   5.799   0.698   5.056
 9244TIP3    H127689   5.836   0.617   5.023
 9244TIP3    H227690   5.832   0.705   5.145
 9245TIP3   OH227691   6.491   6.406   5.727
 9245TIP3    H127692   6.450   6.355   5.657
 9245TIP3    H227693   6.556   6.346   5.765
 9246TIP3   OH227694   3.972   5.748   4.789
 9246TIP3    H127695   4.052   5.706   4.757
 9246TIP3    H227696   3.990   5.767   4.881
 9247TIP3   OH227697   0.110   1.046   5.933
 9247TIP3    H127698   0.101   0.963   5.886
 9247TIP3    H227699   0.174   1.027   6.002
 9248TIP3   OH227700   3.467   1.355   3.329
 9248TIP3    H127701   3.440   1.329   3.417
 9248TIP3    H227702   3.478   1.450   3.333
 9249TIP3   OH227703   4.118   6.394   0.475
 9249TIP3    H127704   4.126   6.300   0.463
 9249TIP3    H227705   4.151   6.410   0.564
 9250TIP3   OH227706   4.479   4.457   4.423
 9250TIP3    H127707   4.498   4.546   4.451
 9250TIP3    H227708   4.407   4.466   4.361
 9251TIP3   OH227709   1.710   0.262   2.896
 9251TIP3    H127710   1.714   0.266   2.801
 9251TIP3    H227711   1.801   0.263   2.925
 9252TIP3   OH227712   7.153   4.464   1.976
 9252TIP3    H127713   7.076   4.408   1.976
 9252TIP3    H227714   7.135   4.531   1.910
 9253TIP3   OH227715   0.206   0.565   3.420
 9253TIP3    H127716   0.133   0.539   3.364
 9253TIP3    H227717   0.218   0.491   3.480
 9254TIP3   OH227718   3.737   0.767   4.926
 9254TIP3    H127719   3.781   0.729   5.002
 9254TIP3    H227720   3.792   0.842   4.902
 9255TIP3   OH227721   5.799   4.603   4.279
 9255TIP3    H127722   5.824   4.612   4.371
 9255TIP3    H227723   5.718   4.552   4.280
 9256TIP3   OH227724   0.003   0.580   0.989
 9256TIP3    H127725  -0.014   0.487   1.003
 9256TIP3    H227726   0.034   0.612   1.074
 9257TIP3   OH227727   3.380   2.659   5.459
 9257TIP3    H127728   3.394   2.579   5.509
 9257TIP3    H227729   3.387   2.729   5.523
 9258TIP3   OH227730   2.524   6.811   3.179
 9258TIP3    H127731   2.619   6.818   3.172
 9258TIP3    H227732   2.494   6.901   3.193
 9259TIP3   OH227733   1.218   3.292   3.609
 9259TIP3    H127734   1.222   3.197   3.612
 9259TIP3    H227735   1.278   3.322   3.677
 9260TIP3   OH227736   2.624   2.195   4.160
 9260TIP3    H127737   2.652   2.114   4.118
 9260TIP3    H227738   2.657   2.188   4.250
 9261TIP3   OH227739   4.871   4.332   6.450
 9261TIP3    H127740   4.798   4.392   6.437
 9261TIP3    H227741   4.949   4.387   6.437
 9262TIP3   OH227742   0.306   2.797   5.468
 9262TIP3    H127743   0.346   2.869   5.419
 9262TIP3    H227744   0.301   2.830   5.558
 9263TIP3   OH227745   0.535   6.077   4.738
 9263TIP3    H127746   0.590   6.002   4.717
 9263TIP3    H227747   0.584   6.125   4.804
 9264TIP3   OH227748   4.217   3.589   4.422
 9264TIP3    H127749   4.278   3.517   4.405
 9264TIP3    H227750   4.211   3.636   4.338
 9265TIP3   OH227751   7.254   1.999   2.347
 9265TIP3    H127752   7.166   1.986   2.310
 9265TIP3    H227753   7.291   1.911   2.352
 9266TIP3   OH227754   5.606   1.570   2.104
 9266TIP3    H127755   5.680   1.586   2.161
 9266TIP3    H227756   5.552   1.649   2.110
 9267TIP3   OH227757   4.920   5.487   2.478
 9267TIP3    H127758   4.865   5.530   2.413
 9267TIP3    H227759   4.984   5.438   2.428
 9268TIP3   OH227760   2.231   1.038   2.906
 9268TIP3    H127761   2.301   0.999   2.853
 9268TIP3    H227762   2.259   1.024   2.996
 9269TIP3   OH227763   4.312   0.849   5.279
 9269TIP3    H127764   4.250   0.919   5.301
 9269TIP3    H227765   4.277   0.811   5.198
 9270TIP3   OH227766   2.420   5.112   0.855
 9270TIP3    H127767   2.490   5.100   0.790
 9270TIP3    H227768   2.445   5.192   0.902
 9271TIP3   OH227769   7.220   4.679   2.406
 9271TIP3    H127770   7.264   4.752   2.361
 9271TIP3    H227771   7.200   4.714   2.493
 9272TIP3   OH227772   5.440   6.710   6.011
 9272TIP3    H127773   5.524   6.690   5.971
 9272TIP3    H227774   5.429   6.643   6.079
 9273TIP3   OH227775   7.039   5.993   4.298
 9273TIP3    H127776   7.117   5.938   4.298
 9273TIP3    H227777   6.965   5.932   4.292
 9274TIP3   OH227778   5.958   1.454   2.238
 9274TIP3    H127779   5.912   1.536   2.223
 9274TIP3    H227780   5.889   1.390   2.254
 9275TIP3   OH227781   0.281   1.889   2.570
 9275TIP3    H127782   0.200   1.879   2.521
 9275TIP3    H227783   0.325   1.964   2.529
 9276TIP3   OH227784   6.050   7.150   2.980
 9276TIP3    H127785   6.146   7.153   2.979
 9276TIP3    H227786   6.026   7.123   2.892
 9277TIP3   OH227787   6.953   7.476   4.355
 9277TIP3    H127788   7.016   7.412   4.321
 9277TIP3    H227789   6.910   7.431   4.428
 9278TIP3   OH227790   4.681   2.359   6.619
 9278TIP3    H127791   4.740   2.397   6.684
 9278TIP3    H227792   4.731   2.287   6.581
 9279TIP3   OH227793   0.241   5.841   3.754
 9279TIP3    H127794   0.230   5.910   3.819
 9279TIP3    H227795   0.309   5.784   3.790
 9280TIP3   OH227796   2.693   2.820   1.557
 9280TIP3    H127797   2.770   2.770   1.585
 9280TIP3    H227798   2.717   2.911   1.571
 9281TIP3   OH227799   4.544   1.613   2.590
 9281TIP3    H127800   4.514   1.529   2.557
 9281TIP3    H227801   4.512   1.617   2.680
 9282TIP3   OH227802   2.353   6.104   0.972
 9282TIP3    H127803   2.342   6.089   1.066
 9282TIP3    H227804   2.279   6.058   0.932
 9283TIP3   OH227805   1.530   2.127   0.427
 9283TIP3    H127806   1.610   2.177   0.440
 9283TIP3    H227807   1.498   2.154   0.341
 9284TIP3   OH227808   6.977   4.811   5.549
 9284TIP3    H127809   6.899   4.862   5.573
 9284TIP3    H227810   7.028   4.808   5.630
 9285TIP3   OH227811   2.921   7.365   2.630
 9285TIP3    H127812   2.867   7.374   2.709
 9285TIP3    H227813   2.859   7.345   2.561
 9286TIP3   OH227814   2.959   7.415   5.001
 9286TIP3    H127815   2.886   7.444   4.948
 9286TIP3    H227816   2.985   7.331   4.962
 9287TIP3   OH227817   3.278   1.388   3.755
 9287TIP3    H127818   3.325   1.414   3.676
 9287TIP3    H227819   3.186   1.409   3.737
 9288TIP3   OH227820   6.419   1.814   1.954
 9288TIP3    H127821   6.354   1.866   1.907
 9288TIP3    H227822   6.497   1.818   1.899
 9289TIP3   OH227823   7.281   7.059   0.445
 9289TIP3    H127824   7.360   7.028   0.401
 9289TIP3    H227825   7.215   7.062   0.376
 9290TIP3   OH227826   5.109   3.039   4.807
 9290TIP3    H127827   5.188   3.091   4.800
 9290TIP3    H227828   5.041   3.101   4.833
 9291TIP3   OH227829   4.085   4.437   2.461
 9291TIP3    H127830   4.161   4.485   2.495
 9291TIP3    H227831   4.074   4.363   2.520
 9292TIP3   OH227832   7.257   1.355   4.561
 9292TIP3    H127833   7.192   1.414   4.522
 9292TIP3    H227834   7.322   1.342   4.491
 9293TIP3   OH227835   2.297   6.446   2.457
 9293TIP3    H127836   2.272   6.509   2.389
 9293TIP3    H227837   2.339   6.499   2.525
 9294TIP3   OH227838   1.720   3.029   1.049
 9294TIP3    H127839   1.754   2.997   0.966
 9294TIP3    H227840   1.745   2.961   1.112
 9295TIP3   OH227841   7.691   0.171   2.118
 9295TIP3    H127842   7.597   0.181   2.127
 9295TIP3    H227843   7.717   0.118   2.193
 9296TIP3   OH227844   2.903   3.810   0.165
 9296TIP3    H127845   2.909   3.890   0.217
 9296TIP3    H227846   2.817   3.815   0.123
 9297TIP3   OH227847   2.725   5.261   4.120
 9297TIP3    H127848   2.713   5.354   4.137
 9297TIP3    H227849   2.819   5.247   4.127
 9298TIP3   OH227850   0.016   6.778   4.989
 9298TIP3    H127851   0.020   6.780   5.085
 9298TIP3    H227852   0.104   6.755   4.961
 9299TIP3   OH227853   1.866   2.655   2.306
 9299TIP3    H127854   1.942   2.709   2.283
 9299TIP3    H227855   1.866   2.584   2.242
 9300TIP3   OH227856   7.957   1.131   1.022
 9300TIP3    H127857   7.973   1.223   1.000
 9300TIP3    H227858   8.008   1.082   0.958
 9301TIP3   OH227859   3.382   2.875   3.449
 9301TIP3    H127860   3.329   2.910   3.377
 9301TIP3    H227861   3.470   2.908   3.432
 9302TIP3   OH227862   6.963   4.648   0.079
 9302TIP3    H127863   7.003   4.734   0.092
 9302TIP3    H227864   7.029   4.586   0.109
 9303TIP3   OH227865   3.533   2.605   1.872
 9303TIP3    H127866   3.553   2.640   1.785
 9303TIP3    H227867   3.471   2.668   1.910
 9304TIP3   OH227868   2.132   1.821   5.976
 9304TIP3    H127869   2.218   1.859   5.994
 9304TIP3    H227870   2.085   1.888   5.926
 9305TIP3   OH227871   8.034   2.942   1.823
 9305TIP3    H127872   7.974   2.879   1.862
 9305TIP3    H227873   8.004   2.951   1.733
 9306TIP3   OH227874   0.881   5.152   0.730
 9306TIP3    H127875   0.885   5.216   0.659
 9306TIP3    H227876   0.838   5.198   0.802
 9307TIP3   OH227877   4.239   7.230   5.959
 9307TIP3    H127878   4.169   7.292   5.980
 9307TIP3    H227879   4.314   7.262   6.009
 9308TIP3   OH227880   6.463   5.073   0.601
 9308TIP3    H127881   6.416   5.065   0.684
 9308TIP3    H227882   6.526   5.144   0.616
 9309TIP3   OH227883   2.634   6.630   2.280
 9309TIP3    H127884   2.709   6.599   2.229
 9309TIP3    H227885   2.644   6.589   2.365
 9310TIP3   OH227886   5.611   7.259   1.279
 9310TIP3    H127887   5.548   7.215   1.221
 9310TIP3    H227888   5.607   7.351   1.254
 9311TIP3   OH227889   2.121   3.310   3.481
 9311TIP3    H127890   2.156   3.332   3.567
 9311TIP3    H227891   2.078   3.225   3.494
 9312TIP3   OH227892   7.398   0.296   5.632
 9312TIP3    H127893   7.484   0.292   5.589
 9312TIP3    H227894   7.359   0.377   5.599
 9313TIP3   OH227895   2.131   7.602   2.356
 9313TIP3    H127896   2.127   7.660   2.280
 9313TIP3    H227897   2.040   7.591   2.383
 9314TIP3   OH227898   7.342   5.728   5.620
 9314TIP3    H127899   7.264   5.709   5.569
 9314TIP3    H227900   7.391   5.792   5.568
 9315TIP3   OH227901   6.610   5.540   0.594
 9315TIP3    H127902   6.667   5.537   0.517
 9315TIP3    H227903   6.525   5.567   0.560
 9316TIP3   OH227904   5.789   7.581   0.982
 9316TIP3    H127905   5.716   7.641   0.967
 9316TIP3    H227906   5.747   7.495   0.992
 9317TIP3   OH227907   1.774   1.196   1.043
 9317TIP3    H127908   1.724   1.266   1.085
 9317TIP3    H227909   1.708   1.142   0.999
 9318TIP3   OH227910   2.822   6.245   0.100
 9318TIP3    H127911   2.863   6.191   0.167
 9318TIP3    H227912   2.767   6.184   0.050
 9319TIP3   OH227913   2.595   5.181   4.699
 9319TIP3    H127914   2.552   5.130   4.768
 9319TIP3    H227915   2.523   5.225   4.654
 9320TIP3   OH227916   3.766   6.038   0.750
 9320TIP3    H127917   3.757   5.968   0.685
 9320TIP3    H227918   3.721   6.113   0.711
 9321TIP3   OH227919   5.997   4.419   5.722
 9321TIP3    H127920   5.993   4.494   5.782
 9321TIP3    H227921   6.084   4.381   5.738
 9322TIP3   OH227922   7.863   3.216   1.172
 9322TIP3    H127923   7.804   3.246   1.241
 9322TIP3    H227924   7.929   3.284   1.166
 9323TIP3   OH227925   3.674   4.027   6.537
 9323TIP3    H127926   3.639   4.003   6.623
 9323TIP3    H227927   3.601   4.012   6.477
 9324TIP3   OH227928   2.465   3.273   3.856
 9324TIP3    H127929   2.540   3.286   3.914
 9324TIP3    H227930   2.456   3.178   3.849
 9325TIP3   OH227931   4.543   7.607   1.181
 9325TIP3    H127932   4.535   7.609   1.085
 9325TIP3    H227933   4.620   7.660   1.199
 9326TIP3   OH227934   0.593   2.286   6.174
 9326TIP3    H127935   0.555   2.320   6.255
 9326TIP3    H227936   0.630   2.201   6.198
 9327TIP3   OH227937   7.394   0.520   5.432
 9327TIP3    H127938   7.417   0.508   5.340
 9327TIP3    H227939   7.412   0.612   5.450
 9328TIP3   OH227940   3.727   2.483   5.614
 9328TIP3    H127941   3.792   2.553   5.613
 9328TIP3    H227942   3.773   2.406   5.580
 9329TIP3   OH227943   6.072   4.878   1.298
 9329TIP3    H127944   6.166   4.893   1.287
 9329TIP3    H227945   6.030   4.943   1.242
 9330TIP3   OH227946   2.661   6.731   0.921
 9330TIP3    H127947   2.712   6.754   0.999
 9330TIP3    H227948   2.720   6.744   0.848
 9331TIP3   OH227949   5.824   3.569   6.411
 9331TIP3    H127950   5.817   3.663   6.428
 9331TIP3    H227951   5.790   3.527   6.490
 9332TIP3   OH227952   0.733   0.594   5.802
 9332TIP3    H127953   0.788   0.642   5.739
 9332TIP3    H227954   0.666   0.658   5.829
 9333TIP3   OH227955   0.777   2.526   3.777
 9333TIP3    H127956   0.775   2.455   3.840
 9333TIP3    H227957   0.692   2.570   3.788
 9334TIP3   OH227958   7.358   3.698   4.654
 9334TIP3    H127959   7.380   3.619   4.703
 9334TIP3    H227960   7.405   3.768   4.699
 9335TIP3   OH227961   2.916   2.691   3.669
 9335TIP3    H127962   2.883   2.632   3.600
 9335TIP3    H227963   3.009   2.701   3.649
 9336TIP3   OH227964   0.994   7.178   4.935
 9336TIP3    H127965   1.039   7.256   4.903
 9336TIP3    H227966   0.932   7.210   5.000
 9337TIP3   OH227967   4.912   7.079   0.370
 9337TIP3    H127968   4.927   7.139   0.296
 9337TIP3    H227969   4.833   7.031   0.345
 9338TIP3   OH227970   7.583   1.953   1.495
 9338TIP3    H127971   7.533   2.032   1.475
 9338TIP3    H227972   7.526   1.903   1.554
 9339TIP3   OH227973   5.400   2.495   6.230
 9339TIP3    H127974   5.350   2.513   6.150
 9339TIP3    H227975   5.386   2.402   6.247
 9340TIP3   OH227976   0.284   1.015   0.485
 9340TIP3    H127977   0.232   1.055   0.415
 9340TIP3    H227978   0.220   0.966   0.537
 9341TIP3   OH227979   6.210   3.482   4.020
 9341TIP3    H127980   6.296   3.464   3.983
 9341TIP3    H227981   6.199   3.415   4.088
 9342TIP3   OH227982   2.101   0.887   1.707
 9342TIP3    H127983   2.185   0.847   1.728
 9342TIP3    H227984   2.122   0.955   1.643
 9343TIP3   OH227985   4.207   6.052   3.931
 9343TIP3    H127986   4.131   5.996   3.947
 9343TIP3    H227987   4.188   6.096   3.848
 9344TIP3   OH227988   5.356   0.695   4.838
 9344TIP3    H127989   5.316   0.694   4.925
 9344TIP3    H227990   5.285   0.670   4.779
 9345TIP3   OH227991   2.491   4.425   5.164
 9345TIP3    H127992   2.528   4.433   5.076
 9345TIP3    H227993   2.565   4.443   5.223
 9346TIP3   OH227994   8.152   4.177   1.472
 9346TIP3    H127995   8.159   4.163   1.378
 9346TIP3    H227996   8.133   4.091   1.508
 9347TIP3   OH227997   6.850   7.401   6.529
 9347TIP3    H127998   6.805   7.473   6.574
 9347TIP3    H227999   6.787   7.372   6.462
 9348TIP3   OH228000   7.522   3.076   2.369
 9348TIP3    H128001   7.476   3.032   2.440
 9348TIP3    H228002   7.571   3.146   2.412
 9349TIP3   OH228003   3.960   0.872   3.798
 9349TIP3    H128004   4.029   0.903   3.739
 9349TIP3    H228005   3.979   0.779   3.810
 9350TIP3   OH228006   1.941   0.256   5.428
 9350TIP3    H128007   1.959   0.348   5.409
 9350TIP3    H228008   1.998   0.236   5.502
 9351TIP3   OH228009   6.058   6.196   3.910
 9351TIP3    H128010   6.100   6.275   3.874
 9351TIP3    H228011   5.964   6.212   3.898
 9352TIP3   OH228012   0.524   7.482   1.415
 9352TIP3    H128013   0.517   7.431   1.335
 9352TIP3    H228014   0.600   7.445   1.461
 9353TIP3   OH228015   1.009   1.230   4.529
 9353TIP3    H128016   0.914   1.238   4.527
 9353TIP3    H228017   1.028   1.152   4.477
 9354TIP3   OH228018   0.699   2.304   3.924
 9354TIP3    H128019   0.640   2.273   3.855
 9354TIP3    H228020   0.707   2.230   3.983
 9355TIP3   OH228021   1.783   1.817   4.385
 9355TIP3    H128022   1.876   1.838   4.373
 9355TIP3    H228023   1.773   1.730   4.346
 9356TIP3   OH228024   3.759   4.130   2.606
 9356TIP3    H128025   3.782   4.097   2.693
 9356TIP3    H228026   3.824   4.198   2.588
 9357TIP3   OH228027   0.670   1.849   0.391
 9357TIP3    H128028   0.597   1.861   0.329
 9357TIP3    H228029   0.731   1.791   0.346
 9358TIP3   OH228030   2.791   6.207   5.217
 9358TIP3    H128031   2.884   6.203   5.197
 9358TIP3    H228032   2.756   6.123   5.187
 9359TIP3   OH228033   8.000   7.200   4.864
 9359TIP3    H128034   8.007   7.133   4.932
 9359TIP3    H228035   7.937   7.263   4.899
 9360TIP3   OH228036   3.413   4.626   6.539
 9360TIP3    H128037   3.417   4.534   6.511
 9360TIP3    H228038   3.354   4.625   6.615
 9361TIP3   OH228039   2.900   4.934   3.960
 9361TIP3    H128040   2.967   5.002   3.951
 9361TIP3    H228041   2.949   4.854   3.980
 9362TIP3   OH228042   3.592   3.966   1.146
 9362TIP3    H128043   3.681   3.938   1.167
 9362TIP3    H228044   3.576   4.041   1.203
 9363TIP3   OH228045   1.536   0.600   3.104
 9363TIP3    H128046   1.457   0.647   3.129
 9363TIP3    H228047   1.607   0.660   3.125
 9364TIP3   OH228048   0.038   7.602   0.051
 9364TIP3    H128049   0.025   7.515   0.014
 9364TIP3    H228050   0.132   7.616   0.049
 9365TIP3   OH228051   8.267   4.402   6.635
 9365TIP3    H128052   8.268   4.403   6.539
 9365TIP3    H228053   8.219   4.481   6.659
 9366TIP3   OH228054   4.356   1.077   2.492
 9366TIP3    H128055   4.307   1.123   2.425
 9366TIP3    H228056   4.343   1.130   2.571
 9367TIP3   OH228057   4.501   5.016   3.821
 9367TIP3    H128058   4.411   4.989   3.802
 9367TIP3    H228059   4.529   4.955   3.890
 9368TIP3   OH228060   5.279   4.728   3.211
 9368TIP3    H128061   5.223   4.676   3.268
 9368TIP3    H228062   5.310   4.665   3.145
 9369TIP3   OH228063   4.262   6.482   0.696
 9369TIP3    H128064   4.350   6.515   0.678
 9369TIP3    H228065   4.274   6.424   0.771
 9370TIP3   OH228066   5.448   1.807   4.611
 9370TIP3    H128067   5.417   1.751   4.539
 9370TIP3    H228068   5.368   1.832   4.657
 9371TIP3   OH228069   4.653   0.367   2.250
 9371TIP3    H128070   4.672   0.430   2.180
 9371TIP3    H228071   4.558   0.358   2.250
 9372TIP3   OH228072   6.245   1.524   2.861
 9372TIP3    H128073   6.183   1.453   2.877
 9372TIP3    H228074   6.274   1.510   2.771
 9373TIP3   OH228075   1.513   5.709   6.663
 9373TIP3    H128076   1.540   5.651   6.734
 9373TIP3    H228077   1.501   5.651   6.588
 9374TIP3   OH228078   4.082   3.613   0.111
 9374TIP3    H128079   4.170   3.598   0.077
 9374TIP3    H228080   4.029   3.630   0.033
 9375TIP3   OH228081   6.240   3.517   1.529
 9375TIP3    H128082   6.311   3.536   1.590
 9375TIP3    H228083   6.160   3.529   1.581
 9376TIP3   OH228084   0.948   7.765   3.722
 9376TIP3    H128085   1.008   7.755   3.648
 9376TIP3    H228086   0.861   7.749   3.685
 9377TIP3   OH228087   4.768   3.895   5.624
 9377TIP3    H128088   4.862   3.915   5.618
 9377TIP3    H228089   4.747   3.907   5.716
 9378TIP3   OH228090   1.819   2.023   3.707
 9378TIP3    H128091   1.772   1.987   3.783
 9378TIP3    H228092   1.903   1.977   3.707
 9379TIP3   OH228093   7.700   3.946   0.806
 9379TIP3    H128094   7.728   3.862   0.771
 9379TIP3    H228095   7.611   3.931   0.837
 9380TIP3   OH228096   2.409   1.043   5.497
 9380TIP3    H128097   2.408   0.956   5.457
 9380TIP3    H228098   2.501   1.060   5.515
 9381TIP3   OH228099   6.722   4.993   4.065
 9381TIP3    H128100   6.740   4.900   4.071
 9381TIP3    H228101   6.808   5.035   4.078
 9382TIP3   OH228102   1.840   0.886   5.714
 9382TIP3    H128103   1.903   0.870   5.644
 9382TIP3    H228104   1.862   0.973   5.746
 9383TIP3   OH228105   4.590   5.756   0.115
 9383TIP3    H128106   4.570   5.694   0.185
 9383TIP3    H228107   4.555   5.839   0.146
 9384TIP3   OH228108   7.447   2.795   0.729
 9384TIP3    H128109   7.493   2.776   0.648
 9384TIP3    H228110   7.394   2.717   0.745
 9385TIP3   OH228111   7.968   0.122   4.263
 9385TIP3    H128112   8.061   0.145   4.265
 9385TIP3    H228113   7.945   0.107   4.355
 9386TIP3   OH228114   6.835   2.429   2.967
 9386TIP3    H128115   6.792   2.348   2.939
 9386TIP3    H228116   6.778   2.499   2.936
 9387TIP3   OH228117   7.097   0.685   3.389
 9387TIP3    H128118   7.186   0.651   3.388
 9387TIP3    H228119   7.093   0.744   3.314
 9388TIP3   OH228120   6.205   0.502   4.004
 9388TIP3    H128121   6.142   0.432   3.987
 9388TIP3    H228122   6.291   0.461   3.992
 9389TIP3   OH228123   4.870   3.530   4.505
 9389TIP3    H128124   4.863   3.600   4.570
 9389TIP3    H228125   4.783   3.523   4.467
 9390TIP3   OH228126   5.806   1.955   5.418
 9390TIP3    H128127   5.837   2.038   5.382
 9390TIP3    H228128   5.876   1.893   5.398
 9391TIP3   OH228129   2.435   0.903   0.120
 9391TIP3    H128130   2.449   0.996   0.137
 9391TIP3    H228131   2.348   0.884   0.154
 9392TIP3   OH228132   4.228   0.084   3.542
 9392TIP3    H128133   4.155   0.125   3.496
 9392TIP3    H228134   4.205   0.091   3.635
 9393TIP3   OH228135   6.358   5.458   3.946
 9393TIP3    H128136   6.390   5.548   3.938
 9393TIP3    H228137   6.345   5.446   4.040
 9394TIP3   OH228138   4.589   3.291   1.073
 9394TIP3    H128139   4.682   3.274   1.055
 9394TIP3    H228140   4.589   3.369   1.128
 9395TIP3   OH228141   5.550   0.175   2.055
 9395TIP3    H128142   5.544   0.200   1.963
 9395TIP3    H228143   5.642   0.188   2.077
 9396TIP3   OH228144   0.233   5.430   1.891
 9396TIP3    H128145   0.159   5.415   1.950
 9396TIP3    H228146   0.238   5.525   1.884
 9397TIP3   OH228147   7.961   3.894   4.398
 9397TIP3    H128148   7.977   3.871   4.306
 9397TIP3    H228149   7.963   3.989   4.400
 9398TIP3   OH228150   7.567   1.413   6.109
 9398TIP3    H128151   7.493   1.443   6.162
 9398TIP3    H228152   7.546   1.443   6.020
 9399TIP3   OH228153   7.161   4.525   5.785
 9399TIP3    H128154   7.206   4.486   5.710
 9399TIP3    H228155   7.201   4.483   5.861
 9400TIP3   OH228156   4.797   1.878   4.523
 9400TIP3    H128157   4.749   1.947   4.569
 9400TIP3    H228158   4.885   1.914   4.509
 9401TIP3   OH228159   4.973   5.806   0.931
 9401TIP3    H128160   4.910   5.808   1.003
 9401TIP3    H228161   4.974   5.895   0.897
 9402TIP3   OH228162   1.437   7.428   5.590
 9402TIP3    H128163   1.348   7.444   5.560
 9402TIP3    H228164   1.434   7.445   5.684
 9403TIP3   OH228165   5.133   7.131   3.086
 9403TIP3    H128166   5.123   7.059   3.149
 9403TIP3    H228167   5.097   7.207   3.131
 9404TIP3   OH228168   7.635   7.549   5.495
 9404TIP3    H128169   7.607   7.639   5.479
 9404TIP3    H228170   7.587   7.523   5.573
 9405TIP3   OH228171   0.022   2.307   0.567
 9405TIP3    H128172  -0.021   2.388   0.595
 9405TIP3    H228173   0.006   2.302   0.473
 9406TIP3   OH228174   2.990   5.337   2.631
 9406TIP3    H128175   3.012   5.415   2.682
 9406TIP3    H228176   3.019   5.264   2.685
 9407TIP3   OH228177   6.709   0.510   4.560
 9407TIP3    H128178   6.771   0.570   4.519
 9407TIP3    H228179   6.721   0.428   4.513
 9408TIP3   OH228180   6.703   0.614   4.186
 9408TIP3    H128181   6.665   0.701   4.194
 9408TIP3    H228182   6.681   0.586   4.097
 9409TIP3   OH228183   6.929   2.862   3.534
 9409TIP3    H128184   7.010   2.902   3.567
 9409TIP3    H228185   6.885   2.830   3.613
 9410TIP3   OH228186   4.056   3.993   1.102
 9410TIP3    H128187   4.046   3.991   1.006
 9410TIP3    H228188   4.050   4.086   1.124
 9411TIP3   OH228189   3.838   2.235   1.328
 9411TIP3    H128190   3.917   2.279   1.299
 9411TIP3    H228191   3.861   2.142   1.332
 9412TIP3   OH228192   2.252   2.891   1.725
 9412TIP3    H128193   2.235   2.895   1.631
 9412TIP3    H228194   2.291   2.976   1.746
 9413TIP3   OH228195   7.820   6.777   0.030
 9413TIP3    H128196   7.836   6.714   0.100
 9413TIP3    H228197   7.826   6.726  -0.051
 9414TIP3   OH228198   0.897   2.882   4.889
 9414TIP3    H128199   0.918   2.902   4.797
 9414TIP3    H228200   0.854   2.962   4.921
 9415TIP3   OH228201   5.499   7.672   6.013
 9415TIP3    H128202   5.582   7.718   6.020
 9415TIP3    H228203   5.440   7.736   5.973
 9416TIP3   OH228204   6.947   1.766   6.053
 9416TIP3    H128205   6.877   1.787   6.114
 9416TIP3    H228206   6.938   1.831   5.983
 9417TIP3   OH228207   1.501   1.154   4.174
 9417TIP3    H128208   1.531   1.100   4.101
 9417TIP3    H228209   1.500   1.244   4.139
 9418TIP3   OH228210   2.483   6.941   6.197
 9418TIP3    H128211   2.402   6.939   6.146
 9418TIP3    H228212   2.521   7.027   6.178
 9419TIP3   OH228213   2.132   6.355   4.753
 9419TIP3    H128214   2.225   6.363   4.732
 9419TIP3    H228215   2.129   6.289   4.822
 9420TIP3   OH228216   1.320   5.630   0.053
 9420TIP3    H128217   1.253   5.574   0.093
 9420TIP3    H228218   1.394   5.571   0.038
 9421TIP3   OH228219   8.253   5.346   0.694
 9421TIP3    H128220   8.339   5.310   0.716
 9421TIP3    H228221   8.235   5.313   0.606
 9422TIP3   OH228222   1.875   6.558   0.567
 9422TIP3    H128223   1.809   6.512   0.619
 9422TIP3    H228224   1.882   6.644   0.608
 9423TIP3   OH228225   3.905   4.569   3.430
 9423TIP3    H128226   3.811   4.554   3.439
 9423TIP3    H228227   3.937   4.573   3.520
 9424TIP3   OH228228   7.551   7.113   3.847
 9424TIP3    H128229   7.486   7.148   3.908
 9424TIP3    H228230   7.528   7.020   3.840
 9425TIP3   OH228231   6.312   5.468   4.224
 9425TIP3    H128232   6.274   5.544   4.269
 9425TIP3    H228233   6.261   5.393   4.255
 9426TIP3   OH228234   0.125   0.477   2.041
 9426TIP3    H128235   0.161   0.446   2.124
 9426TIP3    H228236   0.098   0.567   2.058
 9427TIP3   OH228237   7.029   3.534   5.976
 9427TIP3    H128238   6.985   3.546   6.060
 9427TIP3    H228239   6.971   3.477   5.926
 9428TIP3   OH228240   3.172   2.165   1.941
 9428TIP3    H128241   3.231   2.139   1.870
 9428TIP3    H228242   3.197   2.255   1.962
 9429TIP3   OH228243   5.809   5.780   0.074
 9429TIP3    H128244   5.901   5.786   0.101
 9429TIP3    H228245   5.789   5.687   0.081
 9430TIP3   OH228246   6.266   2.574   4.939
 9430TIP3    H128247   6.274   2.627   5.018
 9430TIP3    H228248   6.237   2.488   4.971
 9431TIP3   OH228249   0.347   4.082   5.854
 9431TIP3    H128250   0.401   4.131   5.916
 9431TIP3    H228251   0.324   4.146   5.787
 9432TIP3   OH228252   0.424   1.349   3.528
 9432TIP3    H128253   0.374   1.423   3.565
 9432TIP3    H228254   0.406   1.276   3.587
 9433TIP3   OH228255   6.182   2.360   2.615
 9433TIP3    H128256   6.261   2.399   2.651
 9433TIP3    H228257   6.212   2.309   2.539
 9434TIP3   OH228258   1.849   4.618   5.099
 9434TIP3    H128259   1.939   4.630   5.068
 9434TIP3    H228260   1.842   4.675   5.175
 9435TIP3   OH228261   4.513   3.756   3.792
 9435TIP3    H128262   4.488   3.664   3.783
 9435TIP3    H228263   4.596   3.764   3.745
 9436TIP3   OH228264   1.276   7.005   6.445
 9436TIP3    H128265   1.249   6.916   6.468
 9436TIP3    H228266   1.304   7.044   6.528
 9437TIP3   OH228267   4.170   0.654   5.873
 9437TIP3    H128268   4.155   0.636   5.780
 9437TIP3    H228269   4.110   0.725   5.894
 9438TIP3   OH228270   0.950   2.997   6.438
 9438TIP3    H128271   0.862   3.032   6.429
 9438TIP3    H228272   0.939   2.918   6.492
 9439TIP3   OH228273   2.023   6.794   1.765
 9439TIP3    H128274   2.056   6.812   1.853
 9439TIP3    H228275   2.027   6.879   1.720
 9440TIP3   OH228276   0.739   1.178   4.974
 9440TIP3    H128277   0.750   1.158   5.067
 9440TIP3    H228278   0.809   1.128   4.930
 9441TIP3   OH228279   1.385   2.250   3.484
 9441TIP3    H128280   1.406   2.243   3.577
 9441TIP3    H228281   1.430   2.175   3.444
 9442TIP3   OH228282   3.383   4.355   3.386
 9442TIP3    H128283   3.328   4.307   3.448
 9442TIP3    H228284   3.440   4.288   3.348
 9443TIP3   OH228285   6.687   2.660   0.628
 9443TIP3    H128286   6.618   2.678   0.692
 9443TIP3    H228287   6.761   2.713   0.656
 9444TIP3   OH228288   2.191   4.080   0.234
 9444TIP3    H128289   2.240   4.141   0.288
 9444TIP3    H228290   2.242   3.999   0.237
 9445TIP3   OH228291   5.707   3.207   2.103
 9445TIP3    H128292   5.657   3.261   2.164
 9445TIP3    H228293   5.792   3.196   2.146
 9446TIP3   OH228294   3.351   2.987   2.979
 9446TIP3    H128295   3.351   2.916   2.915
 9446TIP3    H228296   3.270   3.036   2.961
 9447TIP3   OH228297   3.005   0.937   6.423
 9447TIP3    H128298   3.044   1.021   6.397
 9447TIP3    H228299   2.990   0.891   6.340
 9448TIP3   OH228300   5.554   3.468   5.851
 9448TIP3    H128301   5.642   3.444   5.879
 9448TIP3    H228302   5.567   3.536   5.784
 9449TIP3   OH228303   6.032   6.684   5.798
 9449TIP3    H128304   6.074   6.665   5.714
 9449TIP3    H228305   6.096   6.657   5.863
 9450TIP3   OH228306   6.540   4.877   5.267
 9450TIP3    H128307   6.539   4.783   5.282
 9450TIP3    H228308   6.475   4.891   5.198
 9451TIP3   OH228309   7.730   6.207   1.150
 9451TIP3    H128310   7.687   6.291   1.168
 9451TIP3    H228311   7.666   6.141   1.177
 9452TIP3   OH228312   0.214   5.486   4.742
 9452TIP3    H128313   0.233   5.431   4.666
 9452TIP3    H228314   0.262   5.445   4.814
 9453TIP3   OH228315   7.818   7.733   2.432
 9453TIP3    H128316   7.857   7.659   2.385
 9453TIP3    H228317   7.890   7.770   2.482
 9454TIP3   OH228318   4.052   1.453   4.502
 9454TIP3    H128319   4.102   1.501   4.568
 9454TIP3    H228320   3.961   1.459   4.533
 9455TIP3   OH228321   7.668   0.705   3.581
 9455TIP3    H128322   7.749   0.656   3.598
 9455TIP3    H228323   7.667   0.717   3.486
 9456TIP3   OH228324   4.092   1.744   2.337
 9456TIP3    H128325   4.086   1.714   2.246
 9456TIP3    H228326   4.061   1.835   2.334
 9457TIP3   OH228327   4.697   4.944   5.312
 9457TIP3    H128328   4.720   4.956   5.221
 9457TIP3    H228329   4.603   4.959   5.315
 9458TIP3   OH228330   3.468   1.413   0.452
 9458TIP3    H128331   3.513   1.392   0.534
 9458TIP3    H228332   3.386   1.455   0.480
 9459TIP3   OH228333   0.174   0.346   2.305
 9459TIP3    H128334   0.156   0.317   2.394
 9459TIP3    H228335   0.207   0.267   2.261
 9460TIP3   OH228336   4.511   3.348   2.578
 9460TIP3    H128337   4.495   3.419   2.639
 9460TIP3    H228338   4.424   3.311   2.560
 9461TIP3   OH228339   2.914   4.396   3.469
 9461TIP3    H128340   2.991   4.371   3.519
 9461TIP3    H228341   2.943   4.394   3.378
 9462TIP3   OH228342   1.424   4.930   2.283
 9462TIP3    H128343   1.465   4.993   2.341
 9462TIP3    H228344   1.428   4.847   2.331
 9463TIP3   OH228345   6.547   3.163   4.348
 9463TIP3    H128346   6.617   3.114   4.304
 9463TIP3    H228347   6.475   3.100   4.356
 9464TIP3   OH228348   0.579   5.130   6.588
 9464TIP3    H128349   0.644   5.104   6.654
 9464TIP3    H228350   0.606   5.086   6.508
 9465TIP3   OH228351   4.111   2.223   3.856
 9465TIP3    H128352   4.030   2.186   3.891
 9465TIP3    H228353   4.110   2.199   3.763
 9466TIP3   OH228354   6.001   6.639   0.674
 9466TIP3    H128355   5.945   6.578   0.626
 9466TIP3    H228356   6.006   6.716   0.617
 9467TIP3   OH228357   5.756   6.366   5.159
 9467TIP3    H128358   5.685   6.302   5.172
 9467TIP3    H228359   5.802   6.368   5.243
 9468TIP3   OH228360   3.435   7.683   6.211
 9468TIP3    H128361   3.351   7.644   6.186
 9468TIP3    H228362   3.500   7.627   6.169
 9469TIP3   OH228363   1.920   3.901   4.858
 9469TIP3    H128364   1.990   3.848   4.820
 9469TIP3    H228365   1.932   3.892   4.952
 9470TIP3   OH228366   6.444   0.275   0.493
 9470TIP3    H128367   6.369   0.224   0.524
 9470TIP3    H228368   6.418   0.306   0.407
 9471TIP3   OH228369   3.024   0.041   4.619
 9471TIP3    H128370   2.980   0.092   4.687
 9471TIP3    H228371   2.969   0.050   4.542
 9472TIP3   OH228372   0.997   5.518   1.231
 9472TIP3    H128373   1.030   5.602   1.265
 9472TIP3    H228374   0.902   5.529   1.229
 9473TIP3   OH228375   7.651   4.544   4.501
 9473TIP3    H128376   7.602   4.543   4.583
 9473TIP3    H228377   7.697   4.460   4.501
 9474TIP3   OH228378   0.386   5.213   1.812
 9474TIP3    H128379   0.335   5.143   1.772
 9474TIP3    H228380   0.335   5.292   1.795
 9475TIP3   OH228381   2.513   5.905   4.272
 9475TIP3    H128382   2.577   5.908   4.201
 9475TIP3    H228383   2.562   5.869   4.346
 9476TIP3   OH228384   5.607   3.379   4.653
 9476TIP3    H128385   5.585   3.460   4.699
 9476TIP3    H228386   5.651   3.326   4.720
 9477TIP3   OH228387   4.898   7.490   2.698
 9477TIP3    H128388   4.927   7.571   2.655
 9477TIP3    H228389   4.926   7.420   2.639
 9478TIP3   OH228390   8.190   2.136   3.622
 9478TIP3    H128391   8.100   2.166   3.623
 9478TIP3    H228392   8.242   2.215   3.640
 9479TIP3   OH228393   7.230   2.641   4.928
 9479TIP3    H128394   7.260   2.552   4.910
 9479TIP3    H228395   7.159   2.631   4.991
 9480TIP3   OH228396   4.528   3.593   0.964
 9480TIP3    H128397   4.527   3.556   0.876
 9480TIP3    H228398   4.450   3.649   0.968
 9481TIP3   OH228399   7.170   1.155   0.855
 9481TIP3    H128400   7.248   1.187   0.900
 9481TIP3    H228401   7.112   1.231   0.851
 9482TIP3   OH228402   0.510   6.416   6.059
 9482TIP3    H128403   0.451   6.473   6.010
 9482TIP3    H228404   0.597   6.454   6.044
 9483TIP3   OH228405   3.765   7.621   2.177
 9483TIP3    H128406   3.766   7.715   2.197
 9483TIP3    H228407   3.682   7.607   2.131
 9484TIP3   OH228408   2.827   7.641   3.130
 9484TIP3    H128409   2.783   7.695   3.196
 9484TIP3    H228410   2.816   7.690   3.048
 9485TIP3   OH228411   5.795   6.969   6.575
 9485TIP3    H128412   5.795   7.026   6.498
 9485TIP3    H228413   5.747   6.891   6.547
 9486TIP3   OH228414   0.470   6.510   3.389
 9486TIP3    H128415   0.501   6.550   3.470
 9486TIP3    H228416   0.529   6.435   3.376
 9487TIP3   OH228417   4.145   4.991   6.015
 9487TIP3    H128418   4.229   4.946   6.007
 9487TIP3    H228419   4.163   5.081   5.989
 9488TIP3   OH228420   6.291   1.374   3.306
 9488TIP3    H128421   6.241   1.292   3.310
 9488TIP3    H228422   6.225   1.443   3.301
 9489TIP3   OH228423   0.602   0.461   5.589
 9489TIP3    H128424   0.555   0.415   5.659
 9489TIP3    H228425   0.639   0.538   5.633
 9490TIP3   OH228426   5.500   6.491   5.148
 9490TIP3    H128427   5.447   6.521   5.222
 9490TIP3    H228428   5.541   6.410   5.179
 9491TIP3   OH228429   8.302   5.555   5.770
 9491TIP3    H128430   8.218   5.521   5.740
 9491TIP3    H228431   8.327   5.497   5.842
 9492TIP3   OH228432   8.100   6.878   1.069
 9492TIP3    H128433   8.130   6.969   1.065
 9492TIP3    H228434   8.109   6.845   0.980
 9493TIP3   OH228435   4.520   0.249   1.451
 9493TIP3    H128436   4.454   0.316   1.432
 9493TIP3    H228437   4.501   0.223   1.541
 9494TIP3   OH228438   3.322   3.432   5.999
 9494TIP3    H128439   3.341   3.524   5.977
 9494TIP3    H228440   3.407   3.396   6.025
 9495TIP3   OH228441   0.593   2.850   1.939
 9495TIP3    H128442   0.680   2.810   1.940
 9495TIP3    H228443   0.556   2.826   1.854
 9496TIP3   OH228444   3.659   4.314   1.521
 9496TIP3    H128445   3.634   4.301   1.612
 9496TIP3    H228446   3.713   4.393   1.522
 9497TIP3   OH228447   7.225   5.653   4.693
 9497TIP3    H128448   7.286   5.645   4.620
 9497TIP3    H228449   7.179   5.735   4.678
 9498TIP3   OH228450   0.895   1.963   6.058
 9498TIP3    H128451   0.866   1.952   5.968
 9498TIP3    H228452   0.964   2.030   6.053
 9499TIP3   OH228453   4.538   0.924   5.787
 9499TIP3    H128454   4.488   0.905   5.708
 9499TIP3    H228455   4.560   1.017   5.780
 9500TIP3   OH228456   7.744   3.370   6.618
 9500TIP3    H128457   7.780   3.283   6.599
 9500TIP3    H228458   7.784   3.427   6.553
 9501TIP3   OH228459   7.932   4.698   0.642
 9501TIP3    H128460   8.021   4.730   0.658
 9501TIP3    H228461   7.937   4.657   0.556
 9502TIP3   OH228462   5.127   4.325   5.906
 9502TIP3    H128463   5.187   4.328   5.980
 9502TIP3    H228464   5.118   4.232   5.886
 9503TIP3   OH228465   6.133   4.689   0.612
 9503TIP3    H128466   6.059   4.629   0.603
 9503TIP3    H228467   6.192   4.645   0.673
 9504TIP3   OH228468   5.643   2.389   2.740
 9504TIP3    H128469   5.568   2.425   2.788
 9504TIP3    H228470   5.631   2.294   2.744
 9505TIP3   OH228471   1.825   3.541   1.790
 9505TIP3    H128472   1.813   3.460   1.839
 9505TIP3    H228473   1.920   3.549   1.780
 9506TIP3   OH228474   1.129   2.960   6.708
 9506TIP3    H128475   1.085   3.045   6.720
 9506TIP3    H228476   1.210   2.982   6.663
 9507TIP3   OH228477   7.848   4.916   6.367
 9507TIP3    H128478   7.773   4.861   6.387
 9507TIP3    H228479   7.822   5.004   6.396
 9508TIP3   OH228480   6.177   2.888   5.965
 9508TIP3    H128481   6.097   2.907   5.915
 9508TIP3    H228482   6.168   2.942   6.044
 9509TIP3   OH228483   3.567   3.790   1.355
 9509TIP3    H128484   3.639   3.842   1.390
 9509TIP3    H228485   3.519   3.850   1.298
 9510TIP3   OH228486   6.661   7.216   6.391
 9510TIP3    H128487   6.652   7.173   6.306
 9510TIP3    H228488   6.586   7.185   6.441
 9511TIP3   OH228489   3.557   4.804   1.719
 9511TIP3    H128490   3.474   4.788   1.765
 9511TIP3    H228491   3.616   4.736   1.752
 9512TIP3   OH228492   7.664   0.157   4.881
 9512TIP3    H128493   7.602   0.085   4.873
 9512TIP3    H228494   7.655   0.186   4.972
 9513TIP3   OH228495   1.258   1.296   5.313
 9513TIP3    H128496   1.208   1.356   5.258
 9513TIP3    H228497   1.349   1.324   5.304
 9514TIP3   OH228498   2.231   5.621   0.618
 9514TIP3    H128499   2.297   5.648   0.553
 9514TIP3    H228500   2.168   5.570   0.567
 9515TIP3   OH228501   7.020   0.644   5.847
 9515TIP3    H128502   7.070   0.577   5.799
 9515TIP3    H228503   6.930   0.613   5.844
 9516TIP3   OH228504   4.728   0.349   4.854
 9516TIP3    H128505   4.660   0.284   4.840
 9516TIP3    H228506   4.749   0.381   4.766
 9517TIP3   OH228507   0.946   3.012   5.171
 9517TIP3    H128508   0.857   3.047   5.167
 9517TIP3    H228509   0.973   3.023   5.263
 9518TIP3   OH228510   7.813   2.504   3.587
 9518TIP3    H128511   7.865   2.423   3.591
 9518TIP3    H228512   7.756   2.499   3.663
 9519TIP3   OH228513   3.678   7.123   6.731
 9519TIP3    H128514   3.731   7.133   6.811
 9519TIP3    H228515   3.591   7.153   6.757
 9520TIP3   OH228516   7.943   6.476   2.330
 9520TIP3    H128517   7.962   6.550   2.272
 9520TIP3    H228518   8.024   6.426   2.333
 9521TIP3   OH228519   2.345   3.408   1.820
 9521TIP3    H128520   2.345   3.313   1.813
 9521TIP3    H228521   2.387   3.438   1.739
 9522TIP3   OH228522   3.732   7.469   0.023
 9522TIP3    H128523   3.688   7.553   0.036
 9522TIP3    H228524   3.811   7.475   0.077
 9523TIP3   OH228525   2.963   4.594   2.884
 9523TIP3    H128526   3.058   4.585   2.887
 9523TIP3    H228527   2.933   4.518   2.835
 9524TIP3   OH228528   8.019   3.545   2.025
 9524TIP3    H128529   8.011   3.523   2.118
 9524TIP3    H228530   7.952   3.611   2.010
 9525TIP3   OH228531   6.992   7.275   6.725
 9525TIP3    H128532   7.019   7.324   6.648
 9525TIP3    H228533   6.897   7.277   6.724
 9526TIP3   OH228534   5.546   5.048   5.653
 9526TIP3    H128535   5.484   5.073   5.584
 9526TIP3    H228536   5.615   5.001   5.606
 9527TIP3   OH228537   3.144   6.048   0.999
 9527TIP3    H128538   3.153   6.131   1.045
 9527TIP3    H228539   3.049   6.034   0.994
 9528TIP3   OH228540   6.328   3.579   6.052
 9528TIP3    H128541   6.338   3.671   6.079
 9528TIP3    H228542   6.294   3.535   6.130
 9529TIP3   OH228543   5.237   3.019   5.877
 9529TIP3    H128544   5.281   3.097   5.846
 9529TIP3    H228545   5.186   2.988   5.802
 9530TIP3   OH228546   2.101   7.483   5.923
 9530TIP3    H128547   2.192   7.500   5.949
 9530TIP3    H228548   2.074   7.563   5.877
 9531TIP3   OH228549   0.617   3.664   5.295
 9531TIP3    H128550   0.608   3.758   5.304
 9531TIP3    H228551   0.636   3.633   5.384
 9532TIP3   OH228552   4.637   1.611   2.013
 9532TIP3    H128553   4.637   1.643   1.923
 9532TIP3    H228554   4.692   1.673   2.061
 9533TIP3   OH228555   4.410   5.248   1.892
 9533TIP3    H128556   4.500   5.223   1.913
 9533TIP3    H228557   4.380   5.295   1.970
 9534TIP3   OH228558   6.356   4.466   4.602
 9534TIP3    H128559   6.372   4.444   4.694
 9534TIP3    H228560   6.280   4.524   4.604
 9535TIP3   OH228561   7.676   3.940   6.010
 9535TIP3    H128562   7.639   3.852   6.017
 9535TIP3    H228563   7.722   3.954   6.093
 9536TIP3   OH228564   6.961   7.682   5.433
 9536TIP3    H128565   6.955   7.598   5.480
 9536TIP3    H228566   6.881   7.729   5.456
 9537TIP3   OH228567   6.554   4.025   5.486
 9537TIP3    H128568   6.527   3.985   5.568
 9537TIP3    H228569   6.647   4.045   5.499
 9538TIP3   OH228570   2.749   3.988   6.484
 9538TIP3    H128571   2.677   3.926   6.473
 9538TIP3    H228572   2.828   3.936   6.473
 9539TIP3   OH228573   8.151   5.409   4.134
 9539TIP3    H128574   8.199   5.331   4.107
 9539TIP3    H228575   8.143   5.400   4.229
 9540TIP3   OH228576   7.188   1.455   5.761
 9540TIP3    H128577   7.136   1.375   5.754
 9540TIP3    H228578   7.126   1.525   5.740
 9541TIP3   OH228579   7.248   3.298   0.662
 9541TIP3    H128580   7.220   3.270   0.749
 9541TIP3    H228581   7.166   3.311   0.613
 9542TIP3   OH228582   5.411   7.246   5.514
 9542TIP3    H128583   5.378   7.168   5.559
 9542TIP3    H228584   5.447   7.213   5.432
 9543TIP3   OH228585   4.252   0.511   4.550
 9543TIP3    H128586   4.244   0.428   4.502
 9543TIP3    H228587   4.213   0.492   4.636
 9544TIP3   OH228588   6.449   0.167   1.470
 9544TIP3    H128589   6.473   0.222   1.545
 9544TIP3    H228590   6.364   0.201   1.441
 9545TIP3   OH228591   7.260   4.319   5.949
 9545TIP3    H128592   7.235   4.384   6.015
 9545TIP3    H228593   7.352   4.301   5.967
 9546TIP3   OH228594   8.243   7.360   5.705
 9546TIP3    H128595   8.238   7.330   5.614
 9546TIP3    H228596   8.193   7.295   5.755
 9547TIP3   OH228597   0.179   2.359   5.584
 9547TIP3    H128598   0.220   2.324   5.505
 9547TIP3    H228599   0.088   2.375   5.558
 9548TIP3   OH228600   3.616   1.300   4.340
 9548TIP3    H128601   3.553   1.246   4.291
 9548TIP3    H228602   3.562   1.365   4.384
 9549TIP3   OH228603   0.207   5.228   4.297
 9549TIP3    H128604   0.135   5.215   4.236
 9549TIP3    H228605   0.170   5.209   4.383
 9550TIP3   OH228606   7.356   3.466   5.261
 9550TIP3    H128607   7.331   3.466   5.168
 9550TIP3    H228608   7.420   3.537   5.268
 9551TIP3   OH228609   4.164   4.844   0.761
 9551TIP3    H128610   4.118   4.760   0.761
 9551TIP3    H228611   4.254   4.821   0.785
 9552TIP3   OH228612   8.035   1.068   5.387
 9552TIP3    H128613   7.955   1.113   5.362
 9552TIP3    H228614   8.050   1.004   5.318
 9553TIP3   OH228615   3.742   2.136   0.767
 9553TIP3    H128616   3.820   2.115   0.819
 9553TIP3    H228617   3.749   2.080   0.690
 9554TIP3   OH228618   1.461   2.226   3.760
 9554TIP3    H128619   1.483   2.278   3.836
 9554TIP3    H228620   1.420   2.147   3.795
 9555TIP3   OH228621   4.208   4.360   1.539
 9555TIP3    H128622   4.139   4.418   1.570
 9555TIP3    H228623   4.162   4.280   1.512
 9556TIP3   OH228624   6.980   1.884   5.322
 9556TIP3    H128625   7.000   1.795   5.352
 9556TIP3    H228626   7.041   1.900   5.250
 9557TIP3   OH228627   0.365   5.197   3.863
 9557TIP3    H128628   0.331   5.281   3.892
 9557TIP3    H228629   0.426   5.171   3.933
 9558TIP3   OH228630   0.542   4.674   2.327
 9558TIP3    H128631   0.606   4.700   2.260
 9558TIP3    H228632   0.457   4.696   2.289
 9559TIP3   OH228633   5.518   3.830   1.122
 9559TIP3    H128634   5.577   3.905   1.109
 9559TIP3    H228635   5.546   3.792   1.205
 9560TIP3   OH228636   0.947   6.534   1.022
 9560TIP3    H128637   0.891   6.458   1.003
 9560TIP3    H228638   0.926   6.558   1.112
 9561TIP3   OH228639   7.526   3.778   0.171
 9561TIP3    H128640   7.532   3.830   0.091
 9561TIP3    H228641   7.580   3.826   0.235
 9562TIP3   OH228642   5.683   6.884   1.861
 9562TIP3    H128643   5.720   6.832   1.933
 9562TIP3    H228644   5.744   6.956   1.849
 9563TIP3   OH228645   6.021   6.000   1.031
 9563TIP3    H128646   6.076   5.922   1.025
 9563TIP3    H228647   5.974   6.003   0.947
 9564TIP3   OH228648   3.649   6.891   1.180
 9564TIP3    H128649   3.560   6.868   1.155
 9564TIP3    H228650   3.695   6.807   1.188
 9565TIP3   OH228651   4.378   4.849   3.555
 9565TIP3    H128652   4.466   4.878   3.578
 9565TIP3    H228653   4.320   4.895   3.616
 9566TIP3   OH228654   3.669   6.330   2.441
 9566TIP3    H128655   3.621   6.407   2.471
 9566TIP3    H228656   3.709   6.295   2.521
 9567TIP3   OH228657   5.574   3.346   1.473
 9567TIP3    H128658   5.558   3.377   1.563
 9567TIP3    H228659   5.583   3.427   1.422
 9568TIP3   OH228660   1.893   1.290   4.806
 9568TIP3    H128661   1.856   1.227   4.744
 9568TIP3    H228662   1.816   1.327   4.850
 9569TIP3   OH228663   7.950   1.576   4.311
 9569TIP3    H128664   7.987   1.646   4.258
 9569TIP3    H228665   7.977   1.495   4.266
 9570TIP3   OH228666   2.281   1.641   4.069
 9570TIP3    H128667   2.349   1.659   4.005
 9570TIP3    H228668   2.327   1.602   4.143
 9571TIP3   OH228669   2.574   7.745   1.287
 9571TIP3    H128670   2.649   7.686   1.296
 9571TIP3    H228671   2.573   7.794   1.369
 9572TIP3   OH228672   4.013   6.322   3.041
 9572TIP3    H128673   3.943   6.318   3.107
 9572TIP3    H228674   4.045   6.412   3.046
 9573TIP3   OH228675   2.640   4.077   0.098
 9573TIP3    H128676   2.695   4.095   0.175
 9573TIP3    H228677   2.616   4.164   0.066
 9574TIP3   OH228678   8.249   2.198   3.187
 9574TIP3    H128679   8.219   2.135   3.253
 9574TIP3    H228680   8.245   2.150   3.104
 9575TIP3   OH228681   1.002   4.399   6.685
 9575TIP3    H128682   0.930   4.453   6.718
 9575TIP3    H228683   0.968   4.310   6.687
 9576TIP3   OH228684   8.270   7.570   5.303
 9576TIP3    H128685   8.237   7.606   5.386
 9576TIP3    H228686   8.197   7.582   5.242
 9577TIP3   OH228687   6.610   3.402   0.065
 9577TIP3    H128688   6.630   3.326   0.011
 9577TIP3    H228689   6.680   3.406   0.129
 9578TIP3   OH228690   2.756   4.853   6.686
 9578TIP3    H128691   2.747   4.851   6.782
 9578TIP3    H228692   2.723   4.768   6.658
 9579TIP3   OH228693   5.845   3.834   0.716
 9579TIP3    H128694   5.786   3.759   0.707
 9579TIP3    H228695   5.912   3.804   0.777
 9580TIP3   OH228696   7.575   0.912   0.481
 9580TIP3    H128697   7.629   0.863   0.543
 9580TIP3    H228698   7.514   0.961   0.535
 9581TIP3   OH228699   4.794   0.163   4.189
 9581TIP3    H128700   4.704   0.131   4.198
 9581TIP3    H228701   4.831   0.158   4.276
 9582TIP3   OH228702   3.737   5.433   3.103
 9582TIP3    H128703   3.684   5.358   3.129
 9582TIP3    H228704   3.803   5.396   3.045
 9583TIP3   OH228705   4.794   3.662   3.194
 9583TIP3    H128706   4.771   3.723   3.264
 9583TIP3    H228707   4.736   3.587   3.207
 9584TIP3   OH228708   4.971   6.077   0.876
 9584TIP3    H128709   4.886   6.095   0.837
 9584TIP3    H228710   5.034   6.100   0.807
 9585TIP3   OH228711   0.747   0.952   2.662
 9585TIP3    H128712   0.802   1.028   2.681
 9585TIP3    H228713   0.805   0.890   2.619
 9586TIP3   OH228714   4.735   5.249   5.875
 9586TIP3    H128715   4.799   5.318   5.856
 9586TIP3    H228716   4.702   5.223   5.789
 9587TIP3   OH228717   0.606   5.079   4.184
 9587TIP3    H128718   0.514   5.076   4.159
 9587TIP3    H228719   0.623   4.993   4.224
 9588TIP3   OH228720   7.799   4.442   3.841
 9588TIP3    H128721   7.814   4.353   3.807
 9588TIP3    H228722   7.733   4.479   3.783
 9589TIP3   OH228723   7.540   1.036   2.312
 9589TIP3    H128724   7.579   1.064   2.395
 9589TIP3    H228725   7.512   0.946   2.328
 9590TIP3   OH228726   4.193   3.158   4.572
 9590TIP3    H128727   4.134   3.112   4.513
 9590TIP3    H228728   4.207   3.097   4.644
 9591TIP3   OH228729   5.216   0.183   2.530
 9591TIP3    H128730   5.189   0.100   2.488
 9591TIP3    H228731   5.181   0.251   2.472
 9592TIP3   OH228732   4.838   6.634   6.249
 9592TIP3    H128733   4.926   6.598   6.258
 9592TIP3    H228734   4.848   6.711   6.193
 9593TIP3   OH228735   5.729   5.381   5.354
 9593TIP3    H128736   5.721   5.416   5.442
 9593TIP3    H228737   5.749   5.288   5.366
 9594TIP3   OH228738   0.241   0.297   4.081
 9594TIP3    H128739   0.199   0.222   4.124
 9594TIP3    H228740   0.232   0.368   4.145
 9595TIP3   OH228741   2.621   3.729   6.155
 9595TIP3    H128742   2.575   3.799   6.109
 9595TIP3    H228743   2.617   3.654   6.097
 9596TIP3   OH228744   2.108   0.468   6.111
 9596TIP3    H128745   2.125   0.511   6.195
 9596TIP3    H228746   2.077   0.538   6.054
 9597TIP3   OH228747   8.181   0.869   4.002
 9597TIP3    H128748   8.257   0.909   3.961
 9597TIP3    H228749   8.130   0.942   4.036
 9598TIP3   OH228750   1.039   6.482   5.705
 9598TIP3    H128751   1.080   6.556   5.661
 9598TIP3    H228752   1.083   6.476   5.789
 9599TIP3   OH228753   3.178   4.991   3.697
 9599TIP3    H128754   3.152   4.902   3.673
 9599TIP3    H228755   3.194   5.036   3.614
 9600TIP3   OH228756   1.098   4.080   6.140
 9600TIP3    H128757   1.028   4.015   6.131
 9600TIP3    H228758   1.163   4.038   6.195
 9601TIP3   OH228759   2.355   2.401   4.807
 9601TIP3    H128760   2.432   2.437   4.763
 9601TIP3    H228761   2.295   2.379   4.736
 9602TIP3   OH228762   4.468   5.422   1.675
 9602TIP3    H128763   4.537   5.476   1.715
 9602TIP3    H228764   4.442   5.362   1.745
 9603TIP3   OH228765   6.927   5.606   1.298
 9603TIP3    H128766   6.854   5.626   1.356
 9603TIP3    H228767   6.904   5.523   1.257
 9604TIP3   OH228768   4.860   4.915   0.633
 9604TIP3    H128769   4.888   4.919   0.541
 9604TIP3    H228770   4.876   4.825   0.659
 9605TIP3   OH228771   5.663   7.402   3.646
 9605TIP3    H128772   5.639   7.345   3.572
 9605TIP3    H228773   5.758   7.405   3.644
 9606TIP3   OH228774   6.717   7.627   6.315
 9606TIP3    H128775   6.624   7.616   6.334
 9606TIP3    H228776   6.747   7.690   6.380
 9607TIP3   OH228777   5.101   1.889   4.165
 9607TIP3    H128778   5.152   1.921   4.090
 9607TIP3    H228779   5.030   1.839   4.125
 9608TIP3   OH228780   8.237   2.104   6.799
 9608TIP3    H128781   8.167   2.041   6.778
 9608TIP3    H228782   8.315   2.066   6.758
 9609TIP3   OH228783   6.030   6.388   5.967
 9609TIP3    H128784   5.978   6.391   5.887
 9609TIP3    H228785   6.087   6.465   5.962
 9610TIP3   OH228786   0.953   0.671   0.643
 9610TIP3    H128787   0.899   0.729   0.589
 9610TIP3    H228788   1.041   0.679   0.606
 9611TIP3   OH228789   8.032   3.761   1.495
 9611TIP3    H128790   7.986   3.776   1.577
 9611TIP3    H228791   7.963   3.739   1.433
 9612TIP3   OH228792   2.550   2.449   5.748
 9612TIP3    H128793   2.549   2.544   5.738
 9612TIP3    H228794   2.470   2.430   5.797
 9613TIP3   OH228795   7.033   0.316   4.111
 9613TIP3    H128796   7.028   0.335   4.205
 9613TIP3    H228797   6.975   0.380   4.070
 9614TIP3   OH228798   6.429   7.304   5.576
 9614TIP3    H128799   6.487   7.352   5.635
 9614TIP3    H228800   6.456   7.213   5.584
 9615TIP3   OH228801   7.918   7.759   0.156
 9615TIP3    H128802   7.933   7.837   0.104
 9615TIP3    H228803   7.829   7.732   0.134
 9616TIP3   OH228804   0.685   1.419   1.360
 9616TIP3    H128805   0.680   1.508   1.326
 9616TIP3    H228806   0.646   1.365   1.292
 9617TIP3   OH228807   5.225   7.252   4.129
 9617TIP3    H128808   5.133   7.236   4.108
 9617TIP3    H228809   5.247   7.182   4.191
 9618TIP3   OH228810   0.951   5.375   3.244
 9618TIP3    H128811   0.873   5.425   3.219
 9618TIP3    H228812   1.024   5.429   3.212
 9619TIP3   OH228813   5.320   7.785   5.797
 9619TIP3    H128814   5.310   7.757   5.706
 9619TIP3    H228815   5.233   7.813   5.824
 9620TIP3   OH228816   0.837   4.791   5.725
 9620TIP3    H128817   0.856   4.876   5.764
 9620TIP3    H228818   0.866   4.727   5.790
 9621TIP3   OH228819   1.405   6.611   6.632
 9621TIP3    H128820   1.498   6.635   6.642
 9621TIP3    H228821   1.377   6.589   6.721
 9622TIP3   OH228822   6.596   5.776   3.844
 9622TIP3    H128823   6.681   5.782   3.889
 9622TIP3    H228824   6.618   5.792   3.752
 9623TIP3   OH228825   3.454   1.514   3.618
 9623TIP3    H128826   3.426   1.594   3.575
 9623TIP3    H228827   3.546   1.504   3.592
 9624TIP3   OH228828   4.653   0.989   0.782
 9624TIP3    H128829   4.592   1.020   0.849
 9624TIP3    H228830   4.602   0.991   0.701
 9625TIP3   OH228831   7.875   4.223   2.408
 9625TIP3    H128832   7.791   4.225   2.362
 9625TIP3    H228833   7.915   4.308   2.388
 9626TIP3   OH228834   4.263   3.571   5.479
 9626TIP3    H128835   4.255   3.478   5.456
 9626TIP3    H228836   4.173   3.598   5.498
 9627TIP3   OH228837   7.107   1.380   2.276
 9627TIP3    H128838   7.141   1.333   2.352
 9627TIP3    H228839   7.066   1.459   2.312
 9628TIP3   OH228840   0.447   7.161   6.354
 9628TIP3    H128841   0.464   7.256   6.358
 9628TIP3    H228842   0.353   7.153   6.365
 9629TIP3   OH228843   6.489   1.547   3.035
 9629TIP3    H128844   6.411   1.532   2.982
 9629TIP3    H228845   6.561   1.547   2.972
 9630TIP3   OH228846   4.798   5.715   3.372
 9630TIP3    H128847   4.844   5.759   3.443
 9630TIP3    H228848   4.758   5.787   3.322
 9631TIP3   OH228849   3.718   0.326   0.240
 9631TIP3    H128850   3.698   0.268   0.167
 9631TIP3    H228851   3.669   0.406   0.222
 9632TIP3   OH228852   3.060   5.670   4.522
 9632TIP3    H128853   3.024   5.745   4.474
 9632TIP3    H228854   3.148   5.698   4.548
 9633TIP3   OH228855   3.953   4.859   6.232
 9633TIP3    H128856   3.920   4.788   6.177
 9633TIP3    H228857   4.023   4.899   6.180
 9634TIP3   OH228858   2.346   2.332   2.639
 9634TIP3    H128859   2.364   2.341   2.733
 9634TIP3    H228860   2.405   2.262   2.610
 9635TIP3   OH228861   0.466   0.651   1.387
 9635TIP3    H128862   0.386   0.633   1.436
 9635TIP3    H228863   0.438   0.711   1.318
 9636TIP3   OH228864   4.617   5.608   3.909
 9636TIP3    H128865   4.649   5.538   3.852
 9636TIP3    H228866   4.613   5.567   3.996
 9637TIP3   OH228867   5.465   7.403   0.150
 9637TIP3    H128868   5.425   7.479   0.108
 9637TIP3    H228869   5.391   7.350   0.178
 9638TIP3   OH228870   1.711   6.901   3.788
 9638TIP3    H128871   1.714   6.986   3.832
 9638TIP3    H228872   1.727   6.920   3.696
 9639TIP3   OH228873   0.215   7.456   6.512
 9639TIP3    H128874   0.311   7.451   6.509
 9639TIP3    H228875   0.191   7.495   6.428
 9640TIP3   OH228876   1.212   0.246   1.837
 9640TIP3    H128877   1.263   0.310   1.788
 9640TIP3    H228878   1.257   0.240   1.922
 9641TIP3   OH228879   0.325   4.430   0.415
 9641TIP3    H128880   0.286   4.369   0.352
 9641TIP3    H228881   0.402   4.464   0.371
 9642TIP3   OH228882   5.248   4.596   1.864
 9642TIP3    H128883   5.163   4.577   1.903
 9642TIP3    H228884   5.291   4.654   1.927
 9643TIP3   OH228885   2.920   0.236   4.148
 9643TIP3    H128886   3.004   0.279   4.164
 9643TIP3    H228887   2.860   0.306   4.123
 9644TIP3   OH228888   2.878   6.940   2.148
 9644TIP3    H128889   2.864   6.917   2.239
 9644TIP3    H228890   2.972   6.950   2.139
 9645TIP3   OH228891   4.052   2.490   2.153
 9645TIP3    H128892   4.054   2.395   2.153
 9645TIP3    H228893   4.017   2.514   2.067
 9646TIP3   OH228894   4.748   1.581   1.199
 9646TIP3    H128895   4.816   1.604   1.134
 9646TIP3    H228896   4.779   1.499   1.237
 9647TIP3   OH228897   3.047   6.757   5.722
 9647TIP3    H128898   2.999   6.812   5.783
 9647TIP3    H228899   2.981   6.727   5.659
 9648TIP3   OH228900   7.490   5.147   0.266
 9648TIP3    H128901   7.465   5.059   0.291
 9648TIP3    H228902   7.521   5.139   0.176
 9649TIP3   OH228903   6.613   7.316   5.774
 9649TIP3    H128904   6.664   7.255   5.721
 9649TIP3    H228905   6.599   7.271   5.857
 9650TIP3   OH228906   6.291   2.963   3.760
 9650TIP3    H128907   6.346   2.886   3.749
 9650TIP3    H228908   6.238   2.967   3.680
 9651TIP3   OH228909   6.243   0.524   1.129
 9651TIP3    H128910   6.313   0.525   1.064
 9651TIP3    H228911   6.163   0.507   1.078
 9652TIP3   OH228912   6.415   7.534   5.244
 9652TIP3    H128913   6.459   7.454   5.270
 9652TIP3    H228914   6.323   7.520   5.267
 9653TIP3   OH228915   0.118   0.597   4.068
 9653TIP3    H128916   0.094   0.676   4.117
 9653TIP3    H228917   0.041   0.540   4.075
 9654TIP3   OH228918   3.470   3.575   2.832
 9654TIP3    H128919   3.435   3.578   2.921
 9654TIP3    H228920   3.402   3.615   2.777
 9655TIP3   OH228921   8.174   0.320   2.540
 9655TIP3    H128922   8.182   0.274   2.456
 9655TIP3    H228923   8.231   0.271   2.599
 9656TIP3   OH228924   5.737   7.394   1.661
 9656TIP3    H128925   5.802   7.336   1.700
 9656TIP3    H228926   5.675   7.335   1.617
 9657TIP3   OH228927   2.702   4.527   4.941
 9657TIP3    H128928   2.670   4.490   4.858
 9657TIP3    H228929   2.723   4.618   4.921
 9658TIP3   OH228930   7.613   0.789   1.533
 9658TIP3    H128931   7.591   0.875   1.567
 9658TIP3    H228932   7.608   0.798   1.438
 9659TIP3   OH228933   5.905   6.373   0.817
 9659TIP3    H128934   5.825   6.352   0.767
 9659TIP3    H228935   5.900   6.468   0.830
 9660TIP3   OH228936   5.788   2.763   5.290
 9660TIP3    H128937   5.741   2.695   5.340
 9660TIP3    H228938   5.735   2.774   5.211
 9661TIP3   OH228939   3.703   0.663   5.204
 9661TIP3    H128940   3.703   0.616   5.288
 9661TIP3    H228941   3.721   0.754   5.228
 9662TIP3   OH228942   4.131   0.826   1.994
 9662TIP3    H128943   4.218   0.849   2.027
 9662TIP3    H228944   4.140   0.830   1.899
 9663TIP3   OH228945   0.016   5.287   3.896
 9663TIP3    H128946   0.007   5.225   3.968
 9663TIP3    H228947   0.096   5.336   3.917
 9664TIP3   OH228948   4.202   3.470   3.020
 9664TIP3    H128949   4.189   3.428   3.105
 9664TIP3    H228950   4.114   3.497   2.993
 9665TIP3   OH228951   1.818   2.211   0.119
 9665TIP3    H128952   1.905   2.227   0.157
 9665TIP3    H228953   1.791   2.127   0.156
 9666TIP3   OH228954   6.117   5.273   6.479
 9666TIP3    H128955   6.110   5.178   6.470
 9666TIP3    H228956   6.211   5.290   6.471
 9667TIP3   OH228957   0.732   4.494   3.698
 9667TIP3    H128958   0.774   4.456   3.775
 9667TIP3    H228959   0.773   4.580   3.688
 9668TIP3   OH228960   1.638   5.633   0.996
 9668TIP3    H128961   1.699   5.578   0.947
 9668TIP3    H228962   1.679   5.719   0.997
 9669TIP3   OH228963   4.694   4.463   3.106
 9669TIP3    H128964   4.630   4.523   3.144
 9669TIP3    H228965   4.763   4.519   3.072
 9670TIP3   OH228966   4.921   4.776   6.273
 9670TIP3    H128967   4.981   4.724   6.220
 9670TIP3    H228968   4.937   4.866   6.247
 9671TIP3   OH228969   3.675   0.305   5.255
 9671TIP3    H128970   3.723   0.242   5.309
 9671TIP3    H228971   3.676   0.385   5.307
 9672TIP3   OH228972   5.909   2.408   2.105
 9672TIP3    H128973   5.999   2.437   2.092
 9672TIP3    H228974   5.867   2.421   2.020
 9673TIP3   OH228975   4.622   1.951   6.176
 9673TIP3    H128976   4.573   2.031   6.159
 9673TIP3    H228977   4.706   1.965   6.132
 9674TIP3   OH228978   6.724   6.551   5.702
 9674TIP3    H128979   6.804   6.513   5.666
 9674TIP3    H228980   6.659   6.481   5.694
 9675TIP3   OH228981   3.126   7.003   3.280
 9675TIP3    H128982   3.040   6.960   3.279
 9675TIP3    H228983   3.155   6.995   3.371
 9676TIP3   OH228984   5.939   5.545   6.024
 9676TIP3    H128985   6.034   5.537   6.025
 9676TIP3    H228986   5.922   5.632   5.987
 9677TIP3   OH228987   0.120   0.425   1.368
 9677TIP3    H128988   0.100   0.481   1.293
 9677TIP3    H228989   0.159   0.484   1.433
 9678TIP3   OH228990   8.100   4.110   4.618
 9678TIP3    H128991   8.142   4.046   4.560
 9678TIP3    H228992   8.088   4.063   4.701
 9679TIP3   OH228993   8.040   2.928   5.250
 9679TIP3    H128994   8.051   2.994   5.182
 9679TIP3    H228995   7.970   2.964   5.306
 9680TIP3   OH228996   0.971   7.675   6.728
 9680TIP3    H128997   0.963   7.748   6.789
 9680TIP3    H228998   1.059   7.684   6.691
 9681TIP3   OH228999   7.434   6.643   2.753
 9681TIP3    H129000   7.490   6.673   2.825
 9681TIP3    H229001   7.444   6.710   2.685
 9682TIP3   OH229002   3.171   6.272   0.402
 9682TIP3    H129003   3.092   6.312   0.365
 9682TIP3    H229004   3.157   6.274   0.497
 9683TIP3   OH229005   2.846   1.402   1.359
 9683TIP3    H129006   2.922   1.449   1.324
 9683TIP3    H229007   2.835   1.436   1.448
 9684TIP3   OH229008   6.568   1.435   3.689
 9684TIP3    H129009   6.544   1.345   3.714
 9684TIP3    H229010   6.513   1.454   3.613
 9685TIP3   OH229011   0.338   2.578   5.303
 9685TIP3    H129012   0.319   2.648   5.364
 9685TIP3    H229013   0.373   2.507   5.357
 9686TIP3   OH229014   4.094   6.159   1.500
 9686TIP3    H129015   4.038   6.233   1.476
 9686TIP3    H229016   4.110   6.113   1.418
 9687TIP3   OH229017   5.574   2.741   2.684
 9687TIP3    H129018   5.648   2.716   2.739
 9687TIP3    H229019   5.528   2.808   2.734
 9688TIP3   OH229020   3.292   0.797   6.093
 9688TIP3    H129021   3.209   0.846   6.097
 9688TIP3    H229022   3.284   0.731   6.161
 9689TIP3   OH229023   7.166   7.157   4.147
 9689TIP3    H129024   7.078   7.178   4.117
 9689TIP3    H229025   7.180   7.214   4.222
 9690TIP3   OH229026   6.824   6.703   6.423
 9690TIP3    H129027   6.741   6.740   6.395
 9690TIP3    H229028   6.886   6.727   6.354
 9691TIP3   OH229029   0.916   4.480   0.896
 9691TIP3    H129030   0.946   4.504   0.984
 9691TIP3    H229031   0.990   4.500   0.839
 9692TIP3   OH229032   4.569   0.845   4.970
 9692TIP3    H129033   4.656   0.820   4.936
 9692TIP3    H229034   4.539   0.913   4.910
 9693TIP3   OH229035   4.579   4.553   0.776
 9693TIP3    H129036   4.541   4.641   0.778
 9693TIP3    H229037   4.583   4.527   0.867
 9694TIP3   OH229038   3.566   5.080   1.703
 9694TIP3    H129039   3.658   5.094   1.679
 9694TIP3    H229040   3.556   4.985   1.705
 9695TIP3   OH229041   2.218   1.855   5.093
 9695TIP3    H129042   2.210   1.844   4.999
 9695TIP3    H229043   2.306   1.892   5.105
 9696TIP3   OH229044   1.924   4.500   5.839
 9696TIP3    H129045   2.001   4.510   5.894
 9696TIP3    H229046   1.850   4.493   5.900
 9697TIP3   OH229047   5.422   4.771   4.044
 9697TIP3    H129048   5.475   4.808   3.973
 9697TIP3    H229049   5.467   4.690   4.068
 9698TIP3   OH229050   1.109   7.793   2.422
 9698TIP3    H129051   1.022   7.818   2.451
 9698TIP3    H229052   1.160   7.874   2.428
 9699TIP3   OH229053   5.504   5.787   5.288
 9699TIP3    H129054   5.478   5.872   5.253
 9699TIP3    H229055   5.592   5.802   5.323
 9700TIP3   OH229056   7.514   1.520   0.557
 9700TIP3    H129057   7.560   1.567   0.626
 9700TIP3    H229058   7.487   1.588   0.495
 9701TIP3   OH229059   0.578   6.945   2.576
 9701TIP3    H129060   0.519   7.012   2.544
 9701TIP3    H229061   0.665   6.981   2.562
 9702TIP3   OH229062  -0.012   4.244   2.241
 9702TIP3    H129063   0.073   4.205   2.221
 9702TIP3    H229064  -0.053   4.183   2.301
 9703TIP3   OH229065   4.217   4.412   4.302
 9703TIP3    H129066   4.215   4.331   4.352
 9703TIP3    H229067   4.125   4.436   4.291
 9704TIP3   OH229068   7.389   2.833   0.094
 9704TIP3    H129069   7.464   2.876   0.053
 9704TIP3    H229070   7.330   2.906   0.116
 9705TIP3   OH229071   0.956   0.160   4.757
 9705TIP3    H129072   0.927   0.081   4.710
 9705TIP3    H229073   0.876   0.209   4.773
 9706TIP3   OH229074   3.698   6.986   0.883
 9706TIP3    H129075   3.665   6.972   0.794
 9706TIP3    H229076   3.719   6.899   0.915
 9707TIP3   OH229077   6.152   5.701   0.690
 9707TIP3    H129078   6.222   5.651   0.647
 9707TIP3    H229079   6.167   5.791   0.662
 9708TIP3   OH229080   0.701   6.177   0.409
 9708TIP3    H129081   0.680   6.262   0.370
 9708TIP3    H229082   0.792   6.186   0.438
 9709TIP3   OH229083   6.933   6.558   2.681
 9709TIP3    H129084   7.014   6.561   2.731
 9709TIP3    H229085   6.937   6.475   2.633
 9710TIP3   OH229086   4.888   0.783   5.039
 9710TIP3    H129087   4.919   0.731   4.964
 9710TIP3    H229088   4.951   0.765   5.108
 9711TIP3   OH229089   4.093   0.506   6.086
 9711TIP3    H129090   4.147   0.427   6.079
 9711TIP3    H229091   4.126   0.563   6.016
 9712TIP3   OH229092   7.476   3.386   3.310
 9712TIP3    H129093   7.456   3.323   3.242
 9712TIP3    H229094   7.419   3.361   3.383
 9713TIP3   OH229095   7.714   0.935   0.102
 9713TIP3    H129096   7.775   0.867   0.075
 9713TIP3    H229097   7.733   0.949   0.195
 9714TIP3   OH229098   6.622   1.620   0.333
 9714TIP3    H129099   6.633   1.616   0.238
 9714TIP3    H229100   6.662   1.703   0.358
 9715TIP3   OH229101   6.022   3.007   1.814
 9715TIP3    H129102   6.077   2.947   1.865
 9715TIP3    H229103   6.076   3.085   1.802
 9716TIP3   OH229104   0.535   0.407   0.547
 9716TIP3    H129105   0.578   0.342   0.602
 9716TIP3    H229106   0.446   0.413   0.581
 9717TIP3   OH229107   5.562   6.923   0.991
 9717TIP3    H129108   5.521   7.002   0.956
 9717TIP3    H229109   5.501   6.893   1.059
 9718TIP3   OH229110   6.509   1.656   0.073
 9718TIP3    H129111   6.533   1.615  -0.010
 9718TIP3    H229112   6.432   1.608   0.102
 9719TIP3   OH229113   7.802   4.660   6.089
 9719TIP3    H129114   7.806   4.638   6.182
 9719TIP3    H229115   7.713   4.694   6.076
 9720TIP3   OH229116   7.165   0.019   2.052
 9720TIP3    H129117   7.215  -0.009   1.976
 9720TIP3    H229118   7.074   0.009   2.026
 9721TIP3   OH229119   0.148   7.394   0.649
 9721TIP3    H129120   0.240   7.381   0.628
 9721TIP3    H229121   0.105   7.403   0.564
 9722TIP3   OH229122   5.744   6.136   5.774
 9722TIP3    H129123   5.815   6.096   5.724
 9722TIP3    H229124   5.764   6.114   5.865
 9723TIP3   OH229125   1.662   0.434   5.250
 9723TIP3    H129126   1.569   0.417   5.264
 9723TIP3    H229127   1.677   0.521   5.287
 9724TIP3   OH229128   0.768   5.519   4.441
 9724TIP3    H129129   0.711   5.442   4.436
 9724TIP3    H229130   0.840   5.500   4.382
 9725TIP3   OH229131   2.659   5.644   3.708
 9725TIP3    H129132   2.575   5.610   3.738
 9725TIP3    H229133   2.690   5.580   3.644
 9726TIP3   OH229134   6.664   6.025   2.033
 9726TIP3    H129135   6.739   5.972   2.060
 9726TIP3    H229136   6.702   6.105   1.997
 9727TIP3   OH229137   1.132   2.713   5.527
 9727TIP3    H129138   1.184   2.709   5.447
 9727TIP3    H229139   1.130   2.806   5.550
 9728TIP3   OH229140   4.651   7.596   2.800
 9728TIP3    H129141   4.731   7.568   2.755
 9728TIP3    H229142   4.584   7.595   2.732
 9729TIP3   OH229143   0.370   4.348   1.908
 9729TIP3    H129144   0.459   4.379   1.928
 9729TIP3    H229145   0.338   4.314   1.992
 9730TIP3   OH229146   6.199   7.785   4.885
 9730TIP3    H129147   6.159   7.862   4.926
 9730TIP3    H229148   6.265   7.757   4.948
 9731TIP3   OH229149   6.179   0.505   3.277
 9731TIP3    H129150   6.243   0.477   3.212
 9731TIP3    H229151   6.107   0.442   3.270
 9732TIP3   OH229152   0.693   3.250   3.896
 9732TIP3    H129153   0.708   3.313   3.826
 9732TIP3    H229154   0.678   3.167   3.852
 9733TIP3   OH229155   0.303   2.898   3.244
 9733TIP3    H129156   0.320   2.850   3.163
 9733TIP3    H229157   0.228   2.854   3.283
 9734TIP3   OH229158   5.419   1.554   2.605
 9734TIP3    H129159   5.496   1.609   2.588
 9734TIP3    H229160   5.420   1.543   2.700
 9735TIP3   OH229161   1.318   1.650   6.002
 9735TIP3    H129162   1.223   1.649   6.015
 9735TIP3    H229163   1.334   1.581   5.937
 9736TIP3   OH229164   2.158   3.860   4.739
 9736TIP3    H129165   2.198   3.804   4.805
 9736TIP3    H229166   2.228   3.922   4.715
 9737TIP3   OH229167   7.485   7.204   5.489
 9737TIP3    H129168   7.396   7.209   5.454
 9737TIP3    H229169   7.519   7.121   5.457
 9738TIP3   OH229170   7.080   1.661   6.484
 9738TIP3    H129171   7.027   1.724   6.435
 9738TIP3    H229172   7.030   1.579   6.482
 9739TIP3   OH229173   1.907   7.791   5.596
 9739TIP3    H129174   1.889   7.809   5.504
 9739TIP3    H229175   1.836   7.835   5.643
 9740TIP3   OH229176   6.685   5.963   5.659
 9740TIP3    H129177   6.769   5.952   5.703
 9740TIP3    H229178   6.704   5.952   5.566
 9741TIP3   OH229179   3.435   5.451   2.223
 9741TIP3    H129180   3.506   5.389   2.208
 9741TIP3    H229181   3.356   5.397   2.226
 9742TIP3   OH229182   3.958   3.133   2.728
 9742TIP3    H129183   3.982   3.078   2.654
 9742TIP3    H229184   3.993   3.219   2.706
 9743TIP3   OH229185   8.126   7.090   3.733
 9743TIP3    H129186   8.189   7.125   3.670
 9743TIP3    H229187   8.074   7.028   3.682
 9744TIP3   OH229188   6.438   4.307   5.799
 9744TIP3    H129189   6.368   4.358   5.839
 9744TIP3    H229190   6.399   4.268   5.721
 9745TIP3   OH229191   7.131   5.151   0.931
 9745TIP3    H129192   7.084   5.163   1.014
 9745TIP3    H229193   7.223   5.151   0.956
 9746TIP3   OH229194   2.295   0.455   1.521
 9746TIP3    H129195   2.365   0.514   1.491
 9746TIP3    H229196   2.215   0.490   1.481
 9747TIP3   OH229197   1.518   7.821   2.330
 9747TIP3    H129198   1.558   7.806   2.416
 9747TIP3    H229199   1.557   7.755   2.273
 9748TIP3   OH229200   6.833   0.665   3.088
 9748TIP3    H129201   6.890   0.737   3.112
 9748TIP3    H229202   6.885   0.586   3.104
 9749TIP3   OH229203   1.549   5.947   5.545
 9749TIP3    H129204   1.463   5.907   5.534
 9749TIP3    H229205   1.608   5.873   5.559
 9750TIP3   OH229206   8.169   1.931   1.500
 9750TIP3    H129207   8.211   1.998   1.446
 9750TIP3    H229208   8.146   1.975   1.581
 9751TIP3   OH229209   7.134   7.079   5.488
 9751TIP3    H129210   7.135   7.117   5.401
 9751TIP3    H229211   7.166   6.990   5.476
 9752TIP3   OH229212   2.281   3.777   1.732
 9752TIP3    H129213   2.301   3.737   1.647
 9752TIP3    H229214   2.295   3.870   1.718
 9753TIP3   OH229215   2.132   0.624   6.329
 9753TIP3    H129216   2.099   0.553   6.384
 9753TIP3    H229217   2.104   0.704   6.374
 9754TIP3   OH229218   5.690   7.477   2.137
 9754TIP3    H129219   5.667   7.387   2.115
 9754TIP3    H229220   5.689   7.524   2.053
 9755TIP3   OH229221   5.297   6.405   1.982
 9755TIP3    H129222   5.338   6.403   2.069
 9755TIP3    H229223   5.358   6.455   1.928
 9756TIP3   OH229224   3.648   6.365   5.480
 9756TIP3    H129225   3.605   6.343   5.562
 9756TIP3    H229226   3.629   6.291   5.422
 9757TIP3   OH229227   1.085   4.165   1.419
 9757TIP3    H129228   1.135   4.188   1.498
 9757TIP3    H229229   0.996   4.194   1.438
 9758TIP3   OH229230   7.019   3.770   6.388
 9758TIP3    H129231   7.078   3.842   6.363
 9758TIP3    H229232   6.960   3.760   6.314
 9759TIP3   OH229233   1.262   7.025   4.550
 9759TIP3    H129234   1.348   7.010   4.513
 9759TIP3    H229235   1.274   7.018   4.645
 9760TIP3   OH229236   5.343   5.533   1.821
 9760TIP3    H129237   5.367   5.595   1.751
 9760TIP3    H229238   5.266   5.488   1.787
 9761TIP3   OH229239   1.015   0.218   3.973
 9761TIP3    H129240   1.023   0.162   4.051
 9761TIP3    H229241   1.055   0.167   3.903
 9762TIP3   OH229242   0.023   5.666   5.389
 9762TIP3    H129243   0.060   5.714   5.463
 9762TIP3    H229244   0.097   5.614   5.356
 9763TIP3   OH229245   0.455   3.626   3.432
 9763TIP3    H129246   0.515   3.657   3.499
 9763TIP3    H229247   0.510   3.613   3.354
 9764TIP3   OH229248   6.859   4.663   0.743
 9764TIP3    H129249   6.922   4.722   0.784
 9764TIP3    H229250   6.790   4.654   0.808
 9765TIP3   OH229251   4.783   4.386   2.329
 9765TIP3    H129252   4.758   4.425   2.413
 9765TIP3    H229253   4.848   4.320   2.352
 9766TIP3   OH229254   1.628   6.648   2.466
 9766TIP3    H129255   1.649   6.608   2.382
 9766TIP3    H229256   1.711   6.646   2.515
 9767TIP3   OH229257   4.081   4.943   1.637
 9767TIP3    H129258   4.157   4.994   1.606
 9767TIP3    H229259   4.119   4.863   1.671
 9768TIP3   OH229260   4.002   1.964   5.435
 9768TIP3    H129261   4.042   1.981   5.521
 9768TIP3    H229262   4.071   1.924   5.384
 9769TIP3   OH229263   7.375   7.008   0.712
 9769TIP3    H129264   7.459   7.030   0.754
 9769TIP3    H229265   7.386   7.035   0.621
 9770TIP3   OH229266   6.810   3.580   2.695
 9770TIP3    H129267   6.825   3.665   2.653
 9770TIP3    H229268   6.802   3.601   2.788
 9771TIP3   OH229269   5.167   1.297   4.416
 9771TIP3    H129270   5.259   1.321   4.430
 9771TIP3    H229271   5.121   1.332   4.492
 9772TIP3   OH229272   0.868   5.210   3.521
 9772TIP3    H129273   0.787   5.159   3.528
 9772TIP3    H229274   0.865   5.247   3.432
 9773TIP3   OH229275   4.166   4.880   3.360
 9773TIP3    H129276   4.246   4.866   3.411
 9773TIP3    H229277   4.188   4.848   3.272
 9774TIP3   OH229278   7.681   3.460   3.583
 9774TIP3    H129279   7.749   3.392   3.586
 9774TIP3    H229280   7.696   3.512   3.662
 9775TIP3   OH229281   2.506   2.862   0.984
 9775TIP3    H129282   2.596   2.893   0.983
 9775TIP3    H229283   2.475   2.872   0.894
 9776TIP3   OH229284   2.521   7.641   4.706
 9776TIP3    H129285   2.600   7.656   4.759
 9776TIP3    H229286   2.487   7.558   4.738
 9777TIP3   OH229287   3.052   6.185   5.869
 9777TIP3    H129288   3.125   6.173   5.930
 9777TIP3    H229289   3.092   6.222   5.790
 9778TIP3   OH229290   2.622   4.142   2.071
 9778TIP3    H129291   2.673   4.061   2.065
 9778TIP3    H229292   2.681   4.205   2.114
 9779TIP3   OH229293   7.739   4.818   2.333
 9779TIP3    H129294   7.753   4.725   2.351
 9779TIP3    H229295   7.674   4.845   2.397
 9780TIP3   OH229296   8.185   3.892   6.057
 9780TIP3    H129297   8.247   3.867   5.989
 9780TIP3    H229298   8.134   3.813   6.074
 9781TIP3   OH229299   1.476   0.574   0.031
 9781TIP3    H129300   1.391   0.530   0.037
 9781TIP3    H229301   1.539   0.505   0.050
 9782TIP3   OH229302   6.913   7.092   2.473
 9782TIP3    H129303   6.928   7.015   2.418
 9782TIP3    H229304   7.001   7.121   2.497
 9783TIP3   OH229305   4.289   2.662   5.011
 9783TIP3    H129306   4.302   2.598   4.940
 9783TIP3    H229307   4.372   2.710   5.015
 9784TIP3   OH229308   2.489   2.358   0.909
 9784TIP3    H129309   2.534   2.434   0.872
 9784TIP3    H229310   2.440   2.394   0.983
 9785TIP3   OH229311   6.936   1.691   1.787
 9785TIP3    H129312   6.962   1.600   1.772
 9785TIP3    H229313   6.922   1.698   1.881
 9786TIP3   OH229314   7.267   5.502   2.248
 9786TIP3    H129315   7.184   5.497   2.295
 9786TIP3    H229316   7.291   5.594   2.253
 9787TIP3   OH229317   6.740   4.920   0.173
 9787TIP3    H129318   6.716   4.916   0.266
 9787TIP3    H229319   6.825   4.963   0.173
 9788TIP3   OH229320   0.562   0.888   0.593
 9788TIP3    H129321   0.587   0.810   0.544
 9788TIP3    H229322   0.467   0.894   0.582
 9789TIP3   OH229323   2.075   1.829   1.132
 9789TIP3    H129324   2.006   1.865   1.075
 9789TIP3    H229325   2.143   1.801   1.071
 9790TIP3   OH229326   6.776   3.523   1.319
 9790TIP3    H129327   6.859   3.569   1.310
 9790TIP3    H229328   6.775   3.459   1.248
 9791TIP3   OH229329   7.914   3.766   2.444
 9791TIP3    H129330   7.913   3.861   2.448
 9791TIP3    H229331   8.007   3.743   2.456
 9792TIP3   OH229332   1.205   4.936   3.188
 9792TIP3    H129333   1.163   5.017   3.159
 9792TIP3    H229334   1.164   4.918   3.273
 9793TIP3   OH229335   0.360   3.488   0.644
 9793TIP3    H129336   0.423   3.523   0.708
 9793TIP3    H229337   0.374   3.540   0.565
 9794TIP3   OH229338   0.604   5.327   4.744
 9794TIP3    H129339   0.598   5.389   4.816
 9794TIP3    H229340   0.681   5.273   4.765
 9795TIP3   OH229341   1.011   1.830   3.228
 9795TIP3    H129342   1.055   1.751   3.259
 9795TIP3    H229343   0.929   1.800   3.190
 9796TIP3   OH229344   0.341   6.187   5.936
 9796TIP3    H129345   0.378   6.270   5.968
 9796TIP3    H229346   0.298   6.149   6.013
 9797TIP3   OH229347   3.105   2.144   5.020
 9797TIP3    H129348   3.039   2.152   5.089
 9797TIP3    H229349   3.102   2.228   4.975
 9798TIP3   OH229350   2.122   4.532   0.910
 9798TIP3    H129351   2.078   4.516   0.827
 9798TIP3    H229352   2.080   4.471   0.971
 9799TIP3   OH229353   3.107   2.438   5.055
 9799TIP3    H129354   3.076   2.508   4.998
 9799TIP3    H229355   3.103   2.476   5.143
 9800TIP3   OH229356   6.500   0.187   6.022
 9800TIP3    H129357   6.468   0.188   6.112
 9800TIP3    H229358   6.508   0.094   6.001
 9801TIP3   OH229359   0.115   7.496   1.177
 9801TIP3    H129360   0.177   7.442   1.129
 9801TIP3    H229361   0.032   7.449   1.172
 9802TIP3   OH229362   7.913   4.975   4.303
 9802TIP3    H129363   7.870   5.009   4.225
 9802TIP3    H229364   7.851   4.994   4.374
 9803TIP3   OH229365   0.390   0.422   2.607
 9803TIP3    H129366   0.368   0.506   2.567
 9803TIP3    H229367   0.404   0.364   2.532
 9804TIP3   OH229368   4.812   1.743   0.821
 9804TIP3    H129369   4.845   1.721   0.908
 9804TIP3    H229370   4.843   1.672   0.765
 9805TIP3   OH229371   6.239   3.719   1.330
 9805TIP3    H129372   6.332   3.719   1.304
 9805TIP3    H229373   6.232   3.648   1.393
 9806TIP3   OH229374   3.180   2.358   5.470
 9806TIP3    H129375   3.176   2.437   5.417
 9806TIP3    H229376   3.230   2.296   5.417
 9807TIP3   OH229377   1.298   6.609   3.585
 9807TIP3    H129378   1.335   6.660   3.657
 9807TIP3    H229379   1.368   6.607   3.520
 9808TIP3   OH229380   0.317   7.609   5.456
 9808TIP3    H129381   0.334   7.571   5.370
 9808TIP3    H229382   0.265   7.543   5.501
 9809TIP3   OH229383   5.865   1.744   0.796
 9809TIP3    H129384   5.866   1.739   0.891
 9809TIP3    H229385   5.878   1.837   0.776
 9810TIP3   OH229386   5.099   2.632   5.293
 9810TIP3    H129387   5.012   2.597   5.274
 9810TIP3    H229388   5.083   2.724   5.314
 9811TIP3   OH229389   6.258   0.687   6.728
 9811TIP3    H129390   6.278   0.746   6.800
 9811TIP3    H229391   6.344   0.665   6.691
 9812TIP3   OH229392   7.649   1.404   5.598
 9812TIP3    H129393   7.661   1.400   5.692
 9812TIP3    H229394   7.555   1.408   5.585
 9813TIP3   OH229395   0.407   3.166   6.594
 9813TIP3    H129396   0.437   3.246   6.638
 9813TIP3    H229397   0.408   3.187   6.501
 9814TIP3   OH229398   2.123   2.178   1.757
 9814TIP3    H129399   2.167   2.197   1.840
 9814TIP3    H229400   2.147   2.251   1.700
 9815TIP3   OH229401   1.182   7.125   2.662
 9815TIP3    H129402   1.268   7.114   2.703
 9815TIP3    H229403   1.120   7.093   2.728
 9816TIP3   OH229404   7.957   5.457   0.380
 9816TIP3    H129405   8.030   5.506   0.344
 9816TIP3    H229406   7.981   5.365   0.368
 9817TIP3   OH229407   4.817   7.584   3.634
 9817TIP3    H129408   4.753   7.616   3.571
 9817TIP3    H229409   4.785   7.614   3.719
 9818TIP3   OH229410   3.897   7.150   5.575
 9818TIP3    H129411   3.892   7.130   5.482
 9818TIP3    H229412   3.957   7.085   5.611
 9819TIP3   OH229413   4.600   4.178   4.956
 9819TIP3    H129414   4.629   4.202   4.868
 9819TIP3    H229415   4.629   4.087   4.966
 9820TIP3   OH229416   7.904   7.762   0.928
 9820TIP3    H129417   7.844   7.714   0.870
 9820TIP3    H229418   7.913   7.705   1.005
 9821TIP3   OH229419   5.090   2.303   0.282
 9821TIP3    H129420   5.071   2.234   0.217
 9821TIP3    H229421   5.126   2.375   0.230
 9822TIP3   OH229422   1.140   4.579   3.282
 9822TIP3    H129423   1.068   4.622   3.235
 9822TIP3    H229424   1.103   4.554   3.366
 9823TIP3   OH229425   2.187   5.982   2.175
 9823TIP3    H129426   2.205   6.006   2.085
 9823TIP3    H229427   2.205   5.888   2.179
 9824TIP3   OH229428   4.206   5.672   5.217
 9824TIP3    H129429   4.154   5.676   5.297
 9824TIP3    H229430   4.267   5.599   5.231
 9825TIP3   OH229431   5.703   1.571   4.063
 9825TIP3    H129432   5.663   1.580   4.150
 9825TIP3    H229433   5.629   1.561   4.003
 9826TIP3   OH229434   7.585   3.511   1.758
 9826TIP3    H129435   7.679   3.517   1.737
 9826TIP3    H229436   7.560   3.424   1.726
 9827TIP3   OH229437   2.733   2.384   6.578
 9827TIP3    H129438   2.680   2.458   6.609
 9827TIP3    H229439   2.813   2.387   6.631
 9828TIP3   OH229440   1.178   5.037   4.086
 9828TIP3    H129441   1.088   5.006   4.096
 9828TIP3    H229442   1.211   4.988   4.010
 9829TIP3   OH229443   7.569   2.922   2.828
 9829TIP3    H129444   7.541   2.933   2.738
 9829TIP3    H229445   7.652   2.874   2.822
 9830TIP3   OH229446   6.457   7.774   1.643
 9830TIP3    H129447   6.552   7.781   1.635
 9830TIP3    H229448   6.435   7.694   1.595
 9831TIP3   OH229449   1.253   1.059   0.897
 9831TIP3    H129450   1.229   1.093   0.811
 9831TIP3    H229451   1.264   0.965   0.885
 9832TIP3   OH229452   4.370   0.489   3.921
 9832TIP3    H129453   4.406   0.577   3.923
 9832TIP3    H229454   4.360   0.465   4.013
 9833TIP3   OH229455   4.946   2.238   4.427
 9833TIP3    H129456   4.949   2.147   4.457
 9833TIP3    H229457   5.031   2.252   4.384
 9834TIP3   OH229458   6.696   3.221   3.905
 9834TIP3    H129459   6.775   3.169   3.889
 9834TIP3    H229460   6.677   3.263   3.821
 9835TIP3   OH229461   5.682   4.811   1.417
 9835TIP3    H129462   5.773   4.791   1.438
 9835TIP3    H229463   5.686   4.897   1.375
 9836TIP3   OH229464   3.256   3.721   2.209
 9836TIP3    H129465   3.336   3.691   2.253
 9836TIP3    H229466   3.287   3.766   2.130
 9837TIP3   OH229467   5.616   3.349   5.515
 9837TIP3    H129468   5.644   3.259   5.533
 9837TIP3    H229469   5.543   3.339   5.454
 9838TIP3   OH229470   6.297   1.581   3.986
 9838TIP3    H129471   6.318   1.489   3.974
 9838TIP3    H229472   6.208   1.591   3.953
 9839TIP3   OH229473   0.585   6.965   6.472
 9839TIP3    H129474   0.555   7.031   6.410
 9839TIP3    H229475   0.505   6.936   6.516
 9840TIP3   OH229476   7.318   3.080   4.360
 9840TIP3    H129477   7.304   2.988   4.383
 9840TIP3    H229478   7.398   3.079   4.307
 9841TIP3   OH229479   3.707   5.767   4.788
 9841TIP3    H129480   3.800   5.744   4.785
 9841TIP3    H229481   3.705   5.854   4.827
 9842TIP3   OH229482   6.404   6.538   0.416
 9842TIP3    H129483   6.408   6.616   0.362
 9842TIP3    H229484   6.477   6.548   0.477
 9843TIP3   OH229485   7.636   6.339   0.701
 9843TIP3    H129486   7.706   6.298   0.751
 9843TIP3    H229487   7.655   6.318   0.610
 9844TIP3   OH229488   7.794   4.680   0.119
 9844TIP3    H129489   7.794   4.681   0.023
 9844TIP3    H229490   7.745   4.601   0.141
 9845TIP3   OH229491   1.574   2.085   2.402
 9845TIP3    H129492   1.596   2.128   2.318
 9845TIP3    H229493   1.546   1.997   2.377
 9846TIP3   OH229494   1.009   4.287   5.305
 9846TIP3    H129495   0.976   4.269   5.216
 9846TIP3    H229496   0.998   4.381   5.316
 9847TIP3   OH229497   6.898   5.518   5.814
 9847TIP3    H129498   6.814   5.539   5.773
 9847TIP3    H229499   6.932   5.602   5.845
 9848TIP3   OH229500   2.405   4.478   5.836
 9848TIP3    H129501   2.321   4.478   5.790
 9848TIP3    H229502   2.470   4.470   5.766
 9849TIP3   OH229503   2.311   0.823   4.096
 9849TIP3    H129504   2.271   0.885   4.156
 9849TIP3    H229505   2.278   0.737   4.125
 9850TIP3   OH229506   6.719   1.993   5.405
 9850TIP3    H129507   6.807   1.957   5.408
 9850TIP3    H229508   6.713   2.049   5.483
 9851TIP3   OH229509   1.228   1.005   4.081
 9851TIP3    H129510   1.304   0.947   4.088
 9851TIP3    H229511   1.188   0.982   3.997
 9852TIP3   OH229512   2.862   1.171   6.656
 9852TIP3    H129513   2.788   1.110   6.657
 9852TIP3    H229514   2.884   1.180   6.563
 9853TIP3   OH229515   0.870   2.495   6.550
 9853TIP3    H129516   0.931   2.449   6.608
 9853TIP3    H229517   0.791   2.441   6.552
 9854TIP3   OH229518   3.856   6.660   3.809
 9854TIP3    H129519   3.845   6.567   3.788
 9854TIP3    H229520   3.806   6.673   3.889
 9855TIP3   OH229521   1.405   2.603   5.100
 9855TIP3    H129522   1.397   2.598   5.005
 9855TIP3    H229523   1.360   2.684   5.124
 9856TIP3   OH229524   5.715   6.299   6.767
 9856TIP3    H129525   5.698   6.355   6.692
 9856TIP3    H229526   5.659   6.335   6.837
 9857TIP3   OH229527   5.170   1.684   2.016
 9857TIP3    H129528   5.122   1.656   2.095
 9857TIP3    H229529   5.245   1.625   2.011
 9858TIP3   OH229530   3.735   6.255   2.691
 9858TIP3    H129531   3.724   6.170   2.734
 9858TIP3    H229532   3.671   6.312   2.734
 9859TIP3   OH229533   3.125   0.951   2.592
 9859TIP3    H129534   3.107   0.935   2.499
 9859TIP3    H229535   3.096   0.870   2.635
 9860TIP3   OH229536   7.247   0.878   0.740
 9860TIP3    H129537   7.323   0.935   0.730
 9860TIP3    H229538   7.247   0.825   0.660
 9861TIP3   OH229539   7.065   7.167   1.146
 9861TIP3    H129540   7.140   7.167   1.205
 9861TIP3    H229541   7.013   7.243   1.173
 9862TIP3   OH229542   5.865   7.104   0.434
 9862TIP3    H129543   5.829   7.016   0.425
 9862TIP3    H229544   5.898   7.108   0.524
 9863TIP3   OH229545   1.403   6.493   2.360
 9863TIP3    H129546   1.362   6.428   2.418
 9863TIP3    H229547   1.441   6.557   2.420
 9864TIP3   OH229548   3.781   6.646   4.570
 9864TIP3    H129549   3.709   6.691   4.615
 9864TIP3    H229550   3.854   6.707   4.574
 9865TIP3   OH229551   5.044   1.558   4.957
 9865TIP3    H129552   5.125   1.540   5.005
 9865TIP3    H229553   5.069   1.554   4.865
 9866TIP3   OH229554   4.393   1.382   1.444
 9866TIP3    H129555   4.345   1.430   1.378
 9866TIP3    H229556   4.328   1.323   1.484
 9867TIP3   OH229557   1.502   1.054   5.837
 9867TIP3    H129558   1.562   1.106   5.783
 9867TIP3    H229559   1.415   1.087   5.814
 9868TIP3   OH229560   5.500   6.737   1.515
 9868TIP3    H129561   5.476   6.803   1.580
 9868TIP3    H229562   5.592   6.756   1.494
 9869TIP3   OH229563   2.026   7.477   3.766
 9869TIP3    H129564   2.049   7.387   3.787
 9869TIP3    H229565   1.999   7.515   3.849
 9870TIP3   OH229566   0.751   2.555   0.083
 9870TIP3    H129567   0.839   2.524   0.060
 9870TIP3    H229568   0.734   2.627   0.023
 9871TIP3   OH229569   1.179   2.563   2.117
 9871TIP3    H129570   1.159   2.640   2.170
 9871TIP3    H229571   1.112   2.563   2.048
 9872TIP3   OH229572   5.702   6.051   3.659
 9872TIP3    H129573   5.776   6.084   3.608
 9872TIP3    H229574   5.650   6.129   3.678
 9873TIP3   OH229575   3.465   2.499   1.548
 9873TIP3    H129576   3.490   2.590   1.564
 9873TIP3    H229577   3.426   2.500   1.460
 9874TIP3   OH229578   7.021   7.574   0.106
 9874TIP3    H129579   7.103   7.589   0.153
 9874TIP3    H229580   6.980   7.501   0.152
 9875TIP3   OH229581   3.051   4.140   2.019
 9875TIP3    H129582   3.066   4.228   1.985
 9875TIP3    H229583   3.134   4.115   2.059
 9876TIP3   OH229584   7.229   3.367   3.438
 9876TIP3    H129585   7.274   3.357   3.522
 9876TIP3    H229586   7.165   3.436   3.454
 9877TIP3   OH229587   2.043   7.643   5.141
 9877TIP3    H129588   2.081   7.720   5.183
 9877TIP3    H229589   2.035   7.579   5.212
 9878TIP3   OH229590   0.189   6.627   5.444
 9878TIP3    H129591   0.112   6.670   5.481
 9878TIP3    H229592   0.190   6.540   5.483
 9879TIP3   OH229593   7.837   0.537   0.862
 9879TIP3    H129594   7.924   0.553   0.897
 9879TIP3    H229595   7.778   0.550   0.936
 9880TIP3   OH229596   4.698   5.801   6.434
 9880TIP3    H129597   4.718   5.848   6.515
 9880TIP3    H229598   4.765   5.830   6.372
 9881TIP3   OH229599   1.497   4.388   1.084
 9881TIP3    H129600   1.451   4.469   1.105
 9881TIP3    H229601   1.472   4.326   1.152
 9882TIP3   OH229602   0.355   6.916   5.928
 9882TIP3    H129603   0.429   6.889   5.875
 9882TIP3    H229604   0.301   6.837   5.936
 9883TIP3   OH229605   7.403   2.677   2.199
 9883TIP3    H129606   7.435   2.639   2.280
 9883TIP3    H229607   7.308   2.676   2.207
 9884TIP3   OH229608   7.170   5.874   5.278
 9884TIP3    H129609   7.257   5.844   5.304
 9884TIP3    H229610   7.177   5.969   5.274
 9885TIP3   OH229611   7.350   7.517   4.464
 9885TIP3    H129612   7.290   7.581   4.503
 9885TIP3    H229613   7.426   7.517   4.521
 9886TIP3   OH229614   1.954   4.298   4.083
 9886TIP3    H129615   1.950   4.258   3.996
 9886TIP3    H229616   1.866   4.330   4.099
 9887TIP3   OH229617   2.745   0.945   2.008
 9887TIP3    H129618   2.652   0.942   1.986
 9887TIP3    H229619   2.749   0.921   2.100
 9888TIP3   OH229620   7.828  -0.002   3.291
 9888TIP3    H129621   7.771  -0.019   3.366
 9888TIP3    H229622   7.835   0.093   3.287
 9889TIP3   OH229623   6.901   6.463   5.496
 9889TIP3    H129624   6.843   6.389   5.515
 9889TIP3    H229625   6.987   6.422   5.481
 9890TIP3   OH229626   3.239   0.360   3.959
 9890TIP3    H129627   3.331   0.352   3.935
 9890TIP3    H229628   3.238   0.343   4.053
 9891TIP3   OH229629   5.735   4.251   0.540
 9891TIP3    H129630   5.780   4.191   0.600
 9891TIP3    H229631   5.658   4.281   0.590
 9892TIP3   OH229632   7.384   2.088   4.958
 9892TIP3    H129633   7.293   2.079   4.985
 9892TIP3    H229634   7.422   2.151   5.019
 9893TIP3   OH229635   7.670   0.553   5.592
 9893TIP3    H129636   7.707   0.620   5.534
 9893TIP3    H229637   7.576   0.558   5.577
 9894TIP3   OH229638   6.731   4.509   3.186
 9894TIP3    H129639   6.708   4.454   3.261
 9894TIP3    H229640   6.753   4.447   3.117
 9895TIP3   OH229641   6.310   2.851   6.324
 9895TIP3    H129642   6.344   2.768   6.291
 9895TIP3    H229643   6.246   2.878   6.258
 9896TIP3   OH229644   7.823   4.027   6.564
 9896TIP3    H129645   7.855   4.034   6.654
 9896TIP3    H229646   7.738   4.070   6.565
 9897TIP3   OH229647   5.737   6.655   2.026
 9897TIP3    H129648   5.705   6.727   2.081
 9897TIP3    H229649   5.793   6.604   2.084
 9898TIP3   OH229650   8.074   4.375   5.903
 9898TIP3    H129651   8.038   4.464   5.907
 9898TIP3    H229652   8.002   4.318   5.925
 9899TIP3   OH229653   0.915   0.112   0.557
 9899TIP3    H129654   0.909   0.028   0.601
 9899TIP3    H229655   0.827   0.149   0.565
 9900TIP3   OH229656   3.629   0.664   3.246
 9900TIP3    H129657   3.545   0.651   3.201
 9900TIP3    H229658   3.694   0.660   3.176
 9901TIP3   OH229659   3.245   5.429   3.382
 9901TIP3    H129660   3.251   5.371   3.458
 9901TIP3    H229661   3.166   5.402   3.337
 9902TIP3   OH229662   5.827   6.701   6.015
 9902TIP3    H129663   5.857   6.712   6.105
 9902TIP3    H229664   5.906   6.704   5.962
 9903TIP3   OH229665   0.154   0.854   5.371
 9903TIP3    H129666   0.185   0.804   5.447
 9903TIP3    H229667   0.137   0.941   5.405
 9904TIP3   OH229668   1.998   2.925   3.933
 9904TIP3    H129669   2.073   2.884   3.976
 9904TIP3    H229670   1.989   2.876   3.851
 9905TIP3   OH229671   6.714   5.827   5.378
 9905TIP3    H129672   6.750   5.895   5.321
 9905TIP3    H229673   6.686   5.758   5.318
 9906TIP3   OH229674   3.947   0.913   6.469
 9906TIP3    H129675   3.993   0.841   6.512
 9906TIP3    H229676   3.902   0.872   6.395
 9907TIP3   OH229677   2.777   2.345   2.410
 9907TIP3    H129678   2.701   2.305   2.451
 9907TIP3    H229679   2.814   2.402   2.479
 9908TIP3   OH229680   1.059   0.672   2.447
 9908TIP3    H129681   1.030   0.585   2.420
 9908TIP3    H229682   1.026   0.681   2.537
 9909TIP3   OH229683   5.291   0.927   0.597
 9909TIP3    H129684   5.333   0.868   0.535
 9909TIP3    H229685   5.350   0.929   0.673
 9910TIP3   OH229686   7.449   1.787   1.669
 9910TIP3    H129687   7.406   1.702   1.663
 9910TIP3    H229688   7.419   1.823   1.753
 9911TIP3   OH229689   1.163   0.724   0.468
 9911TIP3    H129690   1.171   0.793   0.403
 9911TIP3    H229691   1.127   0.649   0.419
 9912TIP3   OH229692   8.270   5.277   1.378
 9912TIP3    H129693   8.300   5.303   1.465
 9912TIP3    H229694   8.176   5.295   1.379
 9913TIP3   OH229695   4.907   1.988   6.062
 9913TIP3    H129696   4.866   2.014   5.979
 9913TIP3    H229697   4.924   1.895   6.052
 9914TIP3   OH229698   1.496   2.963   5.249
 9914TIP3    H129699   1.470   2.942   5.159
 9914TIP3    H229700   1.429   3.024   5.280
 9915TIP3   OH229701   6.638   0.583   5.942
 9915TIP3    H129702   6.568   0.517   5.938
 9915TIP3    H229703   6.696   0.560   5.870
 9916TIP3   OH229704   3.098   0.689   0.950
 9916TIP3    H129705   3.097   0.664   0.857
 9916TIP3    H229706   3.052   0.773   0.952
 9917TIP3   OH229707   0.746   4.974   1.363
 9917TIP3    H129708   0.834   5.000   1.391
 9917TIP3    H229709   0.728   5.027   1.286
 9918TIP3   OH229710   8.005   2.954   2.146
 9918TIP3    H129711   7.960   3.032   2.180
 9918TIP3    H229712   8.011   2.969   2.052
 9919TIP3   OH229713   0.398   5.117   0.770
 9919TIP3    H129714   0.441   5.058   0.832
 9919TIP3    H229715   0.407   5.073   0.685
 9920TIP3   OH229716   3.012   5.456   1.406
 9920TIP3    H129717   3.013   5.536   1.355
 9920TIP3    H229718   2.923   5.451   1.441
 9921TIP3   OH229719   8.212   1.980   3.011
 9921TIP3    H129720   8.262   1.973   2.930
 9921TIP3    H229721   8.243   1.908   3.066
 9922TIP3   OH229722   6.577   7.407   0.439
 9922TIP3    H129723   6.509   7.343   0.418
 9922TIP3    H229724   6.595   7.451   0.355
 9923TIP3   OH229725   1.914   6.146   2.859
 9923TIP3    H129726   1.964   6.160   2.778
 9923TIP3    H229727   1.858   6.224   2.866
 9924TIP3   OH229728   1.235   1.213   4.683
 9924TIP3    H129729   1.158   1.238   4.632
 9924TIP3    H229730   1.282   1.150   4.628
 9925TIP3   OH229731   4.498   4.699   1.939
 9925TIP3    H129732   4.558   4.664   2.004
 9925TIP3    H229733   4.481   4.789   1.968
 9926TIP3   OH229734   1.702   3.856   4.703
 9926TIP3    H129735   1.742   3.885   4.785
 9926TIP3    H229736   1.640   3.925   4.681
 9927TIP3   OH229737   5.401   7.748   0.414
 9927TIP3    H129738   5.369   7.673   0.464
 9927TIP3    H229739   5.494   7.752   0.433
 9928TIP3   OH229740   5.476   5.633   0.117
 9928TIP3    H129741   5.514   5.580   0.048
 9928TIP3    H229742   5.500   5.723   0.095
 9929TIP3   OH229743   1.138   6.165   3.413
 9929TIP3    H129744   1.152   6.223   3.488
 9929TIP3    H229745   1.139   6.077   3.450
 9930TIP3   OH229746   1.553   1.304   6.046
 9930TIP3    H129747   1.607   1.225   6.042
 9930TIP3    H229748   1.551   1.327   6.139
 9931TIP3   OH229749   3.487   5.474   1.696
 9931TIP3    H129750   3.564   5.490   1.641
 9931TIP3    H229751   3.413   5.486   1.637
 9932TIP3   OH229752   3.397   0.982   2.585
 9932TIP3    H129753   3.386   0.993   2.491
 9932TIP3    H229754   3.309   0.994   2.621
 9933TIP3   OH229755   5.820   6.273   3.866
 9933TIP3    H129756   5.853   6.362   3.855
 9933TIP3    H229757   5.730   6.277   3.832
 9934TIP3   OH229758   4.022   2.806   3.051
 9934TIP3    H129759   3.940   2.759   3.070
 9934TIP3    H229760   4.088   2.736   3.043
 9935TIP3   OH229761   1.806   4.728   1.177
 9935TIP3    H129762   1.752   4.746   1.100
 9935TIP3    H229763   1.748   4.681   1.237
 9936TIP3   OH229764   5.956   1.957   0.285
 9936TIP3    H129765   5.962   2.018   0.358
 9936TIP3    H229766   6.035   1.903   0.291
 9937TIP3   OH229767   0.605   4.827   4.351
 9937TIP3    H129768   0.540   4.773   4.306
 9937TIP3    H229769   0.661   4.764   4.396
 9938TIP3   OH229770   8.213   3.358   4.553
 9938TIP3    H129771   8.259   3.305   4.618
 9938TIP3    H229772   8.197   3.441   4.597
 9939TIP3   OH229773   6.091   2.304   5.179
 9939TIP3    H129774   6.068   2.390   5.145
 9939TIP3    H229775   6.115   2.253   5.101
 9940TIP3   OH229776   2.237   3.625   1.953
 9940TIP3    H129777   2.232   3.691   1.884
 9940TIP3    H229778   2.284   3.552   1.914
 9941TIP3   OH229779   3.215   1.980   1.332
 9941TIP3    H129780   3.148   2.037   1.293
 9941TIP3    H229781   3.189   1.892   1.306
 9942TIP3   OH229782   4.299   0.729   5.014
 9942TIP3    H129783   4.268   0.774   4.936
 9942TIP3    H229784   4.394   0.741   5.013
 9943TIP3   OH229785   4.477   2.164   6.075
 9943TIP3    H129786   4.414   2.224   6.116
 9943TIP3    H229787   4.507   2.211   5.998
 9944TIP3   OH229788   2.561   0.920   6.134
 9944TIP3    H129789   2.654   0.942   6.124
 9944TIP3    H229790   2.519   0.964   6.060
 9945TIP3   OH229791   2.492   2.816   4.102
 9945TIP3    H129792   2.583   2.845   4.097
 9945TIP3    H229793   2.497   2.721   4.112
 9946TIP3   OH229794   4.050   0.500   4.760
 9946TIP3    H129795   4.082   0.418   4.797
 9946TIP3    H229796   4.069   0.567   4.826
 9947TIP3   OH229797   6.812   3.524   6.175
 9947TIP3    H129798   6.814   3.444   6.123
 9947TIP3    H229799   6.730   3.519   6.224
 9948TIP3   OH229800   2.583   0.546   0.635
 9948TIP3    H129801   2.583   0.464   0.587
 9948TIP3    H229802   2.674   0.575   0.635
 9949TIP3   OH229803   2.748   1.934   2.955
 9949TIP3    H129804   2.700   1.897   2.880
 9949TIP3    H229805   2.806   1.999   2.916
 9950TIP3   OH229806   1.548   1.110   4.977
 9950TIP3    H129807   1.497   1.058   5.039
 9950TIP3    H229808   1.518   1.200   4.991
 9951TIP3   OH229809   0.917   6.935   0.538
 9951TIP3    H129810   0.945   6.844   0.549
 9951TIP3    H229811   0.974   6.970   0.469
 9952TIP3   OH229812   0.816   2.119   3.678
 9952TIP3    H129813   0.814   2.213   3.665
 9952TIP3    H229814   0.838   2.083   3.592
 9953TIP3   OH229815   2.907   3.081   1.138
 9953TIP3    H129816   2.963   3.157   1.122
 9953TIP3    H229817   2.950   3.034   1.209
 9954TIP3   OH229818   7.098   5.140   5.124
 9954TIP3    H129819   7.037   5.134   5.051
 9954TIP3    H229820   7.052   5.099   5.197
 9955TIP3   OH229821   6.482   1.519   3.436
 9955TIP3    H129822   6.433   1.453   3.388
 9955TIP3    H229823   6.418   1.587   3.456
 9956TIP3   OH229824   2.638   5.005   5.962
 9956TIP3    H129825   2.723   5.025   6.001
 9956TIP3    H229826   2.632   4.910   5.966
 9957TIP3   OH229827   6.054   4.037   2.483
 9957TIP3    H129828   5.984   3.973   2.492
 9957TIP3    H229829   6.116   4.015   2.552
 9958TIP3   OH229830   3.627   6.468   3.106
 9958TIP3    H129831   3.659   6.551   3.140
 9958TIP3    H229832   3.703   6.409   3.111
 9959TIP3   OH229833   0.968   6.756   5.607
 9959TIP3    H129834   0.900   6.807   5.562
 9959TIP3    H229835   1.036   6.820   5.628
 9960TIP3   OH229836   0.139   2.420   6.357
 9960TIP3    H129837   0.132   2.331   6.323
 9960TIP3    H229838   0.227   2.447   6.333
 9961TIP3   OH229839   8.009   7.354   3.331
 9961TIP3    H129840   7.966   7.348   3.245
 9961TIP3    H229841   8.073   7.425   3.321
 9962TIP3   OH229842   4.384   6.908   1.755
 9962TIP3    H129843   4.405   6.844   1.823
 9962TIP3    H229844   4.365   6.989   1.803
 9963TIP3   OH229845   5.465   7.001   2.772
 9963TIP3    H129846   5.372   7.014   2.794
 9963TIP3    H229847   5.507   7.082   2.797
 9964TIP3   OH229848   7.808   5.695   5.633
 9964TIP3    H129849   7.831   5.718   5.543
 9964TIP3    H229850   7.881   5.728   5.686
 9965TIP3   OH229851   7.653   1.919   1.246
 9965TIP3    H129852   7.618   1.934   1.334
 9965TIP3    H229853   7.584   1.871   1.201
 9966TIP3   OH229854   5.483   6.575   0.889
 9966TIP3    H129855   5.399   6.611   0.860
 9966TIP3    H229856   5.468   6.481   0.896
 9967TIP3   OH229857   5.016   6.296   5.566
 9967TIP3    H129858   4.959   6.366   5.599
 9967TIP3    H229859   5.088   6.291   5.629
 9968TIP3   OH229860   1.506   2.716   4.045
 9968TIP3    H129861   1.513   2.630   4.085
 9968TIP3    H229862   1.540   2.704   3.956
 9969TIP3   OH229863   3.009   2.035   0.896
 9969TIP3    H129864   2.962   2.029   0.812
 9969TIP3    H229865   3.060   2.115   0.889
 9970TIP3   OH229866   7.586   0.291   0.098
 9970TIP3    H129867   7.503   0.264   0.059
 9970TIP3    H229868   7.561   0.335   0.179
 9971TIP3   OH229869   5.450   5.042   4.184
 9971TIP3    H129870   5.520   5.003   4.237
 9971TIP3    H229871   5.415   4.968   4.134
 9972TIP3   OH229872   0.069   5.953   6.366
 9972TIP3    H129873  -0.016   5.939   6.409
 9972TIP3    H229874   0.057   5.920   6.277
 9973TIP3   OH229875   5.167   7.500   6.790
 9973TIP3    H129876   5.214   7.469   6.712
 9973TIP3    H229877   5.120   7.578   6.760
 9974TIP3   OH229878   6.261   3.801   5.841
 9974TIP3    H129879   6.240   3.891   5.817
 9974TIP3    H229880   6.233   3.794   5.932
 9975TIP3   OH229881   3.171   3.250   1.451
 9975TIP3    H129882   3.157   3.165   1.492
 9975TIP3    H229883   3.263   3.248   1.422
 9976TIP3   OH229884   1.622   7.183   2.069
 9976TIP3    H129885   1.637   7.100   2.115
 9976TIP3    H229886   1.709   7.209   2.039
 9977TIP3   OH229887   5.155   5.270   5.126
 9977TIP3    H129888   5.127   5.178   5.129
 9977TIP3    H229889   5.250   5.266   5.111
 9978TIP3   OH229890   0.108   4.897   5.176
 9978TIP3    H129891   0.114   4.988   5.204
 9978TIP3    H229892   0.193   4.859   5.195
 9979TIP3   OH229893   1.627   2.110   4.094
 9979TIP3    H129894   1.570   2.069   4.159
 9979TIP3    H229895   1.651   2.039   4.035
 9980TIP3   OH229896   0.870   0.805   0.305
 9980TIP3    H129897   0.842   0.873   0.367
 9980TIP3    H229898   0.936   0.848   0.251
 9981TIP3   OH229899   7.524   5.703   0.691
 9981TIP3    H129900   7.484   5.617   0.703
 9981TIP3    H229901   7.483   5.739   0.613
 9982TIP3   OH229902   6.401   6.662   3.916
 9982TIP3    H129903   6.388   6.568   3.928
 9982TIP3    H229904   6.338   6.686   3.848
 9983TIP3   OH229905   0.121   7.707   4.918
 9983TIP3    H129906   0.130   7.644   4.846
 9983TIP3    H229907   0.124   7.792   4.875
 9984TIP3   OH229908   7.322   5.049   3.640
 9984TIP3    H129909   7.265   5.091   3.575
 9984TIP3    H229910   7.410   5.074   3.615
 9985TIP3   OH229911   3.257   0.854   3.411
 9985TIP3    H129912   3.299   0.929   3.454
 9985TIP3    H229913   3.313   0.836   3.335
 9986TIP3   OH229914   0.150   7.376   3.249
 9986TIP3    H129915   0.101   7.381   3.167
 9986TIP3    H229916   0.236   7.342   3.224
 9987TIP3   OH229917   0.251   6.091   6.162
 9987TIP3    H129918   0.270   6.082   6.255
 9987TIP3    H229919   0.235   6.002   6.131
 9988TIP3   OH229920   6.648   2.391   3.486
 9988TIP3    H129921   6.694   2.315   3.451
 9988TIP3    H229922   6.672   2.463   3.428
 9989TIP3   OH229923   7.748   5.119   5.203
 9989TIP3    H129924   7.661   5.086   5.179
 9989TIP3    H229925   7.762   5.194   5.146
 9990TIP3   OH229926   2.537   4.761   1.106
 9990TIP3    H129927   2.550   4.850   1.139
 9990TIP3    H229928   2.491   4.715   1.176
 9991TIP3   OH229929   1.439   5.827   5.083
 9991TIP3    H129930   1.412   5.749   5.131
 9991TIP3    H229931   1.535   5.823   5.082
 9992TIP3   OH229932   3.694   3.824   2.578
 9992TIP3    H129933   3.728   3.859   2.495
 9992TIP3    H229934   3.702   3.897   2.639
 9993TIP3   OH229935   0.006   5.420   5.998
 9993TIP3    H129936   0.086   5.397   6.045
 9993TIP3    H229937  -0.061   5.427   6.066
 9994TIP3   OH229938   0.052   1.289   0.865
 9994TIP3    H129939  -0.037   1.288   0.832
 9994TIP3    H229940   0.061   1.206   0.912
 9995TIP3   OH229941   6.661   3.538   2.021
 9995TIP3    H129942   6.682   3.628   1.995
 9995TIP3    H229943   6.687   3.484   1.946
 9996TIP3   OH229944   7.393   2.923   3.936
 9996TIP3    H129945   7.413   2.847   3.880
 9996TIP3    H229946   7.454   2.915   4.010
 9997TIP3   OH229947   8.133   0.175   3.965
 9997TIP3    H129948   8.093   0.093   3.992
 9997TIP3    H229949   8.067   0.216   3.908
 9998TIP3   OH229950   2.234   7.014   2.964
 9998TIP3    H129951   2.250   7.014   2.870
 9998TIP3    H229952   2.182   6.935   2.980
 9999TIP3   OH229953   8.211   2.975   4.529
 9999TIP3    H129954   8.278   3.042   4.515
 9999TIP3    H229955   8.261   2.893   4.536
10000TIP3   OH229956   2.338   4.979   1.847
10000TIP3    H129957   2.289   5.056   1.819
10000TIP3    H229958   2.336   4.983   1.943
10001TIP3   OH229959   2.466   7.186   2.028
10001TIP3    H129960   2.496   7.096   2.040
10001TIP3    H229961   2.495   7.231   2.108
10002TIP3   OH229962   2.298   2.822   5.286
10002TIP3    H129963   2.393   2.830   5.274
10002TIP3    H229964   2.276   2.739   5.244
10003TIP3   OH229965   1.439   5.385   2.176
10003TIP3    H129966   1.504   5.441   2.134
10003TIP3    H229967   1.462   5.297   2.149
10004TIP3   OH229968   4.329   7.004   3.168
10004TIP3    H129969   4.353   7.003   3.260
10004TIP3    H229970   4.301   7.094   3.151
10005TIP3   OH229971   6.023   4.452   4.978
10005TIP3    H129972   5.968   4.446   5.056
10005TIP3    H229973   6.066   4.367   4.972
10006TIP3   OH229974   4.662   7.366   1.333
10006TIP3    H129975   4.594   7.430   1.310
10006TIP3    H229976   4.714   7.409   1.401
10007TIP3   OH229977   3.157   0.160   5.857
10007TIP3    H129978   3.061   0.156   5.863
10007TIP3    H229979   3.174   0.198   5.771
10008TIP3   OH229980   4.807   0.337   1.457
10008TIP3    H129981   4.714   0.330   1.433
10008TIP3    H229982   4.854   0.295   1.385
10009TIP3   OH229983   4.660   3.196   0.723
10009TIP3    H129984   4.680   3.127   0.787
10009TIP3    H229985   4.732   3.192   0.661
10010TIP3   OH229986   6.878   6.410   4.687
10010TIP3    H129987   6.938   6.438   4.618
10010TIP3    H229988   6.931   6.415   4.767
10011TIP3   OH229989   6.195   2.254   1.664
10011TIP3    H129990   6.163   2.226   1.578
10011TIP3    H229991   6.124   2.307   1.700
10012TIP3   OH229992   5.626   3.813   4.572
10012TIP3    H129993   5.600   3.728   4.610
10012TIP3    H229994   5.720   3.820   4.590
10013TIP3   OH229995   5.066   0.208   0.706
10013TIP3    H129996   5.104   0.136   0.656
10013TIP3    H229997   5.121   0.283   0.687
10014TIP3   OH229998   5.002   3.722   5.993
10014TIP3    H129999   5.043   3.638   6.012
10014TIP3    H230000   4.923   3.723   6.047
10015TIP3   OH230001   1.428   5.761   2.504
10015TIP3    H130002   1.399   5.671   2.520
10015TIP3    H230003   1.493   5.753   2.434
10016TIP3   OH230004   4.613   0.888   5.241
10016TIP3    H130005   4.612   0.849   5.153
10016TIP3    H230006   4.563   0.827   5.295
10017TIP3   OH230007   2.430   6.568   4.538
10017TIP3    H130008   2.358   6.616   4.499
10017TIP3    H230009   2.478   6.532   4.464
10018TIP3   OH230010   3.571   3.954   0.749
10018TIP3    H130011   3.505   4.022   0.756
10018TIP3    H230012   3.641   3.983   0.808
10019TIP3   OH230013   2.589   2.794   5.876
10019TIP3    H130014   2.600   2.734   5.802
10019TIP3    H230015   2.540   2.868   5.840
10020TIP3   OH230016   3.126   3.587   5.783
10020TIP3    H130017   3.154   3.645   5.854
10020TIP3    H230018   3.031   3.600   5.777
10021TIP3   OH230019  -0.012   5.832   4.814
10021TIP3    H130020   0.078   5.801   4.810
10021TIP3    H230021  -0.011   5.917   4.771
10022TIP3   OH230022   6.099   2.686   4.307
10022TIP3    H130023   6.069   2.775   4.286
10022TIP3    H230024   6.030   2.651   4.363
10023TIP3   OH230025   2.727   1.957   2.406
10023TIP3    H130026   2.768   1.875   2.379
10023TIP3    H230027   2.801   2.013   2.431
10024TIP3   OH230028   6.343   5.881   1.219
10024TIP3    H130029   6.418   5.827   1.244
10024TIP3    H230030   6.267   5.838   1.260
10025TIP3   OH230031   1.467   1.719   3.151
10025TIP3    H130032   1.477   1.742   3.058
10025TIP3    H230033   1.489   1.626   3.155
10026TIP3   OH230034   0.996   2.609   6.326
10026TIP3    H130035   0.956   2.574   6.406
10026TIP3    H230036   1.001   2.533   6.268
10027TIP3   OH230037   6.905   2.485   3.674
10027TIP3    H130038   6.993   2.512   3.646
10027TIP3    H230039   6.846   2.531   3.614
10028TIP3   OH230040   7.584   1.347   2.665
10028TIP3    H130041   7.607   1.432   2.704
10028TIP3    H230042   7.661   1.323   2.614
10029TIP3   OH230043   7.332   7.007   1.864
10029TIP3    H130044   7.423   6.981   1.878
10029TIP3    H230045   7.309   7.057   1.943
10030TIP3   OH230046   5.875   0.172   2.111
10030TIP3    H130047   5.941   0.175   2.042
10030TIP3    H230048   5.900   0.098   2.166
10031TIP3   OH230049   3.549   1.914   2.419
10031TIP3    H130050   3.550   2.009   2.427
10031TIP3    H230051   3.539   1.882   2.508
10032TIP3   OH230052   5.745   1.289   5.729
10032TIP3    H130053   5.685   1.340   5.783
10032TIP3    H230054   5.700   1.205   5.715
10033TIP3   OH230055   1.338   0.650   5.287
10033TIP3    H130056   1.420   0.671   5.331
10033TIP3    H230057   1.346   0.557   5.264
10034TIP3   OH230058   2.114   6.050   5.168
10034TIP3    H130059   2.148   5.962   5.155
10034TIP3    H230060   2.028   6.038   5.208
10035TIP3   OH230061   0.627   6.674   2.501
10035TIP3    H130062   0.623   6.763   2.536
10035TIP3    H230063   0.608   6.618   2.576
10036TIP3   OH230064   3.485   7.600   5.677
10036TIP3    H130065   3.473   7.547   5.598
10036TIP3    H230066   3.415   7.572   5.736
10037TIP3   OH230067   0.458   0.019   4.124
10037TIP3    H130068   0.418   0.100   4.094
10037TIP3    H230069   0.383  -0.035   4.152
10038TIP3   OH230070   5.418   3.343   5.309
10038TIP3    H130071   5.422   3.251   5.281
10038TIP3    H230072   5.326   3.366   5.305
10039TIP3   OH230073   4.887   1.406   2.322
10039TIP3    H130074   4.847   1.493   2.312
10039TIP3    H230075   4.814   1.345   2.313
10040TIP3   OH230076   3.813   2.636   0.906
10040TIP3    H130077   3.800   2.572   0.976
10040TIP3    H230078   3.736   2.626   0.850
10041TIP3   OH230079   5.257   1.244   5.953
10041TIP3    H130080   5.203   1.226   5.876
10041TIP3    H230081   5.199   1.291   6.013
10042TIP3   OH230082   5.586   2.762   4.185
10042TIP3    H130083   5.621   2.762   4.096
10042TIP3    H230084   5.501   2.805   4.178
10043TIP3   OH230085   0.811   1.853   1.017
10043TIP3    H130086   0.865   1.915   1.066
10043TIP3    H230087   0.783   1.789   1.083
10044TIP3   OH230088   5.422   1.715   5.211
10044TIP3    H130089   5.510   1.753   5.212
10044TIP3    H230090   5.374   1.766   5.276
10045TIP3   OH230091   4.627   6.594   4.755
10045TIP3    H130092   4.655   6.682   4.730
10045TIP3    H230093   4.651   6.539   4.681
10046TIP3   OH230094   5.011   7.766   1.340
10046TIP3    H130095   5.102   7.742   1.324
10046TIP3    H230096   4.965   7.742   1.260
10047TIP3   OH230097   6.957   2.632   6.009
10047TIP3    H130098   6.934   2.656   6.099
10047TIP3    H230099   6.876   2.648   5.959
10048TIP3   OH230100   4.390   2.264   3.595
10048TIP3    H130101   4.429   2.306   3.672
10048TIP3    H230102   4.307   2.311   3.582
10049TIP3   OH230103   7.349   5.917   4.591
10049TIP3    H130104   7.254   5.908   4.596
10049TIP3    H230105   7.379   5.836   4.550
10050TIP3   OH230106   5.753   6.477   3.628
10050TIP3    H130107   5.813   6.505   3.698
10050TIP3    H230108   5.809   6.469   3.550
10051TIP3   OH230109   6.361   6.064   6.299
10051TIP3    H130110   6.367   6.123   6.374
10051TIP3    H230111   6.402   6.112   6.227
10052TIP3   OH230112   3.755   1.584   2.052
10052TIP3    H130113   3.719   1.504   2.089
10052TIP3    H230114   3.726   1.653   2.112
10053TIP3   OH230115   6.063   6.138   6.600
10053TIP3    H130116   5.974   6.118   6.571
10053TIP3    H230117   6.081   6.072   6.667
10054TIP3   OH230118   6.774   4.863   3.677
10054TIP3    H130119   6.856   4.854   3.725
10054TIP3    H230120   6.749   4.774   3.654
10055TIP3   OH230121   0.571   1.616   2.039
10055TIP3    H130122   0.510   1.628   2.112
10055TIP3    H230123   0.655   1.645   2.074
10056TIP3   OH230124   6.350   7.075   2.954
10056TIP3    H130125   6.318   6.985   2.943
10056TIP3    H230126   6.427   7.080   2.897
10057TIP3   OH230127  -0.025   7.012   2.266
10057TIP3    H130128   0.027   6.944   2.225
10057TIP3    H230129   0.039   7.073   2.303
10058TIP3   OH230130   6.411   1.489   6.714
10058TIP3    H130131   6.340   1.543   6.747
10058TIP3    H230132   6.374   1.443   6.640
10059TIP3   OH230133   4.400   6.728   1.529
10059TIP3    H130134   4.352   6.645   1.532
10059TIP3    H230135   4.364   6.779   1.602
10060TIP3   OH230136   7.798   6.110   5.113
10060TIP3    H130137   7.842   6.191   5.139
10060TIP3    H230138   7.865   6.061   5.065
10061TIP3   OH230139   7.513   3.551   6.625
10061TIP3    H130140   7.583   3.514   6.571
10061TIP3    H230141   7.557   3.583   6.704
10062TIP3   OH230142   7.337   5.054   1.560
10062TIP3    H130143   7.401   5.025   1.496
10062TIP3    H230144   7.306   5.139   1.528
10063TIP3   OH230145   6.297   5.854   4.774
10063TIP3    H130146   6.214   5.811   4.796
10063TIP3    H230147   6.349   5.786   4.732
10064TIP3   OH230148   3.247   1.661   0.313
10064TIP3    H130149   3.241   1.618   0.228
10064TIP3    H230150   3.235   1.590   0.376
10065TIP3   OH230151   7.959   3.865   3.212
10065TIP3    H130152   7.876   3.887   3.253
10065TIP3    H230153   8.008   3.948   3.210
10066TIP3   OH230154   4.868   4.659   2.001
10066TIP3    H130155   4.807   4.613   2.059
10066TIP3    H230156   4.939   4.596   1.986
10067TIP3   OH230157   4.482   5.778   0.448
10067TIP3    H130158   4.449   5.848   0.505
10067TIP3    H230159   4.423   5.705   0.464
10068TIP3   OH230160   2.268   0.899   6.099
10068TIP3    H130161   2.263   0.949   6.181
10068TIP3    H230162   2.285   0.964   6.032
10069TIP3   OH230163   1.191   0.136   6.057
10069TIP3    H130164   1.207   0.161   6.148
10069TIP3    H230165   1.208   0.041   6.056
10070TIP3   OH230166   6.343   1.461   2.616
10070TIP3    H130167   6.379   1.391   2.562
10070TIP3    H230168   6.324   1.532   2.554
10071TIP3   OH230169   1.362   5.607   1.608
10071TIP3    H130170   1.301   5.533   1.614
10071TIP3    H230171   1.394   5.619   1.697
10072TIP3   OH230172   2.367   7.676   1.088
10072TIP3    H130173   2.419   7.655   1.011
10072TIP3    H230174   2.432   7.707   1.152
10073TIP3   OH230175   5.685   0.031   6.158
10073TIP3    H130176   5.770   0.058   6.124
10073TIP3    H230177   5.697   0.032   6.253
10074TIP3   OH230178   2.898   2.457   3.165
10074TIP3    H130179   2.838   2.515   3.120
10074TIP3    H230180   2.842   2.403   3.222
10075TIP3   OH230181   1.220   5.753   0.573
10075TIP3    H130182   1.217   5.757   0.477
10075TIP3    H230183   1.306   5.716   0.592
10076TIP3   OH230184   8.220   3.829   0.325
10076TIP3    H130185   8.245   3.765   0.258
10076TIP3    H230186   8.140   3.869   0.291
10077TIP3   OH230187   4.339   7.265   5.679
10077TIP3    H130188   4.404   7.211   5.634
10077TIP3    H230189   4.330   7.224   5.765
10078TIP3   OH230190   0.921   5.147   2.125
10078TIP3    H130191   1.010   5.157   2.159
10078TIP3    H230192   0.926   5.175   2.034
10079TIP3   OH230193   1.688   3.937   2.177
10079TIP3    H130194   1.646   4.020   2.155
10079TIP3    H230195   1.686   3.887   2.095
10080TIP3   OH230196   2.360   5.323   4.655
10080TIP3    H130197   2.330   5.377   4.728
10080TIP3    H230198   2.284   5.315   4.598
10081TIP3   OH230199   1.244   6.463   4.069
10081TIP3    H130200   1.177   6.403   4.037
10081TIP3    H230201   1.195   6.537   4.106
10082TIP3   OH230202   5.905   5.799   0.392
10082TIP3    H130203   5.918   5.704   0.394
10082TIP3    H230204   5.991   5.834   0.368
10083TIP3   OH230205   7.005   1.436   4.070
10083TIP3    H130206   7.094   1.410   4.095
10083TIP3    H230207   7.012   1.527   4.043
10084TIP3   OH230208   0.036   2.659   5.737
10084TIP3    H130209   0.078   2.745   5.733
10084TIP3    H230210  -0.029   2.667   5.807
10085TIP3   OH230211   0.138   5.266   0.418
10085TIP3    H130212   0.141   5.272   0.323
10085TIP3    H230213   0.198   5.194   0.440
10086TIP3   OH230214   2.306   6.693   6.807
10086TIP3    H130215   2.395   6.703   6.773
10086TIP3    H230216   2.253   6.748   6.749
10087TIP3   OH230217   0.264   0.784   3.600
10087TIP3    H130218   0.210   0.763   3.676
10087TIP3    H230219   0.251   0.711   3.539
10088TIP3   OH230220   6.848   7.788   4.396
10088TIP3    H130221   6.775   7.731   4.373
10088TIP3    H230222   6.810   7.854   4.454
10089TIP3   OH230223   1.551   7.246   3.079
10089TIP3    H130224   1.578   7.182   3.144
10089TIP3    H230225   1.467   7.279   3.113
10090TIP3   OH230226   6.129   1.552   4.823
10090TIP3    H130227   6.062   1.530   4.888
10090TIP3    H230228   6.113   1.490   4.751
10091TIP3   OH230229   4.136   3.912   3.821
10091TIP3    H130230   4.102   3.936   3.735
10091TIP3    H230231   4.081   3.840   3.850
10092TIP3   OH230232   0.078   5.752   3.018
10092TIP3    H130233   0.117   5.692   2.954
10092TIP3    H230234   0.150   5.772   3.078
10093TIP3   OH230235   2.556   2.452   5.251
10093TIP3    H130236   2.627   2.511   5.277
10093TIP3    H230237   2.573   2.433   5.159
10094TIP3   OH230238   0.321   1.466   1.945
10094TIP3    H130239   0.265   1.538   1.976
10094TIP3    H230240   0.338   1.414   2.024
10095TIP3   OH230241   2.860   1.452   1.651
10095TIP3    H130242   2.806   1.531   1.652
10095TIP3    H230243   2.801   1.382   1.678
10096TIP3   OH230244   3.055   6.315   0.660
10096TIP3    H130245   2.977   6.276   0.621
10096TIP3    H230246   3.089   6.248   0.719
10097TIP3   OH230247   4.976   0.825   2.161
10097TIP3    H130248   4.989   0.771   2.239
10097TIP3    H230249   4.936   0.905   2.193
10098TIP3   OH230250   3.845   2.033   3.250
10098TIP3    H130251   3.904   2.022   3.325
10098TIP3    H230252   3.841   2.127   3.237
10099TIP3   OH230253   2.425   1.437   2.759
10099TIP3    H130254   2.432   1.428   2.854
10099TIP3    H230255   2.516   1.446   2.729
10100TIP3   OH230256  -0.007   4.798   1.622
10100TIP3    H130257   0.075   4.840   1.597
10100TIP3    H230258  -0.050   4.777   1.539
10101TIP3   OH230259   7.695   7.668   2.826
10101TIP3    H130260   7.703   7.604   2.755
10101TIP3    H230261   7.606   7.702   2.818
10102TIP3   OH230262   0.977   3.555   0.341
10102TIP3    H130263   0.928   3.625   0.384
10102TIP3    H230264   0.913   3.484   0.329
10103TIP3   OH230265   4.229   5.628   4.945
10103TIP3    H130266   4.274   5.709   4.919
10103TIP3    H230267   4.208   5.641   5.037
10104TIP3   OH230268   0.343   6.133   3.324
10104TIP3    H130269   0.297   6.140   3.408
10104TIP3    H230270   0.434   6.153   3.345
10105TIP3   OH230271   0.111   1.763   0.029
10105TIP3    H130272   0.071   1.687   0.071
10105TIP3    H230273   0.045   1.796  -0.031
10106TIP3   OH230274   3.347   6.065   0.511
10106TIP3    H130275   3.303   6.130   0.456
10106TIP3    H230276   3.290   6.058   0.589
10107TIP3   OH230277   4.432   0.016   0.044
10107TIP3    H130278   4.374   0.015  -0.032
10107TIP3    H230279   4.496   0.084   0.024
10108TIP3   OH230280   5.351   4.250   2.905
10108TIP3    H130281   5.283   4.221   2.844
10108TIP3    H230282   5.413   4.177   2.909
10109TIP3   OH230283   0.117   0.998   3.667
10109TIP3    H130284   0.192   1.052   3.641
10109TIP3    H230285   0.155   0.914   3.691
10110TIP3   OH230286   3.513   1.051   1.986
10110TIP3    H130287   3.510   1.138   2.025
10110TIP3    H230288   3.497   1.065   1.893
10111TIP3   OH230289   3.916   4.685   2.983
10111TIP3    H130290   3.996   4.707   3.030
10111TIP3    H230291   3.938   4.696   2.890
10112TIP3   OH230292   5.896   5.251   0.584
10112TIP3    H130293   5.987   5.273   0.604
10112TIP3    H230294   5.895   5.233   0.490
10113TIP3   OH230295   0.374   0.234   3.849
10113TIP3    H130296   0.463   0.217   3.880
10113TIP3    H230297   0.325   0.254   3.929
10114TIP3   OH230298   3.713   3.210   0.083
10114TIP3    H130299   3.789   3.212   0.141
10114TIP3    H230300   3.641   3.244   0.137
10115TIP3   OH230301   7.026   5.077   4.052
10115TIP3    H130302   7.090   5.123   3.998
10115TIP3    H230303   7.076   5.008   4.095
10116TIP3   OH230304   1.206   6.014   5.928
10116TIP3    H130305   1.263   6.066   5.871
10116TIP3    H230306   1.187   5.935   5.877
10117TIP3   OH230307   3.041   2.225   4.591
10117TIP3    H130308   3.042   2.212   4.496
10117TIP3    H230309   3.029   2.320   4.602
10118TIP3   OH230310   1.321   5.097   5.841
10118TIP3    H130311   1.387   5.122   5.776
10118TIP3    H230312   1.326   5.002   5.845
10119TIP3   OH230313   4.837   6.286   2.552
10119TIP3    H130314   4.873   6.263   2.466
10119TIP3    H230315   4.866   6.215   2.610
10120TIP3   OH230316   7.662   3.849   3.143
10120TIP3    H130317   7.623   3.780   3.197
10120TIP3    H230318   7.623   3.837   3.057
10121TIP3   OH230319   7.223   2.134   6.050
10121TIP3    H130320   7.187   2.161   6.134
10121TIP3    H230321   7.250   2.216   6.008
10122TIP3   OH230322   1.216   1.130   2.660
10122TIP3    H130323   1.268   1.183   2.722
10122TIP3    H230324   1.276   1.112   2.588
10123TIP3   OH230325   3.552   7.306   3.145
10123TIP3    H130326   3.467   7.274   3.117
10123TIP3    H230327   3.585   7.239   3.205
10124TIP3   OH230328   5.601   0.835   1.640
10124TIP3    H130329   5.594   0.924   1.607
10124TIP3    H230330   5.515   0.816   1.677
10125TIP3   OH230331   5.653   4.295   1.965
10125TIP3    H130332   5.706   4.268   2.040
10125TIP3    H230333   5.695   4.251   1.890
10126TIP3   OH230334   6.792   1.239   4.566
10126TIP3    H130335   6.741   1.166   4.599
10126TIP3    H230336   6.875   1.235   4.614
10127TIP3   OH230337   4.418   4.685   4.064
10127TIP3    H130338   4.374   4.743   4.126
10127TIP3    H230339   4.492   4.649   4.113
10128TIP3   OH230340   0.390   4.324   2.396
10128TIP3    H130341   0.393   4.275   2.479
10128TIP3    H230342   0.377   4.257   2.329
10129TIP3   OH230343   5.051   6.754   0.135
10129TIP3    H130344   5.057   6.680   0.074
10129TIP3    H230345   5.140   6.763   0.169
10130TIP3   OH230346   3.422   4.490   2.594
10130TIP3    H130347   3.417   4.514   2.686
10130TIP3    H230348   3.366   4.554   2.550
10131TIP3   OH230349   7.766   4.468   5.482
10131TIP3    H130350   7.772   4.373   5.475
10131TIP3    H230351   7.848   4.500   5.446
10132TIP3   OH230352   5.166   1.177   2.288
10132TIP3    H130353   5.228   1.105   2.278
10132TIP3    H230354   5.154   1.185   2.382
10133TIP3   OH230355   8.048   1.894   0.475
10133TIP3    H130356   7.978   1.864   0.532
10133TIP3    H230357   8.006   1.954   0.413
10134TIP3   OH230358   3.466   5.863   6.380
10134TIP3    H130359   3.391   5.894   6.329
10134TIP3    H230360   3.534   5.927   6.363
10135TIP3   OH230361   6.714   1.681   5.575
10135TIP3    H130362   6.759   1.751   5.623
10135TIP3    H230363   6.640   1.724   5.533
10136TIP3   OH230364   6.205   0.884   0.958
10136TIP3    H130365   6.123   0.901   1.005
10136TIP3    H230366   6.239   0.971   0.936
10137TIP3   OH230367   5.799   2.618   6.409
10137TIP3    H130368   5.715   2.574   6.394
10137TIP3    H230369   5.819   2.601   6.501
10138TIP3   OH230370   5.511   1.263   2.113
10138TIP3    H130371   5.560   1.313   2.178
10138TIP3    H230372   5.562   1.182   2.102
10139TIP3   OH230373   2.524   4.828   1.735
10139TIP3    H130374   2.452   4.890   1.745
10139TIP3    H230375   2.482   4.744   1.720
10140TIP3   OH230376   0.900   2.395   6.148
10140TIP3    H130377   0.927   2.314   6.190
10140TIP3    H230378   0.805   2.389   6.143
10141TIP3   OH230379   3.799   1.073   2.050
10141TIP3    H130380   3.738   1.034   2.112
10141TIP3    H230381   3.768   1.045   1.964
10142TIP3   OH230382   6.752   6.587   3.843
10142TIP3    H130383   6.809   6.661   3.821
10142TIP3    H230384   6.764   6.576   3.937
10143TIP3   OH230385   2.288   4.798   5.244
10143TIP3    H130386   2.318   4.751   5.323
10143TIP3    H230387   2.337   4.758   5.172
10144TIP3   OH230388   4.482   6.398   5.788
10144TIP3    H130389   4.466   6.490   5.809
10144TIP3    H230390   4.401   6.369   5.745
10145TIP3   OH230391   0.172   7.376   4.130
10145TIP3    H130392   0.089   7.416   4.156
10145TIP3    H230393   0.175   7.294   4.179
10146TIP3   OH230394   8.087   7.759   0.646
10146TIP3    H130395   8.076   7.823   0.716
10146TIP3    H230396   8.159   7.793   0.593
10147TIP3   OH230397   1.166   5.073   2.597
10147TIP3    H130398   1.210   4.988   2.598
10147TIP3    H230399   1.073   5.052   2.592
10148TIP3   OH230400   3.105   4.223   0.916
10148TIP3    H130401   3.170   4.157   0.891
10148TIP3    H230402   3.135   4.255   1.001
10149TIP3   OH230403   8.041   6.988   2.641
10149TIP3    H130404   8.054   6.966   2.549
10149TIP3    H230405   7.948   7.009   2.647
10150TIP3   OH230406   8.164   3.051   4.985
10150TIP3    H130407   8.135   3.034   4.895
10150TIP3    H230408   8.115   3.129   5.011
10151TIP3   OH230409   2.077   3.188   3.860
10151TIP3    H130410   2.063   3.093   3.862
10151TIP3    H230411   2.133   3.205   3.935
10152TIP3   OH230412   7.316   1.742   6.385
10152TIP3    H130413   7.246   1.703   6.438
10152TIP3    H230414   7.271   1.791   6.317
10153TIP3   OH230415   7.837   5.315   6.005
10153TIP3    H130416   7.891   5.238   6.026
10153TIP3    H230417   7.787   5.332   6.085
10154TIP3   OH230418   6.708   6.711   2.526
10154TIP3    H130419   6.789   6.689   2.573
10154TIP3    H230420   6.704   6.648   2.455
10155TIP3   OH230421   2.326   0.526   0.721
10155TIP3    H130422   2.257   0.593   0.721
10155TIP3    H230423   2.405   0.573   0.694
10156TIP3   OH230424   4.743   7.402   4.647
10156TIP3    H130425   4.797   7.470   4.687
10156TIP3    H230426   4.798   7.324   4.646
10157TIP3   OH230427   7.553   1.554   1.265
10157TIP3    H130428   7.606   1.599   1.199
10157TIP3    H230429   7.469   1.600   1.262
10158TIP3   OH230430   7.973   2.309   6.374
10158TIP3    H130431   7.902   2.269   6.324
10158TIP3    H230432   7.938   2.318   6.462
10159TIP3   OH230433   0.141   1.434   4.376
10159TIP3    H130434   0.143   1.339   4.376
10159TIP3    H230435   0.082   1.457   4.305
10160TIP3   OH230436   3.994   5.469   2.910
10160TIP3    H130437   4.062   5.513   2.858
10160TIP3    H230438   3.982   5.384   2.868
10161TIP3   OH230439   4.251   5.547   6.251
10161TIP3    H130440   4.171   5.496   6.235
10161TIP3    H230441   4.224   5.638   6.242
10162TIP3   OH230442   7.029   1.007   3.505
10162TIP3    H130443   7.072   1.087   3.534
10162TIP3    H230444   7.049   1.001   3.411
10163TIP3   OH230445   2.463   3.315   1.379
10163TIP3    H130446   2.557   3.309   1.359
10163TIP3    H230447   2.434   3.393   1.331
10164TIP3   OH230448   2.903   1.607   0.207
10164TIP3    H130449   2.955   1.554   0.146
10164TIP3    H230450   2.941   1.695   0.200
10165TIP3   OH230451   3.049   5.150   2.236
10165TIP3    H130452   3.046   5.187   2.324
10165TIP3    H230453   3.122   5.195   2.193
10166TIP3   OH230454   7.935   2.303   2.671
10166TIP3    H130455   7.922   2.332   2.761
10166TIP3    H230456   7.965   2.382   2.625
10167TIP3   OH230457   3.303   1.772   5.941
10167TIP3    H130458   3.376   1.732   5.989
10167TIP3    H230459   3.308   1.865   5.962
10168TIP3   OH230460   5.031   1.430   4.634
10168TIP3    H130461   4.995   1.503   4.584
10168TIP3    H230462   5.116   1.461   4.664
10169TIP3   OH230463   4.996   4.864   1.665
10169TIP3    H130464   5.019   4.795   1.603
10169TIP3    H230465   5.077   4.881   1.714
10170TIP3   OH230466   6.187   1.574   5.306
10170TIP3    H130467   6.156   1.512   5.372
10170TIP3    H230468   6.239   1.521   5.246
10171TIP3   OH230469   2.638   3.045   3.185
10171TIP3    H130470   2.649   2.953   3.160
10171TIP3    H230471   2.601   3.041   3.273
10172TIP3   OH230472   7.488   2.232   2.406
10172TIP3    H130473   7.552   2.204   2.472
10172TIP3    H230474   7.410   2.180   2.424
10173TIP3   OH230475   1.311   2.660   0.294
10173TIP3    H130476   1.295   2.725   0.362
10173TIP3    H230477   1.326   2.578   0.342
10174TIP3   OH230478   4.816   4.975   1.487
10174TIP3    H130479   4.863   4.945   1.565
10174TIP3    H230480   4.855   4.926   1.415
10175TIP3   OH230481   3.666   7.833   0.794
10175TIP3    H130482   3.662   7.782   0.875
10175TIP3    H230483   3.574   7.848   0.771
10176TIP3   OH230484   2.761   0.725   6.531
10176TIP3    H130485   2.800   0.792   6.587
10176TIP3    H230486   2.667   0.730   6.550
10177TIP3   OH230487   7.329   6.498   1.330
10177TIP3    H130488   7.258   6.530   1.273
10177TIP3    H230489   7.291   6.500   1.418
10178TIP3   OH230490   0.588   0.091   2.643
10178TIP3    H130491   0.561   0.000   2.657
10178TIP3    H230492   0.581   0.131   2.730
10179TIP3   OH230493   2.314   0.855   0.642
10179TIP3    H130494   2.253   0.799   0.690
10179TIP3    H230495   2.384   0.874   0.705
10180TIP3   OH230496   7.803   4.807   1.360
10180TIP3    H130497   7.859   4.730   1.372
10180TIP3    H230498   7.720   4.784   1.402
10181TIP3   OH230499   2.368   4.870   3.970
10181TIP3    H130500   2.438   4.914   3.921
10181TIP3    H230501   2.307   4.840   3.903
10182TIP3   OH230502   2.413   5.234   3.902
10182TIP3    H130503   2.446   5.145   3.914
10182TIP3    H230504   2.350   5.246   3.972
10183TIP3   OH230505   6.420   6.173   0.750
10183TIP3    H130506   6.328   6.187   0.772
10183TIP3    H230507   6.430   6.215   0.664
10184TIP3   OH230508   8.122   3.148   0.070
10184TIP3    H130509   8.108   3.067   0.022
10184TIP3    H230510   8.050   3.205   0.043
10185TIP3   OH230511   4.463   2.174   2.033
10185TIP3    H130512   4.497   2.140   1.950
10185TIP3    H230513   4.401   2.242   2.008
10186TIP3   OH230514   1.078   5.363   5.262
10186TIP3    H130515   1.073   5.453   5.228
10186TIP3    H230516   1.161   5.329   5.229
10187TIP3   OH230517   1.403   6.766   0.709
10187TIP3    H130518   1.370   6.789   0.796
10187TIP3    H230519   1.361   6.829   0.651
10188TIP3   OH230520   7.969   0.093   1.194
10188TIP3    H130521   7.984   0.014   1.142
10188TIP3    H230522   8.040   0.093   1.258
10189TIP3   OH230523   1.016   6.270   0.233
10189TIP3    H130524   1.012   6.175   0.222
10189TIP3    H230525   0.937   6.302   0.189
10190TIP3   OH230526   1.146   3.659   2.843
10190TIP3    H130527   1.119   3.748   2.822
10190TIP3    H230528   1.222   3.643   2.787
10191TIP3   OH230529   1.728   1.478   6.471
10191TIP3    H130530   1.792   1.483   6.400
10191TIP3    H230531   1.702   1.569   6.486
10192TIP3   OH230532   7.313   2.982   2.965
10192TIP3    H130533   7.384   2.949   2.909
10192TIP3    H230534   7.265   2.904   2.992
10193TIP3   OH230535   6.437   5.746   4.396
10193TIP3    H130536   6.453   5.834   4.431
10193TIP3    H230537   6.415   5.760   4.304
10194TIP3   OH230538   7.748   5.364   5.065
10194TIP3    H130539   7.754   5.414   5.146
10194TIP3    H230540   7.706   5.423   5.003
10195TIP3   OH230541   1.168   5.778   5.816
10195TIP3    H130542   1.117   5.698   5.800
10195TIP3    H230543   1.201   5.803   5.730
10196TIP3   OH230544   6.085   3.009   3.536
10196TIP3    H130545   6.129   3.076   3.483
10196TIP3    H230546   6.051   2.947   3.472
10197TIP3   OH230547   1.023   4.796   2.545
10197TIP3    H130548   1.039   4.703   2.560
10197TIP3    H230549   0.969   4.824   2.618
10198TIP3   OH230550   7.696   6.687   0.953
10198TIP3    H130551   7.754   6.611   0.956
10198TIP3    H230552   7.643   6.680   1.033
10199TIP3   OH230553   7.723   4.476   2.626
10199TIP3    H130554   7.811   4.466   2.662
10199TIP3    H230555   7.736   4.521   2.543
10200TIP3   OH230556   2.111   3.753   5.943
10200TIP3    H130557   2.095   3.842   5.911
10200TIP3    H230558   2.206   3.748   5.952
10201TIP3   OH230559   5.464   6.446   2.196
10201TIP3    H130560   5.476   6.529   2.150
10201TIP3    H230561   5.550   6.405   2.196
10202TIP3   OH230562   4.609   4.986   0.394
10202TIP3    H130563   4.628   5.001   0.301
10202TIP3    H230564   4.516   5.004   0.402
10203TIP3   OH230565   6.849   7.729   6.106
10203TIP3    H130566   6.943   7.719   6.125
10203TIP3    H230567   6.805   7.681   6.175
10204TIP3   OH230568   6.015   0.993   4.927
10204TIP3    H130569   6.027   1.017   4.834
10204TIP3    H230570   5.923   0.970   4.934
10205TIP3   OH230571   3.333   1.936   3.346
10205TIP3    H130572   3.322   1.941   3.251
10205TIP3    H230573   3.262   1.989   3.382
10206TIP3   OH230574   5.592   0.008   2.957
10206TIP3    H130575   5.529   0.052   2.900
10206TIP3    H230576   5.676   0.049   2.935
10207TIP3   OH230577   4.774   2.464   3.340
10207TIP3    H130578   4.867   2.481   3.353
10207TIP3    H230579   4.758   2.382   3.388
10208TIP3   OH230580   3.399   2.663   0.282
10208TIP3    H130581   3.365   2.735   0.335
10208TIP3    H230582   3.481   2.697   0.245
10209TIP3   OH230583   3.225   2.443   2.299
10209TIP3    H130584   3.153   2.431   2.238
10209TIP3    H230585   3.290   2.377   2.275
10210TIP3   OH230586   8.100   2.045   5.127
10210TIP3    H130587   8.124   1.966   5.078
10210TIP3    H230588   8.181   2.097   5.129
10211TIP3   OH230589   6.272   5.112   2.595
10211TIP3    H130590   6.284   5.206   2.608
10211TIP3    H230591   6.347   5.072   2.639
10212TIP3   OH230592   3.114   3.339   4.893
10212TIP3    H130593   3.064   3.323   4.813
10212TIP3    H230594   3.168   3.261   4.903
10213TIP3   OH230595   5.832   0.551   1.531
10213TIP3    H130596   5.864   0.642   1.534
10213TIP3    H230597   5.752   0.556   1.479
10214TIP3   OH230598   2.910   4.747   5.920
10214TIP3    H130599   2.858   4.681   5.875
10214TIP3    H230600   2.880   4.744   6.011
10215TIP3   OH230601   6.557   5.287   1.750
10215TIP3    H130602   6.652   5.292   1.762
10215TIP3    H230603   6.521   5.332   1.827
10216TIP3   OH230604   2.233   7.383   1.370
10216TIP3    H130605   2.287   7.437   1.427
10216TIP3    H230606   2.230   7.297   1.413
10217TIP3   OH230607   4.916   3.513   5.075
10217TIP3    H130608   4.962   3.574   5.132
10217TIP3    H230609   4.846   3.477   5.129
10218TIP3   OH230610   6.883   3.052   6.784
10218TIP3    H130611   6.947   3.122   6.774
10218TIP3    H230612   6.916   2.981   6.728
10219TIP3   OH230613   8.266   2.460   5.134
10219TIP3    H130614   8.354   2.496   5.128
10219TIP3    H230615   8.212   2.520   5.082
10220TIP3   OH230616   0.911   4.383   0.564
10220TIP3    H130617   0.865   4.467   0.556
10220TIP3    H230618   0.843   4.317   0.551
10221TIP3   OH230619   7.104   6.192   3.007
10221TIP3    H130620   7.177   6.144   3.046
10221TIP3    H230621   7.117   6.182   2.913
10222TIP3   OH230622   1.021   0.447   4.364
10222TIP3    H130623   1.031   0.542   4.368
10222TIP3    H230624   0.991   0.423   4.452
10223TIP3   OH230625   1.406   2.258   2.160
10223TIP3    H130626   1.482   2.316   2.156
10223TIP3    H230627   1.361   2.272   2.076
10224TIP3   OH230628   3.970   1.779   6.403
10224TIP3    H130629   3.973   1.686   6.424
10224TIP3    H230630   3.962   1.823   6.488
10225TIP3   OH230631   0.983   6.053   6.328
10225TIP3    H130632   0.922   6.013   6.265
10225TIP3    H230633   1.011   6.134   6.287
10226TIP3   OH230634   3.415   2.161   5.352
10226TIP3    H130635   3.460   2.242   5.326
10226TIP3    H230636   3.450   2.141   5.439
10227TIP3   OH230637   0.863   5.872   3.437
10227TIP3    H130638   0.937   5.865   3.377
10227TIP3    H230639   0.871   5.960   3.474
10228TIP3   OH230640   6.808   5.602   0.405
10228TIP3    H130641   6.824   5.530   0.345
10228TIP3    H230642   6.894   5.645   0.414
10229TIP3   OH230643   7.395   0.581   4.241
10229TIP3    H130644   7.423   0.494   4.270
10229TIP3    H230645   7.475   0.633   4.242
10230TIP3   OH230646   1.844   3.968   4.329
10230TIP3    H130647   1.857   4.007   4.242
10230TIP3    H230648   1.781   4.027   4.371
10231TIP3   OH230649   7.724   6.630   1.311
10231TIP3    H130650   7.797   6.569   1.314
10231TIP3    H230651   7.752   6.704   1.366
10232TIP3   OH230652   5.064   7.107   5.683
10232TIP3    H130653   5.152   7.084   5.713
10232TIP3    H230654   5.056   7.201   5.703
10233TIP3   OH230655   0.132   5.572   3.531
10233TIP3    H130656   0.071   5.600   3.599
10233TIP3    H230657   0.182   5.651   3.509
10234TIP3   OH230658   1.202   4.170   2.830
10234TIP3    H130659   1.230   4.094   2.882
10234TIP3    H230660   1.212   4.142   2.740
10235TIP3   OH230661   4.920   3.561   4.005
10235TIP3    H130662   4.842   3.507   4.000
10235TIP3    H230663   4.949   3.553   4.096
10236TIP3   OH230664   0.366   7.591   2.207
10236TIP3    H130665   0.418   7.650   2.262
10236TIP3    H230666   0.377   7.626   2.119
10237TIP3   OH230667   0.527   5.692   0.750
10237TIP3    H130668   0.540   5.617   0.692
10237TIP3    H230669   0.596   5.686   0.815
10238TIP3   OH230670   1.570   1.726   6.457
10238TIP3    H130671   1.576   1.712   6.362
10238TIP3    H230672   1.599   1.816   6.470
10239TIP3   OH230673   1.457   4.254   6.580
10239TIP3    H130674   1.450   4.252   6.676
10239TIP3    H230675   1.546   4.223   6.562
10240TIP3   OH230676   3.006   2.069   0.326
10240TIP3    H130677   2.913   2.091   0.327
10240TIP3    H230678   3.044   2.125   0.258
10241TIP3   OH230679   2.462   6.430   0.684
10241TIP3    H130680   2.395   6.381   0.636
10241TIP3    H230681   2.427   6.438   0.773
10242TIP3   OH230682   4.770   5.566   0.732
10242TIP3    H130683   4.677   5.580   0.750
10242TIP3    H230684   4.805   5.528   0.812
10243TIP3   OH230685   6.283   7.619   0.594
10243TIP3    H130686   6.304   7.526   0.595
10243TIP3    H230687   6.267   7.641   0.686
10244TIP3   OH230688   4.360   7.295   0.204
10244TIP3    H130689   4.306   7.351   0.260
10244TIP3    H230690   4.367   7.213   0.254
10245TIP3   OH230691   1.818   7.682   1.653
10245TIP3    H130692   1.726   7.678   1.626
10245TIP3    H230693   1.864   7.719   1.578
10246TIP3   OH230694   2.479   5.300   1.773
10246TIP3    H130695   2.415   5.283   1.842
10246TIP3    H230696   2.442   5.373   1.723
10247TIP3   OH230697   7.489   1.067   0.721
10247TIP3    H130698   7.463   1.157   0.706
10247TIP3    H230699   7.542   1.070   0.801
10248TIP3   OH230700   6.029   7.101   2.704
10248TIP3    H130701   6.107   7.078   2.655
10248TIP3    H230702   5.970   7.140   2.640
10249TIP3   OH230703   7.127   1.196   1.244
10249TIP3    H130704   7.093   1.280   1.213
10249TIP3    H230705   7.185   1.166   1.175
10250TIP3   OH230706   5.156   1.352   1.795
10250TIP3    H130707   5.215   1.425   1.778
10250TIP3    H230708   5.114   1.373   1.878
10251TIP3   OH230709   0.100   6.064   1.518
10251TIP3    H130710   0.171   6.117   1.484
10251TIP3    H230711   0.022   6.119   1.510
10252TIP3   OH230712   3.443   7.401   0.154
10252TIP3    H130713   3.404   7.471   0.102
10252TIP3    H230714   3.518   7.372   0.102
10253TIP3   OH230715   7.646   2.466   0.531
10253TIP3    H130716   7.672   2.432   0.445
10253TIP3    H230717   7.598   2.547   0.511
10254TIP3   OH230718   1.895   3.301   5.609
10254TIP3    H130719   1.901   3.254   5.526
10254TIP3    H230720   1.960   3.371   5.602
10255TIP3   OH230721   3.370   6.624   3.801
10255TIP3    H130722   3.331   6.541   3.774
10255TIP3    H230723   3.382   6.672   3.719
10256TIP3   OH230724   3.195   6.311   5.684
10256TIP3    H130725   3.194   6.399   5.721
10256TIP3    H230726   3.288   6.293   5.667
10257TIP3   OH230727   7.448   3.444   4.709
10257TIP3    H130728   7.490   3.487   4.634
10257TIP3    H230729   7.470   3.351   4.698
10258TIP3   OH230730   7.013   3.969   4.824
10258TIP3    H130731   7.032   4.052   4.780
10258TIP3    H230732   7.070   3.970   4.901
10259TIP3   OH230733   6.470   5.757   2.171
10259TIP3    H130734   6.520   5.775   2.091
10259TIP3    H230735   6.491   5.666   2.192
10260TIP3   OH230736   5.141   3.986   0.445
10260TIP3    H130737   5.141   4.072   0.403
10260TIP3    H230738   5.138   3.924   0.373
10261TIP3   OH230739   6.946   0.321   2.567
10261TIP3    H130740   7.003   0.311   2.643
10261TIP3    H230741   6.859   0.336   2.603
10262TIP3   OH230742   4.224   0.605   1.567
10262TIP3    H130743   4.225   0.568   1.656
10262TIP3    H230744   4.134   0.592   1.537
10263TIP3   OH230745   1.087   3.651   5.610
10263TIP3    H130746   1.144   3.716   5.568
10263TIP3    H230747   1.091   3.576   5.551
10264TIP3   OH230748   0.788   2.045   2.784
10264TIP3    H130749   0.808   2.094   2.864
10264TIP3    H230750   0.808   2.106   2.713
10265TIP3   OH230751   5.390   1.524   2.908
10265TIP3    H130752   5.480   1.548   2.932
10265TIP3    H230753   5.335   1.576   2.967
10266TIP3   OH230754   4.220   5.841   4.477
10266TIP3    H130755   4.228   5.748   4.454
10266TIP3    H230756   4.264   5.887   4.406
10267TIP3   OH230757   0.766   2.994   3.348
10267TIP3    H130758   0.851   3.035   3.362
10267TIP3    H230759   0.771   2.910   3.395
10268TIP3   OH230760   5.157   0.547   0.760
10268TIP3    H130761   5.170   0.630   0.806
10268TIP3    H230762   5.215   0.486   0.805
10269TIP3   OH230763   7.401   6.487   0.668
10269TIP3    H130764   7.370   6.528   0.749
10269TIP3    H230765   7.481   6.441   0.694
10270TIP3   OH230766   5.894   6.501   2.197
10270TIP3    H130767   5.832   6.429   2.195
10270TIP3    H230768   5.980   6.459   2.194
10271TIP3   OH230769   5.355   2.552   4.924
10271TIP3    H130770   5.373   2.458   4.929
10271TIP3    H230771   5.260   2.558   4.938
10272TIP3   OH230772   6.536   4.615   0.588
10272TIP3    H130773   6.615   4.567   0.613
10272TIP3    H230774   6.497   4.642   0.671
10273TIP3   OH230775   7.859   6.679   2.122
10273TIP3    H130776   7.795   6.674   2.194
10273TIP3    H230777   7.815   6.637   2.048
10274TIP3   OH230778   7.453   2.518   5.737
10274TIP3    H130779   7.415   2.440   5.777
10274TIP3    H230780   7.493   2.486   5.656
10275TIP3   OH230781   3.479   0.934   3.205
10275TIP3    H130782   3.565   0.897   3.184
10275TIP3    H230783   3.417   0.881   3.155
10276TIP3   OH230784   8.111   2.616   6.647
10276TIP3    H130785   8.119   2.521   6.653
10276TIP3    H230786   8.024   2.630   6.610
10277TIP3   OH230787   1.031   1.314   1.150
10277TIP3    H130788   0.972   1.239   1.140
10277TIP3    H230789   1.038   1.327   1.245
10278TIP3   OH230790   3.495   3.151   1.925
10278TIP3    H130791   3.445   3.168   1.846
10278TIP3    H230792   3.433   3.166   1.996
10279TIP3   OH230793   4.929   6.704   6.638
10279TIP3    H130794   4.848   6.694   6.588
10279TIP3    H230795   4.998   6.675   6.578
10280TIP3   OH230796   8.268   6.211   4.965
10280TIP3    H130797   8.334   6.225   5.032
10280TIP3    H230798   8.253   6.117   4.964
10281TIP3   OH230799   7.369   3.680   1.404
10281TIP3    H130800   7.317   3.610   1.364
10281TIP3    H230801   7.457   3.644   1.409
10282TIP3   OH230802   0.067   2.760   4.611
10282TIP3    H130803   0.044   2.776   4.702
10282TIP3    H230804   0.162   2.776   4.607
10283TIP3   OH230805   6.825   5.508   0.803
10283TIP3    H130806   6.753   5.525   0.741
10283TIP3    H230807   6.811   5.572   0.873
10284TIP3   OH230808   0.641   0.942   5.712
10284TIP3    H130809   0.724   0.988   5.701
10284TIP3    H230810   0.604   0.938   5.624
10285TIP3   OH230811   1.233   5.965   1.678
10285TIP3    H130812   1.144   5.981   1.645
10285TIP3    H230813   1.283   5.940   1.600
10286TIP3   OH230814   5.500   5.530   4.291
10286TIP3    H130815   5.496   5.447   4.244
10286TIP3    H230816   5.508   5.596   4.222
10287TIP3   OH230817   5.661   4.865   2.458
10287TIP3    H130818   5.716   4.890   2.384
10287TIP3    H230819   5.712   4.890   2.535
10288TIP3   OH230820   6.560   5.019   3.342
10288TIP3    H130821   6.598   4.934   3.319
10288TIP3    H230822   6.556   5.067   3.260
10289TIP3   OH230823   3.201   1.537   0.061
10289TIP3    H130824   3.163   1.452   0.038
10289TIP3    H230825   3.138   1.601   0.026
10290TIP3   OH230826   5.368   5.141   3.872
10290TIP3    H130827   5.312   5.152   3.949
10290TIP3    H230828   5.403   5.053   3.880
10291TIP3   OH230829   4.693   3.955   4.313
10291TIP3    H130830   4.625   3.925   4.253
10291TIP3    H230831   4.667   4.043   4.337
10292TIP3   OH230832   1.806   4.288   5.425
10292TIP3    H130833   1.730   4.323   5.379
10292TIP3    H230834   1.841   4.363   5.474
10293TIP3   OH230835   0.815   5.489   1.643
10293TIP3    H130836   0.746   5.467   1.706
10293TIP3    H230837   0.894   5.449   1.679
10294TIP3   OH230838   7.399   6.386   5.583
10294TIP3    H130839   7.486   6.348   5.588
10294TIP3    H230840   7.368   6.387   5.674
10295TIP3   OH230841   0.763   1.140   4.657
10295TIP3    H130842   0.697   1.122   4.590
10295TIP3    H230843   0.736   1.223   4.696
10296TIP3   OH230844   3.211   7.684   6.452
10296TIP3    H130845   3.261   7.661   6.530
10296TIP3    H230846   3.191   7.777   6.462
10297TIP3   OH230847   5.374   0.763   1.792
10297TIP3    H130848   5.308   0.787   1.858
10297TIP3    H230849   5.326   0.714   1.726
10298TIP3   OH230850   7.625   3.130   3.036
10298TIP3    H130851   7.613   3.077   2.957
10298TIP3    H230852   7.538   3.162   3.057
10299TIP3   OH230853   2.820   3.942   2.018
10299TIP3    H130854   2.866   3.884   1.957
10299TIP3    H230855   2.882   4.013   2.036
10300TIP3   OH230856   0.845   1.109   4.294
10300TIP3    H130857   0.869   1.198   4.268
10300TIP3    H230858   0.765   1.119   4.345
10301TIP3   OH230859   0.156   2.991   4.943
10301TIP3    H130860   0.092   3.062   4.938
10301TIP3    H230861   0.105   2.911   4.932
10302TIP3   OH230862   4.097   6.080   3.610
10302TIP3    H130863   4.131   5.997   3.576
10302TIP3    H230864   4.031   6.054   3.675
10303TIP3   OH230865   6.281   1.081   0.553
10303TIP3    H130866   6.275   1.171   0.519
10303TIP3    H230867   6.373   1.059   0.546
10304TIP3   OH230868   2.420   7.314   3.449
10304TIP3    H130869   2.514   7.319   3.465
10304TIP3    H230870   2.410   7.242   3.387
10305TIP3   OH230871   2.990   2.221   5.627
10305TIP3    H130872   2.961   2.153   5.566
10305TIP3    H230873   3.057   2.269   5.578
10306TIP3   OH230874   1.272   5.623   2.951
10306TIP3    H130875   1.300   5.602   2.862
10306TIP3    H230876   1.232   5.710   2.944
10307TIP3   OH230877   1.975   2.767   2.574
10307TIP3    H130878   2.053   2.792   2.623
10307TIP3    H230879   1.996   2.786   2.483
10308TIP3   OH230880   5.559   3.068   4.253
10308TIP3    H130881   5.588   3.074   4.162
10308TIP3    H230882   5.639   3.084   4.304
10309TIP3   OH230883   3.996   7.351   6.041
10309TIP3    H130884   3.940   7.295   5.988
10309TIP3    H230885   3.957   7.438   6.034
10310TIP3   OH230886   4.997   6.927   0.593
10310TIP3    H130887   5.080   6.901   0.553
10310TIP3    H230888   4.945   6.961   0.520
10311TIP3   OH230889   2.385   6.367   4.707
10311TIP3    H130890   2.396   6.442   4.648
10311TIP3    H230891   2.463   6.370   4.763
10312TIP3   OH230892   7.101   1.674   0.954
10312TIP3    H130893   7.031   1.736   0.931
10312TIP3    H230894   7.109   1.682   1.049
10313TIP3   OH230895   0.985   5.673   6.185
10313TIP3    H130896   0.896   5.664   6.152
10313TIP3    H230897   0.995   5.766   6.204
10314TIP3   OH230898   5.009   0.669   0.258
10314TIP3    H130899   5.086   0.669   0.201
10314TIP3    H230900   5.046   0.664   0.347
10315TIP3   OH230901   4.920   0.807   5.794
10315TIP3    H130902   5.009   0.780   5.770
10315TIP3    H230903   4.895   0.869   5.725
10316TIP3   OH230904   0.456   1.842   0.234
10316TIP3    H130905   0.367   1.815   0.259
10316TIP3    H230906   0.475   1.790   0.155
10317TIP3   OH230907   4.641   1.012   6.332
10317TIP3    H130908   4.717   1.048   6.286
10317TIP3    H230909   4.660   1.024   6.425
10318TIP3   OH230910   0.932   1.280   6.632
10318TIP3    H130911   0.919   1.185   6.633
10318TIP3    H230912   0.921   1.306   6.723
10319TIP3   OH230913   1.716   6.170   5.859
10319TIP3    H130914   1.765   6.249   5.885
10319TIP3    H230915   1.770   6.097   5.889
10320TIP3   OH230916   4.698   5.213   2.467
10320TIP3    H130917   4.785   5.236   2.501
10320TIP3    H230918   4.639   5.229   2.541
10321TIP3   OH230919   7.494   5.718   2.486
10321TIP3    H130920   7.514   5.666   2.408
10321TIP3    H230921   7.576   5.720   2.535
10322TIP3   OH230922   1.379   1.598   3.901
10322TIP3    H130923   1.406   1.589   3.993
10322TIP3    H230924   1.326   1.520   3.884
10323TIP3   OH230925   4.876   4.791   3.409
10323TIP3    H130926   4.911   4.880   3.419
10323TIP3    H230927   4.947   4.734   3.439
10324TIP3   OH230928   6.650   2.130   4.013
10324TIP3    H130929   6.585   2.092   3.954
10324TIP3    H230930   6.598   2.184   4.073
10325TIP3   OH230931   2.693   7.565   5.186
10325TIP3    H130932   2.673   7.471   5.183
10325TIP3    H230933   2.670   7.592   5.275
10326TIP3   OH230934   3.789   4.984   5.564
10326TIP3    H130935   3.732   5.048   5.605
10326TIP3    H230936   3.730   4.912   5.539
10327TIP3   OH230937   6.444   0.504   1.575
10327TIP3    H130938   6.385   0.568   1.535
10327TIP3    H230939   6.532   0.535   1.553
10328TIP3   OH230940   6.592   0.249   4.577
10328TIP3    H130941   6.560   0.339   4.581
10328TIP3    H230942   6.513   0.195   4.570
10329TIP3   OH230943   8.164   5.695   6.734
10329TIP3    H130944   8.093   5.688   6.798
10329TIP3    H230945   8.231   5.634   6.765
10330TIP3   OH230946  -0.012   7.284   5.132
10330TIP3    H130947   0.078   7.310   5.112
10330TIP3    H230948  -0.024   7.203   5.082
10331TIP3   OH230949   6.196   4.665   6.264
10331TIP3    H130950   6.266   4.645   6.201
10331TIP3    H230951   6.196   4.590   6.323
10332TIP3   OH230952   3.691   0.891   4.255
10332TIP3    H130953   3.677   0.806   4.297
10332TIP3    H230954   3.761   0.932   4.306
10333TIP3   OH230955   2.187   5.250   1.855
10333TIP3    H130956   2.231   5.245   1.940
10333TIP3    H230957   2.138   5.332   1.858
10334TIP3   OH230958   5.433   4.523   2.616
10334TIP3    H130959   5.478   4.542   2.534
10334TIP3    H230960   5.501   4.484   2.672
10335TIP3   OH230961   1.687   4.030   3.936
10335TIP3    H130962   1.691   4.059   4.027
10335TIP3    H230963   1.766   4.066   3.896
10336TIP3   OH230964   2.911   0.609   4.245
10336TIP3    H130965   2.875   0.537   4.194
10336TIP3    H230966   2.885   0.688   4.197
10337TIP3   OH230967   2.753   6.271   6.137
10337TIP3    H130968   2.814   6.317   6.194
10337TIP3    H230969   2.678   6.330   6.129
10338TIP3   OH230970   0.784  -0.001   6.269
10338TIP3    H130971   0.852  -0.033   6.210
10338TIP3    H230972   0.765   0.088   6.238
10339TIP3   OH230973   0.419   3.599   2.382
10339TIP3    H130974   0.384   3.587   2.293
10339TIP3    H230975   0.372   3.534   2.435
10340TIP3   OH230976   6.079   7.510   3.198
10340TIP3    H130977   6.024   7.450   3.248
10340TIP3    H230978   6.063   7.596   3.237
10341TIP3   OH230979   0.845   3.327   1.437
10341TIP3    H130980   0.843   3.232   1.427
10341TIP3    H230981   0.936   3.347   1.457
10342TIP3   OH230982   6.524   3.166   5.701
10342TIP3    H130983   6.503   3.082   5.740
10342TIP3    H230984   6.609   3.152   5.659
10343TIP3   OH230985   2.821   4.151   2.300
10343TIP3    H130986   2.737   4.131   2.341
10343TIP3    H230987   2.882   4.089   2.340
10344TIP3   OH230988   5.148   3.475   6.328
10344TIP3    H130989   5.213   3.544   6.319
10344TIP3    H230990   5.126   3.450   6.238
10345TIP3   OH230991   5.600   3.636   4.776
10345TIP3    H130992   5.561   3.670   4.857
10345TIP3    H230993   5.693   3.628   4.796
10346TIP3   OH230994   1.315   4.976   0.353
10346TIP3    H130995   1.295   5.039   0.283
10346TIP3    H230996   1.402   4.942   0.331
10347TIP3   OH230997   5.274   4.883   2.897
10347TIP3    H130998   5.245   4.810   2.844
10347TIP3    H230999   5.329   4.936   2.839
10348TIP3   OH231000   0.091   1.081   0.269
10348TIP3    H131001   0.055   1.166   0.245
10348TIP3    H231002   0.026   1.017   0.240
10349TIP3   OH231003   2.484   4.130   6.201
10349TIP3    H131004   2.437   4.136   6.118
10349TIP3    H231005   2.576   4.126   6.177
10350TIP3   OH231006   5.466   4.874   1.563
10350TIP3    H131007   5.441   4.953   1.514
10350TIP3    H231008   5.527   4.828   1.505
10351TIP3   OH231009   4.562   1.001   1.846
10351TIP3    H131010   4.613   0.945   1.787
10351TIP3    H231011   4.628   1.046   1.899
10352TIP3   OH231012   5.829   6.528   1.247
10352TIP3    H131013   5.741   6.521   1.284
10352TIP3    H231014   5.855   6.618   1.263
10353TIP3   OH231015   5.929   3.699   5.965
10353TIP3    H131016   5.919   3.640   6.040
10353TIP3    H231017   5.945   3.785   6.005
10354TIP3   OH231018   3.563   2.248   1.273
10354TIP3    H131019   3.653   2.248   1.306
10354TIP3    H231020   3.568   2.200   1.190
10355TIP3   OH231021   4.671   7.542   3.085
10355TIP3    H131022   4.673   7.581   2.997
10355TIP3    H231023   4.764   7.537   3.110
10356TIP3   OH231024   0.022   1.957   3.787
10356TIP3    H131025   0.105   2.005   3.780
10356TIP3    H231026  -0.040   2.010   3.737
10357TIP3   OH231027   7.509   1.785   4.414
10357TIP3    H131028   7.431   1.831   4.445
10357TIP3    H231029   7.565   1.854   4.378
10358TIP3   OH231030   2.491   1.665   3.868
10358TIP3    H131031   2.585   1.654   3.881
10358TIP3    H231032   2.460   1.579   3.839
10359TIP3   OH231033   6.744   3.775   5.784
10359TIP3    H131034   6.820   3.776   5.726
10359TIP3    H231035   6.726   3.683   5.800
10360TIP3   OH231036   3.978   3.418   6.440
10360TIP3    H131037   3.992   3.329   6.410
10360TIP3    H231038   4.052   3.437   6.498
10361TIP3   OH231039   3.755   1.669   6.673
10361TIP3    H131040   3.787   1.760   6.670
10361TIP3    H231041   3.732   1.655   6.765
10362TIP3   OH231042   1.518   6.880   1.171
10362TIP3    H131043   1.485   6.940   1.104
10362TIP3    H231044   1.613   6.877   1.156
10363TIP3   OH231045   2.906   4.830   0.967
10363TIP3    H131046   2.931   4.902   1.024
10363TIP3    H231047   2.959   4.756   0.997
10364TIP3   OH231048   5.192   2.558   2.553
10364TIP3    H131049   5.279   2.573   2.517
10364TIP3    H231050   5.206   2.500   2.627
10365TIP3   OH231051   2.156   6.644   3.828
10365TIP3    H131052   2.195   6.714   3.881
10365TIP3    H231053   2.133   6.686   3.746
10366TIP3   OH231054   3.052   6.311   3.436
10366TIP3    H131055   2.977   6.314   3.495
10366TIP3    H231056   3.046   6.225   3.394
10367TIP3   OH231057   3.933   5.761   5.072
10367TIP3    H131058   3.845   5.727   5.060
10367TIP3    H231059   3.979   5.693   5.122
10368TIP3   OH231060   3.893   3.281   4.918
10368TIP3    H131061   3.871   3.196   4.956
10368TIP3    H231062   3.836   3.343   4.962
10369TIP3   OH231063   3.891   1.823   3.804
10369TIP3    H131064   3.865   1.747   3.857
10369TIP3    H231065   3.856   1.898   3.851
10370TIP3   OH231066   2.350   7.421   2.459
10370TIP3    H131067   2.302   7.492   2.418
10370TIP3    H231068   2.284   7.374   2.511
10371TIP3   OH231069   6.739   5.281   6.598
10371TIP3    H131070   6.794   5.333   6.538
10371TIP3    H231071   6.733   5.195   6.556
10372TIP3   OH231072   7.367   6.182   4.758
10372TIP3    H131073   7.427   6.204   4.829
10372TIP3    H231074   7.369   6.086   4.753
10373TIP3   OH231075   1.772   1.460   3.833
10373TIP3    H131076   1.774   1.382   3.778
10373TIP3    H231077   1.727   1.526   3.779
10374TIP3   OH231078   3.035   0.789   0.639
10374TIP3    H131079   3.128   0.811   0.652
10374TIP3    H231080   2.990   0.830   0.713
10375TIP3   OH231081   4.573   2.674   4.643
10375TIP3    H131082   4.540   2.762   4.626
10375TIP3    H231083   4.511   2.635   4.704
10376TIP3   OH231084   4.771   0.767   4.183
10376TIP3    H131085   4.756   0.848   4.135
10376TIP3    H231086   4.865   0.751   4.175
10377TIP3   OH231087   4.782   2.009   5.460
10377TIP3    H131088   4.870   1.991   5.494
10377TIP3    H231089   4.797   2.039   5.371
10378TIP3   OH231090   1.670   1.261   3.272
10378TIP3    H131091   1.640   1.237   3.359
10378TIP3    H231092   1.672   1.179   3.223
10379TIP3   OH231093   5.876   1.854   2.463
10379TIP3    H131094   5.959   1.895   2.440
10379TIP3    H231095   5.899   1.786   2.526
10380TIP3   OH231096   0.840   1.194   3.725
10380TIP3    H131097   0.869   1.268   3.779
10380TIP3    H231098   0.791   1.138   3.786
10381TIP3   OH231099   1.818   2.975   4.914
10381TIP3    H131100   1.911   2.960   4.902
10381TIP3    H231101   1.777   2.942   4.834
10382TIP3   OH231102   0.981   5.934   4.429
10382TIP3    H131103   0.957   5.888   4.348
10382TIP3    H231104   1.076   5.927   4.433
10383TIP3   OH231105   0.890   6.094   4.626
10383TIP3    H131106   0.909   6.019   4.568
10383TIP3    H231107   0.826   6.060   4.689
10384TIP3   OH231108   6.961   0.635   0.198
10384TIP3    H131109   6.904   0.574   0.152
10384TIP3    H231110   6.904   0.710   0.219
10385TIP3   OH231111   7.646   6.354   0.046
10385TIP3    H131112   7.619   6.438   0.081
10385TIP3    H231113   7.634   6.293   0.118
10386TIP3   OH231114   8.103   6.278   0.747
10386TIP3    H131115   8.116   6.331   0.668
10386TIP3    H231116   8.057   6.201   0.715
10387TIP3   OH231117   4.855   6.987   1.126
10387TIP3    H131118   4.856   6.903   1.082
10387TIP3    H231119   4.826   7.049   1.060
10388TIP3   OH231120   5.068   5.930   5.674
10388TIP3    H131121   5.064   5.986   5.752
10388TIP3    H231122   4.982   5.887   5.671
10389TIP3   OH231123   0.224   2.110   3.653
10389TIP3    H131124   0.181   2.188   3.689
10389TIP3    H231125   0.301   2.097   3.708
10390TIP3   OH231126   2.482   1.725   1.366
10390TIP3    H131127   2.492   1.630   1.379
10390TIP3    H231128   2.504   1.764   1.450
10391TIP3   OH231129   4.869   2.854   3.527
10391TIP3    H131130   4.838   2.812   3.447
10391TIP3    H231131   4.898   2.782   3.583
10392TIP3   OH231132   2.319   0.227   1.921
10392TIP3    H131133   2.344   0.267   1.837
10392TIP3    H231134   2.397   0.237   1.975
10393TIP3   OH231135   2.701   7.648   6.329
10393TIP3    H131136   2.743   7.732   6.347
10393TIP3    H231137   2.773   7.591   6.301
10394TIP3   OH231138   8.215   2.746   3.140
10394TIP3    H131139   8.185   2.830   3.104
10394TIP3    H231140   8.267   2.770   3.216
10395TIP3   OH231141   7.124   6.003   2.315
10395TIP3    H131142   7.042   5.992   2.364
10395TIP3    H231143   7.109   6.079   2.260
10396TIP3   OH231144   5.341   6.637   6.447
10396TIP3    H131145   5.252   6.601   6.456
10396TIP3    H231146   5.328   6.732   6.446
10397TIP3   OH231147   1.076   5.812   5.291
10397TIP3    H131148   1.120   5.766   5.363
10397TIP3    H231149   1.115   5.900   5.292
10398TIP3   OH231150   2.312   4.303   2.531
10398TIP3    H131151   2.279   4.378   2.483
10398TIP3    H231152   2.242   4.281   2.592
10399TIP3   OH231153   1.023   3.107   5.425
10399TIP3    H131154   0.930   3.115   5.447
10399TIP3    H231155   1.065   3.084   5.508
10400TIP3   OH231156   6.874   6.803   1.077
10400TIP3    H131157   6.859   6.741   1.006
10400TIP3    H231158   6.811   6.780   1.144
10401TIP3   OH231159   6.740   5.533   6.777
10401TIP3    H131160   6.659   5.514   6.729
10401TIP3    H231161   6.727   5.620   6.814
10402TIP3   OH231162   0.410   7.346   6.739
10402TIP3    H131163   0.418   7.411   6.670
10402TIP3    H231164   0.327   7.302   6.721
10403TIP3   OH231165   7.491   7.096   2.625
10403TIP3    H131166   7.452   7.151   2.557
10403TIP3    H231167   7.419   7.076   2.685
10404TIP3   OH231168   3.165   0.635   0.036
10404TIP3    H131169   3.228   0.586  -0.016
10404TIP3    H231170   3.214   0.663   0.113
10405TIP3   OH231171   5.392   6.288   1.348
10405TIP3    H131172   5.400   6.292   1.252
10405TIP3    H231173   5.373   6.196   1.366
10406TIP3   OH231174   7.400   6.232   1.928
10406TIP3    H131175   7.341   6.294   1.885
10406TIP3    H231176   7.364   6.146   1.906
10407TIP3   OH231177   5.763   7.459   6.400
10407TIP3    H131178   5.833   7.406   6.439
10407TIP3    H231179   5.688   7.446   6.457
10408TIP3   OH231180   0.193   3.761   4.968
10408TIP3    H131181   0.262   3.777   4.904
10408TIP3    H231182   0.126   3.827   4.948
10409TIP3   OH231183   7.748   1.609   6.180
10409TIP3    H131184   7.752   1.610   6.275
10409TIP3    H231185   7.683   1.541   6.159
10410TIP3   OH231186   7.905   7.839   0.456
10410TIP3    H131187   7.975   7.810   0.514
10410TIP3    H231188   7.923   7.795   0.373
10411TIP3   OH231189   4.072   4.812   5.798
10411TIP3    H131190   4.149   4.836   5.747
10411TIP3    H231191   4.075   4.869   5.875
10412TIP3   OH231192   4.258   7.534   4.719
10412TIP3    H131193   4.344   7.493   4.724
10412TIP3    H231194   4.276   7.625   4.694
10413TIP3   OH231195   3.363   1.498   4.067
10413TIP3    H131196   3.288   1.449   4.034
10413TIP3    H231197   3.325   1.567   4.121
10414TIP3   OH231198   3.843   3.092   5.126
10414TIP3    H131199   3.877   3.087   5.215
10414TIP3    H231200   3.904   3.039   5.074
10415TIP3   OH231201   1.728   3.463   4.134
10415TIP3    H131202   1.699   3.445   4.045
10415TIP3    H231203   1.808   3.412   4.145
10416TIP3   OH231204   4.394   1.718   0.039
10416TIP3    H131205   4.389   1.676   0.125
10416TIP3    H231206   4.338   1.665  -0.017
10417TIP3   OH231207   0.081   6.523   1.855
10417TIP3    H131208   0.107   6.434   1.830
10417TIP3    H231209   0.009   6.544   1.796
10418TIP3   OH231210   1.983   5.429   4.974
10418TIP3    H131211   1.966   5.426   4.880
10418TIP3    H231212   2.015   5.341   4.995
10419TIP3   OH231213   8.086   0.372   6.738
10419TIP3    H131214   8.067   0.455   6.781
10419TIP3    H231215   8.000   0.331   6.727
10420TIP3   OH231216   0.825   3.974   6.501
10420TIP3    H131217   0.769   3.957   6.424
10420TIP3    H231218   0.909   3.999   6.464
10421TIP3   OH231219   5.243   3.904   2.454
10421TIP3    H131220   5.291   3.890   2.372
10421TIP3    H231221   5.299   3.866   2.521
10422TIP3   OH231222   7.721   3.984   4.265
10422TIP3    H131223   7.701   4.072   4.232
10422TIP3    H231224   7.751   3.999   4.355
10423TIP3   OH231225   6.294   4.954   0.809
10423TIP3    H131226   6.367   4.948   0.870
10423TIP3    H231227   6.284   4.865   0.775
10424TIP3   OH231228   6.493   5.982   6.629
10424TIP3    H131229   6.577   6.028   6.627
10424TIP3    H231230   6.427   6.052   6.622
10425TIP3   OH231231   1.237   4.681   3.653
10425TIP3    H131232   1.237   4.615   3.723
10425TIP3    H231233   1.148   4.681   3.620
10426TIP3   OH231234   3.756   0.666   2.955
10426TIP3    H131235   3.711   0.582   2.954
10426TIP3    H231236   3.840   0.648   2.997
10427TIP3   OH231237   1.762   6.300   1.594
10427TIP3    H131238   1.714   6.356   1.655
10427TIP3    H231239   1.753   6.344   1.509
10428TIP3   OH231240   0.170   5.544   0.435
10428TIP3    H131241   0.173   5.450   0.418
10428TIP3    H231242   0.254   5.565   0.474
10429TIP3   OH231243   4.844   4.080   2.816
10429TIP3    H131244   4.806   4.158   2.857
10429TIP3    H231245   4.856   4.019   2.888
10430TIP3   OH231246   1.121   0.700   3.996
10430TIP3    H131247   1.172   0.647   3.935
10430TIP3    H231248   1.069   0.637   4.045
10431TIP3   OH231249   0.267   0.862   0.111
10431TIP3    H131250   0.334   0.873   0.178
10431TIP3    H231251   0.203   0.931   0.129
10432TIP3   OH231252   3.326   4.138   2.174
10432TIP3    H131253   3.326   4.194   2.252
10432TIP3    H231254   3.304   4.051   2.207
10433TIP3   OH231255   6.413   1.029   4.602
10433TIP3    H131256   6.353   1.102   4.615
10433TIP3    H231257   6.389   0.966   4.670
10434TIP3   OH231258   1.998   2.813   5.193
10434TIP3    H131259   2.029   2.725   5.172
10434TIP3    H231260   1.903   2.809   5.181
10435TIP3   OH231261   5.465   2.401   2.977
10435TIP3    H131262   5.405   2.461   3.021
10435TIP3    H231263   5.520   2.366   3.047
10436TIP3   OH231264   4.146   2.000   5.669
10436TIP3    H131265   4.164   2.062   5.740
10436TIP3    H231266   4.194   1.921   5.694
10437TIP3   OH231267   2.188   1.225   1.170
10437TIP3    H131268   2.259   1.287   1.153
10437TIP3    H231269   2.184   1.172   1.090
10438TIP3   OH231270   7.149   6.313   1.516
10438TIP3    H131271   7.162   6.273   1.430
10438TIP3    H231272   7.237   6.332   1.548
10439TIP3   OH231273   7.464   2.641   4.078
10439TIP3    H131274   7.505   2.708   4.132
10439TIP3    H231275   7.517   2.640   3.998
10440TIP3   OH231276   8.170   3.681   2.493
10440TIP3    H131277   8.260   3.706   2.472
10440TIP3    H231278   8.171   3.586   2.494
10441TIP3   OH231279   0.147   1.191   6.370
10441TIP3    H131280   0.207   1.208   6.297
10441TIP3    H231281   0.134   1.096   6.369
10442TIP3   OH231282   3.096   0.768   1.333
10442TIP3    H131283   3.125   0.825   1.405
10442TIP3    H231284   3.009   0.800   1.311
10443TIP3   OH231285   7.729   0.908   5.876
10443TIP3    H131286   7.790   0.940   5.942
10443TIP3    H231287   7.746   0.963   5.799
10444TIP3   OH231288   3.952   1.982   4.211
10444TIP3    H131289   3.886   1.928   4.253
10444TIP3    H231290   4.024   1.986   4.273
10445TIP3   OH231291   3.035   2.202   5.892
10445TIP3    H131292   3.113   2.257   5.886
10445TIP3    H231293   3.008   2.188   5.801
10446TIP3   OH231294   5.329   2.557   2.199
10446TIP3    H131295   5.338   2.475   2.249
10446TIP3    H231296   5.398   2.613   2.233
10447TIP3   OH231297   1.228   1.640   3.299
10447TIP3    H131298   1.219   1.548   3.325
10447TIP3    H231299   1.318   1.647   3.268
10448TIP3   OH231300   6.778   3.142   2.541
10448TIP3    H131301   6.874   3.142   2.542
10448TIP3    H231302   6.754   3.225   2.499
10449TIP3   OH231303   6.414   2.183   4.624
10449TIP3    H131304   6.451   2.173   4.711
10449TIP3    H231305   6.482   2.151   4.565
10450TIP3   OH231306   3.904   2.062   3.964
10450TIP3    H131307   3.848   2.140   3.959
10450TIP3    H231308   3.932   2.059   4.056
10451TIP3   OH231309   5.538   7.816   2.860
10451TIP3    H131310   5.534   7.771   2.945
10451TIP3    H231311   5.631   7.815   2.837
10452TIP3   OH231312   3.420   3.740   1.702
10452TIP3    H131313   3.450   3.821   1.745
10452TIP3    H231314   3.483   3.674   1.729
10453TIP3   OH231315   6.329   7.654   2.951
10453TIP3    H131316   6.372   7.569   2.946
10453TIP3    H231317   6.396   7.717   2.924
10454TIP3   OH231318   8.067   0.310   0.040
10454TIP3    H131319   8.103   0.324   0.127
10454TIP3    H231320   8.143   0.313  -0.018
10455TIP3   OH231321   0.316   2.716   6.024
10455TIP3    H131322   0.347   2.632   5.990
10455TIP3    H231323   0.358   2.724   6.109
10456TIP3   OH231324   0.319   4.425   5.406
10456TIP3    H131325   0.400   4.379   5.383
10456TIP3    H231326   0.249   4.374   5.365
10457TIP3   OH231327   4.120   3.170   6.341
10457TIP3    H131328   4.159   3.108   6.279
10457TIP3    H231329   4.163   3.150   6.424
10458TIP3   OH231330   3.949   2.164   4.519
10458TIP3    H131331   4.028   2.132   4.476
10458TIP3    H231332   3.961   2.143   4.611
10459TIP3   OH231333   4.034   3.218   6.033
10459TIP3    H131334   4.048   3.142   5.976
10459TIP3    H231335   3.939   3.227   6.037
10460TIP3   OH231336   0.307   2.077   4.766
10460TIP3    H131337   0.333   2.053   4.855
10460TIP3    H231338   0.221   2.118   4.776
10461TIP3   OH231339   0.570   3.163   4.414
10461TIP3    H131340   0.568   3.218   4.336
10461TIP3    H231341   0.488   3.114   4.411
10462TIP3   OH231342   1.788   7.142   1.467
10462TIP3    H131343   1.696   7.155   1.447
10462TIP3    H231344   1.813   7.064   1.418
10463TIP3   OH231345   7.039   0.956   6.063
10463TIP3    H131346   7.082   1.042   6.071
10463TIP3    H231347   6.975   0.954   6.135
10464TIP3   OH231348   7.044   6.482   6.617
10464TIP3    H131349   6.949   6.497   6.620
10464TIP3    H231350   7.082   6.567   6.636
10465TIP3   OH231351   4.546   2.497   2.875
10465TIP3    H131352   4.572   2.489   2.966
10465TIP3    H231353   4.628   2.513   2.828
10466TIP3   OH231354   4.906   1.871   3.807
10466TIP3    H131355   5.000   1.868   3.786
10466TIP3    H231356   4.892   1.794   3.862
10467TIP3   OH231357   4.965   4.872   1.247
10467TIP3    H131358   5.026   4.937   1.280
10467TIP3    H231359   5.021   4.798   1.223
10468TIP3   OH231360   5.372   1.264   4.619
10468TIP3    H131361   5.378   1.329   4.688
10468TIP3    H231362   5.327   1.190   4.660
10469TIP3   OH231363   0.860   1.269   5.282
10469TIP3    H131364   0.886   1.179   5.261
10469TIP3    H231365   0.831   1.265   5.373
10470TIP3   OH231366   8.081   4.399   2.378
10470TIP3    H131367   8.114   4.463   2.441
10470TIP3    H231368   8.148   4.393   2.311
10471TIP3   OH231369   0.624   3.753   2.442
10471TIP3    H131370   0.672   3.729   2.363
10471TIP3    H231371   0.541   3.706   2.434
10472TIP3   OH231372   4.308   1.678   3.376
10472TIP3    H131373   4.365   1.708   3.305
10472TIP3    H231374   4.258   1.606   3.337
10473TIP3   OH231375   3.285   4.013   0.871
10473TIP3    H131376   3.301   3.941   0.810
10473TIP3    H231377   3.298   3.975   0.958
10474TIP3   OH231378   5.434   2.758   6.332
10474TIP3    H131379   5.490   2.789   6.261
10474TIP3    H231380   5.367   2.825   6.341
10475TIP3   OH231381   3.196   5.309   6.328
10475TIP3    H131382   3.197   5.275   6.417
10475TIP3    H231383   3.155   5.395   6.335
10476TIP3   OH231384   3.013   6.711   4.878
10476TIP3    H131385   3.014   6.644   4.810
10476TIP3    H231386   3.034   6.792   4.832
10477TIP3   OH231387   1.561   5.837   4.602
10477TIP3    H131388   1.625   5.886   4.653
10477TIP3    H231389   1.519   5.903   4.546
10478TIP3   OH231390   7.432   2.674   3.641
10478TIP3    H131391   7.484   2.625   3.577
10478TIP3    H231392   7.491   2.685   3.716
10479TIP3   OH231393   7.770   0.026   3.601
10479TIP3    H131394   7.722   0.099   3.640
10479TIP3    H231395   7.729  -0.053   3.637
10480TIP3   OH231396   6.501   6.266   6.122
10480TIP3    H131397   6.452   6.298   6.197
10480TIP3    H231398   6.518   6.344   6.069
10481TIP3   OH231399   0.107   5.537   6.567
10481TIP3    H131400   0.014   5.527   6.549
10481TIP3    H231401   0.118   5.629   6.590
10482TIP3   OH231402   3.732   4.542   6.369
10482TIP3    H131403   3.757   4.605   6.301
10482TIP3    H231404   3.744   4.456   6.328
10483TIP3   OH231405   6.401   4.282   6.741
10483TIP3    H131406   6.414   4.338   6.664
10483TIP3    H231407   6.328   4.324   6.788
10484TIP3   OH231408   6.598   7.833   1.983
10484TIP3    H131409   6.649   7.781   1.920
10484TIP3    H231410   6.508   7.826   1.951
10485TIP3   OH231411   7.816   0.634   3.088
10485TIP3    H131412   7.884   0.588   3.038
10485TIP3    H231413   7.737   0.625   3.034
10486TIP3   OH231414   8.102   4.226   5.315
10486TIP3    H131415   8.163   4.252   5.384
10486TIP3    H231416   8.055   4.306   5.292
10487TIP3   OH231417   2.491   0.202   0.722
10487TIP3    H131418   2.477   0.234   0.633
10487TIP3    H231419   2.561   0.258   0.757
10488TIP3   OH231420   0.908   5.738   4.608
10488TIP3    H131421   0.929   5.793   4.532
10488TIP3    H231422   0.923   5.649   4.578
10489TIP3   OH231423   7.618   3.182   6.306
10489TIP3    H131424   7.682   3.252   6.296
10489TIP3    H231425   7.599   3.155   6.216
10490TIP3   OH231426   5.771   1.521   3.306
10490TIP3    H131427   5.702   1.576   3.345
10490TIP3    H231428   5.765   1.438   3.355
10491TIP3   OH231429   2.300   0.741   2.536
10491TIP3    H131430   2.356   0.678   2.491
10491TIP3    H231431   2.218   0.695   2.550
10492TIP3   OH231432   2.357   2.960   3.600
10492TIP3    H131433   2.411   2.891   3.561
10492TIP3    H231434   2.389   2.968   3.690
10493TIP3   OH231435   6.442   0.699   4.528
10493TIP3    H131436   6.367   0.673   4.475
10493TIP3    H231437   6.476   0.616   4.563
10494TIP3   OH231438   2.232   2.193   5.188
10494TIP3    H131439   2.139   2.178   5.200
10494TIP3    H231440   2.243   2.204   5.093
10495TIP3   OH231441   3.660   2.588   6.652
10495TIP3    H131442   3.714   2.620   6.724
10495TIP3    H231443   3.716   2.525   6.607
10496TIP3   OH231444   1.292   0.035   1.347
10496TIP3    H131445   1.228   0.041   1.418
10496TIP3    H231446   1.290   0.122   1.306
10497TIP3   OH231447   0.521   5.298   5.132
10497TIP3    H131448   0.606   5.278   5.093
10497TIP3    H231449   0.540   5.362   5.201
10498TIP3   OH231450   7.509   6.639   1.955
10498TIP3    H131451   7.446   6.607   1.890
10498TIP3    H231452   7.457   6.653   2.034
10499TIP3   OH231453   6.225   5.101   1.637
10499TIP3    H131454   6.239   5.189   1.671
10499TIP3    H231455   6.302   5.083   1.583
10500TIP3   OH231456   2.879   7.180   5.396
10500TIP3    H131457   2.901   7.267   5.364
10500TIP3    H231458   2.813   7.147   5.335
10501TIP3   OH231459   6.958   4.574   6.208
10501TIP3    H131460   6.996   4.503   6.262
10501TIP3    H231461   7.019   4.582   6.134
10502TIP3   OH231462   5.150   7.543   3.295
10502TIP3    H131463   5.099   7.505   3.367
10502TIP3    H231464   5.138   7.638   3.306
10503TIP3   OH231465   6.692   4.260   5.886
10503TIP3    H131466   6.609   4.280   5.843
10503TIP3    H231467   6.758   4.295   5.826
10504TIP3   OH231468   4.327   5.269   0.874
10504TIP3    H131469   4.403   5.311   0.835
10504TIP3    H231470   4.364   5.205   0.935
10505TIP3   OH231471   1.354   2.212   5.816
10505TIP3    H131472   1.313   2.135   5.777
10505TIP3    H231473   1.348   2.280   5.749
10506TIP3   OH231474   6.439   0.767   3.861
10506TIP3    H131475   6.435   0.854   3.902
10506TIP3    H231476   6.353   0.756   3.820
10507TIP3   OH231477   1.312   2.517   3.464
10507TIP3    H131478   1.320   2.422   3.470
10507TIP3    H231479   1.226   2.531   3.423
10508TIP3   OH231480   6.738   0.576   0.536
10508TIP3    H131481   6.828   0.593   0.511
10508TIP3    H231482   6.696   0.544   0.456
10509TIP3   OH231483   2.027   3.291   5.883
10509TIP3    H131484   1.980   3.264   5.962
10509TIP3    H231485   1.988   3.241   5.813
10510TIP3   OH231486   4.373   2.756   3.071
10510TIP3    H131487   4.456   2.720   3.101
10510TIP3    H231488   4.306   2.714   3.125
10511TIP3   OH231489   5.256   3.082   3.324
10511TIP3    H131490   5.182   3.061   3.381
10511TIP3    H231491   5.218   3.090   3.237
10512TIP3   OH231492   5.209   2.399   1.350
10512TIP3    H131493   5.233   2.317   1.305
10512TIP3    H231494   5.123   2.421   1.314
10513TIP3   OH231495   3.636   1.372   2.243
10513TIP3    H131496   3.582   1.414   2.310
10513TIP3    H231497   3.725   1.376   2.278
10514TIP3   OH231498   0.699   4.193   5.127
10514TIP3    H131499   0.740   4.131   5.188
10514TIP3    H231500   0.762   4.199   5.054
10515TIP3   OH231501   0.546   6.569   5.267
10515TIP3    H131502   0.519   6.661   5.269
10515TIP3    H231503   0.596   6.556   5.348
10516TIP3   OH231504   4.415   1.369   5.668
10516TIP3    H131505   4.500   1.344   5.702
10516TIP3    H231506   4.369   1.286   5.654
10517TIP3   OH231507   2.607   4.233   0.900
10517TIP3    H131508   2.611   4.158   0.960
10517TIP3    H231509   2.687   4.225   0.847
10518TIP3   OH231510   8.164   6.267   5.479
10518TIP3    H131511   8.137   6.179   5.451
10518TIP3    H231512   8.187   6.257   5.571
10519TIP3   OH231513   3.930   4.571   4.285
10519TIP3    H131514   3.889   4.540   4.204
10519TIP3    H231515   3.870   4.640   4.316
10520TIP3   OH231516   0.921   0.491   1.110
10520TIP3    H131517   0.910   0.404   1.148
10520TIP3    H231518   0.906   0.479   1.016
10521TIP3   OH231519   3.785   6.023   2.309
10521TIP3    H131520   3.782   6.104   2.259
10521TIP3    H231521   3.713   5.970   2.274
10522TIP3   OH231522   1.776   7.172   5.510
10522TIP3    H131523   1.773   7.267   5.526
10522TIP3    H231524   1.822   7.163   5.427
10523TIP3   OH231525   6.523   3.281   6.721
10523TIP3    H131526   6.536   3.197   6.763
10523TIP3    H231527   6.520   3.344   6.793
10524TIP3   OH231528   5.921   2.638   4.535
10524TIP3    H131529   5.877   2.601   4.611
10524TIP3    H231530   6.014   2.639   4.559
10525TIP3   OH231531   3.673   7.772   5.919
10525TIP3    H131532   3.580   7.749   5.922
10525TIP3    H231533   3.691   7.785   5.826
10526TIP3   OH231534   3.886   4.263   3.380
10526TIP3    H131535   3.956   4.280   3.443
10526TIP3    H231536   3.811   4.311   3.413
10527TIP3   OH231537   6.914   6.574   4.990
10527TIP3    H131538   6.965   6.604   5.065
10527TIP3    H231539   6.824   6.601   5.009
10528TIP3   OH231540   2.082   1.388   3.089
10528TIP3    H131541   2.046   1.300   3.099
10528TIP3    H231542   2.024   1.431   3.026
10529TIP3   OH231543   6.572   3.500   6.329
10529TIP3    H131544   6.491   3.485   6.281
10529TIP3    H231545   6.577   3.595   6.338
10530TIP3   OH231546   3.377   6.203   2.072
10530TIP3    H131547   3.434   6.261   2.022
10530TIP3    H231548   3.289   6.218   2.037
10531TIP3   OH231549   6.684   6.227   4.920
10531TIP3    H131550   6.647   6.228   5.008
10531TIP3    H231551   6.611   6.246   4.862
10532TIP3   OH231552   0.778   2.154   2.528
10532TIP3    H131553   0.786   2.076   2.472
10532TIP3    H231554   0.719   2.212   2.481
10533TIP3   OH231555   7.831   6.681   4.249
10533TIP3    H131556   7.893   6.641   4.187
10533TIP3    H231557   7.869   6.766   4.268
10534TIP3   OH231558   2.799   1.062   6.134
10534TIP3    H131559   2.857   0.986   6.133
10534TIP3    H231560   2.853   1.134   6.101
10535TIP3   OH231561   3.741   6.739   0.573
10535TIP3    H131562   3.836   6.736   0.570
10535TIP3    H231563   3.720   6.831   0.586
10536TIP3   OH231564   6.082   6.598   0.944
10536TIP3    H131565   5.987   6.595   0.953
10536TIP3    H231566   6.098   6.579   0.852
10537TIP3   OH231567   4.006   6.154   0.754
10537TIP3    H131568   3.916   6.122   0.743
10537TIP3    H231569   4.050   6.129   0.673
10538TIP3   OH231570   2.624   7.734   2.094
10538TIP3    H131571   2.663   7.821   2.098
10538TIP3    H231572   2.643   7.704   2.005
10539TIP3   OH231573   1.750   4.438   6.452
10539TIP3    H131574   1.796   4.512   6.413
10539TIP3    H231575   1.691   4.407   6.383
10540TIP3   OH231576   4.490   4.025   0.298
10540TIP3    H131577   4.499   4.104   0.352
10540TIP3    H231578   4.566   3.971   0.322
10541TIP3   OH231579   2.030   4.626   1.265
10541TIP3    H131580   1.986   4.629   1.350
10541TIP3    H231581   1.966   4.662   1.203
10542TIP3   OH231582   3.171   0.284   5.637
10542TIP3    H131583   3.244   0.242   5.593
10542TIP3    H231584   3.177   0.376   5.612
10543TIP3   OH231585   3.976   1.857   0.406
10543TIP3    H131586   3.891   1.865   0.362
10543TIP3    H231587   3.992   1.945   0.441
10544TIP3   OH231588   6.122   7.306   0.936
10544TIP3    H131589   6.122   7.392   0.979
10544TIP3    H231590   6.081   7.248   1.000
10545TIP3   OH231591   0.099   4.278   4.787
10545TIP3    H131592   0.192   4.257   4.781
10545TIP3    H231593   0.065   4.218   4.853
10546TIP3   OH231594   3.966   2.931   0.234
10546TIP3    H131595   4.027   2.914   0.305
10546TIP3    H231596   3.988   3.019   0.204
10547TIP3   OH231597   5.862   6.715   3.374
10547TIP3    H131598   5.824   6.775   3.439
10547TIP3    H231599   5.851   6.760   3.291
10548TIP3   OH231600   1.489   7.374   3.439
10548TIP3    H131601   1.396   7.359   3.424
10548TIP3    H231602   1.492   7.443   3.505
10549TIP3   OH231603   3.422   6.868   3.677
10549TIP3    H131604   3.420   6.871   3.773
10549TIP3    H231605   3.510   6.838   3.656
10550TIP3   OH231606   1.085   1.085   5.947
10550TIP3    H131607   1.157   1.060   5.890
10550TIP3    H231608   1.051   1.001   5.980
10551TIP3   OH231609   8.211   1.223   0.583
10551TIP3    H131610   8.293   1.269   0.565
10551TIP3    H231611   8.229   1.132   0.558
10552TIP3   OH231612   4.553   3.726   4.139
10552TIP3    H131613   4.490   3.797   4.147
10552TIP3    H231614   4.518   3.671   4.068
10553TIP3   OH231615   6.851   6.024   6.545
10553TIP3    H131616   6.785   5.956   6.554
10553TIP3    H231617   6.875   6.023   6.452
10554TIP3   OH231618   0.542   5.561   0.485
10554TIP3    H131619   0.617   5.585   0.431
10554TIP3    H231620   0.558   5.471   0.511
10555TIP3   OH231621   7.873   1.413   3.233
10555TIP3    H131622   7.904   1.395   3.322
10555TIP3    H231623   7.799   1.353   3.222
10556TIP3   OH231624   1.836   1.471   4.594
10556TIP3    H131625   1.874   1.432   4.673
10556TIP3    H231626   1.855   1.408   4.525
10557TIP3   OH231627   1.256   2.103   1.570
10557TIP3    H131628   1.350   2.086   1.568
10557TIP3    H231629   1.248   2.198   1.562
10558TIP3   OH231630   5.960   3.527   1.443
10558TIP3    H131631   5.970   3.617   1.473
10558TIP3    H231632   5.935   3.478   1.521
10559TIP3   OH231633   5.151   5.864   1.842
10559TIP3    H131634   5.162   5.873   1.937
10559TIP3    H231635   5.056   5.864   1.829
10560TIP3   OH231636   4.190   2.580   4.562
10560TIP3    H131637   4.233   2.536   4.636
10560TIP3    H231638   4.230   2.666   4.559
10561TIP3   OH231639   5.142   6.827   5.270
10561TIP3    H131640   5.160   6.851   5.361
10561TIP3    H231641   5.126   6.732   5.273
10562TIP3   OH231642   1.915   1.498   5.084
10562TIP3    H131643   1.836   1.493   5.030
10562TIP3    H231644   1.984   1.522   5.022
10563TIP3   OH231645   5.554   1.920   5.584
10563TIP3    H131646   5.615   1.938   5.513
10563TIP3    H231647   5.470   1.903   5.541
10564TIP3   OH231648   7.515   1.046   2.032
10564TIP3    H131649   7.545   1.053   2.123
10564TIP3    H231650   7.535   1.132   1.995
10565TIP3   OH231651   2.576   6.922   4.525
10565TIP3    H131652   2.634   6.886   4.592
10565TIP3    H231653   2.624   6.996   4.489
10566TIP3   OH231654   3.021   5.498   0.851
10566TIP3    H131655   3.002   5.590   0.836
10566TIP3    H231656   3.010   5.457   0.765
10567TIP3   OH231657   1.423   4.054   5.225
10567TIP3    H131658   1.427   4.082   5.317
10567TIP3    H231659   1.398   4.134   5.177
10568TIP3   OH231660   4.867   0.932   3.812
10568TIP3    H131661   4.959   0.956   3.818
10568TIP3    H231662   4.863   0.843   3.848
10569TIP3   OH231663   1.835   2.306   0.927
10569TIP3    H131664   1.926   2.276   0.920
10569TIP3    H231665   1.813   2.293   1.019
10570TIP3   OH231666   3.543   4.195   1.294
10570TIP3    H131667   3.454   4.195   1.329
10570TIP3    H231668   3.595   4.242   1.359
10571TIP3   OH231669   2.575   6.287   1.508
10571TIP3    H131670   2.486   6.268   1.535
10571TIP3    H231671   2.624   6.296   1.590
10572TIP3   OH231672   1.557   0.195   3.667
10572TIP3    H131673   1.538   0.176   3.758
10572TIP3    H231674   1.653   0.194   3.662
10573TIP3   OH231675   6.391   4.329   4.868
10573TIP3    H131676   6.338   4.262   4.911
10573TIP3    H231677   6.465   4.281   4.831
10574TIP3   OH231678   4.738   2.105   0.853
10574TIP3    H131679   4.793   2.101   0.775
10574TIP3    H231680   4.648   2.100   0.818
10575TIP3   OH231681   6.085   0.413   4.401
10575TIP3    H131682   6.115   0.388   4.489
10575TIP3    H231683   5.998   0.372   4.393
10576TIP3   OH231684   1.358   3.059   0.727
10576TIP3    H131685   1.267   3.090   0.730
10576TIP3    H231686   1.391   3.089   0.643
10577TIP3   OH231687   4.373   0.892   1.095
10577TIP3    H131688   4.455   0.909   1.141
10577TIP3    H231689   4.393   0.909   1.003
10578TIP3   OH231690   1.212   5.919   4.695
10578TIP3    H131691   1.210   6.012   4.719
10578TIP3    H231692   1.212   5.919   4.599
10579TIP3   OH231693   6.289   5.364   2.775
10579TIP3    H131694   6.302   5.289   2.833
10579TIP3    H231695   6.359   5.425   2.798
10580TIP3   OH231696   6.132   5.008   5.670
10580TIP3    H131697   6.197   5.027   5.603
10580TIP3    H231698   6.076   5.086   5.674
10581TIP3   OH231699   8.253   6.653   0.350
10581TIP3    H131700   8.307   6.702   0.288
10581TIP3    H231701   8.304   6.574   0.369
10582TIP3   OH231702   5.442   1.200   0.732
10582TIP3    H131703   5.501   1.247   0.674
10582TIP3    H231704   5.365   1.256   0.740
10583TIP3   OH231705   4.990   6.989   1.903
10583TIP3    H131706   4.977   6.961   1.994
10583TIP3    H231707   4.959   6.915   1.851
10584TIP3   OH231708   0.030   3.070   3.252
10584TIP3    H131709   0.120   3.056   3.225
10584TIP3    H231710  -0.015   3.102   3.173
10585TIP3   OH231711   8.122   6.683   0.059
10585TIP3    H131712   8.085   6.672   0.146
10585TIP3    H231713   8.103   6.774   0.036
10586TIP3   OH231714   3.499   2.460   2.821
10586TIP3    H131715   3.577   2.405   2.831
10586TIP3    H231716   3.442   2.433   2.892
10587TIP3   OH231717   6.575   2.867   1.331
10587TIP3    H131718   6.659   2.846   1.373
10587TIP3    H231719   6.579   2.821   1.247
10588TIP3   OH231720   0.578   1.445   6.679
10588TIP3    H131721   0.501   1.406   6.637
10588TIP3    H231722   0.615   1.374   6.732
10589TIP3   OH231723   2.059   3.423   3.235
10589TIP3    H131724   2.088   3.376   3.312
10589TIP3    H231725   2.138   3.469   3.203
10590TIP3   OH231726   4.747   1.396   6.058
10590TIP3    H131727   4.668   1.344   6.073
10590TIP3    H231728   4.722   1.485   6.084
10591TIP3   OH231729   0.186   1.119   4.755
10591TIP3    H131730   0.091   1.128   4.765
10591TIP3    H231731   0.204   1.149   4.666
10592TIP3   OH231732   6.543   0.557   5.094
10592TIP3    H131733   6.516   0.478   5.048
10592TIP3    H231734   6.597   0.604   5.030
10593TIP3   OH231735   0.003   3.815   5.565
10593TIP3    H131736  -0.004   3.805   5.660
10593TIP3    H231737   0.009   3.726   5.531
10594TIP3   OH231738   6.969   2.346   3.207
10594TIP3    H131739   7.051   2.365   3.160
10594TIP3    H231740   6.900   2.377   3.148
10595TIP3   OH231741   1.822   6.653   2.672
10595TIP3    H131742   1.819   6.746   2.649
10595TIP3    H231743   1.894   6.618   2.621
10596TIP3   OH231744   0.327   3.009   4.425
10596TIP3    H131745   0.275   2.941   4.383
10596TIP3    H231746   0.263   3.074   4.456
10597TIP3   OH231747   7.960   6.996   2.981
10597TIP3    H131748   7.932   6.941   2.908
10597TIP3    H231749   8.021   7.059   2.941
10598TIP3   OH231750   1.518   1.023   1.247
10598TIP3    H131751   1.489   1.089   1.310
10598TIP3    H231752   1.454   1.028   1.177
10599TIP3   OH231753   8.255   2.748   2.559
10599TIP3    H131754   8.342   2.721   2.585
10599TIP3    H231755   8.211   2.771   2.641
10600TIP3   OH231756   0.888   4.341   2.538
10600TIP3    H131757   0.939   4.262   2.522
10600TIP3    H231758   0.811   4.332   2.482
10601TIP3   OH231759   2.397   1.998   3.604
10601TIP3    H131760   2.410   2.082   3.560
10601TIP3    H231761   2.325   1.957   3.556
10602TIP3   OH231762   6.099   0.457   6.081
10602TIP3    H131763   6.031   0.455   6.014
10602TIP3    H231764   6.100   0.547   6.112
10603TIP3   OH231765   1.394   4.612   1.238
10603TIP3    H131766   1.356   4.682   1.292
10603TIP3    H231767   1.340   4.610   1.159
10604TIP3   OH231768   7.280   6.075   0.636
10604TIP3    H131769   7.194   6.097   0.672
10604TIP3    H231770   7.341   6.096   0.706
10605TIP3   OH231771   1.976   4.447   2.676
10605TIP3    H131772   1.956   4.539   2.694
10605TIP3    H231773   1.901   4.399   2.709
10606TIP3   OH231774   0.403   5.033   3.651
10606TIP3    H131775   0.363   5.094   3.713
10606TIP3    H231776   0.453   5.089   3.591
10607TIP3   OH231777   3.429   4.356   6.560
10607TIP3    H131778   3.506   4.368   6.615
10607TIP3    H231779   3.367   4.310   6.617
10608TIP3   OH231780   2.049   6.038   3.092
10608TIP3    H131781   2.011   6.085   3.017
10608TIP3    H231782   2.062   5.949   3.060
10609TIP3   OH231783   6.884   3.597   3.093
10609TIP3    H131784   6.802   3.629   3.131
10609TIP3    H231785   6.891   3.643   3.009
10610TIP3   OH231786   5.991   4.766   4.449
10610TIP3    H131787   5.999   4.756   4.354
10610TIP3    H231788   6.017   4.856   4.466
10611TIP3   OH231789   5.091   2.903   0.728
10611TIP3    H131790   5.111   2.811   0.711
10611TIP3    H231791   5.016   2.922   0.671
10612TIP3   OH231792   4.538   2.313   2.349
10612TIP3    H131793   4.466   2.350   2.298
10612TIP3    H231794   4.534   2.357   2.433
10613TIP3   OH231795   3.744   4.581   1.481
10613TIP3    H131796   3.664   4.629   1.497
10613TIP3    H231797   3.785   4.626   1.406
10614TIP3   OH231798   4.366   4.664   0.315
10614TIP3    H131799   4.381   4.604   0.242
10614TIP3    H231800   4.273   4.654   0.336
10615TIP3   OH231801   5.642   1.055   1.468
10615TIP3    H131802   5.583   1.011   1.406
10615TIP3    H231803   5.706   1.100   1.412
10616TIP3   OH231804   6.127   3.311   1.969
10616TIP3    H131805   6.133   3.232   2.023
10616TIP3    H231806   6.195   3.299   1.903
10617TIP3   OH231807   3.903   4.866   3.390
10617TIP3    H131808   3.997   4.863   3.370
10617TIP3    H231809   3.871   4.779   3.367
10618TIP3   OH231810   5.354   3.527   2.927
10618TIP3    H131811   5.348   3.476   3.008
10618TIP3    H231812   5.434   3.495   2.885
10619TIP3   OH231813   1.970   3.935   0.229
10619TIP3    H131814   2.039   4.001   0.229
10619TIP3    H231815   2.005   3.864   0.283
10620TIP3   OH231816   6.766   5.756   0.978
10620TIP3    H131817   6.691   5.764   1.037
10620TIP3    H231818   6.841   5.784   1.030
10621TIP3   OH231819   6.824   4.090   3.695
10621TIP3    H131820   6.837   4.023   3.628
10621TIP3    H231821   6.899   4.079   3.754
10622TIP3   OH231822   1.651   5.622   2.746
10622TIP3    H131823   1.659   5.645   2.838
10622TIP3    H231824   1.738   5.637   2.710
10623TIP3   OH231825   2.534   3.859   0.569
10623TIP3    H131826   2.446   3.890   0.592
10623TIP3    H231827   2.546   3.781   0.623
10624TIP3   OH231828   2.224   2.740   4.013
10624TIP3    H131829   2.161   2.672   3.990
10624TIP3    H231830   2.309   2.697   4.010
10625TIP3   OH231831   2.880   4.545   4.344
10625TIP3    H131832   2.879   4.640   4.354
10625TIP3    H231833   2.809   4.526   4.283
10626TIP3   OH231834   8.044   1.402   1.016
10626TIP3    H131835   8.013   1.487   1.047
10626TIP3    H231836   8.130   1.421   0.978
10627TIP3   OH231837   7.263   0.261   5.354
10627TIP3    H131838   7.288   0.334   5.410
10627TIP3    H231839   7.282   0.292   5.265
10628TIP3   OH231840   4.728   4.730   0.422
10628TIP3    H131841   4.823   4.733   0.438
10628TIP3    H231842   4.702   4.822   0.415
10629TIP3   OH231843   0.231   4.659   5.508
10629TIP3    H131844   0.273   4.575   5.490
10629TIP3    H231845   0.137   4.642   5.500
10630TIP3   OH231846   0.113   5.263   5.057
10630TIP3    H131847   0.066   5.263   4.974
10630TIP3    H231848   0.192   5.213   5.040
10631TIP3   OH231849   6.387   2.631   3.880
10631TIP3    H131850   6.296   2.625   3.909
10631TIP3    H231851   6.435   2.662   3.957
10632TIP3   OH231852   5.396   5.254   2.100
10632TIP3    H131853   5.432   5.238   2.013
10632TIP3    H231854   5.305   5.281   2.084
10633TIP3   OH231855   1.138   4.944   3.714
10633TIP3    H131856   1.046   4.925   3.731
10633TIP3    H231857   1.185   4.866   3.744
10634TIP3   OH231858   2.764   4.848   4.195
10634TIP3    H131859   2.722   4.767   4.165
10634TIP3    H231860   2.799   4.887   4.114
10635TIP3   OH231861   0.137   5.887   2.410
10635TIP3    H131862   0.168   5.862   2.498
10635TIP3    H231863   0.203   5.948   2.378
10636TIP3   OH231864   2.028   6.859   4.801
10636TIP3    H131865   2.117   6.892   4.787
10636TIP3    H231866   2.038   6.764   4.805
10637TIP3   OH231867   2.664   4.860   0.124
10637TIP3    H131868   2.678   4.840   0.032
10637TIP3    H231869   2.715   4.939   0.140
10638TIP3   OH231870   7.314   2.594   6.351
10638TIP3    H131871   7.279   2.595   6.440
10638TIP3    H231872   7.285   2.677   6.313
10639TIP3   OH231873   5.935   6.843   2.763
10639TIP3    H131874   5.940   6.939   2.771
10639TIP3    H231875   6.025   6.816   2.743
10640TIP3   OH231876   0.744   2.044   0.580
10640TIP3    H131877   0.729   2.123   0.528
10640TIP3    H231878   0.677   1.983   0.549
10641TIP3   OH231879   2.403   7.093   4.034
10641TIP3    H131880   2.326   7.131   4.077
10641TIP3    H231881   2.402   7.131   3.947
10642TIP3   OH231882   6.447   1.112   0.250
10642TIP3    H131883   6.354   1.104   0.229
10642TIP3    H231884   6.452   1.188   0.308
10643TIP3   OH231885   0.316   3.228   0.082
10643TIP3    H131886   0.241   3.174   0.057
10643TIP3    H231887   0.322   3.218   0.177
10644TIP3   OH231888   3.223   0.611   5.129
10644TIP3    H131889   3.180   0.594   5.044
10644TIP3    H231890   3.184   0.692   5.160
10645TIP3   OH231891   4.987   2.287   6.557
10645TIP3    H131892   5.080   2.283   6.535
10645TIP3    H231893   4.984   2.265   6.650
10646TIP3   OH231894   7.666   2.112   2.838
10646TIP3    H131895   7.662   2.200   2.877
10646TIP3    H231896   7.574   2.086   2.830
10647TIP3   OH231897   0.249   0.759   4.472
10647TIP3    H131898   0.226   0.794   4.558
10647TIP3    H231899   0.319   0.817   4.442
10648TIP3   OH231900   6.707   4.627   0.993
10648TIP3    H131901   6.650   4.554   1.019
10648TIP3    H231902   6.786   4.616   1.046
10649TIP3   OH231903   4.338   6.392   6.437
10649TIP3    H131904   4.243   6.405   6.430
10649TIP3    H231905   4.368   6.382   6.347
10650TIP3   OH231906   1.798   4.571   0.458
10650TIP3    H131907   1.830   4.621   0.534
10650TIP3    H231908   1.877   4.532   0.421
10651TIP3   OH231909   6.224   3.552   4.324
10651TIP3    H131910   6.192   3.595   4.244
10651TIP3    H231911   6.312   3.523   4.302
10652TIP3   OH231912   0.328   5.340   2.938
10652TIP3    H131913   0.406   5.396   2.936
10652TIP3    H231914   0.361   5.253   2.961
10653TIP3   OH231915   6.090   6.118   1.637
10653TIP3    H131916   6.126   6.151   1.719
10653TIP3    H231917   6.026   6.184   1.611
10654TIP3   OH231918   4.224   4.201   6.650
10654TIP3    H131919   4.285   4.131   6.625
10654TIP3    H231920   4.241   4.271   6.587
10655TIP3   OH231921   2.613   7.202   6.168
10655TIP3    H131922   2.705   7.218   6.186
10655TIP3    H231923   2.568   7.280   6.202
10656TIP3   OH231924   6.623   3.454   4.789
10656TIP3    H131925   6.537   3.412   4.795
10656TIP3    H231926   6.661   3.444   4.877
10657TIP3   OH231927   6.999   3.173   0.236
10657TIP3    H131928   6.924   3.123   0.268
10657TIP3    H231929   6.960   3.255   0.203
10658TIP3   OH231930   6.449   0.340   4.005
10658TIP3    H131931   6.481   0.296   4.084
10658TIP3    H231932   6.516   0.405   3.985
10659TIP3   OH231933   2.818   7.105   2.688
10659TIP3    H131934   2.892   7.093   2.748
10659TIP3    H231935   2.794   7.016   2.662
10660TIP3   OH231936   5.410   4.779   2.405
10660TIP3    H131937   5.496   4.774   2.446
10660TIP3    H231938   5.418   4.848   2.340
10661TIP3   OH231939   6.501   2.465   3.175
10661TIP3    H131940   6.559   2.388   3.176
10661TIP3    H231941   6.554   2.534   3.137
10662TIP3   OH231942   4.748   6.036   1.586
10662TIP3    H131943   4.781   6.125   1.572
10662TIP3    H231944   4.674   6.028   1.525
10663TIP3   OH231945   3.711   0.507   5.454
10663TIP3    H131946   3.787   0.460   5.487
10663TIP3    H231947   3.662   0.532   5.532
10664TIP3   OH231948   1.995   2.680   2.972
10664TIP3    H131949   1.937   2.695   2.898
10664TIP3    H231950   1.942   2.630   3.035
10665TIP3   OH231951   5.015   2.278   5.852
10665TIP3    H131952   4.926   2.295   5.882
10665TIP3    H231953   5.024   2.331   5.772
10666TIP3   OH231954   4.582   4.349   1.508
10666TIP3    H131955   4.551   4.434   1.478
10666TIP3    H231956   4.544   4.339   1.595
10667TIP3   OH231957   5.572   5.339   1.039
10667TIP3    H131958   5.592   5.336   0.945
10667TIP3    H231959   5.503   5.274   1.051
10668TIP3   OH231960   3.640   2.253   3.426
10668TIP3    H131961   3.608   2.165   3.446
10668TIP3    H231962   3.682   2.283   3.506
10669TIP3   OH231963   4.191   3.156   3.570
10669TIP3    H131964   4.211   3.250   3.568
10669TIP3    H231965   4.135   3.146   3.647
10670TIP3   OH231966   4.900   5.045   6.188
10670TIP3    H131967   4.965   5.088   6.133
10670TIP3    H231968   4.820   5.096   6.176
10671TIP3   OH231969   7.373   1.441   5.563
10671TIP3    H131970   7.315   1.435   5.488
10671TIP3    H231971   7.316   1.460   5.637
10672TIP3   OH231972   5.540   3.844   2.378
10672TIP3    H131973   5.587   3.766   2.349
10672TIP3    H231974   5.500   3.818   2.461
10673TIP3   OH231975   4.603   6.148   5.495
10673TIP3    H131976   4.667   6.204   5.540
10673TIP3    H231977   4.551   6.209   5.442
10674TIP3   OH231978   2.535   0.093   2.306
10674TIP3    H131979   2.509   0.030   2.239
10674TIP3    H231980   2.507   0.053   2.388
10675TIP3   OH231981   4.234   4.347   6.348
10675TIP3    H131982   4.250   4.329   6.256
10675TIP3    H231983   4.187   4.430   6.348
10676TIP3   OH231984   0.762   4.238   0.879
10676TIP3    H131985   0.667   4.253   0.880
10676TIP3    H231986   0.799   4.323   0.903
10677TIP3   OH231987   1.881   0.662   1.614
10677TIP3    H131988   1.858   0.747   1.652
10677TIP3    H231989   1.964   0.678   1.569
10678TIP3   OH231990   6.033   1.980   5.061
10678TIP3    H131991   6.029   1.924   4.983
10678TIP3    H231992   5.988   2.060   5.035
10679TIP3   OH231993   6.372   7.087   0.173
10679TIP3    H131994   6.428   7.011   0.191
10679TIP3    H231995   6.308   7.055   0.110
10680TIP3   OH231996   4.359   2.210   5.549
10680TIP3    H131997   4.407   2.250   5.476
10680TIP3    H231998   4.283   2.169   5.508
10681TIP3   OH231999   4.398   2.940   0.421
10681TIP3    H132000   4.458   2.965   0.351
10681TIP3    H232001   4.389   3.018   0.475
10682TIP3   OH232002   2.318   4.156   2.163
10682TIP3    H132003   2.409   4.186   2.172
10682TIP3    H232004   2.312   4.080   2.221
10683TIP3   OH232005   7.404   2.051   3.279
10683TIP3    H132006   7.441   2.090   3.358
10683TIP3    H232007   7.404   2.122   3.215
10684TIP3   OH232008   0.297   5.047   0.395
10684TIP3    H132009   0.248   4.969   0.369
10684TIP3    H232010   0.375   5.012   0.440
10685TIP3   OH232011   0.226   6.999   5.248
10685TIP3    H132012   0.145   6.961   5.280
10685TIP3    H232013   0.213   7.009   5.154
10686TIP3   OH232014   1.517   1.458   3.103
10686TIP3    H132015   1.578   1.417   3.164
10686TIP3    H232016   1.442   1.399   3.099
10687TIP3   OH232017   7.621   3.479   5.504
10687TIP3    H132018   7.706   3.479   5.461
10687TIP3    H232019   7.589   3.389   5.496
10688TIP3   OH232020   4.197   0.155   1.904
10688TIP3    H132021   4.264   0.089   1.927
10688TIP3    H232022   4.151   0.171   1.987
10689TIP3   OH232023   2.235   6.911   5.271
10689TIP3    H132024   2.233   6.948   5.183
10689TIP3    H232025   2.260   6.984   5.328
10690TIP3   OH232026   4.814   4.823   4.651
10690TIP3    H132027   4.785   4.914   4.644
10690TIP3    H232028   4.734   4.774   4.669
10691TIP3   OH232029   6.976   7.439   6.020
10691TIP3    H132030   7.057   7.485   6.043
10691TIP3    H232031   6.969   7.448   5.925
10692TIP3   OH232032   7.422   5.593   6.709
10692TIP3    H132033   7.391   5.503   6.698
10692TIP3    H232034   7.347   5.647   6.682
10693TIP3   OH232035   1.029   5.131   4.872
10693TIP3    H132036   1.082   5.052   4.862
10693TIP3    H232037   0.973   5.132   4.794
10694TIP3   OH232038   1.487   5.673   5.787
10694TIP3    H132039   1.468   5.580   5.770
10694TIP3    H232040   1.427   5.721   5.729
10695TIP3   OH232041   4.248   7.493   4.247
10695TIP3    H132042   4.280   7.423   4.305
10695TIP3    H232043   4.289   7.474   4.162
10696TIP3   OH232044   7.835   6.051   5.815
10696TIP3    H132045   7.888   5.979   5.782
10696TIP3    H232046   7.829   6.035   5.909
10697TIP3   OH232047   5.482   7.410   5.911
10697TIP3    H132048   5.530   7.423   5.829
10697TIP3    H232049   5.476   7.498   5.949
10698TIP3   OH232050   3.392   7.093   0.172
10698TIP3    H132051   3.439   7.097   0.255
10698TIP3    H232052   3.448   7.039   0.116
10699TIP3   OH232053   7.587   4.631   5.322
10699TIP3    H132054   7.644   4.560   5.351
10699TIP3    H232055   7.620   4.654   5.235
10700TIP3   OH232056   0.629   3.245   0.013
10700TIP3    H132057   0.540   3.281   0.012
10700TIP3    H232058   0.628   3.179   0.081
10701TIP3   OH232059   4.356   5.256   3.419
10701TIP3    H132060   4.363   5.277   3.326
10701TIP3    H232061   4.274   5.207   3.426
10702TIP3   OH232062   1.048   1.774   5.781
10702TIP3    H132063   0.960   1.813   5.786
10702TIP3    H232064   1.032   1.680   5.777
10703TIP3   OH232065   7.722   1.171   2.850
10703TIP3    H132066   7.656   1.231   2.816
10703TIP3    H232067   7.724   1.188   2.945
10704TIP3   OH232068   1.714   2.304   1.194
10704TIP3    H132069   1.716   2.397   1.217
10704TIP3    H232070   1.622   2.286   1.178
10705TIP3   OH232071   7.147   2.264   1.407
10705TIP3    H132072   7.147   2.351   1.446
10705TIP3    H232073   7.058   2.232   1.417
10706TIP3   OH232074   2.283   1.485   1.107
10706TIP3    H132075   2.261   1.553   1.170
10706TIP3    H232076   2.366   1.513   1.068
10707TIP3   OH232077   1.225   2.747   5.284
10707TIP3    H132078   1.198   2.664   5.245
10707TIP3    H232079   1.206   2.812   5.217
10708TIP3   OH232080   4.444   3.885   1.263
10708TIP3    H132081   4.439   3.975   1.296
10708TIP3    H232082   4.520   3.886   1.204
10709TIP3   OH232083   3.362   3.542   0.980
10709TIP3    H132084   3.383   3.636   0.974
10709TIP3    H232085   3.384   3.507   0.894
10710TIP3   OH232086   0.965   6.718   5.111
10710TIP3    H132087   0.981   6.782   5.180
10710TIP3    H232088   0.984   6.766   5.030
10711TIP3   OH232089   5.629   4.518   4.560
10711TIP3    H132090   5.701   4.573   4.590
10711TIP3    H232091   5.550   4.563   4.590
10712TIP3   OH232092   7.951   0.167   2.047
10712TIP3    H132093   7.892   0.229   2.090
10712TIP3    H232094   7.902   0.135   1.972
10713TIP3   OH232095   7.038   3.095   4.348
10713TIP3    H132096   7.118   3.148   4.355
10713TIP3    H232097   7.065   3.007   4.375
10714TIP3   OH232098   1.329   7.164   5.495
10714TIP3    H132099   1.256   7.186   5.551
10714TIP3    H232100   1.406   7.169   5.552
10715TIP3   OH232101   6.024   3.391   3.595
10715TIP3    H132102   5.993   3.409   3.684
10715TIP3    H232103   6.119   3.405   3.600
10716TIP3   OH232104   5.340   1.508   1.706
10716TIP3    H132105   5.396   1.434   1.683
10716TIP3    H232106   5.393   1.585   1.687
10717TIP3   OH232107   3.204   2.981   5.041
10717TIP3    H132108   3.113   2.970   5.068
10717TIP3    H232109   3.251   2.910   5.086
10718TIP3   OH232110   8.104   5.199   2.787
10718TIP3    H132111   8.048   5.251   2.729
10718TIP3    H232112   8.049   5.125   2.813
10719TIP3   OH232113   1.602   1.719   5.196
10719TIP3    H132114   1.568   1.770   5.269
10719TIP3    H232115   1.695   1.706   5.216
10720TIP3   OH232116   7.803   4.999   1.933
10720TIP3    H132117   7.757   5.046   2.002
10720TIP3    H232118   7.800   5.058   1.858
10721TIP3   OH232119   4.223   5.074   4.022
10721TIP3    H132120   4.140   5.058   4.066
10721TIP3    H232121   4.280   5.110   4.090
10722TIP3   OH232122   0.457   4.637   6.286
10722TIP3    H132123   0.401   4.608   6.214
10722TIP3    H232124   0.397   4.650   6.360
10723TIP3   OH232125   7.887   3.711   3.536
10723TIP3    H132126   7.899   3.708   3.631
10723TIP3    H232127   7.867   3.620   3.512
10724TIP3   OH232128   2.815   0.223   4.512
10724TIP3    H132129   2.838   0.161   4.443
10724TIP3    H232130   2.726   0.199   4.538
10725TIP3   OH232131   4.012   6.697   6.479
10725TIP3    H132132   3.947   6.726   6.542
10725TIP3    H232133   4.034   6.608   6.506
10726TIP3   OH232134   0.270   5.010   5.411
10726TIP3    H132135   0.354   5.014   5.458
10726TIP3    H232136   0.239   4.921   5.425
10727TIP3   OH232137   0.400   0.460   4.756
10727TIP3    H132138   0.366   0.428   4.839
10727TIP3    H232139   0.477   0.511   4.779
10728TIP3   OH232140   1.582   2.869   0.514
10728TIP3    H132141   1.653   2.904   0.460
10728TIP3    H232142   1.626   2.811   0.576
10729TIP3   OH232143   2.110   2.187   0.843
10729TIP3    H132144   2.105   2.218   0.933
10729TIP3    H232145   2.173   2.115   0.845
10730TIP3   OH232146   1.131   1.497   1.795
10730TIP3    H132147   1.059   1.504   1.732
10730TIP3    H232148   1.124   1.407   1.829
10731TIP3   OH232149   7.078   5.043   6.330
10731TIP3    H132150   7.137   5.118   6.325
10731TIP3    H232151   7.022   5.050   6.252
10732TIP3   OH232152   1.319   1.836   2.811
10732TIP3    H132153   1.398   1.847   2.758
10732TIP3    H232154   1.277   1.922   2.809
10733TIP3   OH232155   2.772   0.890   3.579
10733TIP3    H132156   2.830   0.963   3.601
10733TIP3    H232157   2.830   0.820   3.552
10734TIP3   OH232158   3.817   1.509   2.409
10734TIP3    H132159   3.787   1.600   2.413
10734TIP3    H232160   3.874   1.499   2.485
10735TIP3   OH232161   7.388   6.699   6.458
10735TIP3    H132162   7.409   6.792   6.453
10735TIP3    H232163   7.373   6.683   6.551
10736TIP3   OH232164   3.458   1.009   4.578
10736TIP3    H132165   3.381   1.053   4.613
10736TIP3    H232166   3.476   0.938   4.640
10737TIP3   OH232167   4.371   6.572   5.285
10737TIP3    H132168   4.301   6.558   5.222
10737TIP3    H232169   4.430   6.498   5.273
10738TIP3   OH232170   3.572   1.559   0.183
10738TIP3    H132171   3.547   1.539   0.273
10738TIP3    H232172   3.489   1.558   0.135
10739TIP3   OH232173   6.632   0.109   0.652
10739TIP3    H132174   6.584   0.191   0.640
10739TIP3    H232175   6.569   0.050   0.694
10740TIP3   OH232176   6.084   6.909   5.102
10740TIP3    H132177   6.034   6.855   5.041
10740TIP3    H232178   6.170   6.867   5.107
10741TIP3   OH232179   2.611   7.422   4.498
10741TIP3    H132180   2.611   7.516   4.515
10741TIP3    H232181   2.580   7.414   4.407
10742TIP3   OH232182   4.296   7.139   6.768
10742TIP3    H132183   4.271   7.065   6.823
10742TIP3    H232184   4.218   7.159   6.716
10743TIP3   OH232185   6.439   0.417   5.880
10743TIP3    H132186   6.425   0.355   5.952
10743TIP3    H232187   6.469   0.362   5.807
10744TIP3   OH232188   0.665   1.311   5.585
10744TIP3    H132189   0.610   1.376   5.630
10744TIP3    H232190   0.731   1.287   5.650
10745TIP3   OH232191   1.434   1.361   3.578
10745TIP3    H132192   1.493   1.432   3.605
10745TIP3    H232193   1.387   1.337   3.658
10746TIP3   OH232194   0.488   2.150   6.712
10746TIP3    H132195   0.414   2.190   6.666
10746TIP3    H232196   0.448   2.080   6.764
10747TIP3   OH232197   7.992   1.813   1.836
10747TIP3    H132198   7.970   1.804   1.743
10747TIP3    H232199   7.917   1.775   1.882
10748TIP3   OH232200   3.527   7.347   2.127
10748TIP3    H132201   3.461   7.359   2.194
10748TIP3    H232202   3.530   7.430   2.080
10749TIP3   OH232203   6.964   3.461   4.998
10749TIP3    H132204   7.017   3.435   5.074
10749TIP3    H232205   6.875   3.434   5.022
10750TIP3   OH232206   2.363   3.068   4.780
10750TIP3    H132207   2.403   3.129   4.719
10750TIP3    H232208   2.397   3.093   4.866
10751TIP3   OH232209   3.406   0.716   1.755
10751TIP3    H132210   3.416   0.711   1.850
10751TIP3    H232211   3.311   0.726   1.742
10752TIP3   OH232212   4.990   7.304   0.513
10752TIP3    H132213   4.950   7.302   0.599
10752TIP3    H232214   4.947   7.233   0.465
10753TIP3   OH232215   7.558   6.895   1.360
10753TIP3    H132216   7.601   6.981   1.359
10753TIP3    H232217   7.502   6.896   1.283
10754TIP3   OH232218   1.185   6.195   2.014
10754TIP3    H132219   1.236   6.267   1.977
10754TIP3    H232220   1.141   6.155   1.939
10755TIP3   OH232221   3.356   4.600   5.772
10755TIP3    H132222   3.385   4.608   5.863
10755TIP3    H232223   3.267   4.636   5.773
10756TIP3   OH232224   6.697   2.884   5.409
10756TIP3    H132225   6.771   2.824   5.417
10756TIP3    H232226   6.734   2.964   5.372
10757TIP3   OH232227   3.125   0.694   1.641
10757TIP3    H132228   3.082   0.626   1.590
10757TIP3    H232229   3.087   0.776   1.608
10758TIP3   OH232230   2.629   2.293   6.183
10758TIP3    H132231   2.706   2.286   6.240
10758TIP3    H232232   2.664   2.322   6.099
10759TIP3   OH232233   7.676   4.005   5.741
10759TIP3    H132234   7.669   3.946   5.817
10759TIP3    H232235   7.683   3.946   5.666
10760TIP3   OH232236   7.070   3.920   5.570
10760TIP3    H132237   7.141   3.979   5.595
10760TIP3    H232238   7.112   3.854   5.516
10761TIP3   OH232239   2.490   7.614   5.786
10761TIP3    H132240   2.549   7.689   5.782
10761TIP3    H232241   2.547   7.540   5.808
10762TIP3   OH232242   3.583   6.105   3.817
10762TIP3    H132243   3.560   6.147   3.734
10762TIP3    H232244   3.511   6.128   3.876
10763TIP3   OH232245   2.394   2.055   0.287
10763TIP3    H132246   2.364   2.132   0.335
10763TIP3    H232247   2.356   1.981   0.335
10764TIP3   OH232248   2.930   1.393   5.395
10764TIP3    H132249   2.961   1.484   5.397
10764TIP3    H232250   2.836   1.399   5.409
10765TIP3   OH232251   5.371   3.517   2.276
10765TIP3    H132252   5.367   3.575   2.199
10765TIP3    H232253   5.296   3.544   2.330
10766TIP3   OH232254   0.435   2.550   0.403
10766TIP3    H132255   0.438   2.537   0.309
10766TIP3    H232256   0.525   2.533   0.433
10767TIP3   OH232257   7.109   0.038   1.097
10767TIP3    H132258   7.141  -0.009   1.174
10767TIP3    H232259   7.110  -0.027   1.027
10768TIP3   OH232260   3.801   4.620   0.506
10768TIP3    H132261   3.738   4.601   0.436
10768TIP3    H232262   3.766   4.699   0.548
10769TIP3   OH232263   2.080   1.470   0.416
10769TIP3    H132264   2.169   1.501   0.435
10769TIP3    H232265   2.025   1.548   0.425
10770TIP3   OH232266   0.226   7.215   3.710
10770TIP3    H132267   0.311   7.259   3.717
10770TIP3    H232268   0.223   7.156   3.784
10771TIP3   OH232269   1.099   2.490   5.959
10771TIP3    H132270   1.058   2.472   6.044
10771TIP3    H232271   1.164   2.557   5.978
10772TIP3   OH232272   6.483   7.561   1.478
10772TIP3    H132273   6.556   7.601   1.430
10772TIP3    H232274   6.524   7.493   1.532
10773TIP3   OH232275   3.140   0.283   6.497
10773TIP3    H132276   3.186   0.364   6.514
10773TIP3    H232277   3.071   0.307   6.434
10774TIP3   OH232278   4.653   4.682   1.616
10774TIP3    H132279   4.668   4.607   1.673
10774TIP3    H232280   4.711   4.750   1.651
10775TIP3   OH232281   1.453   7.063   3.912
10775TIP3    H132282   1.457   7.083   3.818
10775TIP3    H232283   1.492   7.139   3.955
10776TIP3   OH232284   4.302   0.972   3.030
10776TIP3    H132285   4.341   0.990   2.945
10776TIP3    H232286   4.346   0.892   3.059
10777TIP3   OH232287   7.175   5.081   1.792
10777TIP3    H132288   7.093   5.032   1.793
10777TIP3    H232289   7.216   5.058   1.709
10778TIP3   OH232290   0.368   3.540   0.923
10778TIP3    H132291   0.329   3.554   1.009
10778TIP3    H232292   0.438   3.476   0.939
10779TIP3   OH232293   6.865   2.932   1.484
10779TIP3    H132294   6.913   2.886   1.553
10779TIP3    H232295   6.802   2.987   1.531
10780TIP3   OH232296   2.317   5.826   5.205
10780TIP3    H132297   2.389   5.787   5.156
10780TIP3    H232298   2.359   5.889   5.264
10781TIP3   OH232299   3.849   0.169   2.072
10781TIP3    H132300   3.775   0.199   2.125
10781TIP3    H232301   3.927   0.188   2.125
10782TIP3   OH232302   6.155   5.295   4.343
10782TIP3    H132303   6.185   5.211   4.376
10782TIP3    H232304   6.065   5.302   4.375
10783TIP3   OH232305   8.314   0.467   3.215
10783TIP3    H132306   8.291   0.554   3.183
10783TIP3    H232307   8.231   0.421   3.223
10784TIP3   OH232308   3.308   3.878   0.109
10784TIP3    H132309   3.395   3.847   0.083
10784TIP3    H232310   3.320   3.971   0.125
10785TIP3   OH232311   2.104   4.405   6.611
10785TIP3    H132312   2.176   4.349   6.641
10785TIP3    H232313   2.145   4.490   6.594
10786TIP3   OH232314   5.096   7.582   0.473
10786TIP3    H132315   5.074   7.613   0.385
10786TIP3    H232316   5.056   7.495   0.478
10787TIP3   OH232317   0.490   7.513   3.312
10787TIP3    H132318   0.585   7.512   3.316
10787TIP3    H232319   0.462   7.440   3.367
10788TIP3   OH232320   4.732   5.077   4.659
10788TIP3    H132321   4.657   5.133   4.641
10788TIP3    H232322   4.799   5.136   4.693
10789TIP3   OH232323   2.155   0.380   6.505
10789TIP3    H132324   2.117   0.336   6.581
10789TIP3    H232325   2.209   0.313   6.463
10790TIP3   OH232326   3.338   4.738   2.894
10790TIP3    H132327   3.286   4.776   2.965
10790TIP3    H232328   3.422   4.784   2.898
10791TIP3   OH232329   1.572   2.907   3.703
10791TIP3    H132330   1.610   2.995   3.708
10791TIP3    H232331   1.480   2.922   3.683
10792TIP3   OH232332   7.791   5.296   4.587
10792TIP3    H132333   7.792   5.299   4.682
10792TIP3    H232334   7.700   5.315   4.563
10793TIP3   OH232335   1.454   0.855   4.343
10793TIP3    H132336   1.424   0.826   4.256
10793TIP3    H232337   1.436   0.780   4.400
10794TIP3   OH232338   5.651   1.782   3.272
10794TIP3    H132339   5.596   1.713   3.309
10794TIP3    H232340   5.700   1.817   3.347
10795TIP3   OH232341   4.925   0.313   2.739
10795TIP3    H132342   4.957   0.223   2.743
10795TIP3    H232343   5.001   0.366   2.763
10796TIP3   OH232344   6.032   5.134   4.995
10796TIP3    H132345   6.081   5.215   4.979
10796TIP3    H232346   5.953   5.163   5.040
10797TIP3   OH232347   2.689   1.435   2.408
10797TIP3    H132348   2.676   1.416   2.501
10797TIP3    H232349   2.751   1.508   2.407
10798TIP3   OH232350   3.895   7.807   1.483
10798TIP3    H132351   3.869   7.790   1.573
10798TIP3    H232352   3.846   7.885   1.457
10799TIP3   OH232353   5.337   3.273   5.813
10799TIP3    H132354   5.342   3.243   5.722
10799TIP3    H232355   5.408   3.336   5.822
10800TIP3   OH232356   5.344   5.954   6.183
10800TIP3    H132357   5.438   5.972   6.191
10800TIP3    H232358   5.321   5.987   6.096
10801TIP3   OH232359   2.862   7.760   5.564
10801TIP3    H132360   2.933   7.806   5.609
10801TIP3    H232361   2.789   7.823   5.564
10802TIP3   OH232362   0.245   6.990   5.625
10802TIP3    H132363   0.238   7.054   5.695
10802TIP3    H232364   0.331   7.007   5.586
10803TIP3   OH232365   3.908   3.327   3.027
10803TIP3    H132366   3.813   3.314   3.018
10803TIP3    H232367   3.940   3.246   3.066
10804TIP3   OH232368   3.018   1.278   2.290
10804TIP3    H132369   3.061   1.224   2.223
10804TIP3    H232370   2.925   1.273   2.269
10805TIP3   OH232371   1.708   2.268   3.629
10805TIP3    H132372   1.623   2.261   3.673
10805TIP3    H232373   1.755   2.188   3.654
10806TIP3   OH232374   6.030   6.816   1.785
10806TIP3    H132375   5.987   6.730   1.793
10806TIP3    H232376   5.959   6.876   1.762
10807TIP3   OH232377   5.070   3.060   2.241
10807TIP3    H132378   4.995   3.005   2.267
10807TIP3    H232379   5.061   3.139   2.294
10808TIP3   OH232380   5.443   6.542   6.231
10808TIP3    H132381   5.493   6.469   6.266
10808TIP3    H232382   5.404   6.584   6.308
10809TIP3   OH232383   0.694   1.936   3.844
10809TIP3    H132384   0.750   1.936   3.921
10809TIP3    H232385   0.736   1.995   3.782
10810TIP3   OH232386   1.581   0.450   0.977
10810TIP3    H132387   1.650   0.384   0.969
10810TIP3    H232388   1.589   0.483   1.066
10811TIP3   OH232389   7.328   0.490   4.795
10811TIP3    H132390   7.271   0.442   4.735
10811TIP3    H232391   7.407   0.436   4.802
10812TIP3   OH232392   7.835   7.202   3.491
10812TIP3    H132393   7.836   7.109   3.471
10812TIP3    H232394   7.908   7.239   3.441
10813TIP3   OH232395   0.105   2.225   1.080
10813TIP3    H132396   0.161   2.167   1.133
10813TIP3    H232397   0.148   2.228   0.995
10814TIP3   OH232398   3.647   7.795   6.684
10814TIP3    H132399   3.584   7.848   6.734
10814TIP3    H232400   3.593   7.750   6.619
10815TIP3   OH232401   5.560   0.524   3.909
10815TIP3    H132402   5.634   0.552   3.963
10815TIP3    H232403   5.498   0.597   3.914
10816TIP3   OH232404   5.057   2.073   1.454
10816TIP3    H132405   5.089   2.164   1.453
10816TIP3    H232406   4.968   2.080   1.489
10817TIP3   OH232407   2.349   4.527   1.079
10817TIP3    H132408   2.329   4.514   1.172
10817TIP3    H232409   2.263   4.527   1.036
10818TIP3   OH232410   6.717   0.262   0.299
10818TIP3    H132411   6.782   0.264   0.369
10818TIP3    H232412   6.697   0.353   0.281
10819TIP3   OH232413   5.942   0.463   5.253
10819TIP3    H132414   5.959   0.548   5.292
10819TIP3    H232415   5.848   0.450   5.264
10820TIP3   OH232416   8.270   2.817   4.880
10820TIP3    H132417   8.205   2.867   4.931
10820TIP3    H232418   8.244   2.726   4.892
10821TIP3   OH232419   4.951   0.778   2.845
10821TIP3    H132420   5.016   0.783   2.916
10821TIP3    H232421   5.001   0.746   2.770
10822TIP3   OH232422   1.809   3.372   0.402
10822TIP3    H132423   1.769   3.371   0.315
10822TIP3    H232424   1.823   3.465   0.421
10823TIP3   OH232425   1.437   1.113   2.469
10823TIP3    H132426   1.512   1.060   2.442
10823TIP3    H232427   1.363   1.053   2.469
10824TIP3   OH232428   3.612   5.618   2.346
10824TIP3    H132429   3.533   5.583   2.305
10824TIP3    H232430   3.590   5.622   2.439
10825TIP3   OH232431   0.906   7.075   4.358
10825TIP3    H132432   0.955   7.138   4.304
10825TIP3    H232433   0.858   7.130   4.420
10826TIP3   OH232434   1.923   7.599   4.126
10826TIP3    H132435   1.877   7.681   4.107
10826TIP3    H232436   1.924   7.594   4.222
10827TIP3   OH232437   5.215   1.889   4.753
10827TIP3    H132438   5.238   1.824   4.820
10827TIP3    H232439   5.167   1.956   4.800
10828TIP3   OH232440   7.968   6.060   1.132
10828TIP3    H132441   8.040   6.122   1.119
10828TIP3    H232442   7.892   6.114   1.150
10829TIP3   OH232443   0.819   2.305   1.969
10829TIP3    H132444   0.845   2.263   1.887
10829TIP3    H232445   0.752   2.247   2.005
10830TIP3   OH232446   3.624   0.672   4.426
10830TIP3    H132447   3.554   0.656   4.490
10830TIP3    H232448   3.702   0.636   4.467
10831TIP3   OH232449   3.364   6.153   1.681
10831TIP3    H132450   3.332   6.215   1.746
10831TIP3    H232451   3.308   6.167   1.604
10832TIP3   OH232452   5.634   0.794   0.802
10832TIP3    H132453   5.555   0.846   0.793
10832TIP3    H232454   5.705   0.853   0.778
10833TIP3   OH232455   4.477   1.380   3.236
10833TIP3    H132456   4.398   1.375   3.182
10833TIP3    H232457   4.514   1.291   3.231
10834TIP3   OH232458   1.111   1.359   2.971
10834TIP3    H132459   1.150   1.425   3.029
10834TIP3    H232460   1.031   1.401   2.937
10835TIP3   OH232461   4.320   4.750   6.415
10835TIP3    H132462   4.376   4.692   6.363
10835TIP3    H232463   4.240   4.700   6.429
10836TIP3   OH232464   3.565   4.769   1.024
10836TIP3    H132465   3.573   4.796   1.116
10836TIP3    H232466   3.540   4.848   0.977
10837TIP3   OH232467   5.445   2.285   4.981
10837TIP3    H132468   5.483   2.227   4.915
10837TIP3    H232469   5.514   2.350   5.000
10838TIP3   OH232470   0.549   1.852   2.379
10838TIP3    H132471   0.508   1.821   2.460
10838TIP3    H232472   0.502   1.807   2.309
10839TIP3   OH232473   3.453   5.054   6.656
10839TIP3    H132474   3.381   5.108   6.690
10839TIP3    H232475   3.445   4.972   6.704
10840TIP3   OH232476   7.832   5.050   0.546
10840TIP3    H132477   7.765   5.003   0.597
10840TIP3    H232478   7.892   4.981   0.518
10841TIP3   OH232479   5.195   3.665   6.655
10841TIP3    H132480   5.158   3.589   6.700
10841TIP3    H232481   5.128   3.733   6.665
10842TIP3   OH232482   4.261   4.176   5.217
10842TIP3    H132483   4.209   4.108   5.258
10842TIP3    H232484   4.249   4.253   5.273
10843TIP3   OH232485   7.979   2.771   3.790
10843TIP3    H132486   7.887   2.752   3.772
10843TIP3    H232487   7.996   2.854   3.746
10844TIP3   OH232488   4.385   6.019   4.316
10844TIP3    H132489   4.410   6.066   4.395
10844TIP3    H232490   4.461   5.966   4.293
10845TIP3   OH232491   6.622   3.069   2.735
10845TIP3    H132492   6.685   3.100   2.669
10845TIP3    H232493   6.572   3.147   2.758
10846TIP3   OH232494   6.322   3.394   2.414
10846TIP3    H132495   6.350   3.414   2.325
10846TIP3    H232496   6.303   3.479   2.454
10847TIP3   OH232497   7.304   5.968   1.366
10847TIP3    H132498   7.269   5.879   1.365
10847TIP3    H232499   7.352   5.974   1.449
10848TIP3   OH232500   7.617   5.671   2.220
10848TIP3    H132501   7.565   5.736   2.171
10848TIP3    H232502   7.702   5.673   2.176
10849TIP3   OH232503   0.333   5.872   5.410
10849TIP3    H132504   0.382   5.945   5.373
10849TIP3    H232505   0.371   5.794   5.369
10850TIP3   OH232506   2.384   6.813   3.926
10850TIP3    H132507   2.371   6.855   4.011
10850TIP3    H232508   2.379   6.884   3.862
10851TIP3   OH232509   0.876   5.126   1.839
10851TIP3    H132510   0.796   5.129   1.787
10851TIP3    H232511   0.937   5.073   1.787
10852TIP3   OH232512   2.558   0.244   2.678
10852TIP3    H132513   2.573   0.242   2.772
10852TIP3    H232514   2.624   0.304   2.644
10853TIP3   OH232515   7.567   6.958   5.397
10853TIP3    H132516   7.542   6.878   5.351
10853TIP3    H232517   7.638   6.995   5.345
10854TIP3   OH232518   6.286   6.980   4.059
10854TIP3    H132519   6.234   6.901   4.042
10854TIP3    H232520   6.246   7.019   4.137
10855TIP3   OH232521   6.716   7.314   0.954
10855TIP3    H132522   6.738   7.369   1.029
10855TIP3    H232523   6.620   7.320   0.947
10856TIP3   OH232524   6.277   3.128   3.329
10856TIP3    H132525   6.294   3.035   3.313
10856TIP3    H232526   6.228   3.156   3.252
10857TIP3   OH232527   8.145   6.497   3.881
10857TIP3    H132528   8.099   6.562   3.829
10857TIP3    H232529   8.101   6.414   3.862
10858TIP3   OH232530   7.163   0.511   1.535
10858TIP3    H132531   7.221   0.578   1.572
10858TIP3    H232532   7.144   0.542   1.447
10859TIP3   OH232533   2.090   4.312   4.312
10859TIP3    H132534   2.062   4.397   4.346
10859TIP3    H232535   2.068   4.315   4.219
10860TIP3   OH232536   1.007   1.937   6.392
10860TIP3    H132537   0.973   1.876   6.327
10860TIP3    H232538   1.055   1.881   6.454
10861TIP3   OH232539   0.574   5.077   2.006
10861TIP3    H132540   0.605   5.081   2.097
10861TIP3    H232541   0.499   5.136   2.004
10862TIP3   OH232542   2.789   5.666   6.547
10862TIP3    H132543   2.694   5.659   6.554
10862TIP3    H232544   2.808   5.644   6.456
10863TIP3   OH232545   4.346   2.828   4.596
10863TIP3    H132546   4.326   2.901   4.655
10863TIP3    H232547   4.388   2.870   4.520
10864TIP3   OH232548   5.442   1.067   5.095
10864TIP3    H132549   5.392   1.080   5.014
10864TIP3    H232550   5.518   1.124   5.085
10865TIP3   OH232551   1.588   5.610   4.791
10865TIP3    H132552   1.581   5.687   4.735
10865TIP3    H232553   1.658   5.633   4.854
10866TIP3   OH232554   0.768   0.289   6.224
10866TIP3    H132555   0.802   0.356   6.166
10866TIP3    H232556   0.674   0.307   6.231
10867TIP3   OH232557   7.249   6.762   0.727
10867TIP3    H132558   7.240   6.741   0.820
10867TIP3    H232559   7.292   6.848   0.726
10868TIP3   OH232560   3.352   3.597   1.357
10868TIP3    H132561   3.426   3.653   1.380
10868TIP3    H232562   3.391   3.524   1.309
10869TIP3   OH232563   6.763   7.239   4.344
10869TIP3    H132564   6.796   7.170   4.403
10869TIP3    H232565   6.668   7.238   4.358
10870TIP3   OH232566   0.151   1.982   4.194
10870TIP3    H132567   0.164   1.927   4.271
10870TIP3    H232568   0.056   1.984   4.181
10871TIP3   OH232569   4.215   3.819   4.830
10871TIP3    H132570   4.120   3.817   4.829
10871TIP3    H232571   4.242   3.746   4.775
10872TIP3   OH232572   5.392   7.395   2.911
10872TIP3    H132573   5.457   7.327   2.897
10872TIP3    H232574   5.406   7.423   3.001
10873TIP3   OH232575   4.328   5.045   1.294
10873TIP3    H132576   4.246   5.055   1.344
10873TIP3    H232577   4.387   5.109   1.333
10874TIP3   OH232578   2.911   2.834   2.470
10874TIP3    H132579   2.989   2.845   2.525
10874TIP3    H232580   2.854   2.907   2.494
10875TIP3   OH232581   1.757   1.657   6.711
10875TIP3    H132582   1.794   1.729   6.762
10875TIP3    H232583   1.769   1.683   6.620
10876TIP3   OH232584   4.290   4.514   1.966
10876TIP3    H132585   4.350   4.587   1.952
10876TIP3    H232586   4.346   4.439   1.984
10877TIP3   OH232587   2.468   4.154   5.069
10877TIP3    H132588   2.415   4.081   5.101
10877TIP3    H232589   2.523   4.178   5.144
10878TIP3   OH232590   5.558   4.041   4.063
10878TIP3    H132591   5.583   3.967   4.008
10878TIP3    H232592   5.529   4.002   4.145
10879TIP3   OH232593   7.276   2.333   3.696
10879TIP3    H132594   7.214   2.331   3.769
10879TIP3    H232595   7.224   2.307   3.620
10880TIP3   OH232596   0.680   6.434   2.019
10880TIP3    H132597   0.670   6.435   1.924
10880TIP3    H232598   0.757   6.379   2.035
10881TIP3   OH232599   7.693   3.870   1.149
10881TIP3    H132600   7.716   3.946   1.202
10881TIP3    H232601   7.624   3.902   1.091
10882TIP3   OH232602   0.297   4.801   1.079
10882TIP3    H132603   0.223   4.858   1.101
10882TIP3    H232604   0.308   4.747   1.157
10883TIP3   OH232605   4.791   3.251   2.524
10883TIP3    H132606   4.836   3.328   2.490
10883TIP3    H232607   4.698   3.273   2.518
10884TIP3   OH232608   4.513   1.535   0.980
10884TIP3    H132609   4.476   1.500   0.899
10884TIP3    H232610   4.542   1.458   1.028
10885TIP3   OH232611   0.851   4.242   1.859
10885TIP3    H132612   0.872   4.197   1.940
10885TIP3    H232613   0.919   4.308   1.850
10886TIP3   OH232614   6.314   3.999   2.953
10886TIP3    H132615   6.337   4.007   2.861
10886TIP3    H232616   6.219   4.012   2.955
10887TIP3   OH232617   0.523   3.430   1.385
10887TIP3    H132618   0.576   3.387   1.318
10887TIP3    H232619   0.436   3.436   1.346
10888TIP3   OH232620   6.375   2.607   6.565
10888TIP3    H132621   6.306   2.673   6.557
10888TIP3    H232622   6.386   2.573   6.476
10889TIP3   OH232623   0.858   4.572   6.241
10889TIP3    H132624   0.935   4.586   6.296
10889TIP3    H232625   0.886   4.508   6.176
10890TIP3   OH232626   5.098   1.569   0.779
10890TIP3    H132627   5.123   1.478   0.760
10890TIP3    H232628   5.180   1.617   0.778
10891TIP3   OH232629   4.320   1.270   2.702
10891TIP3    H132630   4.227   1.251   2.708
10891TIP3    H232631   4.341   1.315   2.784
10892TIP3   OH232632   2.331   1.297   3.212
10892TIP3    H132633   2.351   1.211   3.174
10892TIP3    H232634   2.242   1.316   3.181
10893TIP3   OH232635   0.156   0.333   2.791
10893TIP3    H132636   0.060   0.333   2.784
10893TIP3    H232637   0.186   0.318   2.701
10894TIP3   OH232638   0.313   6.610   0.868
10894TIP3    H132639   0.282   6.577   0.952
10894TIP3    H232640   0.286   6.702   0.866
10895TIP3   OH232641   6.297   3.042   0.485
10895TIP3    H132642   6.276   3.083   0.401
10895TIP3    H232643   6.349   2.966   0.462
10896TIP3   OH232644   7.569   4.789   2.119
10896TIP3    H132645   7.630   4.826   2.183
10896TIP3    H232646   7.485   4.830   2.140
10897TIP3   OH232647   6.292   5.168   3.560
10897TIP3    H132648   6.335   5.092   3.521
10897TIP3    H232649   6.361   5.234   3.565
10898TIP3   OH232650   6.429   0.202   5.345
10898TIP3    H132651   6.448   0.176   5.255
10898TIP3    H232652   6.505   0.172   5.395
10899TIP3   OH232653   3.632   6.554   3.461
10899TIP3    H132654   3.660   6.629   3.513
10899TIP3    H232655   3.711   6.527   3.413
10900TIP3   OH232656   4.787   1.446   3.587
10900TIP3    H132657   4.789   1.403   3.672
10900TIP3    H232658   4.797   1.539   3.606
10901TIP3   OH232659   4.061   6.502   2.093
10901TIP3    H132660   4.108   6.565   2.147
10901TIP3    H232661   4.128   6.442   2.062
10902TIP3   OH232662   6.416   0.335   0.196
10902TIP3    H132663   6.416   0.340   0.100
10902TIP3    H232664   6.374   0.251   0.216
10903TIP3   OH232665   3.645   7.534   3.324
10903TIP3    H132666   3.714   7.479   3.361
10903TIP3    H232667   3.585   7.472   3.281
10904TIP3   OH232668   2.475   3.492   2.968
10904TIP3    H132669   2.527   3.451   2.899
10904TIP3    H232670   2.513   3.579   2.978
10905TIP3   OH232671   0.482   3.232   3.635
10905TIP3    H132672   0.506   3.155   3.583
10905TIP3    H232673   0.438   3.196   3.712
10906TIP3   OH232674   5.779   5.789   4.267
10906TIP3    H132675   5.770   5.710   4.214
10906TIP3    H232676   5.689   5.815   4.286
10907TIP3   OH232677   5.254   1.524   4.754
10907TIP3    H132678   5.317   1.492   4.818
10907TIP3    H232679   5.280   1.615   4.737
10908TIP3   OH232680   8.094   6.013   4.154
10908TIP3    H132681   8.013   5.993   4.200
10908TIP3    H232682   8.138   5.929   4.144
10909TIP3   OH232683   3.576   2.930   1.307
10909TIP3    H132684   3.512   2.987   1.262
10909TIP3    H232685   3.635   2.902   1.237
10910TIP3   OH232686   0.993   0.586   1.853
10910TIP3    H132687   0.933   0.513   1.866
10910TIP3    H232688   0.944   0.663   1.880
10911TIP3   OH232689   5.450   4.144   5.607
10911TIP3    H132690   5.427   4.051   5.605
10911TIP3    H232691   5.365   4.189   5.605
10912TIP3   OH232692   6.703   7.731   2.217
10912TIP3    H132693   6.657   7.653   2.247
10912TIP3    H232694   6.663   7.752   2.132
10913TIP3   OH232695   4.677   0.821   1.082
10913TIP3    H132696   4.605   0.768   1.049
10913TIP3    H232697   4.755   0.786   1.038
10914TIP3   OH232698   7.611   1.941   4.926
10914TIP3    H132699   7.540   1.998   4.957
10914TIP3    H232700   7.570   1.856   4.913
10915TIP3   OH232701   3.481   2.427   0.403
10915TIP3    H132702   3.496   2.365   0.331
10915TIP3    H232703   3.436   2.501   0.362
10916TIP3   OH232704   5.215   3.810   1.608
10916TIP3    H132705   5.189   3.838   1.520
10916TIP3    H232706   5.141   3.759   1.640
10917TIP3   OH232707   0.100   2.929   1.335
10917TIP3    H132708   0.019   2.950   1.382
10917TIP3    H232709   0.080   2.846   1.290
10918TIP3   OH232710   0.294   2.099   2.948
10918TIP3    H132711   0.294   2.157   3.024
10918TIP3    H232712   0.368   2.128   2.895
10919TIP3   OH232713   2.583   2.398   3.699
10919TIP3    H132714   2.651   2.332   3.711
10919TIP3    H232715   2.516   2.376   3.764
10920TIP3   OH232716   1.310   0.686   3.240
10920TIP3    H132717   1.242   0.746   3.208
10920TIP3    H232718   1.302   0.689   3.335
10921TIP3   OH232719   2.081   4.503   2.323
10921TIP3    H132720   2.106   4.433   2.384
10921TIP3    H232721   2.042   4.570   2.379
10922TIP3   OH232722   6.037   4.921   0.476
10922TIP3    H132723   6.042   4.919   0.380
10922TIP3    H232724   6.079   4.839   0.503
10923TIP3   OH232725   3.097   0.098   1.005
10923TIP3    H132726   3.027   0.038   1.028
10923TIP3    H232727   3.158   0.045   0.953
10924TIP3   OH232728   5.543   6.350   1.119
10924TIP3    H132729   5.636   6.348   1.094
10924TIP3    H232730   5.528   6.440   1.148
10925TIP3   OH232731   7.511   5.454   4.723
10925TIP3    H132732   7.539   5.365   4.743
10925TIP3    H232733   7.449   5.476   4.792
10926TIP3   OH232734   5.256   4.111   2.651
10926TIP3    H132735   5.293   4.178   2.594
10926TIP3    H232736   5.307   4.032   2.631
10927TIP3   OH232737   3.892   0.224   6.233
10927TIP3    H132738   3.867   0.211   6.325
10927TIP3    H232739   3.820   0.185   6.183
10928TIP3   OH232740   1.528   1.637   6.183
10928TIP3    H132741   1.518   1.548   6.216
10928TIP3    H232742   1.446   1.657   6.139
10929TIP3   OH232743   6.565   1.710   2.347
10929TIP3    H132744   6.508   1.671   2.281
10929TIP3    H232745   6.507   1.768   2.397
10930TIP3   OH232746   1.180   7.758   5.316
10930TIP3    H132747   1.201   7.675   5.358
10930TIP3    H232748   1.259   7.781   5.267
10931TIP3   OH232749   0.993   5.955   3.989
10931TIP3    H132750   1.078   5.961   4.032
10931TIP3    H232751   1.009   5.905   3.910
10932TIP3   OH232752   5.204   3.956   5.369
10932TIP3    H132753   5.293   3.985   5.348
10932TIP3    H232754   5.153   3.979   5.291
10933TIP3   OH232755   4.016   3.112   5.372
10933TIP3    H132756   4.050   3.022   5.371
10933TIP3    H232757   3.976   3.122   5.459
10934TIP3   OH232758   5.321   3.145   2.071
10934TIP3    H132759   5.259   3.153   1.998
10934TIP3    H232760   5.345   3.052   2.072
10935TIP3   OH232761   3.425   0.483   4.844
10935TIP3    H132762   3.508   0.467   4.888
10935TIP3    H232763   3.390   0.396   4.825
10936TIP3   OH232764   6.303   5.418   0.899
10936TIP3    H132765   6.398   5.423   0.885
10936TIP3    H232766   6.268   5.387   0.815
10937TIP3   OH232767   5.233   0.888   4.188
10937TIP3    H132768   5.163   0.950   4.211
10937TIP3    H232769   5.247   0.904   4.094
10938TIP3   OH232770   1.669   2.942   1.437
10938TIP3    H132771   1.750   2.983   1.467
10938TIP3    H232772   1.603   3.011   1.443
10939TIP3   OH232773   6.805   0.694   1.689
10939TIP3    H132774   6.896   0.706   1.714
10939TIP3    H232775   6.802   0.608   1.648
10940TIP3   OH232776   0.711   6.725   2.017
10940TIP3    H132777   0.681   6.635   2.030
10940TIP3    H232778   0.692   6.769   2.100
10941TIP3   OH232779   0.064   5.339   1.631
10941TIP3    H132780  -0.016   5.390   1.648
10941TIP3    H232781   0.135   5.398   1.655
10942TIP3   OH232782   8.118   6.666   2.205
10942TIP3    H132783   8.050   6.692   2.143
10942TIP3    H232784   8.191   6.639   2.150
10943TIP3   OH232785   1.117   4.221   1.139
10943TIP3    H132786   1.027   4.189   1.137
10943TIP3    H232787   1.144   4.209   1.230
10944TIP3   OH232788   6.566   4.378   0.974
10944TIP3    H132789   6.595   4.310   0.913
10944TIP3    H232790   6.570   4.336   1.060
10945TIP3   OH232791   3.820   4.991   2.210
10945TIP3    H132792   3.758   5.036   2.268
10945TIP3    H232793   3.779   4.997   2.123
10946TIP3   OH232794   5.958   1.519   3.549
10946TIP3    H132795   5.912   1.436   3.537
10946TIP3    H232796   6.047   1.501   3.519
10947TIP3   OH232797   6.030   0.900   0.565
10947TIP3    H132798   6.057   0.819   0.608
10947TIP3    H232799   6.105   0.958   0.570
10948TIP3   OH232800   7.273   5.317   1.845
10948TIP3    H132801   7.243   5.230   1.817
10948TIP3    H232802   7.362   5.323   1.811
10949TIP3   OH232803   5.295   5.683   1.189
10949TIP3    H132804   5.258   5.676   1.277
10949TIP3    H232805   5.236   5.631   1.134
10950TIP3   OH232806   5.317   7.133   6.230
10950TIP3    H132807   5.266   7.070   6.281
10950TIP3    H232808   5.357   7.080   6.161
10951TIP3   OH232809   7.814   0.428   4.710
10951TIP3    H132810   7.839   0.451   4.800
10951TIP3    H232811   7.877   0.475   4.655
10952TIP3   OH232812   8.138   5.686   0.720
10952TIP3    H132813   8.125   5.737   0.800
10952TIP3    H232814   8.055   5.641   0.706
10953TIP3   OH232815   7.632   6.520   4.936
10953TIP3    H132816   7.579   6.541   4.858
10953TIP3    H232817   7.686   6.598   4.949
10954TIP3   OH232818   7.817   5.170   2.995
10954TIP3    H132819   7.784   5.169   2.905
10954TIP3    H232820   7.826   5.077   3.018
10955TIP3   OH232821   3.874   6.013   3.784
10955TIP3    H132822   3.904   6.089   3.834
10955TIP3    H232823   3.781   6.028   3.771
10956TIP3   OH232824   4.331   6.096   0.070
10956TIP3    H132825   4.330   6.044  -0.010
10956TIP3    H232826   4.418   6.081   0.107
10957TIP3   OH232827   1.890   7.222   1.153
10957TIP3    H132828   1.907   7.316   1.144
10957TIP3    H232829   1.976   7.184   1.169
10958TIP3   OH232830   2.525   6.358   2.030
10958TIP3    H132831   2.603   6.311   2.059
10958TIP3    H232832   2.476   6.375   2.111
10959TIP3   OH232833   3.958   2.616   2.414
10959TIP3    H132834   3.873   2.594   2.375
10959TIP3    H232835   3.948   2.594   2.507
10960TIP3   OH232836   4.850   6.864   3.978
10960TIP3    H132837   4.862   6.804   3.904
10960TIP3    H232838   4.777   6.919   3.952
10961TIP3   OH232839   5.254   7.637   3.932
10961TIP3    H132840   5.192   7.586   3.880
10961TIP3    H232841   5.205   7.659   4.012
10962TIP3   OH232842   5.575   6.283   3.710
10962TIP3    H132843   5.481   6.280   3.689
10962TIP3    H232844   5.607   6.360   3.662
10963TIP3   OH232845   1.846   0.652   2.092
10963TIP3    H132846   1.857   0.598   2.014
10963TIP3    H232847   1.776   0.714   2.069
10964TIP3   OH232848   3.591   6.869   6.226
10964TIP3    H132849   3.656   6.939   6.216
10964TIP3    H232850   3.609   6.810   6.153
10965TIP3   OH232851   5.584   4.982   6.276
10965TIP3    H132852   5.636   5.062   6.278
10965TIP3    H232853   5.603   4.943   6.190
10966TIP3   OH232854   0.028   5.128   4.104
10966TIP3    H132855   0.045   5.040   4.069
10966TIP3    H232856  -0.035   5.114   4.174
10967TIP3   OH232857   7.360   2.924   2.597
10967TIP3    H132858   7.418   2.855   2.566
10967TIP3    H232859   7.278   2.910   2.550
10968TIP3   OH232860   1.162   4.503   6.113
10968TIP3    H132861   1.209   4.465   6.039
10968TIP3    H232862   1.215   4.481   6.189
10969TIP3   OH232863   1.004   7.519   6.326
10969TIP3    H132864   0.925   7.466   6.325
10969TIP3    H232865   0.973   7.609   6.325
10970TIP3   OH232866   7.201   0.582   5.035
10970TIP3    H132867   7.219   0.566   4.943
10970TIP3    H232868   7.243   0.666   5.053
10971TIP3   OH232869   0.192   5.283   0.788
10971TIP3    H132870   0.249   5.353   0.820
10971TIP3    H232871   0.246   5.205   0.791
10972TIP3   OH232872   4.744   7.349   4.156
10972TIP3    H132873   4.676   7.326   4.093
10972TIP3    H232874   4.696   7.376   4.234
10973TIP3   OH232875   4.458   2.169   4.961
10973TIP3    H132876   4.363   2.162   4.948
10973TIP3    H232877   4.478   2.261   4.945
10974TIP3   OH232878   3.337   6.863   6.749
10974TIP3    H132879   3.250   6.867   6.710
10974TIP3    H232880   3.369   6.953   6.746
10975TIP3   OH232881   5.338   5.495   4.988
10975TIP3    H132882   5.403   5.474   4.922
10975TIP3    H232883   5.374   5.459   5.069
10976TIP3   OH232884   3.583   4.074   2.207
10976TIP3    H132885   3.501   4.089   2.160
10976TIP3    H232886   3.640   4.145   2.179
10977TIP3   OH232887   1.641   4.645   3.927
10977TIP3    H132888   1.674   4.666   4.014
10977TIP3    H232889   1.579   4.715   3.907
10978TIP3   OH232890   1.867   3.057   6.293
10978TIP3    H132891   1.824   3.086   6.374
10978TIP3    H232892   1.840   2.966   6.283
10979TIP3   OH232893   7.201   6.977   2.558
10979TIP3    H132894   7.210   6.928   2.640
10979TIP3    H232895   7.176   7.066   2.585
10980TIP3   OH232896   3.600   1.792   1.874
10980TIP3    H132897   3.633   1.756   1.956
10980TIP3    H232898   3.506   1.774   1.875
10981TIP3   OH232899   3.177   0.707   2.126
10981TIP3    H132900   3.198   0.771   2.058
10981TIP3    H232901   3.249   0.645   2.124
10982TIP3   OH232902   4.753   1.539   6.728
10982TIP3    H132903   4.787   1.557   6.816
10982TIP3    H232904   4.804   1.464   6.697
10983TIP3   OH232905   5.512   1.359   5.926
10983TIP3    H132906   5.572   1.349   6.000
10983TIP3    H232907   5.426   1.332   5.960
10984TIP3   OH232908   3.674   5.413   5.670
10984TIP3    H132909   3.707   5.439   5.585
10984TIP3    H232910   3.654   5.496   5.714
10985TIP3   OH232911   4.641   2.575   5.411
10985TIP3    H132912   4.728   2.560   5.449
10985TIP3    H232913   4.580   2.565   5.484
10986TIP3   OH232914   5.511   6.898   6.303
10986TIP3    H132915   5.415   6.902   6.307
10986TIP3    H232916   5.540   6.977   6.348
10987TIP3   OH232917   2.749   5.376   0.098
10987TIP3    H132918   2.720   5.309   0.037
10987TIP3    H232919   2.844   5.381   0.084
10988TIP3   OH232920   1.315   4.818   5.835
10988TIP3    H132921   1.377   4.761   5.881
10988TIP3    H232922   1.230   4.794   5.872
10989TIP3   OH232923   3.144   2.665   0.180
10989TIP3    H132924   3.238   2.648   0.188
10989TIP3    H232925   3.132   2.694   0.090
10990TIP3   OH232926   1.245   5.415   1.275
10990TIP3    H132927   1.151   5.433   1.264
10990TIP3    H232928   1.249   5.358   1.352
10991TIP3   OH232929   6.856   5.178   5.807
10991TIP3    H132930   6.902   5.253   5.845
10991TIP3    H232931   6.851   5.198   5.714
10992TIP3   OH232932   5.548   0.839   4.064
10992TIP3    H132933   5.526   0.845   4.157
10992TIP3    H232934   5.582   0.926   4.042
10993TIP3   OH232935   4.281   0.871   0.285
10993TIP3    H132936   4.233   0.790   0.269
10993TIP3    H232937   4.214   0.932   0.316
10994TIP3   OH232938   4.774   2.384   5.944
10994TIP3    H132939   4.782   2.443   6.019
10994TIP3    H232940   4.744   2.440   5.872
10995TIP3   OH232941   5.808   0.980   3.544
10995TIP3    H132942   5.899   1.011   3.541
10995TIP3    H232943   5.813   0.899   3.594
10996TIP3   OH232944   7.953   0.288   1.747
10996TIP3    H132945   7.873   0.315   1.792
10996TIP3    H232946   7.960   0.194   1.764
10997TIP3   OH232947   4.341   4.046   3.712
10997TIP3    H132948   4.435   4.044   3.730
10997TIP3    H232949   4.305   3.980   3.771
10998TIP3   OH232950   6.280   2.009   4.935
10998TIP3    H132951   6.212   1.980   4.996
10998TIP3    H232952   6.271   1.951   4.859
10999TIP3   OH232953   5.546   7.404   6.574
10999TIP3    H132954   5.488   7.334   6.547
10999TIP3    H232955   5.499   7.484   6.551
11000TIP3   OH232956   4.060   1.876   0.833
11000TIP3    H132957   4.029   1.879   0.743
11000TIP3    H232958   4.135   1.937   0.835
11001TIP3   OH232959   0.343   4.919   3.215
11001TIP3    H132960   0.268   4.873   3.253
11001TIP3    H232961   0.419   4.869   3.246
11002TIP3   OH232962   3.166   7.175   2.069
11002TIP3    H132963   3.183   7.266   2.047
11002TIP3    H232964   3.094   7.179   2.133
11003TIP3   OH232965   7.923   6.435   4.857
11003TIP3    H132966   7.959   6.348   4.839
11003TIP3    H232967   7.993   6.496   4.834
11004TIP3   OH232968   6.332   6.113   1.476
11004TIP3    H132969   6.263   6.160   1.522
11004TIP3    H232970   6.294   6.028   1.454
11005TIP3   OH232971   0.751   5.603   6.511
11005TIP3    H132972   0.847   5.606   6.513
11005TIP3    H232973   0.729   5.510   6.519
11006TIP3   OH232974   1.717   0.283   3.342
11006TIP3    H132975   1.729   0.378   3.348
11006TIP3    H232976   1.626   0.269   3.369
11007TIP3   OH232977   7.365   6.128   5.077
11007TIP3    H132978   7.440   6.183   5.055
11007TIP3    H232979   7.380   6.046   5.030
11008TIP3   OH232980   3.400   0.070   5.900
11008TIP3    H132981   3.312   0.101   5.882
11008TIP3    H232982   3.391  -0.026   5.905
11009TIP3   OH232983   2.174   1.967   6.571
11009TIP3    H132984   2.227   1.942   6.496
11009TIP3    H232985   2.170   1.889   6.626
11010TIP3   OH232986   6.947   6.969   5.278
11010TIP3    H132987   6.945   6.882   5.319
11010TIP3    H232988   6.885   6.962   5.206
11011TIP3   OH232989   6.586   0.560   3.142
11011TIP3    H132990   6.662   0.611   3.114
11011TIP3    H232991   6.523   0.626   3.170
11012TIP3   OH232992   4.374   5.986   5.631
11012TIP3    H132993   4.309   6.052   5.656
11012TIP3    H232994   4.346   5.907   5.679
11013TIP3   OH232995   3.647   1.698   2.713
11013TIP3    H132996   3.718   1.731   2.659
11013TIP3    H232997   3.689   1.676   2.797
11014TIP3   OH232998   2.282   4.984   2.124
11014TIP3    H132999   2.249   4.967   2.212
11014TIP3    H233000   2.356   4.923   2.114
11015TIP3   OH233001   3.169   3.143   2.820
11015TIP3    H133002   3.236   3.184   2.766
11015TIP3    H233003   3.087   3.161   2.774
11016TIP3   OH233004   8.099   5.838   0.962
11016TIP3    H133005   8.123   5.762   1.015
11016TIP3    H233006   8.083   5.908   1.026
11017TIP3   OH233007   4.512   4.560   3.833
11017TIP3    H133008   4.484   4.608   3.912
11017TIP3    H233009   4.566   4.624   3.785
11018TIP3   OH233010   4.388   2.205   4.633
11018TIP3    H133011   4.377   2.254   4.715
11018TIP3    H233012   4.326   2.244   4.573
11019TIP3   OH233013   1.975   0.506   5.288
11019TIP3    H133014   1.922   0.563   5.232
11019TIP3    H233015   2.009   0.439   5.228
11020TIP3   OH233016   0.843   4.407   3.011
11020TIP3    H133017   0.903   4.480   2.997
11020TIP3    H233018   0.857   4.381   3.102
11021TIP3   OH233019   7.176   6.627   4.818
11021TIP3    H133020   7.134   6.597   4.899
11021TIP3    H233021   7.160   6.721   4.817
11022TIP3   OH233022   3.724   7.737   2.824
11022TIP3    H133023   3.722   7.661   2.765
11022TIP3    H233024   3.657   7.718   2.890
11023TIP3   OH233025   0.539   7.518   0.776
11023TIP3    H133026   0.503   7.468   0.703
11023TIP3    H233027   0.631   7.531   0.753
11024TIP3   OH233028   5.573   3.804   3.923
11024TIP3    H133029   5.524   3.750   3.986
11024TIP3    H233030   5.523   3.796   3.841
11025TIP3   OH233031   2.730   5.297   1.503
11025TIP3    H133032   2.739   5.326   1.594
11025TIP3    H233033   2.711   5.377   1.454
11026TIP3   OH233034   5.340   5.817   1.667
11026TIP3    H133035   5.422   5.852   1.702
11026TIP3    H233036   5.274   5.839   1.732
11027TIP3   OH233037   4.933   1.294   0.519
11027TIP3    H133038   4.949   1.210   0.476
11027TIP3    H233039   4.898   1.350   0.450
11028TIP3   OH233040   7.405   6.359   1.613
11028TIP3    H133041   7.348   6.377   1.688
11028TIP3    H233042   7.478   6.420   1.624
11029TIP3   OH233043   3.918   6.318   1.855
11029TIP3    H133044   3.973   6.308   1.932
11029TIP3    H233045   3.922   6.233   1.811
11030TIP3   OH233046   4.605   1.565   1.467
11030TIP3    H133047   4.608   1.608   1.382
11030TIP3    H233048   4.532   1.503   1.460
11031TIP3   OH233049   7.756   4.924   5.449
11031TIP3    H133050   7.798   4.998   5.406
11031TIP3    H233051   7.690   4.963   5.505
11032TIP3   OH233052   7.845   3.572   3.251
11032TIP3    H133053   7.896   3.653   3.243
11032TIP3    H233054   7.755   3.602   3.266
11033TIP3   OH233055   1.866   1.621   2.755
11033TIP3    H133056   1.841   1.580   2.837
11033TIP3    H233057   1.822   1.569   2.688
11034TIP3   OH233058   6.404   2.985   0.966
11034TIP3    H133059   6.334   2.939   1.013
11034TIP3    H233060   6.360   3.020   0.889
11035TIP3   OH233061   6.403   3.403   1.797
11035TIP3    H133062   6.452   3.367   1.724
11035TIP3    H233063   6.420   3.498   1.793
11036TIP3   OH233064   3.887   7.680   5.504
11036TIP3    H133065   3.864   7.597   5.547
11036TIP3    H233066   3.866   7.664   5.412
11037TIP3   OH233067   5.551   7.597   1.681
11037TIP3    H133068   5.560   7.614   1.775
11037TIP3    H233069   5.619   7.533   1.662
11038TIP3   OH233070   5.243   1.043   4.717
11038TIP3    H133071   5.195   0.969   4.680
11038TIP3    H233072   5.177   1.096   4.760
11039TIP3   OH233073   4.565   5.994   0.231
11039TIP3    H133074   4.660   5.997   0.215
11039TIP3    H233075   4.557   5.960   0.320
11040TIP3   OH233076   4.798   3.845   1.505
11040TIP3    H133077   4.713   3.816   1.540
11040TIP3    H233078   4.775   3.915   1.444
11041TIP3   OH233079   3.663   3.424   0.941
11041TIP3    H133080   3.721   3.439   1.015
11041TIP3    H233081   3.634   3.333   0.950
11042TIP3   OH233082   0.709   0.600   4.518
11042TIP3    H133083   0.800   0.587   4.491
11042TIP3    H233084   0.659   0.535   4.469
11043TIP3   OH233085   4.081   2.247   6.213
11043TIP3    H133086   4.021   2.177   6.240
11043TIP3    H233087   4.024   2.314   6.176
11044TIP3   OH233088   5.962   6.672   6.702
11044TIP3    H133089   5.986   6.614   6.630
11044TIP3    H233090   5.930   6.752   6.660
11045TIP3   OH233091   6.899   0.507   3.998
11045TIP3    H133092   6.845   0.512   3.919
11045TIP3    H233093   6.944   0.592   4.001
11046TIP3   OH233094   6.237   3.175   4.549
11046TIP3    H133095   6.189   3.096   4.523
11046TIP3    H233096   6.325   3.164   4.512
11047TIP3   OH233097   3.794   5.328   6.047
11047TIP3    H133098   3.841   5.252   6.081
11047TIP3    H233099   3.708   5.324   6.089
11048TIP3   OH233100   3.371   0.114   5.459
11048TIP3    H133101   3.338   0.047   5.519
11048TIP3    H233102   3.465   0.117   5.476
11049TIP3   OH233103   4.851   5.925   6.252
11049TIP3    H133104   4.929   5.886   6.213
11049TIP3    H233105   4.855   6.017   6.228
11050TIP3   OH233106   6.648   4.916   4.369
11050TIP3    H133107   6.727   4.900   4.316
11050TIP3    H233108   6.616   5.001   4.339
11051TIP3   OH233109   5.263   3.876   2.163
11051TIP3    H133110   5.175   3.846   2.141
11051TIP3    H233111   5.314   3.859   2.084
11052TIP3   OH233112   3.406   6.293   3.056
11052TIP3    H133113   3.474   6.343   3.099
11052TIP3    H233114   3.410   6.206   3.097
11053TIP3   OH233115   4.571   2.416   4.537
11053TIP3    H133116   4.489   2.376   4.566
11053TIP3    H233117   4.561   2.509   4.557
11054TIP3   OH233118   7.316   7.623   3.667
11054TIP3    H133119   7.228   7.616   3.632
11054TIP3    H233120   7.304   7.631   3.761
11055TIP3   OH233121   2.934   4.084   1.131
11055TIP3    H133122   2.905   4.167   1.169
11055TIP3    H233123   3.010   4.107   1.079
11056TIP3   OH233124   1.731   1.387   2.067
11056TIP3    H133125   1.752   1.299   2.096
11056TIP3    H233126   1.779   1.398   1.985
11057TIP3   OH233127   1.192   7.834   0.482
11057TIP3    H133128   1.233   7.770   0.541
11057TIP3    H233129   1.146   7.781   0.417
11058TIP3   OH233130   3.299   5.803   4.710
11058TIP3    H133131   3.389   5.834   4.715
11058TIP3    H233132   3.291   5.740   4.782
11059TIP3   OH233133   6.576   2.629   5.754
11059TIP3    H133134   6.604   2.575   5.680
11059TIP3    H233135   6.481   2.635   5.745
11060TIP3   OH233136   7.750   3.899   6.305
11060TIP3    H133137   7.771   3.943   6.387
11060TIP3    H233138   7.654   3.904   6.299
11061TIP3   OH233139   2.105   1.758   0.789
11061TIP3    H133140   2.047   1.693   0.828
11061TIP3    H233141   2.191   1.715   0.787
11062TIP3   OH233142   6.139   5.938   6.395
11062TIP3    H133143   6.127   5.982   6.479
11062TIP3    H233144   6.195   5.998   6.345
11063TIP3   OH233145   1.696   7.639   0.226
11063TIP3    H133146   1.628   7.639   0.293
11063TIP3    H233147   1.671   7.710   0.167
11064TIP3   OH233148   3.925   5.294   3.955
11064TIP3    H133149   3.892   5.212   3.919
11064TIP3    H233150   3.870   5.310   4.032
11065TIP3   OH233151   6.633   3.759   0.625
11065TIP3    H133152   6.686   3.816   0.570
11065TIP3    H233153   6.602   3.815   0.695
11066TIP3   OH233154   5.233   7.425   6.475
11066TIP3    H133155   5.284   7.471   6.408
11066TIP3    H233156   5.142   7.444   6.454
11067TIP3   OH233157   3.900   2.983   4.843
11067TIP3    H133158   3.853   2.998   4.761
11067TIP3    H233159   3.936   2.894   4.834
11068TIP3   OH233160   3.338   0.593   2.855
11068TIP3    H133161   3.406   0.551   2.908
11068TIP3    H233162   3.341   0.546   2.772
11069TIP3   OH233163   6.830   7.019   1.340
11069TIP3    H133164   6.745   7.042   1.302
11069TIP3    H233165   6.873   7.104   1.353
11070TIP3   OH233166   1.701   5.947   5.150
11070TIP3    H133167   1.767   5.891   5.191
11070TIP3    H233168   1.726   6.036   5.175
11071TIP3   OH233169   6.809   3.603   4.660
11071TIP3    H133170   6.782   3.617   4.569
11071TIP3    H233171   6.740   3.549   4.698
11072TIP3   OH233172   7.057   0.860   4.995
11072TIP3    H133173   7.024   0.771   4.986
11072TIP3    H233174   7.095   0.880   4.909
11073TIP3   OH233175   2.256   1.945   4.654
11073TIP3    H133176   2.303   1.986   4.582
11073TIP3    H233177   2.309   1.867   4.675
11074TIP3   OH233178   5.977   1.377   5.865
11074TIP3    H133179   6.038   1.438   5.824
11074TIP3    H233180   5.913   1.358   5.797
11075TIP3   OH233181   2.953   0.928   3.047
11075TIP3    H133182   2.981   0.856   3.103
11075TIP3    H233183   2.884   0.971   3.096
11076TIP3   OH233184   1.586   5.881   5.955
11076TIP3    H133185   1.670   5.863   5.914
11076TIP3    H233186   1.522   5.871   5.884
11077TIP3   OH233187   6.755   6.696   0.850
11077TIP3    H133188   6.676   6.653   0.883
11077TIP3    H233189   6.724   6.780   0.816
11078TIP3   OH233190   5.985   2.390   0.061
11078TIP3    H133191   5.947   2.456   0.120
11078TIP3    H233192   5.941   2.405  -0.023
11079TIP3   OH233193   6.400   7.033   3.812
11079TIP3    H133194   6.433   7.121   3.828
11079TIP3    H233195   6.363   7.006   3.896
11080TIP3   OH233196   7.853   3.404   5.349
11080TIP3    H133197   7.836   3.310   5.343
11080TIP3    H233198   7.940   3.410   5.388
11081TIP3   OH233199   1.513   5.683   1.392
11081TIP3    H133200   1.464   5.651   1.468
11081TIP3    H233201   1.565   5.756   1.427
11082TIP3   OH233202   5.861   2.604   2.289
11082TIP3    H133203   5.854   2.565   2.202
11082TIP3    H233204   5.851   2.530   2.349
11083TIP3   OH233205   2.697   7.444   4.910
11083TIP3    H133206   2.623   7.389   4.886
11083TIP3    H233207   2.685   7.463   5.003
11084TIP3   OH233208   0.709   3.273   2.997
11084TIP3    H133209   0.785   3.220   2.973
11084TIP3    H233210   0.723   3.296   3.089
11085TIP3   OH233211   6.833   5.724   3.624
11085TIP3    H133212   6.894   5.748   3.554
11085TIP3    H233213   6.758   5.782   3.611
11086TIP3   OH233214   5.215   3.383   1.441
11086TIP3    H133215   5.258   3.341   1.516
11086TIP3    H233216   5.141   3.325   1.421
11087TIP3   OH233217   4.693   5.549   6.318
11087TIP3    H133218   4.755   5.521   6.385
11087TIP3    H233219   4.701   5.644   6.317
11088TIP3   OH233220   1.714   5.235   4.252
11088TIP3    H133221   1.702   5.325   4.221
11088TIP3    H233222   1.696   5.239   4.346
11089TIP3   OH233223   5.388   3.558   3.404
11089TIP3    H133224   5.340   3.535   3.324
11089TIP3    H233225   5.359   3.494   3.469
11090TIP3   OH233226   2.456   1.148   0.740
11090TIP3    H133227   2.515   1.112   0.806
11090TIP3    H233228   2.387   1.083   0.730
11091TIP3   OH233229   6.549   3.981   2.537
11091TIP3    H133230   6.549   4.040   2.462
11091TIP3    H233231   6.627   3.927   2.524
11092TIP3   OH233232   3.474   2.773   4.727
11092TIP3    H133233   3.510   2.862   4.719
11092TIP3    H233234   3.549   2.716   4.716
11093TIP3   OH233235   1.021   3.623   6.548
11093TIP3    H133236   1.041   3.591   6.636
11093TIP3    H233237   1.001   3.545   6.497
11094TIP3   OH233238   3.862   5.661   5.605
11094TIP3    H133239   3.892   5.594   5.666
11094TIP3    H233240   3.808   5.720   5.658
11095TIP3   OH233241   4.522   1.550   4.027
11095TIP3    H133242   4.610   1.535   4.062
11095TIP3    H233243   4.537   1.591   3.942
11096TIP3   OH233244   5.912   5.513   3.200
11096TIP3    H133245   5.835   5.491   3.147
11096TIP3    H233246   5.986   5.492   3.144
11097TIP3   OH233247   1.903   0.478   0.537
11097TIP3    H133248   1.969   0.544   0.514
11097TIP3    H233249   1.823   0.529   0.551
11098TIP3   OH233250   7.235   5.233   4.249
11098TIP3    H133251   7.263   5.246   4.339
11098TIP3    H233252   7.141   5.253   4.250
11099TIP3   OH233253   5.987   1.614   1.850
11099TIP3    H133254   6.047   1.543   1.871
11099TIP3    H233255   5.932   1.579   1.779
11100TIP3   OH233256   4.167   2.290   0.658
11100TIP3    H133257   4.200   2.365   0.608
11100TIP3    H233258   4.090   2.325   0.704
11101TIP3   OH233259   8.156   4.552   2.968
11101TIP3    H133260   8.160   4.587   3.057
11101TIP3    H233261   8.215   4.476   2.970
11102TIP3   OH233262   0.382   1.124   3.711
11102TIP3    H133263   0.467   1.163   3.730
11102TIP3    H233264   0.368   1.063   3.783
11103TIP3   OH233265   7.981   0.550   1.113
11103TIP3    H133266   7.914   0.488   1.143
11103TIP3    H233267   8.064   0.506   1.132
11104TIP3   OH233268   3.259   3.902   6.676
11104TIP3    H133269   3.302   3.823   6.642
11104TIP3    H233270   3.300   3.916   6.762
11105TIP3   OH233271   8.290   1.710   2.507
11105TIP3    H133272   8.200   1.678   2.518
11105TIP3    H233273   8.317   1.739   2.594
11106TIP3   OH233274   6.534   3.769   5.138
11106TIP3    H133275   6.498   3.838   5.194
11106TIP3    H233276   6.458   3.720   5.107
11107TIP3   OH233277   5.706   3.067   5.259
11107TIP3    H133278   5.707   3.097   5.350
11107TIP3    H233279   5.710   2.971   5.266
11108TIP3   OH233280   6.667   0.158   5.456
11108TIP3    H133281   6.715   0.075   5.460
11108TIP3    H233282   6.728   0.219   5.413
11109TIP3   OH233283   0.866   0.704   3.038
11109TIP3    H133284   0.836   0.794   3.024
11109TIP3    H233285   0.855   0.689   3.132
11110TIP3   OH233286   6.500   0.088   2.163
11110TIP3    H133287   6.577   0.144   2.152
11110TIP3    H233288   6.426   0.142   2.136
11111TIP3   OH233289   4.655   1.048   4.135
11111TIP3    H133290   4.576   0.997   4.157
11111TIP3    H233291   4.663   1.112   4.205
11112TIP3   OH233292   0.966   3.749   2.583
11112TIP3    H133293   1.030   3.799   2.533
11112TIP3    H233294   0.991   3.658   2.571
11113TIP3   OH233295   5.095   1.743   6.028
11113TIP3    H133296   5.173   1.698   5.996
11113TIP3    H233297   5.123   1.786   6.109
11114TIP3   OH233298   5.252   2.131   0.406
11114TIP3    H133299   5.191   2.195   0.371
11114TIP3    H233300   5.246   2.140   0.501
11115TIP3   OH233301   0.728   0.138   2.232
11115TIP3    H133302   0.742   0.127   2.138
11115TIP3    H233303   0.816   0.141   2.270
11116TIP3   OH233304   3.964   7.475   2.292
11116TIP3    H133305   3.901   7.516   2.234
11116TIP3    H233306   3.928   7.389   2.311
11117TIP3   OH233307   5.382   3.609   1.499
11117TIP3    H133308   5.308   3.550   1.484
11117TIP3    H233309   5.343   3.686   1.539
11118TIP3   OH233310   1.417   6.761   0.282
11118TIP3    H133311   1.414   6.855   0.263
11118TIP3    H233312   1.439   6.756   0.375
11119TIP3   OH233313   7.807   2.797   2.723
11119TIP3    H133314   7.852   2.820   2.641
11119TIP3    H233315   7.877   2.764   2.780
11120TIP3   OH233316   3.391   1.643   1.116
11120TIP3    H133317   3.370   1.557   1.151
11120TIP3    H233318   3.307   1.688   1.108
11121TIP3   OH233319   2.604   7.704   4.388
11121TIP3    H133320   2.637   7.675   4.304
11121TIP3    H233321   2.676   7.755   4.426
11122TIP3   OH233322   5.581   4.125   6.534
11122TIP3    H133323   5.614   4.096   6.449
11122TIP3    H233324   5.504   4.069   6.549
11123TIP3   OH233325   8.081   1.817   3.872
11123TIP3    H133326   8.154   1.859   3.826
11123TIP3    H233327   8.003   1.857   3.836
11124TIP3   OH233328   6.455   7.346   6.641
11124TIP3    H133329   6.389   7.373   6.578
11124TIP3    H233330   6.413   7.275   6.691
11125TIP3   OH233331   1.933   3.315   1.881
11125TIP3    H133332   1.872   3.292   1.951
11125TIP3    H233333   2.018   3.320   1.924
11126TIP3   OH233334   7.210   4.726   1.198
11126TIP3    H133335   7.139   4.791   1.200
11126TIP3    H233336   7.259   4.741   1.279
11127TIP3   OH233337   1.000   7.036   2.835
11127TIP3    H133338   0.977   7.020   2.926
11127TIP3    H233339   0.942   6.977   2.785
11128TIP3   OH233340   4.868   0.286   0.460
11128TIP3    H133341   4.952   0.310   0.500
11128TIP3    H233342   4.835   0.368   0.423
11129TIP3   OH233343   7.043   0.863   2.214
11129TIP3    H133344   6.960   0.817   2.227
11129TIP3    H233345   7.052   0.918   2.292
11130TIP3   OH233346   2.843   0.601   0.611
11130TIP3    H133347   2.909   0.587   0.544
11130TIP3    H233348   2.870   0.683   0.654
11131TIP3   OH233349   5.205   1.052   0.370
11131TIP3    H133350   5.111   1.032   0.370
11131TIP3    H233351   5.235   1.025   0.456
11132TIP3   OH233352   6.838   3.534   0.838
11132TIP3    H133353   6.823   3.442   0.816
11132TIP3    H233354   6.751   3.569   0.853
11133TIP3   OH233355   1.742   4.066   0.352
11133TIP3    H133356   1.798   4.002   0.309
11133TIP3    H233357   1.802   4.118   0.405
11134TIP3   OH233358   1.217   3.854   1.814
11134TIP3    H133359   1.122   3.843   1.817
11134TIP3    H233360   1.235   3.879   1.723
11135TIP3   OH233361   2.089   2.013   0.326
11135TIP3    H133362   2.061   1.984   0.413
11135TIP3    H233363   2.161   1.954   0.303
11136TIP3   OH233364   4.722   4.629   1.336
11136TIP3    H133365   4.734   4.670   1.422
11136TIP3    H233366   4.811   4.606   1.309
11137TIP3   OH233367   7.962   2.347   4.560
11137TIP3    H133368   7.934   2.260   4.535
11137TIP3    H233369   7.959   2.398   4.478
11138TIP3   OH233370   3.892   3.206   1.950
11138TIP3    H133371   3.950   3.179   2.021
11138TIP3    H233372   3.837   3.274   1.988
11139TIP3   OH233373   0.999   0.288   5.907
11139TIP3    H133374   1.057   0.232   5.958
11139TIP3    H233375   0.989   0.243   5.823
11140TIP3   OH233376   1.970   6.989   4.504
11140TIP3    H133377   2.039   6.998   4.569
11140TIP3    H233378   1.891   6.968   4.554
11141TIP3   OH233379   5.276   6.610   0.632
11141TIP3    H133380   5.361   6.616   0.588
11141TIP3    H233381   5.222   6.559   0.572
11142TIP3   OH233382   8.103   0.280   3.277
11142TIP3    H133383   8.112   0.294   3.371
11142TIP3    H233384   8.010   0.293   3.259
11143TIP3   OH233385   6.774   4.005   6.700
11143TIP3    H133386   6.827   3.927   6.682
11143TIP3    H233387   6.824   4.054   6.765
11144TIP3   OH233388   1.495   6.757   1.490
11144TIP3    H133389   1.505   6.708   1.409
11144TIP3    H233390   1.474   6.846   1.463
11145TIP3   OH233391   7.422   1.922   0.058
11145TIP3    H133392   7.484   1.851   0.073
11145TIP3    H233393   7.473   1.991   0.015
11146TIP3   OH233394   5.414   0.651   1.134
11146TIP3    H133395   5.467   0.730   1.123
11146TIP3    H233396   5.471   0.579   1.108
11147TIP3   OH233397   3.808   4.333   5.697
11147TIP3    H133398   3.831   4.418   5.735
11147TIP3    H233399   3.838   4.269   5.761
11148TIP3   OH233400   4.506   6.867   3.010
11148TIP3    H133401   4.444   6.800   2.980
11148TIP3    H233402   4.461   6.909   3.084
11149TIP3   OH233403   6.385   5.324   6.476
11149TIP3    H133404   6.424   5.237   6.488
11149TIP3    H233405   6.431   5.361   6.401
11150TIP3   OH233406   2.470   6.561   6.413
11150TIP3    H133407   2.380   6.593   6.403
11150TIP3    H233408   2.471   6.517   6.498
11151TIP3   OH233409   4.370   3.452   4.169
11151TIP3    H133410   4.395   3.379   4.227
11151TIP3    H233411   4.417   3.434   4.087
11152TIP3   OH233412   4.432   6.010   0.567
11152TIP3    H133413   4.410   6.061   0.645
11152TIP3    H233414   4.505   6.057   0.527
11153TIP3   OH233415   2.371   4.114   1.744
11153TIP3    H133416   2.301   4.165   1.704
11153TIP3    H233417   2.438   4.179   1.766
11154TIP3   OH233418   1.936   3.890   6.451
11154TIP3    H133419   2.025   3.857   6.460
11154TIP3    H233420   1.880   3.816   6.475
11155TIP3   OH233421   6.424   7.266   4.779
11155TIP3    H133422   6.387   7.203   4.718
11155TIP3    H233423   6.364   7.267   4.854
11156TIP3   OH233424   0.870   0.224   2.461
11156TIP3    H133425   0.787   0.245   2.504
11156TIP3    H233426   0.921   0.179   2.528
11157TIP3   OH233427   0.520   3.845   1.581
11157TIP3    H133428   0.486   3.805   1.501
11157TIP3    H233429   0.577   3.916   1.550
11158TIP3   OH233430   3.082   4.146   4.164
11158TIP3    H133431   3.009   4.124   4.107
11158TIP3    H233432   3.063   4.101   4.246
11159TIP3   OH233433   0.494   0.329   6.205
11159TIP3    H133434   0.404   0.336   6.172
11159TIP3    H233435   0.498   0.392   6.277
11160TIP3   OH233436   6.027   1.858   5.889
11160TIP3    H133437   6.097   1.923   5.894
11160TIP3    H233438   5.962   1.898   5.831
11161TIP3   OH233439   6.764   5.212   0.388
11161TIP3    H133440   6.851   5.232   0.424
11161TIP3    H233441   6.780   5.191   0.296
11162TIP3   OH233442   1.071   0.573   5.858
11162TIP3    H133443   1.055   0.504   5.794
11162TIP3    H233444   1.019   0.548   5.934
11163TIP3   OH233445   1.548   0.492   1.253
11163TIP3    H133446   1.619   0.497   1.317
11163TIP3    H233447   1.470   0.518   1.303
11164TIP3   OH233448   5.691   6.184   1.727
11164TIP3    H133449   5.621   6.237   1.688
11164TIP3    H233450   5.744   6.156   1.652
11165TIP3   OH233451   6.995   5.959   1.541
11165TIP3    H133452   6.910   5.962   1.498
11165TIP3    H233453   7.052   5.915   1.478
11166TIP3   OH233454   0.687   6.455   6.387
11166TIP3    H133455   0.658   6.460   6.478
11166TIP3    H233456   0.674   6.363   6.363
11167TIP3   OH233457   6.188   2.788   1.867
11167TIP3    H133458   6.202   2.743   1.783
11167TIP3    H233459   6.254   2.751   1.925
11168TIP3   OH233460   6.204   6.884   5.996
11168TIP3    H133461   6.212   6.903   6.090
11168TIP3    H233462   6.277   6.932   5.956
11169TIP3   OH233463   3.390   5.569   2.535
11169TIP3    H133464   3.362   5.477   2.543
11169TIP3    H233465   3.410   5.595   2.625
11170TIP3   OH233466   4.852   6.397   5.953
11170TIP3    H133467   4.777   6.437   5.997
11170TIP3    H233468   4.927   6.424   6.005
11171TIP3   OH233469   1.910   6.084   1.723
11171TIP3    H133470   1.843   6.152   1.717
11171TIP3    H233471   1.909   6.042   1.637
11172TIP3   OH233472   8.192   6.736   4.560
11172TIP3    H133473   8.270   6.681   4.567
11172TIP3    H233474   8.129   6.682   4.513
11173TIP3   OH233475   5.052   7.496   3.795
11173TIP3    H133476   5.015   7.432   3.856
11173TIP3    H233477   4.986   7.507   3.728
11174TIP3   OH233478   0.812   7.588   4.928
11174TIP3    H133479   0.840   7.497   4.918
11174TIP3    H233480   0.878   7.628   4.984
11175TIP3   OH233481   0.403   0.045   1.242
11175TIP3    H133482   0.490   0.005   1.251
11175TIP3    H233483   0.421   0.139   1.238
11176TIP3   OH233484   0.695   1.814   4.518
11176TIP3    H133485   0.636   1.831   4.591
11176TIP3    H233486   0.743   1.896   4.505
11177TIP3   OH233487   7.705   7.144   6.251
11177TIP3    H133488   7.779   7.086   6.273
11177TIP3    H233489   7.722   7.172   6.162
11178TIP3   OH233490   3.945   5.624   1.776
11178TIP3    H133491   3.884   5.689   1.812
11178TIP3    H233492   4.016   5.676   1.739
11179TIP3   OH233493   6.067   5.750   4.932
11179TIP3    H133494   6.109   5.728   5.015
11179TIP3    H233495   6.037   5.666   4.897
11180TIP3   OH233496   5.222   1.381   1.502
11180TIP3    H133497   5.193   1.347   1.587
11180TIP3    H233498   5.253   1.470   1.521
11181TIP3   OH233499   3.592   3.714   2.021
11181TIP3    H133500   3.631   3.742   1.938
11181TIP3    H233501   3.665   3.705   2.081
11182TIP3   OH233502   0.216   5.545   5.597
11182TIP3    H133503   0.148   5.510   5.654
11182TIP3    H233504   0.265   5.468   5.567
11183TIP3   OH233505   5.215   2.298   5.115
11183TIP3    H133506   5.244   2.303   5.206
11183TIP3    H233507   5.297   2.290   5.065
11184TIP3   OH233508   1.360   3.708   6.379
11184TIP3    H133509   1.350   3.618   6.348
11184TIP3    H233510   1.287   3.755   6.338
11185TIP3   OH233511   3.142   5.186   1.861
11185TIP3    H133512   3.049   5.191   1.882
11185TIP3    H233513   3.186   5.180   1.946
11186TIP3   OH233514   2.850   7.571   4.704
11186TIP3    H133515   2.815   7.577   4.793
11186TIP3    H233516   2.876   7.661   4.683
11187TIP3   OH233517   2.184   6.315   5.244
11187TIP3    H133518   2.119   6.349   5.307
11187TIP3    H233519   2.168   6.221   5.242
11188TIP3   OH233520   5.536   0.297   5.370
11188TIP3    H133521   5.444   0.309   5.348
11188TIP3    H233522   5.576   0.383   5.355
11189TIP3   OH233523   2.797   0.452   5.011
11189TIP3    H133524   2.724   0.439   4.951
11189TIP3    H233525   2.873   0.417   4.965
11190TIP3   OH233526   4.235   1.208   3.145
11190TIP3    H133527   4.243   1.118   3.114
11190TIP3    H233528   4.259   1.203   3.238
11191TIP3   OH233529   7.823   2.978   2.504
11191TIP3    H133530   7.797   2.954   2.415
11191TIP3    H233531   7.796   3.069   2.513
11192TIP3   OH233532   4.903   3.753   4.307
11192TIP3    H133533   4.862   3.671   4.280
11192TIP3    H233534   4.833   3.817   4.303
11193TIP3   OH233535   4.643   5.498   5.022
11193TIP3    H133536   4.611   5.499   4.932
11193TIP3    H233537   4.568   5.467   5.074
11194TIP3   OH233538   3.724   1.581   1.333
11194TIP3    H133539   3.794   1.557   1.272
11194TIP3    H233540   3.713   1.676   1.321
11195TIP3   OH233541   2.280   6.890   4.737
11195TIP3    H133542   2.365   6.846   4.745
11195TIP3    H233543   2.292   6.955   4.668
11196TIP3   OH233544   2.524   4.908   0.486
11196TIP3    H133545   2.558   4.819   0.476
11196TIP3    H233546   2.541   4.950   0.401
11197TIP3   OH233547   5.830   1.115   2.739
11197TIP3    H133548   5.920   1.148   2.741
11197TIP3    H233549   5.824   1.057   2.815
11198TIP3   OH233550   2.254   5.317   3.596
11198TIP3    H133551   2.334   5.269   3.619
11198TIP3    H233552   2.238   5.294   3.505
11199TIP3   OH233553   3.590   2.197   0.178
11199TIP3    H133554   3.666   2.194   0.237
11199TIP3    H233555   3.613   2.262   0.112
11200TIP3   OH233556   7.463   5.321   1.234
11200TIP3    H133557   7.515   5.311   1.154
11200TIP3    H233558   7.378   5.283   1.212
11201TIP3   OH233559   1.346   3.948   6.084
11201TIP3    H133560   1.276   3.887   6.062
11201TIP3    H233561   1.416   3.927   6.023
11202TIP3   OH233562   0.761   4.880   6.712
11202TIP3    H133563   0.852   4.870   6.686
11202TIP3    H233564   0.722   4.794   6.697
11203TIP3   OH233565   3.505   7.126   5.969
11203TIP3    H133566   3.527   7.146   6.060
11203TIP3    H233567   3.504   7.212   5.926
11204TIP3   OH233568   5.345   6.560   4.002
11204TIP3    H133569   5.290   6.598   4.070
11204TIP3    H233570   5.433   6.558   4.040
11205TIP3   OH233571   2.493   1.006   1.925
11205TIP3    H133572   2.434   1.026   1.998
11205TIP3    H233573   2.508   1.090   1.882
11206TIP3   OH233574   0.215   3.262   2.308
11206TIP3    H133575   0.234   3.175   2.342
11206TIP3    H233576   0.133   3.251   2.259
11207TIP3   OH233577   3.744   6.165   1.000
11207TIP3    H133578   3.715   6.254   0.980
11207TIP3    H233579   3.718   6.114   0.923
11208TIP3   OH233580   4.926   6.615   5.532
11208TIP3    H133581   4.833   6.605   5.554
11208TIP3    H233582   4.954   6.690   5.585
11209TIP3   OH233583   5.779   2.059   4.183
11209TIP3    H133584   5.714   2.118   4.222
11209TIP3    H233585   5.747   1.972   4.203
11210TIP3   OH233586   4.079   0.125   2.548
11210TIP3    H133587   4.145   0.192   2.563
11210TIP3    H233588   4.128   0.047   2.524
11211TIP3   OH233589   0.489   7.269   4.764
11211TIP3    H133590   0.533   7.210   4.824
11211TIP3    H233591   0.444   7.332   4.820
11212TIP3   OH233592   0.148   3.205   4.464
11212TIP3    H133593   0.148   3.289   4.509
11212TIP3    H233594   0.142   3.226   4.371
11213TIP3   OH233595   2.457   3.246   2.415
11213TIP3    H133596   2.509   3.307   2.363
11213TIP3    H233597   2.415   3.189   2.351
11214TIP3   OH233598   2.285   3.997   0.646
11214TIP3    H133599   2.213   3.985   0.707
11214TIP3    H233600   2.245   3.988   0.559
11215TIP3   OH233601   0.764   0.968   3.956
11215TIP3    H133602   0.692   1.029   3.943
11215TIP3    H233603   0.835   1.023   3.991
11216TIP3   OH233604   0.317   3.151   6.075
11216TIP3    H133605   0.308   3.230   6.021
11216TIP3    H233606   0.245   3.094   6.047
11217TIP3   OH233607   2.945   0.749   3.834
11217TIP3    H133608   3.037   0.726   3.843
11217TIP3    H233609   2.915   0.760   3.924
11218TIP3   OH233610   7.120   5.776   1.309
11218TIP3    H133611   7.192   5.713   1.307
11218TIP3    H233612   7.042   5.724   1.290
11219TIP3   OH233613   5.012   6.890   3.702
11219TIP3    H133614   5.020   6.797   3.681
11219TIP3    H233615   4.941   6.894   3.767
11220TIP3   OH233616   2.996   0.778   0.345
11220TIP3    H133617   3.027   0.694   0.379
11220TIP3    H233618   2.960   0.823   0.421
11221TIP3   OH233619   7.145   6.315   1.014
11221TIP3    H133620   7.127   6.310   1.108
11221TIP3    H233621   7.066   6.279   0.973
11222TIP3   OH233622   6.150   1.766   1.084
11222TIP3    H133623   6.067   1.813   1.085
11222TIP3    H233624   6.212   1.825   1.041
11223TIP3   OH233625   5.803   5.008   0.967
11223TIP3    H133626   5.774   5.096   0.944
11223TIP3    H233627   5.878   5.022   1.025
11224TIP3   OH233628   1.318   1.065   1.790
11224TIP3    H133629   1.319   1.158   1.768
11224TIP3    H233630   1.385   1.026   1.733
11225TIP3   OH233631   2.659   1.098   0.919
11225TIP3    H133632   2.658   1.004   0.904
11225TIP3    H233633   2.687   1.108   1.010
11226TIP3   OH233634   8.060   3.502   3.626
11226TIP3    H133635   8.139   3.541   3.591
11226TIP3    H233636   8.051   3.539   3.713
11227TIP3   OH233637   2.373   3.056   1.451
11227TIP3    H133638   2.391   3.144   1.419
11227TIP3    H233639   2.386   3.000   1.374
11228TIP3   OH233640   7.006   2.813   1.690
11228TIP3    H133641   7.016   2.853   1.776
11228TIP3    H233642   7.077   2.748   1.685
11229TIP3   OH233643   8.015   2.563   3.136
11229TIP3    H133644   7.951   2.560   3.207
11229TIP3    H233645   8.087   2.616   3.171
11230TIP3   OH233646   1.777   5.409   1.396
11230TIP3    H133647   1.834   5.480   1.426
11230TIP3    H233648   1.709   5.453   1.344
11231TIP3   OH233649   1.953   6.520   5.700
11231TIP3    H133650   1.865   6.483   5.685
11231TIP3    H233651   1.956   6.538   5.793
11232TIP3   OH233652   1.648   7.643   6.574
11232TIP3    H133653   1.733   7.684   6.590
11232TIP3    H233654   1.585   7.702   6.615
11233TIP3   OH233655   1.823   2.842   6.617
11233TIP3    H133656   1.809   2.768   6.675
11233TIP3    H233657   1.918   2.845   6.603
11234TIP3   OH233658   6.057   5.714   1.716
11234TIP3    H133659   6.003   5.698   1.639
11234TIP3    H233660   5.996   5.719   1.789
11235TIP3   OH233661   1.905   3.050   1.467
11235TIP3    H133662   1.903   3.134   1.514
11235TIP3    H233663   1.959   3.067   1.390
11236TIP3   OH233664   5.673   6.487   5.981
11236TIP3    H133665   5.715   6.572   5.980
11236TIP3    H233666   5.726   6.433   5.922
11237TIP3   OH233667   4.497   1.416   5.040
11237TIP3    H133668   4.592   1.406   5.051
11237TIP3    H233669   4.460   1.341   5.087
11238TIP3   OH233670   2.406   7.106   2.432
11238TIP3    H133671   2.468   7.151   2.490
11238TIP3    H233672   2.438   7.016   2.427
11239TIP3   OH233673   7.159   2.878   0.636
11239TIP3    H133674   7.206   2.857   0.717
11239TIP3    H233675   7.102   2.951   0.660
11240TIP3   OH233676   1.852   2.531   3.177
11240TIP3    H133677   1.832   2.475   3.252
11240TIP3    H233678   1.767   2.552   3.140
11241TIP3   OH233679   0.216   6.355   2.566
11241TIP3    H133680   0.141   6.341   2.624
11241TIP3    H233681   0.293   6.345   2.622
11242TIP3   OH233682   6.867   0.556   6.192
11242TIP3    H133683   6.780   0.527   6.219
11242TIP3    H233684   6.893   0.493   6.124
11243TIP3   OH233685   2.152   1.724   2.073
11243TIP3    H133686   2.121   1.790   2.011
11243TIP3    H233687   2.134   1.761   2.159
11244TIP3   OH233688   2.563   3.660   0.767
11244TIP3    H133689   2.583   3.579   0.719
11244TIP3    H233690   2.648   3.703   0.778
11245TIP3   OH233691   4.727   2.645   2.381
11245TIP3    H133692   4.801   2.597   2.419
11245TIP3    H233693   4.729   2.621   2.288
11246TIP3   OH233694   4.409   1.445   6.268
11246TIP3    H133695   4.407   1.522   6.211
11246TIP3    H233696   4.331   1.454   6.323
11247TIP3   OH233697   2.187   7.148   1.497
11247TIP3    H133698   2.117   7.119   1.555
11247TIP3    H233699   2.226   7.067   1.465
11248TIP3   OH233700   4.905   4.111   0.210
11248TIP3    H133701   4.844   4.119   0.283
11248TIP3    H233702   4.852   4.131   0.133
11249TIP3   OH233703   5.303   4.592   3.613
11249TIP3    H133704   5.269   4.614   3.700
11249TIP3    H233705   5.386   4.548   3.630
11250TIP3   OH233706   6.052   6.416   6.259
11250TIP3    H133707   6.021   6.414   6.169
11250TIP3    H233708   6.143   6.388   6.254
11251TIP3   OH233709   2.360   7.263   3.766
11251TIP3    H133710   2.291   7.319   3.732
11251TIP3    H233711   2.354   7.183   3.715
11252TIP3   OH233712   5.725   5.321   5.816
11252TIP3    H133713   5.654   5.257   5.812
11252TIP3    H233714   5.755   5.319   5.907
11253TIP3   OH233715   4.160   5.153   2.043
11253TIP3    H133716   4.206   5.142   2.126
11253TIP3    H233717   4.076   5.192   2.067
11254TIP3   OH233718   5.774   2.072   0.602
11254TIP3    H133719   5.724   2.022   0.667
11254TIP3    H233720   5.838   2.010   0.568
11255TIP3   OH233721   0.618   4.869   1.786
11255TIP3    H133722   0.624   4.964   1.792
11255TIP3    H233723   0.528   4.849   1.814
11256TIP3   OH233724   4.797   3.613   5.660
11256TIP3    H133725   4.759   3.605   5.747
11256TIP3    H233726   4.762   3.696   5.626
11257TIP3   OH233727   2.653   3.865   5.077
11257TIP3    H133728   2.665   3.822   5.161
11257TIP3    H233729   2.737   3.909   5.060
11258TIP3   OH233730   2.686   3.507   4.411
11258TIP3    H133731   2.598   3.471   4.409
11258TIP3    H233732   2.721   3.482   4.496
11259TIP3   OH233733   6.744   2.203   2.856
11259TIP3    H133734   6.807   2.149   2.904
11259TIP3    H233735   6.678   2.140   2.825
11260TIP3   OH233736   0.521   5.246   2.634
11260TIP3    H133737   0.565   5.191   2.699
11260TIP3    H233738   0.585   5.257   2.564
11261TIP3   OH233739   8.202   1.945   6.197
11261TIP3    H133740   8.122   1.989   6.168
11261TIP3    H233741   8.270   1.977   6.138
11262TIP3   OH233742   8.162   2.518   0.692
11262TIP3    H133743   8.190   2.609   0.703
11262TIP3    H233744   8.067   2.522   0.685
11263TIP3   OH233745   1.007   3.229   5.745
11263TIP3    H133746   1.010   3.299   5.810
11263TIP3    H233747   0.933   3.174   5.773
11264TIP3   OH233748   7.794   7.735   1.377
11264TIP3    H133749   7.778   7.647   1.410
11264TIP3    H233750   7.839   7.780   1.449
11265TIP3   OH233751   4.293   7.648   1.287
11265TIP3    H133752   4.385   7.631   1.266
11265TIP3    H233753   4.248   7.567   1.264
11266TIP3   OH233754   0.041   4.934   6.337
11266TIP3    H133755   0.011   5.019   6.306
11266TIP3    H233756   0.135   4.934   6.317
11267TIP3   OH233757   4.289   6.699   0.015
11267TIP3    H133758   4.223   6.663   0.074
11267TIP3    H233759   4.352   6.627   0.003
11268TIP3   OH233760   2.165   1.546   6.000
11268TIP3    H133761   2.209   1.544   6.085
11268TIP3    H233762   2.150   1.639   5.982
11269TIP3   OH233763   7.361   2.370   0.382
11269TIP3    H133764   7.343   2.464   0.384
11269TIP3    H233765   7.275   2.330   0.370
11270TIP3   OH233766   2.989   5.839   4.031
11270TIP3    H133767   3.075   5.863   3.998
11270TIP3    H233768   2.950   5.785   3.962
11271TIP3   OH233769   3.801   1.323   3.944
11271TIP3    H133770   3.854   1.396   3.913
11271TIP3    H233771   3.712   1.341   3.912
11272TIP3   OH233772   6.752   2.806   3.746
11272TIP3    H133773   6.709   2.726   3.715
11272TIP3    H233774   6.762   2.793   3.840
11273TIP3   OH233775   5.655   2.739   5.054
11273TIP3    H133776   5.686   2.812   5.000
11273TIP3    H233777   5.561   2.735   5.038
11274TIP3   OH233778   6.711   4.790   3.236
11274TIP3    H133779   6.798   4.825   3.214
11274TIP3    H233780   6.721   4.695   3.231
11275TIP3   OH233781   6.988   5.481   2.359
11275TIP3    H133782   6.948   5.399   2.387
11275TIP3    H233783   7.002   5.530   2.441
11276TIP3   OH233784   3.648   3.710   3.369
11276TIP3    H133785   3.588   3.636   3.381
11276TIP3    H233786   3.713   3.678   3.307
11277TIP3   OH233787   2.506   0.342   1.668
11277TIP3    H133788   2.579   0.402   1.677
11277TIP3    H233789   2.434   0.397   1.637
11278TIP3   OH233790   0.859   3.598   1.214
11278TIP3    H133791   0.844   3.507   1.188
11278TIP3    H233792   0.785   3.647   1.177
11279TIP3   OH233793   3.487   0.529   4.180
11279TIP3    H133794   3.409   0.579   4.156
11279TIP3    H233795   3.473   0.504   4.271
11280TIP3   OH233796   8.099   4.954   5.481
11280TIP3    H133797   8.104   5.011   5.404
11280TIP3    H233798   8.076   4.868   5.446
11281TIP3   OH233799   7.180   5.234   0.270
11281TIP3    H133800   7.092   5.264   0.294
11281TIP3    H233801   7.193   5.269   0.181
11282TIP3   OH233802   2.388   4.987   4.733
11282TIP3    H133803   2.439   4.917   4.692
11282TIP3    H233804   2.423   4.993   4.822
11283TIP3   OH233805   5.107   4.311   4.346
11283TIP3    H133806   5.064   4.227   4.334
11283TIP3    H233807   5.068   4.347   4.426
11284TIP3   OH233808   4.346   3.097   2.263
11284TIP3    H133809   4.414   3.149   2.306
11284TIP3    H233810   4.393   3.029   2.216
11285TIP3   OH233811   8.274   6.182   6.710
11285TIP3    H133812   8.310   6.204   6.624
11285TIP3    H233813   8.179   6.178   6.696
11286TIP3   OH233814   1.217   7.702   2.729
11286TIP3    H133815   1.259   7.747   2.656
11286TIP3    H233816   1.247   7.748   2.807
11287TIP3   OH233817   5.434   1.614   5.577
11287TIP3    H133818   5.504   1.621   5.512
11287TIP3    H233819   5.354   1.629   5.527
11288TIP3   OH233820   5.767   6.090   6.059
11288TIP3    H133821   5.744   6.002   6.091
11288TIP3    H233822   5.830   6.123   6.122
11289TIP3   OH233823   1.350   4.364   1.374
11289TIP3    H133824   1.390   4.436   1.325
11289TIP3    H233825   1.263   4.396   1.397
11290TIP3   OH233826   1.177   0.470   3.805
11290TIP3    H133827   1.204   0.530   3.735
11290TIP3    H233828   1.122   0.405   3.761
11291TIP3   OH233829   2.947   5.259   3.655
11291TIP3    H133830   2.880   5.252   3.724
11291TIP3    H233831   2.915   5.331   3.599
11292TIP3   OH233832   3.757   1.821   4.348
11292TIP3    H133833   3.767   1.757   4.278
11292TIP3    H233834   3.820   1.793   4.415
11293TIP3   OH233835   7.638   0.650   4.876
11293TIP3    H133836   7.605   0.657   4.966
11293TIP3    H233837   7.718   0.598   4.884
11294TIP3   OH233838   5.298   1.870   3.362
11294TIP3    H133839   5.207   1.885   3.337
11294TIP3    H233840   5.297   1.788   3.411
11295TIP3   OH233841   5.477   3.092   6.323
11295TIP3    H133842   5.517   3.152   6.259
11295TIP3    H233843   5.412   3.044   6.273
11296TIP3   OH233844   7.140   1.449   0.574
11296TIP3    H133845   7.160   1.418   0.485
11296TIP3    H233846   7.121   1.542   0.564
11297TIP3   OH233847   7.878   1.815   5.549
11297TIP3    H133848   7.838   1.876   5.611
11297TIP3    H233849   7.806   1.758   5.523
11298TIP3   OH233850   5.926   5.678   6.267
11298TIP3    H133851   5.937   5.621   6.190
11298TIP3    H233852   5.849   5.643   6.311
11299TIP3   OH233853   4.497   6.545   2.744
11299TIP3    H133854   4.448   6.561   2.825
11299TIP3    H233855   4.589   6.543   2.772
11300TIP3   OH233856   4.341   4.009   6.071
11300TIP3    H133857   4.297   4.094   6.079
11300TIP3    H233858   4.365   4.003   5.979
11301TIP3   OH233859   6.772  -0.007   6.144
11301TIP3    H133860   6.827  -0.064   6.197
11301TIP3    H233861   6.792   0.082   6.176
11302TIP3   OH233862   6.408   6.565   2.495
11302TIP3    H133863   6.437   6.589   2.407
11302TIP3    H233864   6.396   6.470   2.491
11303TIP3   OH233865   3.940   2.409   0.772
11303TIP3    H133866   3.873   2.438   0.833
11303TIP3    H233867   3.898   2.411   0.686
11304TIP3   OH233868   1.324   6.045   1.406
11304TIP3    H133869   1.282   6.128   1.430
11304TIP3    H233870   1.417   6.059   1.423
11305TIP3   OH233871   6.980   5.939   1.117
11305TIP3    H133872   7.042   5.891   1.170
11305TIP3    H233873   7.017   5.937   1.029
11306TIP3   OH233874   4.248   7.717   5.444
11306TIP3    H133875   4.194   7.638   5.447
11306TIP3    H233876   4.215   7.772   5.515
11307TIP3   OH233877   2.686   1.225   4.199
11307TIP3    H133878   2.733   1.233   4.283
11307TIP3    H233879   2.626   1.152   4.213
11308TIP3   OH233880   3.216   7.540   5.107
11308TIP3    H133881   3.147   7.475   5.097
11308TIP3    H233882   3.181   7.604   5.168
11309TIP3   OH233883   1.776   3.272   0.669
11309TIP3    H133884   1.778   3.320   0.586
11309TIP3    H233885   1.723   3.195   0.650
11310TIP3   OH233886   3.159   5.393   5.017
11310TIP3    H133887   3.070   5.423   5.037
11310TIP3    H233888   3.188   5.350   5.097
11311TIP3   OH233889   4.214   1.545   0.854
11311TIP3    H133890   4.204   1.616   0.790
11311TIP3    H233891   4.177   1.580   0.935
11312TIP3   OH233892   3.568   3.390   4.528
11312TIP3    H133893   3.516   3.337   4.589
11312TIP3    H233894   3.584   3.333   4.453
11313TIP3   OH233895   1.960   2.165   5.203
11313TIP3    H133896   1.959   2.147   5.109
11313TIP3    H233897   1.898   2.104   5.241
11314TIP3   OH233898   2.133   5.639   5.301
11314TIP3    H133899   2.197   5.701   5.267
11314TIP3    H233900   2.173   5.553   5.286
11315TIP3   OH233901   0.061   1.966   5.352
11315TIP3    H133902   0.055   2.048   5.401
11315TIP3    H233903   0.065   1.994   5.260
11316TIP3   OH233904   2.011   0.269   2.353
11316TIP3    H133905   2.045   0.352   2.386
11316TIP3    H233906   2.048   0.261   2.265
11317TIP3   OH233907   5.455   2.267   5.948
11317TIP3    H133908   5.506   2.324   6.006
11317TIP3    H233909   5.415   2.327   5.884
11318TIP3   OH233910   8.022   1.546   5.322
11318TIP3    H133911   7.938   1.585   5.297
11318TIP3    H233912   7.999   1.474   5.381
11319TIP3   OH233913   7.228   4.755   3.938
11319TIP3    H133914   7.265   4.729   3.854
11319TIP3    H233915   7.260   4.844   3.952
11320TIP3   OH233916   3.077   5.675   1.756
11320TIP3    H133917   3.092   5.769   1.744
11320TIP3    H233918   3.154   5.633   1.718
11321TIP3   OH233919   4.383   3.320   0.875
11321TIP3    H133920   4.324   3.364   0.936
11321TIP3    H233921   4.464   3.307   0.925
11322TIP3   OH233922   7.689   4.442   1.065
11322TIP3    H133923   7.693   4.451   1.160
11322TIP3    H233924   7.680   4.347   1.051
11323TIP3   OH233925   1.077   0.760   3.433
11323TIP3    H133926   1.095   0.714   3.515
11323TIP3    H233927   1.059   0.851   3.460
11324TIP3   OH233928   3.509   1.890   4.001
11324TIP3    H133929   3.539   1.967   4.050
11324TIP3    H233930   3.525   1.912   3.910
11325TIP3   OH233931   0.325   2.897   3.561
11325TIP3    H133932   0.245   2.902   3.509
11325TIP3    H233933   0.374   2.975   3.537
11326TIP3   OH233934   0.530   2.170   2.812
11326TIP3    H133935   0.594   2.100   2.798
11326TIP3    H233936   0.582   2.246   2.839
11327TIP3   OH233937   4.839   5.857   6.753
11327TIP3    H133938   4.777   5.928   6.734
11327TIP3    H233939   4.907   5.899   6.805
11328TIP3   OH233940   5.944   3.097   0.438
11328TIP3    H133941   5.853   3.126   0.437
11328TIP3    H233942   5.990   3.162   0.385
11329TIP3   OH233943   6.485   6.928   1.994
11329TIP3    H133944   6.457   6.847   1.950
11329TIP3    H233945   6.431   6.931   2.073
11330TIP3   OH233946   7.403   5.480   2.006
11330TIP3    H133947   7.336   5.430   1.960
11330TIP3    H233948   7.366   5.496   2.093
11331TIP3   OH233949   3.755   2.985   1.858
11331TIP3    H133950   3.797   3.049   1.915
11331TIP3    H233951   3.679   2.955   1.909
11332TIP3   OH233952   0.038   3.605   6.685
11332TIP3    H133953   0.107   3.656   6.727
11332TIP3    H233954   0.076   3.517   6.675
11333TIP3   OH233955   1.592   0.928   2.365
11333TIP3    H133956   1.680   0.890   2.358
11333TIP3    H233957   1.545   0.892   2.289
11334TIP3   OH233958   3.478   0.370   4.423
11334TIP3    H133959   3.478   0.439   4.488
11334TIP3    H233960   3.504   0.291   4.471
11335TIP3   OH233961   6.665   6.622   0.524
11335TIP3    H133962   6.602   6.690   0.548
11335TIP3    H233963   6.722   6.664   0.460
11336TIP3   OH233964   1.224   3.329   2.679
11336TIP3    H133965   1.307   3.302   2.642
11336TIP3    H233966   1.162   3.261   2.653
11337TIP3   OH233967   3.786   1.581   5.803
11337TIP3    H133968   3.775   1.643   5.875
11337TIP3    H233969   3.850   1.623   5.745
11338TIP3   OH233970   5.207   6.628   5.809
11338TIP3    H133971   5.158   6.710   5.795
11338TIP3    H233972   5.258   6.645   5.888
11339TIP3   OH233973   0.589   6.065   3.444
11339TIP3    H133974   0.644   6.129   3.400
11339TIP3    H233975   0.585   5.991   3.384
11340TIP3   OH233976   8.070   2.385   2.104
11340TIP3    H133977   8.142   2.331   2.135
11340TIP3    H233978   8.106   2.434   2.031
11341TIP3   OH233979   4.381   2.955   4.316
11341TIP3    H133980   4.450   2.897   4.284
11341TIP3    H233981   4.427   3.017   4.373
11342TIP3   OH233982   1.448   6.608   3.353
11342TIP3    H133983   1.508   6.643   3.287
11342TIP3    H233984   1.490   6.526   3.381
11343TIP3   OH233985   2.802   1.523   1.975
11343TIP3    H133986   2.890   1.559   1.978
11343TIP3    H233987   2.745   1.600   1.970
11344TIP3   OH233988   3.797   2.942   3.421
11344TIP3    H133989   3.892   2.942   3.410
11344TIP3    H233990   3.767   3.014   3.366
11345TIP3   OH233991   8.208   2.459   3.629
11345TIP3    H133992   8.165   2.415   3.555
11345TIP3    H233993   8.256   2.531   3.589
11346TIP3   OH233994   0.439   4.252   6.058
11346TIP3    H133995   0.493   4.273   6.134
11346TIP3    H233996   0.406   4.337   6.028
11347TIP3   OH233997   1.390   1.293   6.538
11347TIP3    H133998   1.362   1.344   6.613
11347TIP3    H233999   1.365   1.203   6.559
11348TIP3   OH234000   3.001   1.946   6.020
11348TIP3    H134001   2.988   2.030   5.977
11348TIP3    H234002   3.043   1.968   6.104
11349TIP3   OH234003   5.162   2.246   4.253
11349TIP3    H134004   5.231   2.180   4.260
11349TIP3    H234005   5.154   2.263   4.159
11350TIP3   OH234006   6.765   4.193   2.430
11350TIP3    H134007   6.784   4.252   2.357
11350TIP3    H234008   6.709   4.125   2.392
11351TIP3   OH234009   2.282   7.004   4.494
11351TIP3    H134010   2.225   6.950   4.439
11351TIP3    H234011   2.370   6.975   4.472
11352TIP3   OH234012   7.671  -0.031   4.441
11352TIP3    H134013   7.592   0.024   4.447
11352TIP3    H234014   7.740   0.022   4.480
11353TIP3   OH234015   6.340   1.755   3.213
11353TIP3    H134016   6.382   1.688   3.159
11353TIP3    H234017   6.381   1.837   3.185
11354TIP3   OH234018   0.521   6.628   3.615
11354TIP3    H134019   0.523   6.682   3.694
11354TIP3    H234020   0.590   6.564   3.628
11355TIP3   OH234021   3.281   7.209   2.737
11355TIP3    H134022   3.276   7.172   2.825
11355TIP3    H234023   3.207   7.170   2.691
11356TIP3   OH234024   8.335   2.869   2.240
11356TIP3    H134025   8.276   2.938   2.269
11356TIP3    H234026   8.279   2.792   2.229
11357TIP3   OH234027   5.986   5.254   1.900
11357TIP3    H134028   5.985   5.212   1.813
11357TIP3    H234029   5.965   5.183   1.960
11358TIP3   OH234030   8.152   4.968   4.966
11358TIP3    H134031   8.088   4.935   4.904
11358TIP3    H234032   8.233   4.921   4.946
11359TIP3   OH234033   1.187   1.844   6.788
11359TIP3    H134034   1.216   1.772   6.843
11359TIP3    H234035   1.175   1.805   6.701
11360TIP3   OH234036   7.614   5.648   1.275
11360TIP3    H134037   7.519   5.644   1.287
11360TIP3    H234038   7.640   5.731   1.314
11361TIP3   OH234039   4.143   1.600   0.586
11361TIP3    H134040   4.136   1.519   0.536
11361TIP3    H234041   4.064   1.649   0.564
11362TIP3   OH234042   0.356   2.703   4.868
11362TIP3    H134043   0.371   2.686   4.775
11362TIP3    H234044   0.350   2.799   4.874
11363TIP3   OH234045   3.830   3.742   6.241
11363TIP3    H134046   3.895   3.794   6.193
11363TIP3    H234047   3.823   3.661   6.192
11364TIP3   OH234048   6.340   0.614   0.090
11364TIP3    H134049   6.247   0.595   0.079
11364TIP3    H234050   6.342   0.691   0.148
11365TIP3   OH234051   1.696   0.579   4.805
11365TIP3    H134052   1.676   0.504   4.861
11365TIP3    H234053   1.780   0.612   4.837
11366TIP3   OH234054   6.380   2.536   6.286
11366TIP3    H134055   6.316   2.557   6.218
11366TIP3    H234056   6.400   2.444   6.273
11367TIP3   OH234057   0.202   7.127   2.991
11367TIP3    H134058   0.188   7.201   2.932
11367TIP3    H234059   0.115   7.106   3.025
11368TIP3   OH234060   5.620   1.225   4.323
11368TIP3    H134061   5.555   1.157   4.338
11368TIP3    H234062   5.652   1.209   4.235
11369TIP3   OH234063   5.053   5.048   0.849
11369TIP3    H134064   4.985   5.035   0.914
11369TIP3    H234065   5.013   5.021   0.766
11370TIP3   OH234066   0.792   2.634   4.992
11370TIP3    H134067   0.786   2.656   5.085
11370TIP3    H234068   0.838   2.709   4.953
11371TIP3   OH234069   3.936   5.578   3.871
11371TIP3    H134070   3.934   5.484   3.893
11371TIP3    H234071   3.953   5.621   3.955
11372TIP3   OH234072   6.367   5.114   4.871
11372TIP3    H134073   6.460   5.110   4.849
11372TIP3    H234074   6.323   5.065   4.802
11373TIP3   OH234075   7.242   1.250   6.044
11373TIP3    H134076   7.182   1.316   6.080
11373TIP3    H234077   7.189   1.201   5.982
11374TIP3   OH234078   1.369   1.513   2.446
11374TIP3    H134079   1.292   1.469   2.410
11374TIP3    H234080   1.333   1.574   2.511
11375TIP3   OH234081   4.208   0.140   5.027
11375TIP3    H134082   4.140   0.161   4.962
11375TIP3    H234083   4.180   0.186   5.106
11376TIP3   OH234084   1.790   0.697   6.272
11376TIP3    H134085   1.719   0.681   6.209
11376TIP3    H234086   1.839   0.770   6.235
11377TIP3   OH234087   2.788   4.785   3.003
11377TIP3    H134088   2.834   4.736   2.934
11377TIP3    H234089   2.838   4.767   3.082
11378TIP3   OH234090   1.024   7.506   2.401
11378TIP3    H134091   1.056   7.596   2.408
11378TIP3    H234092   1.052   7.464   2.483
11379TIP3   OH234093   5.088   6.578   0.819
11379TIP3    H134094   5.120   6.603   0.905
11379TIP3    H234095   5.162   6.593   0.760
11380TIP3   OH234096   6.883   6.402   1.603
11380TIP3    H134097   6.932   6.450   1.668
11380TIP3    H234098   6.947   6.344   1.562
11381TIP3   OH234099   1.457   3.194   0.439
11381TIP3    H134100   1.387   3.258   0.432
11381TIP3    H234101   1.536   3.240   0.412
11382TIP3   OH234102   2.058   2.846   4.771
11382TIP3    H134103   2.068   2.864   4.677
11382TIP3    H234104   2.060   2.932   4.812
11383TIP3   OH234105   1.460   4.871   3.919
11383TIP3    H134106   1.437   4.942   3.858
11383TIP3    H234107   1.543   4.898   3.958
11384TIP3   OH234108   1.419   6.218   5.048
11384TIP3    H134109   1.424   6.149   5.113
11384TIP3    H234110   1.493   6.275   5.068
11385TIP3   OH234111   1.548   7.422   2.577
11385TIP3    H134112   1.522   7.355   2.514
11385TIP3    H234113   1.526   7.384   2.662
11386TIP3   OH234114   5.465   6.930   1.718
11386TIP3    H134115   5.448   7.020   1.749
11386TIP3    H234116   5.535   6.898   1.774
11387TIP3   OH234117   2.212   1.824   4.324
11387TIP3    H134118   2.174   1.911   4.312
11387TIP3    H234119   2.165   1.769   4.261
11388TIP3   OH234120   4.786   3.308   6.739
11388TIP3    H134121   4.811   3.398   6.714
11388TIP3    H234122   4.866   3.270   6.774
11389TIP3   OH234123   6.170   1.386   1.884
11389TIP3    H134124   6.226   1.329   1.832
11389TIP3    H234125   6.113   1.326   1.932
11390TIP3   OH234126   3.903   3.618   5.842
11390TIP3    H134127   3.923   3.712   5.847
11390TIP3    H234128   3.861   3.608   5.756
11391TIP3   OH234129   0.465   1.780   3.759
11391TIP3    H134130   0.437   1.793   3.850
11391TIP3    H234131   0.551   1.822   3.755
11392TIP3   OH234132   5.349   7.095   1.233
11392TIP3    H134133   5.298   7.113   1.312
11392TIP3    H234134   5.284   7.087   1.163
11393TIP3   OH234135   2.087   3.537   5.548
11393TIP3    H134136   2.086   3.625   5.511
11393TIP3    H234137   2.041   3.546   5.632
11394TIP3   OH234138   1.021   2.784   3.693
11394TIP3    H134139   1.047   2.873   3.715
11394TIP3    H234140   0.929   2.792   3.667
11395TIP3   OH234141   0.996   2.581   4.679
11395TIP3    H134142   1.006   2.554   4.588
11395TIP3    H234143   0.934   2.517   4.716
11396TIP3   OH234144   1.539   7.576   6.078
11396TIP3    H134145   1.598   7.647   6.050
11396TIP3    H234146   1.577   7.544   6.159
11397TIP3   OH234147   4.680   6.021   6.608
11397TIP3    H134148   4.593   6.021   6.570
11397TIP3    H234149   4.705   6.113   6.612
11398TIP3   OH234150   1.848   6.595   1.494
11398TIP3    H134151   1.776   6.586   1.557
11398TIP3    H234152   1.827   6.532   1.426
11399TIP3   OH234153   0.419   2.517   0.118
11399TIP3    H134154   0.513   2.517   0.100
11399TIP3    H234155   0.378   2.515   0.031
11400TIP3   OH234156   4.518   0.119   3.250
11400TIP3    H134157   4.583   0.146   3.186
11400TIP3    H234158   4.506   0.196   3.306
11401TIP3   OH234159   0.509   0.846   3.106
11401TIP3    H134160   0.589   0.898   3.101
11401TIP3    H234161   0.527   0.779   3.171
11402TIP3   OH234162   7.980   7.503   0.611
11402TIP3    H134163   8.012   7.466   0.694
11402TIP3    H234164   8.003   7.596   0.616
11403TIP3   OH234165   6.354   7.329   1.249
11403TIP3    H134166   6.273   7.280   1.262
11403TIP3    H234167   6.370   7.372   1.333
11404TIP3   OH234168   7.223   0.860   5.857
11404TIP3    H134169   7.180   0.774   5.857
11404TIP3    H234170   7.186   0.906   5.932
11405TIP3   OH234171   3.667   4.710   6.575
11405TIP3    H134172   3.573   4.694   6.582
11405TIP3    H234173   3.697   4.654   6.503
11406TIP3   OH234174   7.813   0.797   1.132
11406TIP3    H134175   7.874   0.814   1.203
11406TIP3    H234176   7.847   0.718   1.090
11407TIP3   OH234177   4.138   1.364   0.452
11407TIP3    H134178   4.193   1.286   0.444
11407TIP3    H234179   4.118   1.389   0.362
11408TIP3   OH234180   6.077   3.634   1.744
11408TIP3    H134181   6.134   3.623   1.820
11408TIP3    H234182   5.989   3.615   1.776
11409TIP3   OH234183   4.363   4.907   5.010
11409TIP3    H134184   4.292   4.873   4.956
11409TIP3    H234185   4.442   4.876   4.967
11410TIP3   OH234186   2.170   0.692   4.410
11410TIP3    H134187   2.254   0.695   4.456
11410TIP3    H234188   2.123   0.770   4.441
11411TIP3   OH234189   4.477   6.686   1.016
11411TIP3    H134190   4.477   6.774   1.055
11411TIP3    H234191   4.395   6.647   1.047
11412TIP3   OH234192   3.960   3.203   0.701
11412TIP3    H134193   4.009   3.127   0.731
11412TIP3    H234194   3.975   3.205   0.606
11413TIP3   OH234195   8.045   5.347   6.731
11413TIP3    H134196   8.034   5.252   6.737
11413TIP3    H234197   8.124   5.364   6.783
11414TIP3   OH234198   8.073   6.511   6.391
11414TIP3    H134199   8.065   6.419   6.363
11414TIP3    H234200   8.155   6.514   6.441
11415TIP3   OH234201   7.725   7.324   6.467
11415TIP3    H134202   7.702   7.280   6.385
11415TIP3    H234203   7.757   7.410   6.439
11416TIP3   OH234204   7.513   2.226   3.500
11416TIP3    H134205   7.528   2.320   3.486
11416TIP3    H234206   7.444   2.222   3.566
11417TIP3   OH234207   2.498   6.183   3.727
11417TIP3    H134208   2.510   6.214   3.637
11417TIP3    H234209   2.404   6.173   3.737
11418TIP3   OH234210   7.303   1.704   0.749
11418TIP3    H134211   7.221   1.705   0.798
11418TIP3    H234212   7.353   1.632   0.787
11419TIP3   OH234213   0.875   2.461   4.071
11419TIP3    H134214   0.822   2.538   4.092
11419TIP3    H234215   0.814   2.401   4.028
11420TIP3   OH234216   8.165   6.620   1.166
11420TIP3    H134217   8.221   6.618   1.244
11420TIP3    H234218   8.147   6.713   1.152
11421TIP3   OH234219   4.931   0.112   4.473
11421TIP3    H134220   4.990   0.039   4.494
11421TIP3    H234221   4.890   0.135   4.557
11422TIP3   OH234222   5.510   0.788   4.545
11422TIP3    H134223   5.547   0.840   4.616
11422TIP3    H234224   5.480   0.707   4.587
11423TIP3   OH234225   7.052   2.000   3.117
11423TIP3    H134226   7.074   1.980   3.208
11423TIP3    H234227   7.115   2.068   3.092
11424TIP3   OH234228   5.390   0.764   0.382
11424TIP3    H134229   5.340   0.765   0.300
11424TIP3    H234230   5.480   0.784   0.354
11425TIP3   OH234231   8.253   2.910   5.614
11425TIP3    H134232   8.263   2.879   5.524
11425TIP3    H234233   8.339   2.896   5.654
11426TIP3   OH234234   7.041   6.023   1.811
11426TIP3    H134235   7.068   6.009   1.721
11426TIP3    H234236   6.974   5.956   1.827
11427TIP3   OH234237   1.263   2.377   1.417
11427TIP3    H134238   1.262   2.443   1.348
11427TIP3    H234239   1.345   2.392   1.463
11428TIP3   OH234240   4.903   2.680   1.112
11428TIP3    H134241   4.899   2.599   1.163
11428TIP3    H234242   4.958   2.738   1.163
11429TIP3   OH234243   1.969   2.399   6.144
11429TIP3    H134244   1.948   2.413   6.051
11429TIP3    H234245   1.886   2.372   6.183
11430TIP3   OH234246   7.455   5.615   3.936
11430TIP3    H134247   7.385   5.588   3.996
11430TIP3    H234248   7.457   5.547   3.869
11431TIP3   OH234249   3.525   0.396   1.726
11431TIP3    H134250   3.433   0.375   1.707
11431TIP3    H234251   3.532   0.490   1.707
11432TIP3   OH234252   2.228   5.527   1.431
11432TIP3    H134253   2.193   5.440   1.449
11432TIP3    H234254   2.313   5.511   1.391
11433TIP3   OH234255   0.488   4.134   0.613
11433TIP3    H134256   0.440   4.090   0.544
11433TIP3    H234257   0.436   4.120   0.692
11434TIP3   OH234258   0.375   5.757   0.508
11434TIP3    H134259   0.440   5.687   0.505
11434TIP3    H234260   0.358   5.769   0.602
11435TIP3   OH234261   7.975   3.172   1.485
11435TIP3    H134262   7.919   3.098   1.512
11435TIP3    H234263   7.916   3.248   1.487
11436TIP3   OH234264   5.963   7.132   0.687
11436TIP3    H134265   6.004   7.074   0.751
11436TIP3    H234266   5.894   7.176   0.737
11437TIP3   OH234267   2.800   7.129   5.133
11437TIP3    H134268   2.815   7.132   5.038
11437TIP3    H234269   2.771   7.039   5.149
11438TIP3   OH234270   7.162   5.258   2.202
11438TIP3    H134271   7.216   5.337   2.203
11438TIP3    H234272   7.098   5.274   2.133
11439TIP3   OH234273   0.362   2.390   3.925
11439TIP3    H134274   0.393   2.316   3.977
11439TIP3    H234275   0.293   2.354   3.870
11440TIP3   OH234276   6.371   1.958   3.039
11440TIP3    H134277   6.354   1.903   2.963
11440TIP3    H234278   6.410   2.038   3.003
11441TIP3   OH234279   5.389   3.253   0.630
11441TIP3    H134280   5.400   3.319   0.698
11441TIP3    H234281   5.360   3.175   0.677
11442TIP3   OH234282   4.327   3.885   0.154
11442TIP3    H134283   4.342   3.793   0.177
11442TIP3    H234284   4.386   3.934   0.211
11443TIP3   OH234285   1.464   6.528   3.889
11443TIP3    H134286   1.405   6.492   3.955
11443TIP3    H234287   1.447   6.622   3.890
11444TIP3   OH234288   4.670   1.668   6.036
11444TIP3    H134289   4.591   1.695   6.083
11444TIP3    H234290   4.740   1.674   6.100
11445TIP3   OH234291   7.648   6.884   0.767
11445TIP3    H134292   7.656   6.815   0.833
11445TIP3    H234293   7.622   6.837   0.687
11446TIP3   OH234294   5.020   4.712   6.532
11446TIP3    H134295   4.983   4.747   6.451
11446TIP3    H234296   4.947   4.714   6.594
11447TIP3   OH234297   6.372   4.735   3.612
11447TIP3    H134298   6.331   4.661   3.568
11447TIP3    H234299   6.346   4.811   3.560
11448TIP3   OH234300   0.686   3.380   1.140
11448TIP3    H134301   0.640   3.363   1.058
11448TIP3    H234302   0.744   3.305   1.152
11449TIP3   OH234303   5.548   7.153   6.406
11449TIP3    H134304   5.641   7.168   6.394
11449TIP3    H234305   5.507   7.189   6.328
11450TIP3   OH234306   6.885   6.176   3.170
11450TIP3    H134307   6.822   6.162   3.099
11450TIP3    H234308   6.968   6.192   3.127
11451TIP3   OH234309   2.422   0.678   6.212
11451TIP3    H134310   2.461   0.760   6.182
11451TIP3    H234311   2.330   0.684   6.188
11452TIP3   OH234312   4.474   2.319   2.638
11452TIP3    H134313   4.412   2.380   2.599
11452TIP3    H234314   4.488   2.353   2.727
11453TIP3   OH234315   6.158   4.764   6.703
11453TIP3    H134316   6.127   4.675   6.683
11453TIP3    H234317   6.244   4.751   6.743
11454TIP3   OH234318   0.507   6.976   5.488
11454TIP3    H134319   0.595   6.973   5.450
11454TIP3    H234320   0.478   6.885   5.488
11455TIP3   OH234321   7.978   1.279   1.285
11455TIP3    H134322   8.058   1.319   1.250
11455TIP3    H234323   7.950   1.218   1.218
11456TIP3   OH234324   6.493   6.546   4.423
11456TIP3    H134325   6.589   6.546   4.416
11456TIP3    H234326   6.466   6.465   4.382
11457TIP3   OH234327   6.747   3.907   4.314
11457TIP3    H134328   6.813   3.846   4.282
11457TIP3    H234329   6.797   3.977   4.356
11458TIP3   OH234330   8.213   6.060   5.301
11458TIP3    H134331   8.242   6.053   5.209
11458TIP3    H234332   8.270   6.127   5.339
11459TIP3   OH234333   7.413   6.069   6.728
11459TIP3    H134334   7.369   6.150   6.705
11459TIP3    H234335   7.348   6.019   6.777
11460TIP3   OH234336   2.846   4.640   3.803
11460TIP3    H134337   2.908   4.667   3.872
11460TIP3    H234338   2.761   4.637   3.847
11461TIP3   OH234339   4.279   5.627   5.821
11461TIP3    H134340   4.270   5.565   5.894
11461TIP3    H234341   4.268   5.573   5.742
11462TIP3   OH234342   0.916   2.628   3.091
11462TIP3    H134343   0.844   2.648   3.031
11462TIP3    H234344   0.973   2.706   3.088
11463TIP3   OH234345   0.889   7.405   1.527
11463TIP3    H134346   0.893   7.408   1.431
11463TIP3    H234347   0.867   7.494   1.553
11464TIP3   OH234348   4.089   0.080   6.126
11464TIP3    H134349   4.157   0.134   6.086
11464TIP3    H234350   4.028   0.143   6.165
11465TIP3   OH234351   1.504   4.772   0.361
11465TIP3    H134352   1.514   4.694   0.415
11465TIP3    H234353   1.509   4.739   0.271
11466TIP3   OH234354   4.564   2.437   4.067
11466TIP3    H134355   4.608   2.367   4.115
11466TIP3    H234356   4.482   2.451   4.115
11467TIP3   OH234357   5.800   6.970   2.469
11467TIP3    H134358   5.815   6.876   2.473
11467TIP3    H234359   5.705   6.980   2.476
11468TIP3   OH234360   0.359   2.400   4.456
11468TIP3    H134361   0.270   2.428   4.435
11468TIP3    H234362   0.413   2.434   4.385
11469TIP3   OH234363   6.241   5.460   5.720
11469TIP3    H134364   6.191   5.494   5.646
11469TIP3    H234365   6.277   5.538   5.762
11470TIP3   OH234366   3.452   3.393   3.327
11470TIP3    H134367   3.404   3.369   3.248
11470TIP3    H234368   3.394   3.454   3.373
11471TIP3   OH234369   5.765   1.238   1.719
11471TIP3    H134370   5.678   1.248   1.681
11471TIP3    H234371   5.756   1.271   1.809
11472TIP3   OH234372   7.791   0.464   0.202
11472TIP3    H134373   7.805   0.398   0.135
11472TIP3    H234374   7.696   0.474   0.206
11473TIP3   OH234375   7.583   2.251   1.692
11473TIP3    H134376   7.584   2.178   1.754
11473TIP3    H234377   7.597   2.329   1.746
11474TIP3   OH234378   6.205   2.127   4.424
11474TIP3    H134379   6.142   2.058   4.446
11474TIP3    H234380   6.262   2.132   4.501
11475TIP3   OH234381   0.143   1.631   2.018
11475TIP3    H134382   0.062   1.627   1.968
11475TIP3    H234383   0.114   1.627   2.110
11476TIP3   OH234384   8.253   0.183   1.293
11476TIP3    H134385   8.265   0.112   1.356
11476TIP3    H234386   8.310   0.254   1.325
11477TIP3   OH234387   5.378   0.099   2.776
11477TIP3    H134388   5.438   0.157   2.730
11477TIP3    H234389   5.346   0.039   2.709
11478TIP3   OH234390   6.702   0.155   2.647
11478TIP3    H134391   6.748   0.074   2.668
11478TIP3    H234392   6.609   0.133   2.653
11479TIP3   OH234393   1.019   2.433   0.040
11479TIP3    H134394   1.033   2.340   0.022
11479TIP3    H234395   1.095   2.458   0.094
11480TIP3   OH234396   2.321   2.274   0.456
11480TIP3    H134397   2.371   2.268   0.537
11480TIP3    H234398   2.232   2.247   0.480
11481TIP3   OH234399   2.713   3.458   1.716
11481TIP3    H134400   2.671   3.373   1.728
11481TIP3    H234401   2.801   3.437   1.686
11482TIP3   OH234402   2.459   5.065   5.378
11482TIP3    H134403   2.524   5.130   5.405
11482TIP3    H234404   2.458   5.001   5.449
11483TIP3   OH234405   6.700   6.220   6.663
11483TIP3    H134406   6.717   6.307   6.628
11483TIP3    H234407   6.776   6.168   6.637
11484TIP3   OH234408   5.604   5.828   1.968
11484TIP3    H134409   5.625   5.921   1.976
11484TIP3    H234410   5.583   5.816   1.876
11485TIP3   OH234411   4.821   2.056   3.193
11485TIP3    H134412   4.773   1.999   3.253
11485TIP3    H234413   4.880   2.106   3.250
11486TIP3   OH234414   5.229   7.111   1.482
11486TIP3    H134415   5.163   7.151   1.538
11486TIP3    H234416   5.238   7.021   1.515
11487TIP3   OH234417   6.867   5.883   3.288
11487TIP3    H134418   6.883   5.907   3.379
11487TIP3    H234419   6.942   5.917   3.240
11488TIP3   OH234420   0.788   3.076   5.558
11488TIP3    H134421   0.804   3.054   5.649
11488TIP3    H234422   0.732   3.005   5.525
11489TIP3   OH234423   0.707   7.234   4.223
11489TIP3    H134424   0.789   7.186   4.234
11489TIP3    H234425   0.720   7.285   4.143
11490TIP3   OH234426   5.283   3.136   5.569
11490TIP3    H134427   5.307   3.112   5.479
11490TIP3    H234428   5.197   3.096   5.582
11491TIP3   OH234429   4.311   5.477   1.156
11491TIP3    H134430   4.235   5.419   1.149
11491TIP3    H234431   4.306   5.533   1.078
11492TIP3   OH234432   3.506   2.344   4.433
11492TIP3    H134433   3.518   2.349   4.527
11492TIP3    H234434   3.582   2.296   4.401
11493TIP3   OH234435   6.388   3.349   4.869
11493TIP3    H134436   6.298   3.330   4.845
11493TIP3    H234437   6.398   3.311   4.957
11494TIP3   OH234438   1.841   2.798   3.351
11494TIP3    H134439   1.851   2.765   3.440
11494TIP3    H234440   1.824   2.720   3.298
11495TIP3   OH234441   0.108   0.682   1.216
11495TIP3    H134442   0.081   0.698   1.307
11495TIP3    H234443   0.192   0.727   1.208
11496TIP3   OH234444   3.436   5.637   4.508
11496TIP3    H134445   3.364   5.685   4.550
11496TIP3    H234446   3.473   5.582   4.577
11497TIP3   OH234447   6.713   1.041   3.167
11497TIP3    H134448   6.638   1.002   3.212
11497TIP3    H234449   6.753   1.099   3.232
11498TIP3   OH234450   4.893   7.668   3.120
11498TIP3    H134451   4.940   7.743   3.157
11498TIP3    H234452   4.956   7.627   3.061
11499TIP3   OH234453   3.939   5.267   5.791
11499TIP3    H134454   3.861   5.277   5.846
11499TIP3    H234455   3.930   5.180   5.751
11500TIP3   OH234456   5.259   5.769   5.006
11500TIP3    H134457   5.279   5.777   4.913
11500TIP3    H234458   5.291   5.682   5.030
11501TIP3   OH234459   3.206   2.077   0.541
11501TIP3    H134460   3.197   2.153   0.600
11501TIP3    H234461   3.156   2.102   0.463
11502TIP3   OH234462   5.371   6.113   4.430
11502TIP3    H134463   5.384   6.159   4.347
11502TIP3    H234464   5.425   6.160   4.493
11503TIP3   OH234465   4.779   5.694   2.022
11503TIP3    H134466   4.849   5.641   2.060
11503TIP3    H234467   4.819   5.737   1.946
11504TIP3   OH234468   3.471   3.806   4.094
11504TIP3    H134469   3.386   3.781   4.129
11504TIP3    H234470   3.518   3.723   4.082
11505TIP3   OH234471   2.500   0.707   1.127
11505TIP3    H134472   2.582   0.666   1.154
11505TIP3    H234473   2.447   0.711   1.207
11506TIP3   OH234474   0.185   7.399   1.798
11506TIP3    H134475   0.141   7.473   1.839
11506TIP3    H234476   0.259   7.438   1.752
11507TIP3   OH234477   2.957   4.169   3.638
11507TIP3    H134478   2.873   4.167   3.593
11507TIP3    H234479   3.011   4.106   3.591
11508TIP3   OH234480   1.970   3.137   2.132
11508TIP3    H134481   1.965   3.096   2.218
11508TIP3    H234482   1.917   3.081   2.075
11509TIP3   OH234483   4.353   2.210   1.065
11509TIP3    H134484   4.390   2.130   1.100
11509TIP3    H234485   4.429   2.260   1.034
11510TIP3   OH234486   0.663   0.006   1.645
11510TIP3    H134487   0.752   0.011   1.679
11510TIP3    H234488   0.619   0.082   1.682
11511TIP3   OH234489   5.781   5.844   6.731
11511TIP3    H134490   5.863   5.806   6.699
11511TIP3    H234491   5.761   5.794   6.810
11512TIP3   OH234492   6.137   6.560   2.491
11512TIP3    H134493   6.109   6.468   2.493
11512TIP3    H234494   6.233   6.555   2.488
11513TIP3   OH234495   3.789   2.065   5.667
11513TIP3    H134496   3.828   2.126   5.729
11513TIP3    H234497   3.812   2.101   5.581
11514TIP3   OH234498   7.024   2.823   5.594
11514TIP3    H134499   7.101   2.879   5.607
11514TIP3    H234500   6.951   2.874   5.629
11515TIP3   OH234501   4.129   1.497   2.446
11515TIP3    H134502   4.129   1.587   2.413
11515TIP3    H234503   4.078   1.501   2.526
11516TIP3   OH234504   2.523   0.971   5.876
11516TIP3    H134505   2.535   1.062   5.849
11516TIP3    H234506   2.612   0.935   5.878
11517TIP3   OH234507   2.882   0.651   6.293
11517TIP3    H134508   2.848   0.675   6.379
11517TIP3    H234509   2.815   0.594   6.256
11518TIP3   OH234510   7.508   4.317   3.506
11518TIP3    H134511   7.441   4.251   3.492
11518TIP3    H234512   7.473   4.396   3.464
11519TIP3   OH234513   7.558   1.570   3.338
11519TIP3    H134514   7.643   1.596   3.303
11519TIP3    H234515   7.496   1.632   3.299
11520TIP3   OH234516   3.798   3.466   1.174
11520TIP3    H134517   3.802   3.558   1.146
11520TIP3    H234518   3.884   3.448   1.212
11521TIP3   OH234519   0.573   5.491   5.341
11521TIP3    H134520   0.640   5.535   5.394
11521TIP3    H234521   0.520   5.444   5.405
11522TIP3   OH234522   0.984   5.936   1.548
11522TIP3    H134523   1.036   5.879   1.492
11522TIP3    H234524   0.908   5.959   1.495
11523TIP3   OH234525   7.437   5.844   0.965
11523TIP3    H134526   7.452   5.865   0.873
11523TIP3    H234527   7.428   5.749   0.966
11524TIP3   OH234528   5.844   6.689   5.404
11524TIP3    H134529   5.797   6.630   5.462
11524TIP3    H234530   5.862   6.767   5.457
11525TIP3   OH234531   2.100   1.416   0.891
11525TIP3    H134532   2.088   1.322   0.903
11525TIP3    H234533   2.165   1.442   0.957
11526TIP3   OH234534   5.007   3.405   3.713
11526TIP3    H134535   5.012   3.478   3.775
11526TIP3    H234536   4.915   3.404   3.686
11527TIP3   OH234537   1.138   7.681   1.577
11527TIP3    H134538   1.084   7.754   1.608
11527TIP3    H234539   1.128   7.614   1.644
11528TIP3   OH234540   2.400   1.778   2.918
11528TIP3    H134541   2.390   1.702   2.974
11528TIP3    H234542   2.336   1.766   2.849
11529TIP3   OH234543   3.257   7.673   0.733
11529TIP3    H134544   3.162   7.685   0.737
11529TIP3    H234545   3.276   7.604   0.797
11530TIP3   OH234546   7.590   0.737   5.138
11530TIP3    H134547   7.653   0.791   5.186
11530TIP3    H234548   7.509   0.786   5.140
11531TIP3   OH234549   5.135   3.214   0.194
11531TIP3    H134550   5.117   3.131   0.240
11531TIP3    H234551   5.057   3.229   0.141
11532TIP3   OH234552   1.426   5.051   3.067
11532TIP3    H134553   1.443   5.008   2.983
11532TIP3    H234554   1.374   4.989   3.116
11533TIP3   OH234555   0.060   0.245   6.018
11533TIP3    H134556  -0.013   0.234   5.957
11533TIP3    H234557   0.020   0.277   6.098
11534TIP3   OH234558   5.022   3.393   6.080
11534TIP3    H134559   4.938   3.388   6.126
11534TIP3    H234560   5.003   3.359   5.993
11535TIP3   OH234561   1.442   0.575   6.642
11535TIP3    H134562   1.513   0.514   6.662
11535TIP3    H234563   1.466   0.615   6.558
11536TIP3   OH234564   0.707   4.657   3.969
11536TIP3    H134565   0.767   4.681   3.898
11536TIP3    H234566   0.621   4.680   3.936
11537TIP3   OH234567   6.695   7.338   2.405
11537TIP3    H134568   6.643   7.412   2.374
11537TIP3    H234569   6.700   7.350   2.500
11538TIP3   OH234570   6.148   0.516   1.905
11538TIP3    H134571   6.184   0.542   1.990
11538TIP3    H234572   6.075   0.576   1.892
11539TIP3   OH234573   4.757   3.704   2.312
11539TIP3    H134574   4.719   3.694   2.399
11539TIP3    H234575   4.771   3.615   2.281
11540TIP3   OH234576   5.930   2.337   6.610
11540TIP3    H134577   5.945   2.258   6.662
11540TIP3    H234578   6.015   2.381   6.609
11541TIP3   OH234579   3.055   7.078   5.920
11541TIP3    H134580   2.984   7.131   5.886
11541TIP3    H234581   3.132   7.104   5.870
11542TIP3   OH234582   2.403   4.287   0.703
11542TIP3    H134583   2.373   4.196   0.707
11542TIP3    H234584   2.476   4.290   0.764
11543TIP3   OH234585   1.088   5.788   0.050
11543TIP3    H134586   1.178   5.809   0.076
11543TIP3    H234587   1.068   5.708   0.097
11544TIP3   OH234588   5.634   0.824   0.235
11544TIP3    H134589   5.713   0.874   0.251
11544TIP3    H234590   5.664   0.734   0.219
11545TIP3   OH234591   0.759   1.236   3.205
11545TIP3    H134592   0.685   1.190   3.244
11545TIP3    H234593   0.721   1.287   3.134
11546TIP3   OH234594   2.917   1.683   4.867
11546TIP3    H134595   2.848   1.674   4.933
11546TIP3    H234596   2.996   1.650   4.910
11547TIP3   OH234597   8.114   5.953   1.761
11547TIP3    H134598   8.056   5.880   1.738
11547TIP3    H234599   8.062   6.031   1.745
11548TIP3   OH234600   6.338   2.183   5.296
11548TIP3    H134601   6.416   2.233   5.272
11548TIP3    H234602   6.264   2.235   5.264
11549TIP3   OH234603   1.497   5.539   3.793
11549TIP3    H134604   1.421   5.503   3.746
11549TIP3    H234605   1.524   5.469   3.853
11550TIP3   OH234606   1.187   1.043   3.306
11550TIP3    H134607   1.161   1.081   3.222
11550TIP3    H234608   1.107   1.044   3.359
11551TIP3   OH234609   1.764   0.706   0.510
11551TIP3    H134610   1.767   0.799   0.530
11551TIP3    H234611   1.697   0.698   0.442
11552TIP3   OH234612   6.371   5.007   1.903
11552TIP3    H134613   6.359   4.967   1.816
11552TIP3    H234614   6.392   4.934   1.960
11553TIP3   OH234615   6.481   3.846   5.687
11553TIP3    H134616   6.565   3.844   5.733
11553TIP3    H234617   6.416   3.828   5.755
11554TIP3   OH234618   5.115   5.081   1.883
11554TIP3    H134619   5.055   5.068   1.810
11554TIP3    H234620   5.202   5.068   1.845
11555TIP3   OH234621   4.805   0.770   3.106
11555TIP3    H134622   4.812   0.731   3.193
11555TIP3    H234623   4.819   0.697   3.046
11556TIP3   OH234624   4.877   5.304   2.120
11556TIP3    H134625   4.792   5.270   2.092
11556TIP3    H234626   4.898   5.253   2.198
11557TIP3   OH234627   4.043   1.210   1.240
11557TIP3    H134628   3.987   1.286   1.256
11557TIP3    H234629   3.990   1.151   1.187
11558TIP3   OH234630   6.403   4.195   1.783
11558TIP3    H134631   6.348   4.140   1.838
11558TIP3    H234632   6.346   4.224   1.713
11559TIP3   OH234633   1.255   4.538   5.294
11559TIP3    H134634   1.162   4.515   5.297
11559TIP3    H234635   1.298   4.472   5.349
11560TIP3   OH234636   6.372   0.133   3.023
11560TIP3    H134637   6.435   0.066   3.048
11560TIP3    H234638   6.417   0.187   2.958
11561TIP3   OH234639   5.581   4.527   2.105
11561TIP3    H134640   5.633   4.596   2.063
11561TIP3    H234641   5.588   4.453   2.045
11562TIP3   OH234642   4.449   0.938   2.807
11562TIP3    H134643   4.527   0.974   2.766
11562TIP3    H234644   4.473   0.849   2.830
11563TIP3   OH234645   7.073   2.727   1.363
11563TIP3    H134646   7.122   2.666   1.419
11563TIP3    H234647   6.987   2.734   1.405
11564TIP3   OH234648   1.408   5.496   2.440
11564TIP3    H134649   1.407   5.412   2.485
11564TIP3    H234650   1.443   5.476   2.353
11565TIP3   OH234651   1.686   1.114   6.595
11565TIP3    H134652   1.681   1.075   6.682
11565TIP3    H234653   1.647   1.200   6.605
11566TIP3   OH234654   7.761   7.463   6.092
11566TIP3    H134655   7.847   7.426   6.074
11566TIP3    H234656   7.774   7.521   6.167
11567TIP3   OH234657   4.254   3.686   5.900
11567TIP3    H134658   4.169   3.721   5.876
11567TIP3    H234659   4.243   3.591   5.897
11568TIP3   OH234660   0.874   4.352   3.309
11568TIP3    H134661   0.935   4.394   3.370
11568TIP3    H234662   0.795   4.337   3.361
11569TIP3   OH234663   5.811   7.651   4.017
11569TIP3    H134664   5.761   7.654   4.099
11569TIP3    H234665   5.754   7.604   3.956
11570TIP3   OH234666   3.068   3.768   3.760
11570TIP3    H134667   3.016   3.764   3.841
11570TIP3    H234668   3.147   3.817   3.785
11571TIP3   OH234669   6.653   2.152   5.643
11571TIP3    H134670   6.594   2.128   5.713
11571TIP3    H234671   6.734   2.180   5.687
11572TIP3   OH234672   7.844   3.967   3.644
11572TIP3    H134673   7.867   3.878   3.621
11572TIP3    H234674   7.877   4.021   3.572
11573TIP3   OH234675   0.079   2.535   3.017
11573TIP3    H134676   0.023   2.522   2.941
11573TIP3    H234677   0.024   2.582   3.080
11574TIP3   OH234678   4.157   0.751   3.454
11574TIP3    H134679   4.100   0.725   3.526
11574TIP3    H234680   4.107   0.817   3.406
11575TIP3   OH234681   6.276   4.346   3.270
11575TIP3    H134682   6.257   4.416   3.333
11575TIP3    H234683   6.348   4.381   3.217
11576TIP3   OH234684   3.209   4.553   6.069
11576TIP3    H134685   3.120   4.524   6.089
11576TIP3    H234686   3.209   4.646   6.092
11577TIP3   OH234687   1.762   5.107   4.958
11577TIP3    H134688   1.674   5.072   4.968
11577TIP3    H234689   1.749   5.194   4.920
11578TIP3   OH234690  -0.024   6.071   3.018
11578TIP3    H134691   0.008   5.989   3.055
11578TIP3    H234692   0.025   6.081   2.936
11579TIP3   OH234693   4.439   4.138   1.382
11579TIP3    H134694   4.532   4.157   1.395
11579TIP3    H234695   4.402   4.221   1.353
11580TIP3   OH234696   1.028   2.630   0.602
11580TIP3    H134697   1.119   2.615   0.575
11580TIP3    H234698   0.978   2.562   0.556
11581TIP3   OH234699   2.570   2.849   0.673
11581TIP3    H134700   2.575   2.753   0.681
11581TIP3    H234701   2.597   2.866   0.583
11582TIP3   OH234702   7.719   5.913   0.870
11582TIP3    H134703   7.665   5.893   0.947
11582TIP3    H234704   7.809   5.909   0.902
11583TIP3   OH234705   6.272   4.683   2.845
11583TIP3    H134706   6.266   4.589   2.863
11583TIP3    H234707   6.245   4.692   2.754
11584TIP3   OH234708   3.245   2.216   2.523
11584TIP3    H134709   3.215   2.211   2.614
11584TIP3    H234710   3.242   2.309   2.502
11585TIP3   OH234711   3.232   3.945   2.371
11585TIP3    H134712   3.294   3.931   2.443
11585TIP3    H234713   3.235   3.864   2.320
11586TIP3   OH234714   0.513   6.794   3.848
11586TIP3    H134715   0.421   6.800   3.876
11586TIP3    H234716   0.563   6.800   3.929
11587TIP3   OH234717   6.274   4.784   5.450
11587TIP3    H134718   6.208   4.743   5.393
11587TIP3    H234719   6.358   4.751   5.416
11588TIP3   OH234720   6.178   1.942   2.071
11588TIP3    H134721   6.260   1.895   2.086
11588TIP3    H234722   6.199   2.007   2.004
11589TIP3   OH234723   6.313   6.827   3.378
11589TIP3    H134724   6.300   6.761   3.446
11589TIP3    H234725   6.249   6.804   3.310
11590TIP3   OH234726   7.822   0.638   0.443
11590TIP3    H134727   7.730   0.646   0.419
11590TIP3    H234728   7.852   0.557   0.401
11591TIP3   OH234729   2.435   3.132   5.023
11591TIP3    H134730   2.364   3.193   5.042
11591TIP3    H234731   2.514   3.185   5.029
11592TIP3   OH234732   3.375   6.757   6.379
11592TIP3    H134733   3.394   6.683   6.436
11592TIP3    H234734   3.443   6.754   6.312
11593TIP3   OH234735   7.864   0.479   3.492
11593TIP3    H134736   7.881   0.427   3.570
11593TIP3    H234737   7.936   0.542   3.489
11594TIP3   OH234738   1.947   7.521   4.402
11594TIP3    H134739   1.893   7.565   4.467
11594TIP3    H234740   2.033   7.511   4.443
11595TIP3   OH234741   0.624   6.932   0.411
11595TIP3    H134742   0.708   6.947   0.455
11595TIP3    H234743   0.608   6.839   0.422
11596TIP3   OH234744   7.897   7.860   3.848
11596TIP3    H134745   7.978   7.809   3.857
11596TIP3    H234746   7.844   7.808   3.787
11597TIP3   OH234747   0.724   3.978   1.440
11597TIP3    H134748   0.675   4.022   1.371
11597TIP3    H234749   0.793   3.930   1.395
11598TIP3   OH234750   1.511   5.398   6.136
11598TIP3    H134751   1.476   5.477   6.177
11598TIP3    H234752   1.435   5.357   6.096
11599TIP3   OH234753   5.910   6.103   5.482
11599TIP3    H134754   5.881   6.194   5.481
11599TIP3    H234755   5.958   6.092   5.399
11600TIP3   OH234756   6.143   0.957   1.623
11600TIP3    H134757   6.186   0.871   1.620
11600TIP3    H234758   6.209   1.016   1.660
11601TIP3   OH234759   5.197   2.137   1.205
11601TIP3    H134760   5.217   2.062   1.149
11601TIP3    H234761   5.132   2.103   1.267
11602TIP3   OH234762   2.338   5.515   5.997
11602TIP3    H134763   2.346   5.421   6.012
11602TIP3    H234764   2.251   5.526   5.959
11603TIP3   OH234765   5.072   5.026   5.165
11603TIP3    H134766   5.056   4.946   5.114
11603TIP3    H234767   5.059   4.999   5.256
11604TIP3   OH234768   6.696   4.622   6.781
11604TIP3    H134769   6.676   4.529   6.787
11604TIP3    H234770   6.715   4.637   6.688
11605TIP3   OH234771   1.276   1.336   3.803
11605TIP3    H134772   1.312   1.321   3.890
11605TIP3    H234773   1.246   1.249   3.775
11606TIP3   OH234774   6.638   3.037   5.085
11606TIP3    H134775   6.624   2.942   5.089
11606TIP3    H234776   6.628   3.058   4.992
11607TIP3   OH234777   6.840   2.711   6.516
11607TIP3    H134778   6.908   2.776   6.532
11607TIP3    H234779   6.766   2.740   6.570
11608TIP3   OH234780   6.077   4.272   0.628
11608TIP3    H134781   6.108   4.190   0.590
11608TIP3    H234782   6.000   4.247   0.680
11609TIP3   OH234783   0.769   7.640   2.464
11609TIP3    H134784   0.819   7.560   2.481
11609TIP3    H234785   0.803   7.704   2.527
11610TIP3   OH234786   1.820   5.196   5.836
11610TIP3    H134787   1.899   5.143   5.830
11610TIP3    H234788   1.850   5.281   5.869
11611TIP3   OH234789   4.691   1.254   1.686
11611TIP3    H134790   4.681   1.302   1.768
11611TIP3    H234791   4.784   1.232   1.682
11612TIP3   OH234792   0.844   6.439   2.732
11612TIP3    H134793   0.888   6.488   2.663
11612TIP3    H234794   0.906   6.370   2.755
11613TIP3   OH234795   4.957   1.165   3.162
11613TIP3    H134796   4.893   1.221   3.205
11613TIP3    H234797   4.987   1.106   3.231
11614TIP3   OH234798   0.417   6.742   1.959
11614TIP3    H134799   0.504   6.752   1.922
11614TIP3    H234800   0.431   6.728   2.053
11615TIP3   OH234801   5.808   6.254   1.088
11615TIP3    H134802   5.815   6.252   0.993
11615TIP3    H234803   5.863   6.328   1.115
11616TIP3   OH234804   3.580   2.065   2.724
11616TIP3    H134805   3.515   2.038   2.788
11616TIP3    H234806   3.647   2.110   2.775
11617TIP3   OH234807   6.169   5.740   5.637
11617TIP3    H134808   6.251   5.780   5.665
11617TIP3    H234809   6.109   5.752   5.710
11618TIP3   OH234810   7.295   5.132   2.625
11618TIP3    H134811   7.353   5.163   2.694
11618TIP3    H234812   7.238   5.207   2.605
11619TIP3   OH234813   3.336   6.976   4.009
11619TIP3    H134814   3.261   6.919   3.990
11619TIP3    H234815   3.412   6.919   4.002
11620TIP3   OH234816   6.231   1.077   6.625
11620TIP3    H134817   6.227   1.000   6.568
11620TIP3    H234818   6.160   1.063   6.688
11621TIP3   OH234819   4.345   1.813   3.700
11621TIP3    H134820   4.400   1.763   3.760
11621TIP3    H234821   4.341   1.900   3.738
11622TIP3   OH234822   4.524   6.583   3.842
11622TIP3    H134823   4.519   6.642   3.917
11622TIP3    H234824   4.547   6.498   3.879
11623TIP3   OH234825   3.442   7.454   5.430
11623TIP3    H134826   3.347   7.450   5.432
11623TIP3    H234827   3.470   7.366   5.405
11624TIP3   OH234828   5.637   3.991   1.477
11624TIP3    H134829   5.674   4.052   1.413
11624TIP3    H234830   5.713   3.942   1.509
11625TIP3   OH234831   2.258   4.620   2.835
11625TIP3    H134832   2.266   4.527   2.857
11625TIP3    H234833   2.166   4.642   2.855
11626TIP3   OH234834   7.887   0.960   2.345
11626TIP3    H134835   7.839   0.877   2.335
11626TIP3    H234836   7.861   0.991   2.432
11627TIP3   OH234837   4.519   2.844   5.021
11627TIP3    H134838   4.545   2.857   4.930
11627TIP3    H234839   4.489   2.930   5.050
11628TIP3   OH234840   1.904   1.000   3.766
11628TIP3    H134841   1.841   0.929   3.774
11628TIP3    H234842   1.987   0.956   3.745
11629TIP3   OH234843   4.821   3.095   1.010
11629TIP3    H134844   4.790   3.005   1.008
11629TIP3    H234845   4.884   3.101   0.938
11630TIP3   OH234846   2.141   2.806   1.461
11630TIP3    H134847   2.085   2.824   1.385
11630TIP3    H234848   2.226   2.787   1.423
11631TIP3   OH234849   3.252   3.422   4.398
11631TIP3    H134850   3.221   3.479   4.468
11631TIP3    H234851   3.285   3.344   4.442
11632TIP3   OH234852   6.181   3.752   0.269
11632TIP3    H134853   6.200   3.679   0.327
11632TIP3    H234854   6.186   3.715   0.181
11633TIP3   OH234855   6.783   7.505   1.630
11633TIP3    H134856   6.865   7.468   1.663
11633TIP3    H234857   6.730   7.429   1.606
11634TIP3   OH234858   1.016   3.289   1.094
11634TIP3    H134859   0.997   3.323   1.007
11634TIP3    H234860   0.951   3.221   1.110
11635TIP3   OH234861   0.314   5.776   3.441
11635TIP3    H134862   0.305   5.695   3.390
11635TIP3    H234863   0.401   5.809   3.419
11636TIP3   OH234864   4.566   3.728   6.645
11636TIP3    H134865   4.484   3.777   6.659
11636TIP3    H234866   4.632   3.780   6.691
11637TIP3   OH234867   5.321   5.617   6.331
11637TIP3    H134868   5.352   5.607   6.241
11637TIP3    H234869   5.337   5.532   6.372
11638TIP3   OH234870   4.733   2.331   4.745
11638TIP3    H134871   4.690   2.366   4.667
11638TIP3    H234872   4.820   2.370   4.745
11639TIP3   OH234873   5.853   4.016   6.752
11639TIP3    H134874   5.801   3.966   6.816
11639TIP3    H234875   5.792   4.083   6.720
11640TIP3   OH234876   2.571   5.373   2.075
11640TIP3    H134877   2.617   5.455   2.095
11640TIP3    H234878   2.640   5.306   2.078
11641TIP3   OH234879   6.757   1.510   2.387
11641TIP3    H134880   6.692   1.575   2.359
11641TIP3    H234881   6.704   1.437   2.420
11642TIP3   OH234882   2.670   1.024   5.545
11642TIP3    H134883   2.756   1.059   5.524
11642TIP3    H234884   2.686   0.932   5.568
11643TIP3   OH234885   2.067   6.669   2.899
11643TIP3    H134886   2.039   6.608   2.831
11643TIP3    H234887   2.019   6.749   2.881
11644TIP3   OH234888   0.870   5.903   0.424
11644TIP3    H134889   0.907   5.980   0.467
11644TIP3    H234890   0.788   5.886   0.471
11645TIP3   OH234891   0.567   4.539   5.756
11645TIP3    H134892   0.471   4.545   5.765
11645TIP3    H234893   0.588   4.605   5.689
11646TIP3   OH234894   6.501   4.258   1.203
11646TIP3    H134895   6.461   4.174   1.183
11646TIP3    H234896   6.572   4.237   1.264
11647TIP3   OH234897   5.823   6.378   5.783
11647TIP3    H134898   5.762   6.429   5.730
11647TIP3    H234899   5.782   6.292   5.791
11648TIP3   OH234900   7.751   3.549   2.480
11648TIP3    H134901   7.790   3.636   2.491
11648TIP3    H234902   7.674   3.564   2.425
11649TIP3   OH234903   1.907   5.664   1.191
11649TIP3    H134904   1.865   5.749   1.176
11649TIP3    H234905   1.912   5.657   1.287
11650TIP3   OH234906   1.150   2.504   5.690
11650TIP3    H134907   1.135   2.589   5.650
11650TIP3    H234908   1.166   2.522   5.782
11651TIP3   OH234909   3.688   1.681   3.937
11651TIP3    H134910   3.631   1.612   3.905
11651TIP3    H234911   3.629   1.755   3.955
11652TIP3   OH234912   0.292   5.219   6.640
11652TIP3    H134913   0.292   5.254   6.729
11652TIP3    H234914   0.384   5.208   6.618
11653TIP3   OH234915   3.088   4.806   6.584
11653TIP3    H134916   3.079   4.771   6.673
11653TIP3    H234917   3.003   4.845   6.564
11654TIP3   OH234918   6.071   2.838   0.328
11654TIP3    H134919   6.019   2.883   0.261
11654TIP3    H234920   6.085   2.904   0.395
11655TIP3   OH234921   6.037   3.034   5.009
11655TIP3    H134922   6.092   3.007   5.082
11655TIP3    H234923   5.975   3.096   5.047
11656TIP3   OH234924   4.014   7.787   4.356
11656TIP3    H134925   4.051   7.786   4.267
11656TIP3    H234926   3.938   7.729   4.351
11657TIP3   OH234927   5.561   2.284   4.442
11657TIP3    H134928   5.579   2.273   4.349
11657TIP3    H234929   5.507   2.207   4.465
11658TIP3   OH234930   0.172   5.932   4.523
11658TIP3    H134931   0.120   5.864   4.481
11658TIP3    H234932   0.253   5.936   4.472
11659TIP3   OH234933   0.857   4.771   0.149
11659TIP3    H134934   0.884   4.858   0.118
11659TIP3    H234935   0.932   4.715   0.131
11660TIP3   OH234936   2.978   6.098   1.837
11660TIP3    H134937   3.040   6.044   1.789
11660TIP3    H234938   2.923   6.036   1.883
11661TIP3   OH234939   6.949   4.113   1.351
11661TIP3    H134940   6.995   4.078   1.427
11661TIP3    H234941   6.865   4.142   1.385
11662TIP3   OH234942   4.484   6.798   4.035
11662TIP3    H134943   4.525   6.868   3.985
11662TIP3    H234944   4.412   6.842   4.082
11663TIP3   OH234945   0.963   0.005   6.657
11663TIP3    H134946   1.018   0.047   6.591
11663TIP3    H234947   0.874   0.034   6.637
11664TIP3   OH234948   2.864   6.108   4.055
11664TIP3    H134949   2.895   6.018   4.039
11664TIP3    H234950   2.931   6.146   4.112
11665TIP3   OH234951   3.862   0.687   1.982
11665TIP3    H134952   3.955   0.707   1.981
11665TIP3    H234953   3.855   0.600   1.941
11666TIP3   OH234954   5.409   7.531   6.296
11666TIP3    H134955   5.482   7.592   6.299
11666TIP3    H234956   5.437   7.462   6.236
11667TIP3   OH234957   1.280   2.873   4.048
11667TIP3    H134958   1.363   2.841   4.085
11667TIP3    H234959   1.246   2.799   3.998
11668TIP3   OH234960   1.328   7.499   3.026
11668TIP3    H134961   1.296   7.414   3.058
11668TIP3    H234962   1.262   7.562   3.057
11669TIP3   OH234963   6.884   2.926   1.187
11669TIP3    H134964   6.897   2.840   1.147
11669TIP3    H234965   6.928   2.920   1.271
11670TIP3   OH234966   3.525   6.350   4.944
11670TIP3    H134967   3.525   6.262   4.982
11670TIP3    H234968   3.446   6.353   4.890
11671TIP3   OH234969   4.689   2.252   5.692
11671TIP3    H134970   4.607   2.245   5.741
11671TIP3    H234971   4.686   2.341   5.655
11672TIP3   OH234972   3.978   1.229   4.124
11672TIP3    H134973   3.897   1.242   4.074
11672TIP3    H234974   3.983   1.306   4.181
11673TIP3   OH234975   6.375   7.729   4.665
11673TIP3    H134976   6.336   7.755   4.582
11673TIP3    H234977   6.300   7.711   4.722
11674TIP3   OH234978   6.300   6.343   0.200
11674TIP3    H134979   6.260   6.410   0.144
11674TIP3    H234980   6.318   6.388   0.283
11675TIP3   OH234981   3.973   0.200   3.382
11675TIP3    H134982   3.990   0.287   3.347
11675TIP3    H234983   3.913   0.214   3.456
11676TIP3   OH234984   5.338   6.823   0.179
11676TIP3    H134985   5.303   6.907   0.148
11676TIP3    H234986   5.433   6.830   0.166
11677TIP3   OH234987   1.249   1.874   2.270
11677TIP3    H134988   1.168   1.924   2.260
11677TIP3    H234989   1.312   1.918   2.214
11678TIP3   OH234990   1.279   3.659   4.165
11678TIP3    H134991   1.373   3.676   4.169
11678TIP3    H234992   1.244   3.692   4.248
11679TIP3   OH234993   1.675   2.347   5.729
11679TIP3    H134994   1.610   2.369   5.796
11679TIP3    H234995   1.759   2.366   5.770
11680TIP3   OH234996   0.250   4.398   3.355
11680TIP3    H134997   0.302   4.420   3.278
11680TIP3    H234998   0.301   4.331   3.400
11681TIP3   OH234999   4.190   3.820   4.222
11681TIP3    H135000   4.214   3.901   4.177
11681TIP3    H235001   4.145   3.768   4.156
11682TIP3   OH235002   3.556   6.695   6.721
11682TIP3    H135003   3.505   6.771   6.749
11682TIP3    H235004   3.505   6.656   6.650
11683TIP3   OH235005   2.696   7.353   3.452
11683TIP3    H135006   2.769   7.342   3.512
11683TIP3    H235007   2.737   7.366   3.366
11684TIP3   OH235008   5.850   5.758   2.800
11684TIP3    H135009   5.803   5.677   2.779
11684TIP3    H235010   5.790   5.805   2.859
11685TIP3   OH235011   0.139   2.679   1.167
11685TIP3    H135012   0.220   2.680   1.117
11685TIP3    H235013   0.070   2.694   1.102
11686TIP3   OH235014   8.262   4.302   3.100
11686TIP3    H135015   8.255   4.215   3.140
11686TIP3    H235016   8.298   4.285   3.013
11687TIP3   OH235017   7.745   7.066   0.341
11687TIP3    H135018   7.669   7.117   0.370
11687TIP3    H235019   7.816   7.092   0.399
11688TIP3   OH235020   0.356   4.375   1.611
11688TIP3    H135021   0.361   4.377   1.707
11688TIP3    H235022   0.437   4.416   1.582
11689TIP3   OH235023   1.852   7.635   0.483
11689TIP3    H135024   1.879   7.726   0.487
11689TIP3    H235025   1.779   7.634   0.421
11690TIP3   OH235026   5.944   0.166   4.146
11690TIP3    H135027   5.900   0.195   4.227
11690TIP3    H235028   6.011   0.104   4.176
11691TIP3   OH235029   6.871   6.275   2.311
11691TIP3    H135030   6.894   6.185   2.291
11691TIP3    H235031   6.810   6.301   2.242
11692TIP3   OH235032   7.193   4.389   4.495
11692TIP3    H135033   7.098   4.382   4.502
11692TIP3    H235034   7.224   4.299   4.499
11693TIP3   OH235035   0.680   2.068   0.092
11693TIP3    H135036   0.591   2.041   0.117
11693TIP3    H235037   0.668   2.122   0.014
11694TIP3   OH235038   2.912   4.113   2.740
11694TIP3    H135039   2.964   4.116   2.660
11694TIP3    H235040   2.831   4.160   2.717
11695TIP3   OH235041   6.076   4.260   6.139
11695TIP3    H135042   6.115   4.319   6.203
11695TIP3    H235043   5.982   4.276   6.147
11696TIP3   OH235044   7.267   1.132   6.479
11696TIP3    H135045   7.328   1.150   6.407
11696TIP3    H235046   7.181   1.134   6.438
11697TIP3   OH235047   1.907   1.720   6.468
11697TIP3    H135048   1.983   1.702   6.524
11697TIP3    H235049   1.944   1.746   6.384
11698TIP3   OH235050   5.001   2.783   3.152
11698TIP3    H135051   4.954   2.866   3.153
11698TIP3    H235052   5.005   2.758   3.060
11699TIP3   OH235053   1.255   0.378   2.751
11699TIP3    H135054   1.218   0.308   2.697
11699TIP3    H235055   1.339   0.342   2.781
11700TIP3   OH235056   5.990   0.946   3.277
11700TIP3    H135057   5.934   1.016   3.311
11700TIP3    H235058   5.971   0.944   3.183
11701TIP3   OH235059   4.441   6.789   6.782
11701TIP3    H135060   4.401   6.712   6.824
11701TIP3    H235061   4.396   6.796   6.698
11702TIP3   OH235062   7.409   4.095   1.815
11702TIP3    H135063   7.454   4.083   1.899
11702TIP3    H235064   7.473   4.070   1.749
11703TIP3   OH235065   2.954   0.830   2.782
11703TIP3    H135066   2.886   0.763   2.782
11703TIP3    H235067   2.953   0.865   2.871
11704TIP3   OH235068   5.330   3.508   1.174
11704TIP3    H135069   5.284   3.482   1.253
11704TIP3    H235070   5.407   3.450   1.170
11705TIP3   OH235071   4.042   1.459   5.189
11705TIP3    H135072   4.079   1.533   5.238
11705TIP3    H235073   3.960   1.493   5.152
11706TIP3   OH235074   1.742   2.390   4.876
11706TIP3    H135075   1.693   2.437   4.943
11706TIP3    H235076   1.820   2.357   4.921
11707TIP3   OH235077   7.751   6.523   1.941
11707TIP3    H135078   7.660   6.553   1.943
11707TIP3    H235079   7.744   6.427   1.937
11708TIP3   OH235080   6.563   3.531   0.930
11708TIP3    H135081   6.571   3.568   1.017
11708TIP3    H235082   6.565   3.436   0.944
11709TIP3   OH235083   3.075   7.068   6.517
11709TIP3    H135084   3.102   6.996   6.460
11709TIP3    H235085   3.058   7.027   6.602
11710TIP3   OH235086   1.622   0.086   4.587
11710TIP3    H135087   1.661   0.167   4.554
11710TIP3    H235088   1.620   0.028   4.511
11711TIP3   OH235089   7.600   2.635   6.591
11711TIP3    H135090   7.549   2.689   6.531
11711TIP3    H235091   7.568   2.657   6.678
11712TIP3   OH235092   3.056   0.842   5.068
11712TIP3    H135093   2.972   0.840   5.022
11712TIP3    H235094   3.120   0.858   4.999
11713TIP3   OH235095   4.851   5.752   5.735
11713TIP3    H135096   4.885   5.698   5.663
11713TIP3    H235097   4.806   5.690   5.793
11714TIP3   OH235098   5.755   2.761   3.433
11714TIP3    H135099   5.850   2.762   3.428
11714TIP3    H235100   5.733   2.673   3.464
11715TIP3   OH235101   3.343   1.550   4.399
11715TIP3    H135102   3.350   1.617   4.332
11715TIP3    H235103   3.423   1.560   4.451
11716TIP3   OH235104   0.065   7.587   1.449
11716TIP3    H135105   0.086   7.545   1.365
11716TIP3    H235106   0.130   7.553   1.510
11717TIP3   OH235107   3.274   4.172   1.412
11717TIP3    H135108   3.317   4.107   1.469
11717TIP3    H235109   3.182   4.168   1.437
11718TIP3   OH235110   5.000   0.567   2.607
11718TIP3    H135111   5.077   0.544   2.660
11718TIP3    H235112   4.944   0.489   2.611
11719TIP3   OH235113   7.000   6.957   3.902
11719TIP3    H135114   6.991   6.870   3.865
11719TIP3    H235115   6.937   6.960   3.974
11720TIP3   OH235116   3.646   2.552   5.004
11720TIP3    H135117   3.672   2.571   4.914
11720TIP3    H235118   3.708   2.484   5.032
11721TIP3   OH235119   5.783   5.420   2.101
11721TIP3    H135120   5.705   5.475   2.088
11721TIP3    H235121   5.754   5.352   2.161
11722TIP3   OH235122   7.942   6.956   5.450
11722TIP3    H135123   7.900   7.042   5.451
11722TIP3    H235124   7.959   6.937   5.542
11723TIP3   OH235125   0.852   1.273   5.787
11723TIP3    H135126   0.827   1.280   5.879
11723TIP3    H235127   0.896   1.188   5.781
11724TIP3   OH235128   0.134   4.345   0.847
11724TIP3    H135129   0.194   4.395   0.902
11724TIP3    H235130   0.047   4.369   0.877
11725TIP3   OH235131   8.259   3.900   1.406
11725TIP3    H135132   8.166   3.887   1.421
11725TIP3    H235133   8.264   3.966   1.336
11726TIP3   OH235134   5.263   7.095   0.167
11726TIP3    H135135   5.172   7.083   0.142
11726TIP3    H235136   5.301   7.150   0.098
11727TIP3   OH235137   4.193   5.919   1.676
11727TIP3    H135138   4.224   5.835   1.644
11727TIP3    H235139   4.155   5.961   1.598
11728TIP3   OH235140   1.494   2.344   4.027
11728TIP3    H135141   1.544   2.264   4.041
11728TIP3    H235142   1.449   2.359   4.110
11729TIP3   OH235143   4.766   2.952   1.475
11729TIP3    H135144   4.850   2.996   1.467
11729TIP3    H235145   4.712   2.990   1.405
11730TIP3   OH235146   3.477   1.992   6.036
11730TIP3    H135147   3.571   1.995   6.017
11730TIP3    H235148   3.472   1.959   6.125
11731TIP3   OH235149   0.726   6.166   4.884
11731TIP3    H135150   0.794   6.233   4.882
11731TIP3    H235151   0.737   6.124   4.969
11732TIP3   OH235152   5.822   4.830   3.769
11732TIP3    H135153   5.902   4.781   3.790
11732TIP3    H235154   5.769   4.768   3.719
11733TIP3   OH235155   6.502   5.024   2.699
11733TIP3    H135156   6.580   5.073   2.726
11733TIP3    H235157   6.507   4.943   2.749
11734TIP3   OH235158   4.975   6.493   4.247
11734TIP3    H135159   4.883   6.494   4.220
11734TIP3    H235160   4.983   6.416   4.303
11735TIP3   OH235161   5.821   0.975   0.723
11735TIP3    H135162   5.818   1.065   0.691
11735TIP3    H235163   5.891   0.934   0.672
11736TIP3   OH235164   0.203   4.428   4.000
11736TIP3    H135165   0.193   4.365   3.928
11736TIP3    H235166   0.241   4.378   4.072
11737TIP3   OH235167   1.646   5.130   0.634
11737TIP3    H135168   1.658   5.106   0.542
11737TIP3    H235169   1.735   5.148   0.665
11738TIP3   OH235170   6.658   7.649   1.261
11738TIP3    H135171   6.583   7.708   1.248
11738TIP3    H235172   6.726   7.704   1.300
11739TIP3   OH235173   2.276   5.850   5.962
11739TIP3    H135174   2.212   5.885   5.901
11739TIP3    H235175   2.263   5.756   5.960
11740TIP3   OH235176   7.733   1.100   1.431
11740TIP3    H135177   7.672   1.090   1.505
11740TIP3    H235178   7.816   1.123   1.472
11741TIP3   OH235179   4.139   3.174   1.359
11741TIP3    H135180   4.112   3.144   1.272
11741TIP3    H235181   4.139   3.095   1.412
11742TIP3   OH235182   4.370   7.662   0.503
11742TIP3    H135183   4.434   7.635   0.438
11742TIP3    H235184   4.336   7.581   0.539
11743TIP3   OH235185   4.420   6.163   2.828
11743TIP3    H135186   4.329   6.159   2.798
11743TIP3    H235187   4.471   6.182   2.749
11744TIP3   OH235188   0.931   1.006   0.470
11744TIP3    H135189   0.996   0.994   0.539
11744TIP3    H235190   0.888   1.089   0.491
11745TIP3   OH235191   2.235   6.108   3.765
11745TIP3    H135192   2.163   6.142   3.817
11745TIP3    H235193   2.253   6.022   3.802
11746TIP3   OH235194   1.445   4.842   2.851
11746TIP3    H135195   1.414   4.779   2.916
11746TIP3    H235196   1.378   4.838   2.782
11747TIP3   OH235197   7.659   5.403   6.215
11747TIP3    H135198   7.737   5.398   6.271
11747TIP3    H235199   7.586   5.387   6.274
11748TIP3   OH235200   5.088   7.610   6.139
11748TIP3    H135201   5.072   7.631   6.047
11748TIP3    H235202   5.148   7.536   6.137
11749TIP3   OH235203   3.011   3.153   6.325
11749TIP3    H135204   3.072   3.217   6.361
11749TIP3    H235205   3.032   3.151   6.231
11750TIP3   OH235206   6.791   0.877   5.898
11750TIP3    H135207   6.740   0.875   5.980
11750TIP3    H235208   6.881   0.865   5.926
11751TIP3   OH235209   7.967   4.045   0.436
11751TIP3    H135210   7.907   4.091   0.378
11751TIP3    H235211   8.045   4.101   0.439
11752TIP3   OH235212   0.304   4.430   5.855
11752TIP3    H135213   0.208   4.425   5.858
11752TIP3    H235214   0.330   4.351   5.808
11753TIP3   OH235215   0.863   6.147   3.831
11753TIP3    H135216   0.886   6.071   3.885
11753TIP3    H235217   0.781   6.179   3.867
11754TIP3   OH235218   2.827   4.067   0.285
11754TIP3    H135219   2.874   4.133   0.335
11754TIP3    H235220   2.779   4.016   0.350
11755TIP3   OH235221   7.950   0.488   3.955
11755TIP3    H135222   7.872   0.442   3.985
11755TIP3    H235223   7.969   0.450   3.870
11756TIP3   OH235224   3.081   2.545   4.281
11756TIP3    H135225   3.001   2.521   4.234
11756TIP3    H235226   3.087   2.640   4.272
11757TIP3   OH235227   1.687   1.853   6.117
11757TIP3    H135228   1.637   1.885   6.042
11757TIP3    H235229   1.626   1.796   6.164
11758TIP3   OH235230   0.037   1.706   2.813
11758TIP3    H135231   0.079   1.791   2.824
11758TIP3    H235232  -0.011   1.692   2.895
11759TIP3   OH235233   0.832   7.200   1.210
11759TIP3    H135234   0.833   7.131   1.144
11759TIP3    H235235   0.764   7.173   1.272
11760TIP3   OH235236   7.687   2.681   4.928
11760TIP3    H135237   7.659   2.607   4.875
11760TIP3    H235238   7.757   2.646   4.983
11761TIP3   OH235239   2.792   0.809   1.304
11761TIP3    H135240   2.773   0.818   1.397
11761TIP3    H235241   2.758   0.723   1.280
11762TIP3   OH235242   3.829   6.116   5.712
11762TIP3    H135243   3.768   6.178   5.752
11762TIP3    H235244   3.851   6.055   5.782
11763TIP3   OH235245   2.220   3.245   2.079
11763TIP3    H135246   2.206   3.314   2.143
11763TIP3    H235247   2.142   3.189   2.087
11764TIP3   OH235248   6.572   1.412   1.838
11764TIP3    H135249   6.615   1.434   1.921
11764TIP3    H235250   6.534   1.325   1.852
11765TIP3   OH235251   7.151   5.974   6.620
11765TIP3    H135252   7.160   5.967   6.715
11765TIP3    H235253   7.057   5.967   6.604
11766TIP3   OH235254   4.957   4.476   1.293
11766TIP3    H135255   4.872   4.441   1.319
11766TIP3    H235256   5.011   4.398   1.278
11767TIP3   OH235257   0.796   6.316   0.997
11767TIP3    H135258   0.701   6.310   1.000
11767TIP3    H235259   0.826   6.245   1.054
11768TIP3   OH235260   6.821   5.263   0.967
11768TIP3    H135261   6.894   5.288   0.911
11768TIP3    H235262   6.842   5.300   1.053
11769TIP3   OH235263   8.287   7.583   4.152
11769TIP3    H135264   8.203   7.538   4.150
11769TIP3    H235265   8.268   7.672   4.123
11770TIP3   OH235266   5.044   3.888   4.090
11770TIP3    H135267   5.121   3.844   4.054
11770TIP3    H235268   4.972   3.825   4.079
11771TIP3   OH235269   3.119   4.581   4.660
11771TIP3    H135270   3.056   4.636   4.614
11771TIP3    H235271   3.181   4.643   4.699
11772TIP3   OH235272   4.037   0.698   1.125
11772TIP3    H135273   4.019   0.744   1.042
11772TIP3    H235274   4.046   0.768   1.189
11773TIP3   OH235275   4.592   3.955   5.392
11773TIP3    H135276   4.502   3.932   5.412
11773TIP3    H235277   4.643   3.921   5.465
11774TIP3   OH235278   7.370   0.590   3.394
11774TIP3    H135279   7.348   0.556   3.481
11774TIP3    H235280   7.463   0.568   3.383
11775TIP3   OH235281   6.235   6.296   4.120
11775TIP3    H135282   6.197   6.297   4.031
11775TIP3    H235283   6.323   6.331   4.109
11776TIP3   OH235284   6.998   3.845  -0.002
11776TIP3    H135285   6.911   3.849  -0.042
11776TIP3    H235286   6.984   3.799   0.081
11777TIP3   OH235287   1.274   6.827   0.937
11777TIP3    H135288   1.267   6.751   0.995
11777TIP3    H235289   1.273   6.902   0.996
11778TIP3   OH235290   2.437   7.634   2.943
11778TIP3    H135291   2.489   7.637   2.862
11778TIP3    H235292   2.377   7.560   2.930
11779TIP3   OH235293   1.560   4.320   2.673
11779TIP3    H135294   1.553   4.240   2.724
11779TIP3    H235295   1.611   4.380   2.728
11780TIP3   OH235296   0.257   2.059   1.245
11780TIP3    H135297   0.242   2.006   1.323
11780TIP3    H235298   0.352   2.058   1.233
11781TIP3   OH235299   3.975   0.847   1.350
11781TIP3    H135300   3.909   0.908   1.384
11781TIP3    H235301   4.052   0.862   1.406
11782TIP3   OH235302   1.004   3.850   2.182
11782TIP3    H135303   0.923   3.811   2.216
11782TIP3    H235304   0.990   3.856   2.087
11783TIP3   OH235305   2.300   7.394   1.823
11783TIP3    H135306   2.313   7.432   1.910
11783TIP3    H235307   2.214   7.426   1.796
11784TIP3   OH235308   1.326   7.528   1.175
11784TIP3    H135309   1.272   7.546   1.098
11784TIP3    H235310   1.402   7.481   1.140
11785TIP3   OH235311   3.828   1.348   0.035
11785TIP3    H135312   3.789   1.429   0.066
11785TIP3    H235313   3.871   1.372  -0.047
11786TIP3   OH235314   3.728   0.642   2.650
11786TIP3    H135315   3.811   0.609   2.615
11786TIP3    H235316   3.749   0.673   2.738
11787TIP3   OH235317   4.818   7.148   3.076
11787TIP3    H135318   4.759   7.163   3.002
11787TIP3    H235319   4.866   7.231   3.085
11788TIP3   OH235320   7.198   6.127   6.115
11788TIP3    H135321   7.124   6.153   6.061
11788TIP3    H235322   7.256   6.203   6.115
11789TIP3   OH235323   4.865   6.258   4.825
11789TIP3    H135324   4.840   6.323   4.891
11789TIP3    H235325   4.938   6.211   4.864
11790TIP3   OH235326   3.897   5.556   1.240
11790TIP3    H135327   3.928   5.466   1.247
11790TIP3    H235328   3.818   5.550   1.186
11791TIP3   OH235329   6.970   3.727   0.229
11791TIP3    H135330   6.983   3.632   0.223
11791TIP3    H235331   7.048   3.760   0.273
11792TIP3   OH235332   4.165   4.784   1.289
11792TIP3    H135333   4.208   4.763   1.206
11792TIP3    H235334   4.235   4.783   1.354
11793TIP3   OH235335   1.258   3.230   4.973
11793TIP3    H135336   1.326   3.177   5.014
11793TIP3    H235337   1.234   3.295   5.039
11794TIP3   OH235338   1.753   0.475   0.104
11794TIP3    H135339   1.733   0.495   0.013
11794TIP3    H235340   1.838   0.431   0.101
11795TIP3   OH235341   5.990   1.923   0.008
11795TIP3    H135342   6.025   1.908   0.096
11795TIP3    H235343   5.917   1.984   0.022
11796TIP3   OH235344   6.337   5.797   0.087
11796TIP3    H135345   6.403   5.732   0.113
11796TIP3    H235346   6.389   5.875   0.064
11797TIP3   OH235347   4.708   2.421   1.659
11797TIP3    H135348   4.746   2.507   1.641
11797TIP3    H235349   4.631   2.417   1.602
11798TIP3   OH235350   7.965   0.667   6.426
11798TIP3    H135351   7.992   0.647   6.336
11798TIP3    H235352   7.884   0.618   6.438
11799TIP3   OH235353   5.229   7.156   3.389
11799TIP3    H135354   5.218   7.076   3.337
11799TIP3    H235355   5.313   7.144   3.433
11800TIP3   OH235356   7.366   7.378   4.865
11800TIP3    H135357   7.449   7.411   4.831
11800TIP3    H235358   7.371   7.393   4.959
11801TIP3   OH235359   6.972   1.470   1.388
11801TIP3    H135360   6.958   1.416   1.465
11801TIP3    H235361   6.884   1.488   1.354
11802TIP3   OH235362   1.016   2.032   2.259
11802TIP3    H135363   0.921   2.025   2.257
11802TIP3    H235364   1.035   2.115   2.214
11803TIP3   OH235365   4.041   1.687   5.999
11803TIP3    H135366   4.121   1.634   5.989
11803TIP3    H235367   4.026   1.725   5.913
11804TIP3   OH235368   1.067   7.097   1.343
11804TIP3    H135369   0.976   7.118   1.324
11804TIP3    H235370   1.076   7.110   1.437
11805TIP3   OH235371   6.922   2.532   0.819
11805TIP3    H135372   6.932   2.438   0.808
11805TIP3    H235373   6.894   2.564   0.734
11806TIP3   OH235374   6.458   0.459   2.585
11806TIP3    H135375   6.454   0.544   2.543
11806TIP3    H235376   6.516   0.407   2.528
11807TIP3   OH235377   0.258   0.170   0.224
11807TIP3    H135378   0.237   0.263   0.226
11807TIP3    H235379   0.352   0.167   0.207
11808TIP3   OH235380   1.274   1.218   5.718
11808TIP3    H135381   1.265   1.157   5.644
11808TIP3    H235382   1.186   1.254   5.730
11809TIP3   OH235383   3.728   1.216   0.764
11809TIP3    H135384   3.750   1.123   0.769
11809TIP3    H235385   3.803   1.257   0.722
11810TIP3   OH235386   5.910   3.674   3.052
11810TIP3    H135387   5.945   3.742   3.109
11810TIP3    H235388   5.970   3.673   2.977
11811TIP3   OH235389   5.932   7.557   0.457
11811TIP3    H135390   5.929   7.520   0.546
11811TIP3    H235391   5.929   7.481   0.399
11812TIP3   OH235392   8.168   2.932   6.558
11812TIP3    H135393   8.162   2.839   6.578
11812TIP3    H235394   8.197   2.972   6.640
11813TIP3   OH235395   4.364   6.903   3.729
11813TIP3    H135396   4.319   6.841   3.786
11813TIP3    H235397   4.448   6.919   3.773
11814TIP3   OH235398   7.204   1.664   4.004
11814TIP3    H135399   7.271   1.613   4.051
11814TIP3    H235400   7.222   1.646   3.911
11815TIP3   OH235401   7.555   3.639   3.288
11815TIP3    H135402   7.543   3.544   3.280
11815TIP3    H235403   7.514   3.661   3.372
11816TIP3   OH235404   4.605   1.210   1.411
11816TIP3    H135405   4.522   1.251   1.435
11816TIP3    H235406   4.651   1.199   1.495
11817TIP3   OH235407   5.261   3.409   3.909
11817TIP3    H135408   5.267   3.474   3.839
11817TIP3    H235409   5.344   3.415   3.956
11818TIP3   OH235410   2.432   0.530   4.875
11818TIP3    H135411   2.350   0.579   4.883
11818TIP3    H235412   2.453   0.505   4.965
11819TIP3   OH235413   0.991   0.286   3.109
11819TIP3    H135414   0.938   0.295   3.029
11819TIP3    H235415   1.017   0.375   3.130
11820TIP3   OH235416   1.490   1.819   2.405
11820TIP3    H135417   1.404   1.834   2.367
11820TIP3    H235418   1.501   1.724   2.405
11821TIP3   OH235419   2.011   2.478   6.626
11821TIP3    H135420   2.053   2.564   6.632
11821TIP3    H235421   2.066   2.428   6.566
11822TIP3   OH235422   0.115   1.248   2.411
11822TIP3    H135423   0.121   1.315   2.480
11822TIP3    H235424   0.124   1.165   2.458
11823TIP3   OH235425   7.468   3.820   6.254
11823TIP3    H135426   7.424   3.793   6.335
11823TIP3    H235427   7.440   3.911   6.241
11824TIP3   OH235428   3.156   4.469   5.376
11824TIP3    H135429   3.090   4.431   5.318
11824TIP3    H235430   3.151   4.417   5.456
11825TIP3   OH235431   7.161   7.003   3.168
11825TIP3    H135432   7.145   7.078   3.111
11825TIP3    H235433   7.123   7.027   3.252
11826TIP3   OH235434   7.180   3.451   1.397
11826TIP3    H135435   7.119   3.510   1.353
11826TIP3    H235436   7.127   3.407   1.463
11827TIP3   OH235437   3.270   5.033   5.177
11827TIP3    H135438   3.272   4.984   5.259
11827TIP3    H235439   3.273   5.125   5.203
11828TIP3   OH235440   6.842   5.743   6.576
11828TIP3    H135441   6.889   5.700   6.505
11828TIP3    H235442   6.750   5.726   6.558
11829TIP3   OH235443   6.422   7.481   1.817
11829TIP3    H135444   6.429   7.574   1.835
11829TIP3    H235445   6.412   7.440   1.903
11830TIP3   OH235446   7.120   7.111   4.566
11830TIP3    H135447   7.071   7.039   4.528
11830TIP3    H235448   7.158   7.157   4.491
11831TIP3   OH235449   4.107   5.054   0.920
11831TIP3    H135450   4.193   5.096   0.930
11831TIP3    H235451   4.120   4.989   0.852
11832TIP3   OH235452   7.343   3.419   4.970
11832TIP3    H135453   7.396   3.429   4.892
11832TIP3    H235454   7.311   3.328   4.967
11833TIP3   OH235455   0.025   3.486   3.390
11833TIP3    H135456  -0.026   3.410   3.363
11833TIP3    H235457   0.110   3.449   3.417
11834TIP3   OH235458   0.744   0.448   6.431
11834TIP3    H135459   0.787   0.389   6.369
11834TIP3    H235460   0.684   0.500   6.377
11835TIP3   OH235461   5.034   4.100   3.130
11835TIP3    H135462   5.068   4.038   3.065
11835TIP3    H235463   4.940   4.102   3.114
11836TIP3   OH235464   5.414   0.966   0.088
11836TIP3    H135465   5.495   0.961   0.139
11836TIP3    H235466   5.349   0.921   0.141
11837TIP3   OH235467   6.801   3.050   0.954
11837TIP3    H135468   6.776   3.010   1.037
11837TIP3    H235469   6.886   3.012   0.932
11838TIP3   OH235470   7.337   4.529   0.420
11838TIP3    H135471   7.356   4.440   0.392
11838TIP3    H235472   7.284   4.518   0.499
11839TIP3   OH235473   7.552   0.663   1.982
11839TIP3    H135474   7.502   0.607   1.923
11839TIP3    H235475   7.487   0.723   2.018
11840TIP3   OH235476   1.589   0.156   0.518
11840TIP3    H135477   1.640   0.233   0.494
11840TIP3    H235478   1.637   0.082   0.481
11841TIP3   OH235479   4.185   6.525   5.057
11841TIP3    H135480   4.211   6.583   4.985
11841TIP3    H235481   4.095   6.501   5.036
11842TIP3   OH235482   4.536   5.061   6.327
11842TIP3    H135483   4.547   5.147   6.367
11842TIP3    H235484   4.494   5.079   6.243
11843TIP3   OH235485   6.899   2.828   0.669
11843TIP3    H135486   6.985   2.805   0.634
11843TIP3    H235487   6.895   2.923   0.663
11844TIP3   OH235488   0.745   0.637   6.202
11844TIP3    H135489   0.792   0.576   6.146
11844TIP3    H235490   0.764   0.723   6.165
11845TIP3   OH235491   1.627   3.228   5.674
11845TIP3    H135492   1.639   3.299   5.737
11845TIP3    H235493   1.712   3.222   5.629
11846TIP3   OH235494   4.483   2.174   0.732
11846TIP3    H135495   4.470   2.254   0.782
11846TIP3    H235496   4.475   2.201   0.641
11847TIP3   OH235497   6.539   2.796   2.692
11847TIP3    H135498   6.515   2.880   2.732
11847TIP3    H235499   6.617   2.816   2.640
11848TIP3   OH235500   5.336   3.710   5.967
11848TIP3    H135501   5.266   3.692   6.029
11848TIP3    H235502   5.404   3.647   5.988
11849TIP3   OH235503   1.228   3.995   6.565
11849TIP3    H135504   1.261   4.041   6.643
11849TIP3    H235505   1.267   4.042   6.491
11850TIP3   OH235506   6.521   2.356   5.218
11850TIP3    H135507   6.507   2.450   5.234
11850TIP3    H235508   6.574   2.353   5.139
11851TIP3   OH235509   5.691   4.579   0.445
11851TIP3    H135510   5.633   4.602   0.518
11851TIP3    H235511   5.635   4.532   0.384
11852TIP3   OH235512   1.804   0.860   2.800
11852TIP3    H135513   1.795   0.946   2.758
11852TIP3    H235514   1.868   0.874   2.869
11853TIP3   OH235515   0.517   4.191   1.442
11853TIP3    H135516   0.513   4.284   1.423
11853TIP3    H235517   0.427   4.167   1.465
11854TIP3   OH235518   6.461   1.877   6.067
11854TIP3    H135519   6.527   1.902   6.131
11854TIP3    H235520   6.468   1.782   6.060
11855TIP3   OH235521   4.406   5.681   2.157
11855TIP3    H135522   4.361   5.710   2.236
11855TIP3    H235523   4.468   5.751   2.137
11856TIP3   OH235524   1.986   1.241   4.433
11856TIP3    H135525   1.907   1.197   4.403
11856TIP3    H235526   2.048   1.231   4.362
11857TIP3   OH235527   2.472   1.884   2.525
11857TIP3    H135528   2.528   1.893   2.448
11857TIP3    H235529   2.443   1.793   2.524
11858TIP3   OH235530   3.964   5.016   1.865
11858TIP3    H135531   4.010   4.987   1.787
11858TIP3    H235532   4.032   5.054   1.921
11859TIP3   OH235533   3.234   3.289   0.762
11859TIP3    H135534   3.311   3.235   0.742
11859TIP3    H235535   3.247   3.369   0.710
11860TIP3   OH235536   1.612   0.797   2.008
11860TIP3    H135537   1.537   0.737   2.003
11860TIP3    H235538   1.651   0.793   1.920
11861TIP3   OH235539   0.436   4.339   5.001
11861TIP3    H135540   0.374   4.412   4.994
11861TIP3    H235541   0.465   4.341   5.092
11862TIP3   OH235542   3.478   0.313   3.887
11862TIP3    H135543   3.500   0.277   3.973
11862TIP3    H235544   3.443   0.240   3.837
11863TIP3   OH235545   1.559   2.654   3.439
11863TIP3    H135546   1.464   2.646   3.430
11863TIP3    H235547   1.572   2.736   3.487
11864TIP3   OH235548   1.598   0.293   1.509
11864TIP3    H135549   1.663   0.351   1.548
11864TIP3    H235550   1.605   0.309   1.415
11865TIP3   OH235551   5.382   6.059   0.290
11865TIP3    H135552   5.440   6.004   0.237
11865TIP3    H235553   5.301   6.063   0.239
11866TIP3   OH235554   6.313   4.929   3.426
11866TIP3    H135555   6.275   4.917   3.339
11866TIP3    H235556   6.396   4.974   3.410
11867TIP3   OH235557   2.157   6.208   5.521
11867TIP3    H135558   2.213   6.158   5.581
11867TIP3    H235559   2.146   6.292   5.565
11868TIP3   OH235560   2.335   1.292   4.010
11868TIP3    H135561   2.336   1.211   3.959
11868TIP3    H235562   2.271   1.347   3.965
11869TIP3   OH235563   6.443   3.294   6.471
11869TIP3    H135564   6.486   3.366   6.425
11869TIP3    H235565   6.481   3.295   6.559
11870TIP3   OH235566   2.483   4.344   6.387
11870TIP3    H135567   2.517   4.271   6.335
11870TIP3    H235568   2.393   4.319   6.406
11871TIP3   OH235569   6.035   2.726   3.471
11871TIP3    H135570   6.078   2.693   3.392
11871TIP3    H235571   6.093   2.699   3.543
11872TIP3   OH235572   7.968   7.148   0.461
11872TIP3    H135573   7.972   7.242   0.479
11872TIP3    H235574   7.957   7.108   0.548
11873TIP3   OH235575   4.235   6.754   1.238
11873TIP3    H135576   4.167   6.727   1.300
11873TIP3    H235577   4.241   6.681   1.176
11874TIP3   OH235578   3.988   7.690   0.931
11874TIP3    H135579   3.998   7.741   1.012
11874TIP3    H235580   4.029   7.745   0.864
11875TIP3   OH235581   7.293   3.228   5.439
11875TIP3    H135582   7.325   3.312   5.406
11875TIP3    H235583   7.355   3.205   5.509
11876TIP3   OH235584   0.239   7.695   6.334
11876TIP3    H135585   0.307   7.705   6.267
11876TIP3    H235586   0.162   7.667   6.285
11877TIP3   OH235587   1.349   7.341   0.616
11877TIP3    H135588   1.312   7.325   0.703
11877TIP3    H235589   1.434   7.297   0.618
11878TIP3   OH235590   3.155   3.418   0.168
11878TIP3    H135591   3.165   3.513   0.173
11878TIP3    H235592   3.070   3.404   0.126
11879TIP3   OH235593   6.814   2.123   6.784
11879TIP3    H135594   6.786   2.201   6.737
11879TIP3    H235595   6.904   2.107   6.754
11880TIP3   OH235596   6.973   0.261   5.656
11880TIP3    H135597   7.003   0.240   5.568
11880TIP3    H235598   6.954   0.176   5.696
11881TIP3   OH235599   2.057   5.091   1.020
11881TIP3    H135600   2.103   5.156   0.966
11881TIP3    H235601   2.121   5.022   1.033
11882TIP3   OH235602   0.349   0.672   0.336
11882TIP3    H135603   0.368   0.763   0.358
11882TIP3    H235604   0.434   0.629   0.332
11883TIP3   OH235605   6.474   6.343   3.978
11883TIP3    H135606   6.474   6.255   3.940
11883TIP3    H235607   6.550   6.344   4.037
11884TIP3   OH235608   4.542   6.516   1.905
11884TIP3    H135609   4.503   6.488   1.988
11884TIP3    H235610   4.518   6.447   1.843
11885TIP3   OH235611   4.866   2.226   5.226
11885TIP3    H135612   4.821   2.227   5.142
11885TIP3    H235613   4.936   2.290   5.216
11886TIP3   OH235614   7.508   7.095   4.368
11886TIP3    H135615   7.442   7.109   4.436
11886TIP3    H235616   7.574   7.163   4.384
11887TIP3   OH235617   1.897   7.528   6.380
11887TIP3    H135618   1.849   7.446   6.370
11887TIP3    H235619   1.945   7.517   6.463
11888TIP3   OH235620   2.264   5.017   6.593
11888TIP3    H135621   2.331   4.950   6.584
11888TIP3    H235622   2.207   4.985   6.663
11889TIP3   OH235623   6.858   3.442   2.182
11889TIP3    H135624   6.771   3.466   2.149
11889TIP3    H235625   6.910   3.522   2.170
11890TIP3   OH235626   5.847   1.945   5.705
11890TIP3    H135627   5.830   1.944   5.611
11890TIP3    H235628   5.761   1.960   5.745
11891TIP3   OH235629   1.932   6.668   4.523
11891TIP3    H135630   1.908   6.761   4.516
11891TIP3    H235631   1.940   6.653   4.617
11892TIP3   OH235632   2.985   5.828   4.830
11892TIP3    H135633   3.050   5.806   4.763
11892TIP3    H235634   3.032   5.817   4.913
11893TIP3   OH235635   3.314   3.367   5.648
11893TIP3    H135636   3.235   3.325   5.613
11893TIP3    H235637   3.280   3.432   5.710
11894TIP3   OH235638   6.883   3.065   6.440
11894TIP3    H135639   6.873   3.117   6.520
11894TIP3    H235640   6.797   3.026   6.426
11895TIP3   OH235641   1.531   1.397   1.090
11895TIP3    H135642   1.500   1.408   1.180
11895TIP3    H235643   1.451   1.382   1.039
11896TIP3   OH235644   1.417   3.661   2.678
11896TIP3    H135645   1.496   3.701   2.642
11896TIP3    H235646   1.417   3.572   2.643
11897TIP3   OH235647   0.751   1.004   1.348
11897TIP3    H135648   0.673   0.995   1.402
11897TIP3    H235649   0.822   0.972   1.403
11898TIP3   OH235650   8.018   7.756   5.876
11898TIP3    H135651   8.057   7.821   5.817
11898TIP3    H235652   7.949   7.714   5.823
11899TIP3   OH235653   8.084   6.444   0.500
11899TIP3    H135654   8.131   6.492   0.432
11899TIP3    H235655   8.076   6.355   0.466
11900TIP3   OH235656   0.325   6.496   4.251
11900TIP3    H135657   0.359   6.564   4.310
11900TIP3    H235658   0.399   6.477   4.192
11901TIP3   OH235659   3.782   4.522   5.367
11901TIP3    H135660   3.861   4.574   5.384
11901TIP3    H235661   3.758   4.543   5.276
11902TIP3   OH235662   2.243   0.317   2.969
11902TIP3    H135663   2.316   0.371   2.938
11902TIP3    H235664   2.272   0.227   2.951
11903TIP3   OH235665   7.962   2.758   2.965
11903TIP3    H135666   8.009   2.682   2.998
11903TIP3    H235667   7.917   2.794   3.041
11904TIP3   OH235668   7.496   5.982   1.561
11904TIP3    H135669   7.585   5.945   1.557
11904TIP3    H235670   7.505   6.059   1.616
11905TIP3   OH235671   5.707   6.308   2.159
11905TIP3    H135672   5.748   6.259   2.231
11905TIP3    H235673   5.714   6.249   2.083
11906TIP3   OH235674   6.379   2.597   1.155
11906TIP3    H135675   6.357   2.532   1.088
11906TIP3    H235676   6.474   2.608   1.147
11907TIP3   OH235677   7.755   6.668   6.374
11907TIP3    H135678   7.763   6.678   6.279
11907TIP3    H235679   7.669   6.705   6.395
11908TIP3   OH235680   7.101   3.300   5.669
11908TIP3    H135681   7.142   3.246   5.602
11908TIP3    H235682   7.141   3.387   5.658
11909TIP3   OH235683   5.498   2.940   3.104
11909TIP3    H135684   5.567   3.005   3.086
11909TIP3    H235685   5.544   2.867   3.144
11910TIP3   OH235686   7.696   0.059   1.585
11910TIP3    H135687   7.601   0.063   1.592
11910TIP3    H235688   7.713   0.026   1.497
11911TIP3   OH235689   5.631   0.402   5.729
11911TIP3    H135690   5.726   0.417   5.732
11911TIP3    H235691   5.595   0.489   5.710
11912TIP3   OH235692   3.150   7.307   4.390
11912TIP3    H135693   3.083   7.325   4.455
11912TIP3    H235694   3.183   7.393   4.365
11913TIP3   OH235695   6.155   4.031   6.491
11913TIP3    H135696   6.122   3.998   6.408
11913TIP3    H235697   6.091   4.096   6.519
11914TIP3   OH235698   7.198   0.814   0.169
11914TIP3    H135699   7.189   0.903   0.136
11914TIP3    H235700   7.109   0.779   0.169
11915TIP3   OH235701   5.869   7.593   0.099
11915TIP3    H135702   5.836   7.508   0.127
11915TIP3    H235703   5.909   7.631   0.178
11916TIP3   OH235704   0.876   4.053   3.312
11916TIP3    H135705   0.841   4.140   3.291
11916TIP3    H235706   0.799   3.996   3.316
11917TIP3   OH235707   7.957   0.404   0.534
11917TIP3    H135708   8.002   0.328   0.496
11917TIP3    H235709   7.873   0.369   0.565
11918TIP3   OH235710   7.708   6.756   6.801
11918TIP3    H135711   7.767   6.706   6.744
11918TIP3    H235712   7.624   6.755   6.755
11919TIP3   OH235713   0.850   3.027   5.839
11919TIP3    H135714   0.760   3.023   5.873
11919TIP3    H235715   0.884   2.938   5.854
11920TIP3   OH235716   0.879   4.877   0.653
11920TIP3    H135717   0.862   4.963   0.692
11920TIP3    H235718   0.952   4.892   0.594
11921TIP3   OH235719   1.747   7.616   1.921
11921TIP3    H135720   1.781   7.651   1.839
11921TIP3    H235721   1.807   7.545   1.945
11922TIP3   OH235722   5.100   4.541   6.780
11922TIP3    H135723   5.054   4.495   6.850
11922TIP3    H235724   5.086   4.487   6.702
11923TIP3   OH235725   5.006   7.374   3.136
11923TIP3    H135726   5.050   7.409   3.059
11923TIP3    H235727   5.052   7.411   3.210
11924TIP3   OH235728   3.441   4.158   0.126
11924TIP3    H135729   3.486   4.176   0.044
11924TIP3    H235730   3.499   4.099   0.173
11925TIP3   OH235731   3.739   7.791   3.796
11925TIP3    H135732   3.790   7.870   3.777
11925TIP3    H235733   3.690   7.774   3.716
11926TIP3   OH235734   5.580   0.462   2.201
11926TIP3    H135735   5.519   0.466   2.127
11926TIP3    H235736   5.664   0.440   2.162
11927TIP3   OH235737   5.388   7.522   5.158
11927TIP3    H135738   5.345   7.526   5.243
11927TIP3    H235739   5.316   7.529   5.095
11928TIP3   OH235740   6.811   0.093   4.600
11928TIP3    H135741   6.806   0.023   4.535
11928TIP3    H235742   6.745   0.156   4.572
11929TIP3   OH235743   6.187   2.633   0.489
11929TIP3    H135744   6.165   2.665   0.577
11929TIP3    H235745   6.158   2.702   0.430
11930TIP3   OH235746   6.797   4.922   1.314
11930TIP3    H135747   6.859   4.942   1.244
11930TIP3    H235748   6.800   4.826   1.323
11931TIP3   OH235749   5.088   4.540   0.997
11931TIP3    H135750   5.145   4.590   0.938
11931TIP3    H235751   5.128   4.549   1.083
11932TIP3   OH235752   5.390   4.814   6.358
11932TIP3    H135753   5.425   4.899   6.331
11932TIP3    H235754   5.379   4.766   6.276
11933TIP3   OH235755   8.079   4.266   0.853
11933TIP3    H135756   8.151   4.222   0.807
11933TIP3    H235757   8.003   4.209   0.839
11934TIP3   OH235758   7.000   6.308   2.564
11934TIP3    H135759   6.991   6.303   2.469
11934TIP3    H235760   7.092   6.330   2.578
11935TIP3   OH235761   0.041   6.802   3.585
11935TIP3    H135762  -0.034   6.759   3.625
11935TIP3    H235763   0.076   6.737   3.524
11936TIP3   OH235764   6.361   2.981   4.406
11936TIP3    H135765   6.328   2.997   4.318
11936TIP3    H235766   6.361   2.885   4.414
11937TIP3   OH235767   2.417   6.719   1.437
11937TIP3    H135768   2.325   6.696   1.425
11937TIP3    H235769   2.465   6.647   1.395
11938TIP3   OH235770   5.384   2.546   4.131
11938TIP3    H135771   5.339   2.626   4.157
11938TIP3    H235772   5.428   2.516   4.210
11939TIP3   OH235773   7.137   3.471   2.853
11939TIP3    H135774   7.047   3.475   2.886
11939TIP3    H235775   7.148   3.381   2.822
11940TIP3   OH235776   2.323   6.227   6.326
11940TIP3    H135777   2.384   6.165   6.285
11940TIP3    H235778   2.273   6.173   6.387
11941TIP3   OH235779   4.395   5.403   2.143
11941TIP3    H135780   4.362   5.380   2.230
11941TIP3    H235781   4.396   5.499   2.142
11942TIP3   OH235782   8.005   1.552   4.980
11942TIP3    H135783   8.061   1.622   4.947
11942TIP3    H235784   7.918   1.592   4.988
11943TIP3   OH235785   3.903   6.746   6.231
11943TIP3    H135786   3.894   6.663   6.184
11943TIP3    H235787   3.961   6.725   6.304
11944TIP3   OH235788   0.448   3.934   5.375
11944TIP3    H135789   0.487   3.900   5.456
11944TIP3    H235790   0.405   4.015   5.402
11945TIP3   OH235791   6.421   0.430   0.937
11945TIP3    H135792   6.432   0.422   0.843
11945TIP3    H235793   6.509   0.418   0.973
11946TIP3   OH235794   3.050   2.835   6.319
11946TIP3    H135795   3.055   2.910   6.259
11946TIP3    H235796   2.968   2.791   6.295
11947TIP3   OH235797   3.426   1.868   0.305
11947TIP3    H135798   3.355   1.804   0.307
11947TIP3    H235799   3.426   1.901   0.215
11948TIP3   OH235800   1.601   1.281   5.727
11948TIP3    H135801   1.586   1.292   5.821
11948TIP3    H235802   1.544   1.346   5.686
11949TIP3   OH235803   7.645   2.433   2.711
11949TIP3    H135804   7.560   2.473   2.694
11949TIP3    H235805   7.708   2.489   2.665
11950TIP3   OH235806   0.589   3.980   3.288
11950TIP3    H135807   0.522   3.954   3.226
11950TIP3    H235808   0.573   3.925   3.365
11951TIP3   OH235809   7.307   5.865   3.285
11951TIP3    H135810   7.280   5.916   3.361
11951TIP3    H235811   7.386   5.910   3.253
11952TIP3   OH235812   3.501   5.304   4.208
11952TIP3    H135813   3.578   5.265   4.250
11952TIP3    H235814   3.433   5.237   4.217
11953TIP3   OH235815   8.168   1.519   1.308
11953TIP3    H135816   8.234   1.469   1.357
11953TIP3    H235817   8.135   1.583   1.372
11954TIP3   OH235818   4.536   5.514   4.774
11954TIP3    H135819   4.575   5.456   4.709
11954TIP3    H235820   4.514   5.593   4.725
11955TIP3   OH235821   0.978   4.550   5.319
11955TIP3    H135822   0.993   4.607   5.394
11955TIP3    H235823   0.908   4.592   5.269
11956TIP3   OH235824   7.754   5.059   3.367
11956TIP3    H135825   7.765   5.135   3.310
11956TIP3    H235826   7.828   5.002   3.346
11957TIP3   OH235827   6.193   1.226   2.807
11957TIP3    H135828   6.288   1.233   2.815
11957TIP3    H235829   6.177   1.235   2.713
11958TIP3   OH235830   4.696   7.089   1.737
11958TIP3    H135831   4.690   7.181   1.763
11958TIP3    H235832   4.670   7.040   1.815
11959TIP3   OH235833   1.570   7.426   1.085
11959TIP3    H135834   1.624   7.418   1.006
11959TIP3    H235835   1.632   7.422   1.157
11960TIP3   OH235836   6.918   7.432   1.967
11960TIP3    H135837   6.995   7.449   2.022
11960TIP3    H235838   6.945   7.359   1.911
11961TIP3   OH235839   0.832   7.779   6.301
11961TIP3    H135840   0.882   7.851   6.264
11961TIP3    H235841   0.773   7.821   6.364
11962TIP3   OH235842   0.235   3.447   2.552
11962TIP3    H135843   0.160   3.430   2.495
11962TIP3    H235844   0.198   3.490   2.629
11963TIP3   OH235845   5.969   6.146   2.012
11963TIP3    H135846   6.006   6.203   1.945
11963TIP3    H235847   6.034   6.076   2.022
11964TIP3   OH235848   0.881   0.414   5.469
11964TIP3    H135849   0.831   0.496   5.470
11964TIP3    H235850   0.841   0.363   5.398
11965TIP3   OH235851   3.773   1.252   0.416
11965TIP3    H135852   3.680   1.231   0.415
11965TIP3    H235853   3.777   1.346   0.397
11966TIP3   OH235854   7.350   2.965   2.037
11966TIP3    H135855   7.381   3.054   2.019
11966TIP3    H235856   7.412   2.932   2.102
11967TIP3   OH235857   0.595   3.840   3.580
11967TIP3    H135858   0.554   3.918   3.616
11967TIP3    H235859   0.688   3.852   3.598
11968TIP3   OH235860   6.981   7.213   3.786
11968TIP3    H135861   6.957   7.122   3.766
11968TIP3    H235862   6.965   7.222   3.880
11969TIP3   OH235863   7.948   1.139   4.647
11969TIP3    H135864   7.966   1.209   4.710
11969TIP3    H235865   7.980   1.174   4.563
11970TIP3   OH235866   4.870   6.563   2.157
11970TIP3    H135867   4.796   6.606   2.201
11970TIP3    H235868   4.853   6.470   2.166
11971TIP3   OH235869   2.659   3.917   3.709
11971TIP3    H135870   2.605   3.839   3.706
11971TIP3    H235871   2.671   3.934   3.803
11972TIP3   OH235872   5.441   2.962   3.620
11972TIP3    H135873   5.375   2.976   3.688
11972TIP3    H235874   5.465   2.869   3.629
11973TIP3   OH235875   7.422   5.482   4.978
11973TIP3    H135876   7.434   5.538   5.054
11973TIP3    H235877   7.390   5.399   5.013
11974TIP3   OH235878   5.133   4.372   3.238
11974TIP3    H135879   5.069   4.320   3.188
11974TIP3    H235880   5.209   4.316   3.245
11975TIP3   OH235881   6.673   7.290   2.010
11975TIP3    H135882   6.700   7.204   1.979
11975TIP3    H235883   6.746   7.322   2.063
11976TIP3   OH235884   7.373   3.776   6.518
11976TIP3    H135885   7.398   3.692   6.556
11976TIP3    H235886   7.387   3.840   6.588
11977TIP3   OH235887   5.311   0.169   4.383
11977TIP3    H135888   5.390   0.115   4.388
11977TIP3    H235889   5.242   0.108   4.357
11978TIP3   OH235890   2.498   1.145   0.180
11978TIP3    H135891   2.423   1.175   0.231
11978TIP3    H235892   2.541   1.225   0.150
11979TIP3   OH235893   4.348   7.247   1.010
11979TIP3    H135894   4.342   7.292   1.094
11979TIP3    H235895   4.314   7.159   1.028
11980TIP3   OH235896   6.996   6.712   3.797
11980TIP3    H135897   7.031   6.693   3.709
11980TIP3    H235898   7.048   6.657   3.855
11981TIP3   OH235899   0.623   5.328   4.087
11981TIP3    H135900   0.550   5.388   4.104
11981TIP3    H235901   0.609   5.255   4.147
11982TIP3   OH235902   1.928   4.134   5.990
11982TIP3    H135903   1.870   4.174   6.054
11982TIP3    H235904   1.910   4.181   5.908
11983TIP3   OH235905   5.693   5.401   3.078
11983TIP3    H135906   5.683   5.337   3.148
11983TIP3    H235907   5.622   5.382   3.017
11984TIP3   OH235908   6.354   4.058   4.625
11984TIP3    H135909   6.356   4.135   4.569
11984TIP3    H235910   6.445   4.046   4.652
11985TIP3   OH235911   2.517   6.441   6.728
11985TIP3    H135912   2.508   6.388   6.807
11985TIP3    H235913   2.438   6.423   6.678
11986TIP3   OH235914   4.757   3.487   3.567
11986TIP3    H135915   4.724   3.487   3.478
11986TIP3    H235916   4.681   3.463   3.621
11987TIP3   OH235917   7.686   0.156   0.416
11987TIP3    H135918   7.777   0.174   0.396
11987TIP3    H235919   7.651   0.240   0.448
11988TIP3   OH235920   4.674   6.835   5.166
11988TIP3    H135921   4.698   6.744   5.184
11988TIP3    H235922   4.758   6.881   5.162
11989TIP3   OH235923   8.265   6.281   2.626
11989TIP3    H135924   8.185   6.315   2.665
11989TIP3    H235925   8.256   6.299   2.532
11990TIP3   OH235926   4.475   6.719   6.072
11990TIP3    H135927   4.390   6.713   6.115
11990TIP3    H235928   4.511   6.631   6.078
11991TIP3   OH235929   0.393   0.018   0.811
11991TIP3    H135930   0.306  -0.016   0.791
11991TIP3    H235931   0.410   0.082   0.742
11992TIP3   OH235932   5.223   5.861   2.146
11992TIP3    H135933   5.140   5.874   2.192
11992TIP3    H235934   5.220   5.770   2.116
11993TIP3   OH235935   6.962   3.096   0.646
11993TIP3    H135936   6.997   3.166   0.590
11993TIP3    H235937   6.908   3.142   0.711
11994TIP3   OH235938   6.169   5.869   3.703
11994TIP3    H135939   6.090   5.879   3.651
11994TIP3    H235940   6.182   5.954   3.745
11995TIP3   OH235941   4.797   2.874   5.566
11995TIP3    H135942   4.705   2.867   5.542
11995TIP3    H235943   4.811   2.804   5.629
11996TIP3   OH235944   8.147   5.380   4.396
11996TIP3    H135945   8.213   5.432   4.442
11996TIP3    H235946   8.163   5.290   4.425
11997TIP3   OH235947   7.001   7.261   0.780
11997TIP3    H135948   6.918   7.227   0.815
11997TIP3    H235949   6.977   7.343   0.738
11998TIP3   OH235950   7.572   2.898   6.333
11998TIP3    H135951   7.636   2.841   6.290
11998TIP3    H235952   7.606   2.987   6.319
11999TIP3   OH235953   5.496   1.817   2.041
11999TIP3    H135954   5.530   1.814   1.951
11999TIP3    H235955   5.404   1.841   2.031
12000TIP3   OH235956   4.168   2.625   6.157
12000TIP3    H135957   4.255   2.601   6.189
12000TIP3    H235958   4.108   2.577   6.214
12001TIP3   OH235959   1.162   6.796   2.460
12001TIP3    H135960   1.150   6.736   2.386
12001TIP3    H235961   1.224   6.861   2.428
12002TIP3   OH235962   6.622   4.291   4.290
12002TIP3    H135963   6.636   4.264   4.380
12002TIP3    H235964   6.589   4.380   4.296
12003TIP3   OH235965   1.909   3.286   4.692
12003TIP3    H135966   1.954   3.232   4.757
12003TIP3    H235967   1.823   3.304   4.731
12004TIP3   OH235968   2.507   3.170   4.234
12004TIP3    H135969   2.597   3.193   4.211
12004TIP3    H235970   2.479   3.239   4.294
12005TIP3   OH235971   0.806   3.152   1.194
12005TIP3    H135972   0.724   3.162   1.242
12005TIP3    H235973   0.829   3.060   1.206
12006TIP3   OH235974   4.386   0.793   2.107
12006TIP3    H135975   4.403   0.767   2.198
12006TIP3    H235976   4.470   0.825   2.075
12007TIP3   OH235977   1.339   6.495   0.562
12007TIP3    H135978   1.310   6.581   0.532
12007TIP3    H235979   1.340   6.502   0.657
12008TIP3   OH235980   7.529   5.312   3.416
12008TIP3    H135981   7.536   5.243   3.481
12008TIP3    H235982   7.613   5.310   3.369
12009TIP3   OH235983   3.655   5.114   0.797
12009TIP3    H135984   3.658   5.070   0.882
12009TIP3    H235985   3.626   5.203   0.817
12010TIP3   OH235986   3.089   0.053   3.256
12010TIP3    H135987   3.034  -0.020   3.227
12010TIP3    H235988   3.177   0.016   3.263
12011TIP3   OH235989   5.249   2.520   5.540
12011TIP3    H135990   5.249   2.606   5.497
12011TIP3    H235991   5.170   2.519   5.593
12012TIP3   OH235992   1.034   3.174   0.478
12012TIP3    H135993   1.007   3.111   0.544
12012TIP3    H235994   1.079   3.121   0.412
12013TIP3   OH235995   0.243   2.217   5.375
12013TIP3    H135996   0.333   2.219   5.342
12013TIP3    H235997   0.190   2.235   5.298
12014TIP3   OH235998   7.502   0.428   0.311
12014TIP3    H135999   7.429   0.404   0.368
12014TIP3    H236000   7.486   0.520   0.289
12015TIP3   OH236001   0.503   0.125   1.869
12015TIP3    H136002   0.450   0.203   1.858
12015TIP3    H236003   0.440   0.054   1.884
12016TIP3   OH236004   7.388   0.122   3.844
12016TIP3    H136005   7.419   0.119   3.753
12016TIP3    H236006   7.327   0.196   3.845
12017TIP3   OH236007   2.220   7.008   3.374
12017TIP3    H136008   2.239   7.063   3.298
12017TIP3    H236009   2.146   6.955   3.346
12018TIP3   OH236010   4.164   7.110   4.189
12018TIP3    H136011   4.138   7.104   4.281
12018TIP3    H236012   4.219   7.032   4.175
12019TIP3   OH236013   4.321   1.108   1.934
12019TIP3    H136014   4.297   1.118   1.841
12019TIP3    H236015   4.416   1.100   1.933
12020TIP3   OH236016   7.537   2.370   5.500
12020TIP3    H136017   7.511   2.278   5.497
12020TIP3    H236018   7.623   2.372   5.457
12021TIP3   OH236019   3.627   3.244   4.280
12021TIP3    H136020   3.590   3.169   4.232
12021TIP3    H236021   3.710   3.213   4.313
12022TIP3   OH236022   0.248   5.837   4.808
12022TIP3    H136023   0.286   5.850   4.721
12022TIP3    H236024   0.314   5.871   4.869
12023TIP3   OH236025   0.563   6.920   2.845
12023TIP3    H136026   0.522   6.893   2.763
12023TIP3    H236027   0.638   6.861   2.854
12024TIP3   OH236028   5.637   7.246   2.007
12024TIP3    H136029   5.605   7.173   2.061
12024TIP3    H236030   5.575   7.250   1.934
12025TIP3   OH236031   4.504   3.296   0.297
12025TIP3    H136032   4.476   3.255   0.215
12025TIP3    H236033   4.422   3.323   0.339
12026TIP3   OH236034   3.692   7.809   5.657
12026TIP3    H136035   3.765   7.782   5.601
12026TIP3    H236036   3.617   7.760   5.624
12027TIP3   OH236037   2.052   6.045   6.753
12027TIP3    H136038   2.035   6.131   6.792
12027TIP3    H236039   2.052   6.061   6.658
12028TIP3   OH236040   2.147   3.082   6.191
12028TIP3    H136041   2.075   3.105   6.251
12028TIP3    H236042   2.202   3.160   6.190
12029TIP3   OH236043   3.367   5.782   0.427
12029TIP3    H136044   3.408   5.869   0.429
12029TIP3    H236045   3.439   5.722   0.445
12030TIP3   OH236046   7.952   2.655   0.250
12030TIP3    H136047   8.014   2.587   0.223
12030TIP3    H236048   7.916   2.688   0.167
12031TIP3   OH236049   5.138   1.306   0.688
12031TIP3    H136050   5.096   1.330   0.604
12031TIP3    H236051   5.111   1.216   0.703
12032TIP3   OH236052   4.785   6.686   0.602
12032TIP3    H136053   4.851   6.753   0.584
12032TIP3    H236054   4.766   6.696   0.695
12033TIP3   OH236055   3.203   1.196   0.199
12033TIP3    H136056   3.185   1.227   0.110
12033TIP3    H236057   3.296   1.212   0.212
12034TIP3   OH236058   5.183   0.122   5.582
12034TIP3    H136059   5.100   0.073   5.578
12034TIP3    H236060   5.244   0.062   5.624
12035TIP3   OH236061   5.575   7.719   5.376
12035TIP3    H136062   5.557   7.625   5.370
12035TIP3    H236063   5.667   7.724   5.403
12036TIP3   OH236064   4.759   6.980   6.516
12036TIP3    H136065   4.728   6.890   6.511
12036TIP3    H236066   4.804   6.985   6.600
12037TIP3   OH236067   4.931   0.427   2.035
12037TIP3    H136068   4.899   0.425   1.945
12037TIP3    H236069   5.022   0.456   2.027
12038TIP3   OH236070   0.802   3.075   1.629
12038TIP3    H136071   0.754   2.999   1.598
12038TIP3    H236072   0.754   3.105   1.706
12039TIP3   OH236073   0.743   7.373   6.006
12039TIP3    H136074   0.715   7.333   6.088
12039TIP3    H236075   0.709   7.315   5.938
12040TIP3   OH236076   5.541   0.606   6.322
12040TIP3    H136077   5.626   0.603   6.278
12040TIP3    H236078   5.522   0.514   6.342
12041TIP3   OH236079   7.091   7.172   0.116
12041TIP3    H136080   7.051   7.192   0.200
12041TIP3    H236081   7.020   7.132   0.065
12042TIP3   OH236082   4.048   6.570   5.689
12042TIP3    H136083   4.080   6.488   5.726
12042TIP3    H236084   4.032   6.627   5.765
12043TIP3   OH236085   5.764   1.764   0.146
12043TIP3    H136086   5.809   1.831   0.196
12043TIP3    H236087   5.748   1.804   0.060
12044TIP3   OH236088   6.771   3.833   3.416
12044TIP3    H136089   6.739   3.773   3.348
12044TIP3    H236090   6.695   3.887   3.438
12045TIP3   OH236091   3.096   5.843   2.164
12045TIP3    H136092   3.137   5.786   2.229
12045TIP3    H236093   3.167   5.868   2.105
12046TIP3   OH236094   5.702   3.095   5.540
12046TIP3    H136095   5.791   3.103   5.573
12046TIP3    H236096   5.663   3.024   5.592
12047TIP3   OH236097   2.602   5.142   6.739
12047TIP3    H136098   2.627   5.166   6.828
12047TIP3    H236099   2.635   5.052   6.729
12048TIP3   OH236100   2.623   3.331   5.127
12048TIP3    H136101   2.556   3.335   5.196
12048TIP3    H236102   2.697   3.378   5.163
12049TIP3   OH236103   8.227   3.186   6.493
12049TIP3    H136104   8.260   3.097   6.493
12049TIP3    H236105   8.135   3.178   6.520
12050TIP3   OH236106   1.374   5.241   3.421
12050TIP3    H136107   1.451   5.204   3.463
12050TIP3    H236108   1.301   5.213   3.477
12051TIP3   OH236109   6.396   2.952   5.837
12051TIP3    H136110   6.305   2.934   5.859
12051TIP3    H236111   6.445   2.930   5.917
12052TIP3   OH236112   1.485   6.643   5.134
12052TIP3    H136113   1.562   6.587   5.144
12052TIP3    H236114   1.411   6.582   5.131
12053TIP3   OH236115   7.973   4.423   4.235
12053TIP3    H136116   7.923   4.461   4.162
12053TIP3    H236117   7.976   4.493   4.301
12054TIP3   OH236118   0.385   6.245   2.747
12054TIP3    H136119   0.403   6.152   2.741
12054TIP3    H236120   0.325   6.253   2.822
12055TIP3   OH236121   2.885   3.238   0.572
12055TIP3    H136122   2.876   3.222   0.666
12055TIP3    H236123   2.925   3.324   0.566
12056TIP3   OH236124   7.965   2.754   4.075
12056TIP3    H136125   7.891   2.776   4.018
12056TIP3    H236126   7.996   2.670   4.041
12057TIP3   OH236127   2.853   0.332   0.645
12057TIP3    H136128   2.948   0.322   0.634
12057TIP3    H236129   2.838   0.426   0.633
12058TIP3   OH236130   7.532   3.795   2.611
12058TIP3    H136131   7.609   3.840   2.577
12058TIP3    H236132   7.548   3.702   2.590
12059TIP3   OH236133   6.573   1.314   0.014
12059TIP3    H136134   6.654   1.354  -0.019
12059TIP3    H236135   6.594   1.221   0.022
12060TIP3   OH236136   1.272   2.243   2.967
12060TIP3    H136137   1.214   2.180   3.010
12060TIP3    H236138   1.290   2.204   2.881
12061TIP3   OH236139   7.948   2.021   6.372
12061TIP3    H136140   7.945   1.937   6.419
12061TIP3    H236141   8.035   2.022   6.332
12062TIP3   OH236142   4.681   2.099   2.238
12062TIP3    H136143   4.637   2.171   2.284
12062TIP3    H236144   4.687   2.128   2.147
12063TIP3   OH236145   3.444   6.962   3.022
12063TIP3    H136146   3.463   6.902   3.095
12063TIP3    H236147   3.528   7.003   3.002
12064TIP3   OH236148   6.710   2.472   4.782
12064TIP3    H136149   6.747   2.456   4.695
12064TIP3    H236150   6.644   2.540   4.768
12065TIP3   OH236151   4.807   6.145   4.427
12065TIP3    H136152   4.854   6.104   4.499
12065TIP3    H236153   4.800   6.238   4.452
12066TIP3   OH236154   0.613   1.420   2.775
12066TIP3    H136155   0.568   1.359   2.716
12066TIP3    H236156   0.631   1.497   2.721
12067TIP3   OH236157   6.988   4.442   5.207
12067TIP3    H136158   6.918   4.476   5.151
12067TIP3    H236159   7.028   4.519   5.246
12068TIP3   OH236160   7.339   6.423   6.090
12068TIP3    H136161   7.368   6.513   6.077
12068TIP3    H236162   7.404   6.384   6.148
12069TIP3   OH236163   7.510   4.021   5.261
12069TIP3    H136164   7.488   3.929   5.250
12069TIP3    H236165   7.528   4.052   5.173
12070TIP3   OH236166   4.839   3.843   1.807
12070TIP3    H136167   4.859   3.796   1.727
12070TIP3    H236168   4.744   3.838   1.815
12071TIP3   OH236169   7.183   3.095   6.401
12071TIP3    H136170   7.090   3.112   6.388
12071TIP3    H236171   7.227   3.172   6.365
12072TIP3   OH236172   3.086   6.886   1.717
12072TIP3    H136173   3.069   6.980   1.707
12072TIP3    H236174   3.005   6.843   1.688
12073TIP3   OH236175   4.210   5.841   6.215
12073TIP3    H136176   4.286   5.899   6.215
12073TIP3    H236177   4.135   5.899   6.199
12074TIP3   OH236178   0.338   7.045   4.262
12074TIP3    H136179   0.417   7.021   4.212
12074TIP3    H236180   0.284   6.966   4.259
12075TIP3   OH236181   3.517   7.115   4.944
12075TIP3    H136182   3.535   7.106   4.851
12075TIP3    H236183   3.435   7.165   4.948
12076TIP3   OH236184   0.662   4.619   0.805
12076TIP3    H136185   0.723   4.563   0.853
12076TIP3    H236186   0.583   4.565   0.794
12077TIP3   OH236187   7.300   4.887   2.243
12077TIP3    H136188   7.311   4.956   2.177
12077TIP3    H236189   7.215   4.847   2.221
12078TIP3   OH236190   5.595   0.299   6.592
12078TIP3    H136191   5.546   0.312   6.511
12078TIP3    H236192   5.660   0.370   6.593
12079TIP3   OH236193   2.459   5.458   1.253
12079TIP3    H136194   2.483   5.408   1.175
12079TIP3    H236195   2.433   5.543   1.219
12080TIP3   OH236196   1.366   4.693   3.413
12080TIP3    H136197   1.344   4.654   3.498
12080TIP3    H236198   1.281   4.715   3.375
12081TIP3   OH236199   2.488   4.799   2.050
12081TIP3    H136200   2.515   4.822   1.962
12081TIP3    H236201   2.426   4.726   2.038
12082TIP3   OH236202   4.484   3.359   3.890
12082TIP3    H136203   4.529   3.322   3.814
12082TIP3    H236204   4.432   3.431   3.854
12083TIP3   OH236205   3.740   0.564   3.512
12083TIP3    H136206   3.700   0.560   3.425
12083TIP3    H236207   3.667   0.573   3.572
12084TIP3   OH236208   2.958   2.814   3.389
12084TIP3    H136209   3.017   2.739   3.395
12084TIP3    H236210   2.880   2.779   3.344
12085TIP3   OH236211   7.467   1.072   5.992
12085TIP3    H136212   7.529   1.105   5.927
12085TIP3    H236213   7.404   1.143   6.003
12086TIP3   OH236214   6.848   7.060   0.970
12086TIP3    H136215   6.796   6.997   1.019
12086TIP3    H236216   6.786   7.130   0.949
12087TIP3   OH236217   7.030   0.917   5.654
12087TIP3    H136218   7.013   0.871   5.736
12087TIP3    H236219   6.950   0.903   5.602
12088TIP3   OH236220   5.022   2.264   2.584
12088TIP3    H136221   5.026   2.191   2.522
12088TIP3    H236222   5.058   2.228   2.665
12089TIP3   OH236223   1.290   3.196   1.874
12089TIP3    H136224   1.208   3.244   1.883
12089TIP3    H236225   1.357   3.257   1.905
12090TIP3   OH236226   2.230   4.328   2.924
12090TIP3    H136227   2.204   4.265   2.857
12090TIP3    H236228   2.148   4.354   2.966
12091TIP3   OH236229   1.682   5.110   3.116
12091TIP3    H136230   1.680   5.197   3.076
12091TIP3    H236231   1.590   5.090   3.135
12092TIP3   OH236232   3.322   5.879   5.493
12092TIP3    H136233   3.312   5.806   5.432
12092TIP3    H236234   3.256   5.863   5.560
12093TIP3   OH236235   3.789   1.664   6.151
12093TIP3    H136236   3.783   1.572   6.128
12093TIP3    H236237   3.880   1.688   6.131
12094TIP3   OH236238   7.267   1.236   1.891
12094TIP3    H136239   7.261   1.174   1.964
12094TIP3    H236240   7.313   1.311   1.928
12095TIP3   OH236241   2.363   6.793   2.185
12095TIP3    H136242   2.421   6.718   2.174
12095TIP3    H236243   2.415   6.856   2.235
12096TIP3   OH236244   0.674   5.813   4.991
12096TIP3    H136245   0.709   5.884   5.046
12096TIP3    H236246   0.696   5.839   4.902
12097TIP3   OH236247   4.412   4.068   1.675
12097TIP3    H136248   4.393   4.159   1.695
12097TIP3    H236249   4.441   4.069   1.583
12098TIP3   OH236250   8.175   2.601   1.911
12098TIP3    H136251   8.189   2.666   1.980
12098TIP3    H236252   8.228   2.632   1.838
12099TIP3   OH236253   7.057   0.001   4.681
12099TIP3    H136254   6.985   0.051   4.643
12099TIP3    H236255   7.039  -0.001   4.775
12100TIP3   OH236256   1.707   2.459   6.565
12100TIP3    H136257   1.799   2.477   6.585
12100TIP3    H236258   1.664   2.458   6.651
12101TIP3   OH236259   6.190   0.352   3.686
12101TIP3    H136260   6.175   0.284   3.619
12101TIP3    H236261   6.115   0.345   3.745
12102TIP3   OH236262   6.965   1.638   3.325
12102TIP3    H136263   6.912   1.567   3.361
12102TIP3    H236264   6.905   1.712   3.321
12103TIP3   OH236265   2.405   2.204   6.333
12103TIP3    H136266   2.344   2.222   6.261
12103TIP3    H236267   2.491   2.224   6.297
12104TIP3   OH236268   4.518   4.561   6.323
12104TIP3    H136269   4.608   4.575   6.353
12104TIP3    H236270   4.517   4.471   6.291
12105TIP3   OH236271   6.561   6.649   1.180
12105TIP3    H136272   6.516   6.600   1.112
12105TIP3    H236273   6.495   6.708   1.215
12106TIP3   OH236274   3.368   5.451   6.119
12106TIP3    H136275   3.326   5.407   6.193
12106TIP3    H236276   3.375   5.383   6.052
12107TIP3   OH236277   1.115   6.807   3.677
12107TIP3    H136278   1.119   6.868   3.603
12107TIP3    H236279   1.186   6.745   3.660
12108TIP3   OH236280   4.177   3.949   6.449
12108TIP3    H136281   4.221   3.957   6.534
12108TIP3    H236282   4.088   3.921   6.471
12109TIP3   OH236283   3.944   6.924   1.681
12109TIP3    H136284   3.996   7.000   1.704
12109TIP3    H236285   3.948   6.919   1.585
12110TIP3   OH236286   5.953   4.703   5.794
12110TIP3    H136287   6.012   4.744   5.857
12110TIP3    H236288   5.988   4.729   5.708
12111TIP3   OH236289   7.772   7.239   2.231
12111TIP3    H136290   7.762   7.149   2.261
12111TIP3    H236291   7.837   7.234   2.160
12112TIP3   OH236292   8.012   3.359   5.015
12112TIP3    H136293   8.098   3.384   4.980
12112TIP3    H236294   8.031   3.329   5.104
12113TIP3   OH236295   6.352   6.032   4.441
12113TIP3    H136296   6.396   6.018   4.525
12113TIP3    H236297   6.259   6.021   4.461
12114TIP3   OH236298   4.220   5.694   4.103
12114TIP3    H136299   4.142   5.750   4.098
12114TIP3    H236300   4.240   5.673   4.012
12115TIP3   OH236301   8.242   7.117   1.090
12115TIP3    H136302   8.271   7.158   1.009
12115TIP3    H236303   8.317   7.122   1.148
12116TIP3   OH236304   5.803   5.320   1.207
12116TIP3    H136305   5.878   5.367   1.171
12116TIP3    H236306   5.734   5.329   1.141
12117TIP3   OH236307   1.866   0.516   1.880
12117TIP3    H136308   1.800   0.454   1.849
12117TIP3    H236309   1.919   0.535   1.802
12118TIP3   OH236310   3.315   1.400   5.254
12118TIP3    H136311   3.266   1.445   5.322
12118TIP3    H236312   3.384   1.353   5.302
12119TIP3   OH236313   7.471   5.301   1.539
12119TIP3    H136314   7.550   5.338   1.579
12119TIP3    H236315   7.498   5.277   1.450
12120TIP3   OH236316   5.815   5.518   5.632
12120TIP3    H136317   5.781   5.465   5.704
12120TIP3    H236318   5.772   5.602   5.642
12121TIP3   OH236319   0.796   1.307   1.985
12121TIP3    H136320   0.752   1.315   2.069
12121TIP3    H236321   0.773   1.387   1.938
12122TIP3   OH236322   7.394   7.453   5.316
12122TIP3    H136323   7.355   7.540   5.323
12122TIP3    H236324   7.401   7.423   5.406
12123TIP3   OH236325   3.362   0.533   2.040
12123TIP3    H136326   3.308   0.454   2.036
12123TIP3    H236327   3.448   0.506   2.009
12124TIP3   OH236328   2.958   2.454   3.513
12124TIP3    H136329   2.912   2.408   3.442
12124TIP3    H236330   3.028   2.502   3.469
12125TIP3   OH236331   0.535   3.632   6.759
12125TIP3    H136332   0.595   3.706   6.759
12125TIP3    H236333   0.448   3.672   6.760
12126TIP3   OH236334   5.034   2.062   2.152
12126TIP3    H136335   4.947   2.065   2.112
12126TIP3    H236336   5.054   2.153   2.175
12127TIP3   OH236337   8.001   5.229   1.133
12127TIP3    H136338   8.001   5.183   1.217
12127TIP3    H236339   7.916   5.273   1.130
12128TIP3   OH236340   2.628   5.376   6.177
12128TIP3    H136341   2.579   5.441   6.228
12128TIP3    H236342   2.570   5.354   6.104
12129TIP3   OH236343   4.970   6.121   3.569
12129TIP3    H136344   4.950   6.146   3.659
12129TIP3    H236345   4.931   6.034   3.559
12130TIP3   OH236346   7.258   6.535   3.999
12130TIP3    H136347   7.174   6.548   4.043
12130TIP3    H236348   7.299   6.462   4.045
12131TIP3   OH236349   4.784   3.749   6.154
12131TIP3    H136350   4.845   3.725   6.224
12131TIP3    H236351   4.706   3.778   6.199
12132TIP3   OH236352   1.785   7.426   4.689
12132TIP3    H136353   1.802   7.520   4.698
12132TIP3    H236354   1.713   7.409   4.750
12133TIP3   OH236355   3.764   0.472   3.820
12133TIP3    H136356   3.757   0.491   3.914
12133TIP3    H236357   3.691   0.518   3.781
12134TIP3   OH236358   2.418   5.663   5.567
12134TIP3    H136359   2.507   5.658   5.602
12134TIP3    H236360   2.426   5.629   5.477
12135TIP3   OH236361   2.237   2.788   0.491
12135TIP3    H136362   2.215   2.728   0.419
12135TIP3    H236363   2.300   2.849   0.452
12136TIP3   OH236364   7.179   6.312   6.364
12136TIP3    H136365   7.131   6.387   6.398
12136TIP3    H236366   7.269   6.326   6.394
12137TIP3   OH236367   7.259   7.386   2.201
12137TIP3    H136368   7.245   7.459   2.141
12137TIP3    H236369   7.240   7.422   2.288
12138TIP3   OH236370   0.856   0.482   6.018
12138TIP3    H136371   0.800   0.512   5.947
12138TIP3    H236372   0.902   0.406   5.982
12139TIP3   OH236373   6.676   7.563   6.668
12139TIP3    H136374   6.617   7.505   6.717
12139TIP3    H236375   6.629   7.647   6.666
12140TIP3   OH236376   6.370   2.071   6.471
12140TIP3    H136377   6.415   1.995   6.433
12140TIP3    H236378   6.410   2.082   6.557
12141TIP3   OH236379   0.801   2.790   0.775
12141TIP3    H136380   0.856   2.725   0.819
12141TIP3    H236381   0.723   2.741   0.749
12142TIP3   OH236382   6.516   3.916   1.679
12142TIP3    H136383   6.605   3.940   1.704
12142TIP3    H236384   6.491   3.982   1.614
12143TIP3   OH236385   6.214   2.592   1.400
12143TIP3    H136386   6.205   2.501   1.369
12143TIP3    H236387   6.259   2.637   1.329
12144TIP3   OH236388   5.877   0.647   1.252
12144TIP3    H136389   5.797   0.650   1.199
12144TIP3    H236390   5.853   0.691   1.333
12145TIP3   OH236391   4.318   5.319   2.413
12145TIP3    H136392   4.371   5.366   2.477
12145TIP3    H236393   4.228   5.345   2.432
12146TIP3   OH236394   2.231   1.850   3.252
12146TIP3    H136395   2.199   1.812   3.170
12146TIP3    H236396   2.296   1.787   3.284
12147TIP3   OH236397   3.662   7.050   3.194
12147TIP3    H136398   3.598   7.015   3.255
12147TIP3    H236399   3.746   7.042   3.240
12148TIP3   OH236400   5.175   4.886   3.903
12148TIP3    H136401   5.268   4.871   3.922
12148TIP3    H236402   5.128   4.829   3.963
12149TIP3   OH236403   4.171   0.092   3.824
12149TIP3    H136404   4.260   0.103   3.858
12149TIP3    H236405   4.118   0.155   3.873
12150TIP3   OH236406   4.926   6.682   3.116
12150TIP3    H136407   5.013   6.647   3.135
12150TIP3    H236408   4.940   6.747   3.047
12151TIP3   OH236409   1.686   2.058   3.029
12151TIP3    H136410   1.724   1.995   3.090
12151TIP3    H236411   1.600   2.022   3.008
12152TIP3   OH236412   0.058   7.505   3.492
12152TIP3    H136413   0.061   7.482   3.399
12152TIP3    H236414   0.147   7.535   3.512
12153TIP3   OH236415   3.560   0.584   0.182
12153TIP3    H136416   3.480   0.635   0.168
12153TIP3    H236417   3.630   0.649   0.181
12154TIP3   OH236418   4.691   1.381   0.194
12154TIP3    H136419   4.625   1.440   0.229
12154TIP3    H236420   4.766   1.437   0.174
12155TIP3   OH236421   4.557   0.527   4.958
12155TIP3    H136422   4.635   0.474   4.940
12155TIP3    H236423   4.544   0.578   4.878
12156TIP3   OH236424   5.458   3.546   6.252
12156TIP3    H136425   5.548   3.566   6.227
12156TIP3    H236426   5.441   3.603   6.327
12157TIP3   OH236427   0.856   2.913   4.253
12157TIP3    H136428   0.834   2.938   4.163
12157TIP3    H236429   0.948   2.937   4.262
12158TIP3   OH236430   3.484   0.060   0.258
12158TIP3    H136431   3.563   0.110   0.236
12158TIP3    H236432   3.490   0.048   0.353
12159TIP3   OH236433   6.718   6.385   2.865
12159TIP3    H136434   6.811   6.401   2.877
12159TIP3    H236435   6.679   6.472   2.858
12160TIP3   OH236436   6.913   4.660   1.325
12160TIP3    H136437   6.883   4.571   1.306
12160TIP3    H236438   7.002   4.648   1.358
12161TIP3   OH236439   7.514   2.958   5.442
12161TIP3    H136440   7.562   2.978   5.362
12161TIP3    H236441   7.449   2.893   5.416
12162TIP3   OH236442   6.970   3.659   5.419
12162TIP3    H136443   7.063   3.675   5.434
12162TIP3    H236444   6.935   3.639   5.506
12163TIP3   OH236445   4.243   5.180   5.843
12163TIP3    H136446   4.259   5.179   5.749
12163TIP3    H236447   4.216   5.271   5.861
12164TIP3   OH236448   6.495   1.589   6.104
12164TIP3    H136449   6.482   1.494   6.099
12164TIP3    H236450   6.440   1.617   6.177
12165TIP3   OH236451   6.571   2.185   1.458
12165TIP3    H136452   6.551   2.101   1.500
12165TIP3    H236453   6.549   2.171   1.366
12166TIP3   OH236454   7.724   3.193   3.309
12166TIP3    H136455   7.680   3.263   3.356
12166TIP3    H236456   7.683   3.191   3.223
12167TIP3   OH236457   6.456   1.027   2.781
12167TIP3    H136458   6.490   0.941   2.757
12167TIP3    H236459   6.397   1.010   2.854
12168TIP3   OH236460   1.645   4.372   0.839
12168TIP3    H136461   1.598   4.346   0.919
12168TIP3    H236462   1.623   4.464   0.828
12169TIP3   OH236463   1.911   2.038   4.964
12169TIP3    H136464   1.822   2.057   4.995
12169TIP3    H236465   1.908   1.948   4.932
12170TIP3   OH236466   2.919   1.201   4.068
12170TIP3    H136467   2.921   1.194   3.973
12170TIP3    H236468   2.826   1.209   4.090
12171TIP3   OH236469   3.874   4.521   4.019
12171TIP3    H136470   3.891   4.433   3.987
12171TIP3    H236471   3.887   4.578   3.943
12172TIP3   OH236472   1.381   5.554   2.717
12172TIP3    H136473   1.388   5.509   2.633
12172TIP3    H236474   1.469   5.586   2.736
12173TIP3   OH236475   1.140   7.437   0.914
12173TIP3    H136476   1.075   7.380   0.874
12173TIP3    H236477   1.221   7.386   0.911
12174TIP3   OH236478   1.366   0.570   4.236
12174TIP3    H136479   1.441   0.524   4.197
12174TIP3    H236480   1.388   0.576   4.329
12175TIP3   OH236481   6.494   5.387   1.200
12175TIP3    H136482   6.507   5.364   1.108
12175TIP3    H236483   6.552   5.328   1.248
12176TIP3   OH236484   1.891   3.819   1.277
12176TIP3    H136485   1.919   3.794   1.365
12176TIP3    H236486   1.817   3.762   1.258
12177TIP3   OH236487   6.768   2.978   2.195
12177TIP3    H136488   6.852   3.024   2.203
12177TIP3    H236489   6.778   2.924   2.116
12178TIP3   OH236490   7.135   0.867   0.450
12178TIP3    H136491   7.143   0.963   0.445
12178TIP3    H236492   7.162   0.836   0.364
12179TIP3   OH236493   4.497   0.394   2.987
12179TIP3    H136494   4.464   0.426   3.071
12179TIP3    H236495   4.418   0.377   2.935
12180TIP3   OH236496   6.595   2.467   1.960
12180TIP3    H136497   6.570   2.557   1.980
12180TIP3    H236498   6.587   2.460   1.865
12181TIP3   OH236499   7.840   6.157   5.528
12181TIP3    H136500   7.809   6.184   5.614
12181TIP3    H236501   7.913   6.098   5.546
12182TIP3   OH236502   7.956   6.587   0.683
12182TIP3    H136503   7.910   6.648   0.626
12182TIP3    H236504   8.006   6.531   0.623
12183TIP3   OH236505   1.419   0.235   4.142
12183TIP3    H136506   1.415   0.297   4.070
12183TIP3    H236507   1.464   0.159   4.107
12184TIP3   OH236508   2.030   2.502   5.545
12184TIP3    H136509   2.062   2.412   5.536
12184TIP3    H236510   2.108   2.553   5.567
12185TIP3   OH236511   5.352   0.178   5.119
12185TIP3    H136512   5.277   0.157   5.062
12185TIP3    H236513   5.312   0.196   5.204
12186TIP3   OH236514   1.969   5.323   3.802
12186TIP3    H136515   2.045   5.352   3.752
12186TIP3    H236516   2.002   5.315   3.892
12187TIP3   OH236517   1.188   5.511   4.036
12187TIP3    H136518   1.240   5.588   4.058
12187TIP3    H236519   1.252   5.443   4.018
12188TIP3   OH236520   3.138   2.028   4.777
12188TIP3    H136521   3.130   2.059   4.867
12188TIP3    H236522   3.111   2.103   4.724
12189TIP3   OH236523   3.017   2.848   0.710
12189TIP3    H136524   3.007   2.910   0.638
12189TIP3    H236525   2.987   2.764   0.674
12190TIP3   OH236526   3.051   7.455   1.109
12190TIP3    H136527   3.105   7.396   1.057
12190TIP3    H236528   2.994   7.497   1.045
12191TIP3   OH236529   7.409   6.906   0.238
12191TIP3    H136530   7.436   6.900   0.146
12191TIP3    H236531   7.314   6.900   0.235
12192TIP3   OH236532   4.244   4.817   4.233
12192TIP3    H136533   4.272   4.907   4.246
12192TIP3    H236534   4.199   4.793   4.313
12193TIP3   OH236535   4.173   3.902   1.347
12193TIP3    H136536   4.261   3.866   1.340
12193TIP3    H236537   4.156   3.943   1.263
12194TIP3   OH236538   3.293   1.450   5.846
12194TIP3    H136539   3.341   1.441   5.763
12194TIP3    H236540   3.358   1.487   5.906
12195TIP3   OH236541   5.660   1.580   5.419
12195TIP3    H136542   5.691   1.622   5.339
12195TIP3    H236543   5.724   1.605   5.485
12196TIP3   OH236544   4.697   7.803   4.890
12196TIP3    H136545   4.640   7.748   4.837
12196TIP3    H236546   4.719   7.749   4.966
12197TIP3   OH236547   8.048   2.144   0.709
12197TIP3    H136548   7.963   2.101   0.701
12197TIP3    H236549   8.049   2.208   0.638
12198TIP3   OH236550   6.822   6.051   1.314
12198TIP3    H136551   6.883   6.006   1.256
12198TIP3    H236552   6.753   6.083   1.256
12199TIP3   OH236553   7.702   6.598   5.870
12199TIP3    H136554   7.708   6.525   5.808
12199TIP3    H236555   7.666   6.670   5.818
12200TIP3   OH236556   0.360   1.001   6.726
12200TIP3    H136557   0.453   1.024   6.731
12200TIP3    H236558   0.356   0.928   6.664
12201TIP3   OH236559   1.248   5.672   6.064
12201TIP3    H136560   1.259   5.748   6.007
12201TIP3    H236561   1.154   5.673   6.086
12202TIP3   OH236562   1.799   1.566   1.438
12202TIP3    H136563   1.856   1.563   1.360
12202TIP3    H236564   1.801   1.658   1.465
12203TIP3   OH236565   5.416   0.281   6.394
12203TIP3    H136566   5.377   0.245   6.314
12203TIP3    H236567   5.341   0.310   6.446
12204TIP3   OH236568   4.641   2.784   0.690
12204TIP3    H136569   4.698   2.711   0.665
12204TIP3    H236570   4.671   2.807   0.778
12205TIP3   OH236571   2.885   3.151   0.820
12205TIP3    H136572   2.802   3.103   0.815
12205TIP3    H236573   2.940   3.096   0.875
12206TIP3   OH236574   6.914   2.194   3.809
12206TIP3    H136575   6.918   2.284   3.778
12206TIP3    H236576   6.821   2.177   3.823
12207TIP3   OH236577   6.995   1.629   2.347
12207TIP3    H136578   6.925   1.567   2.367
12207TIP3    H236579   6.949   1.703   2.307
12208TIP3   OH236580   4.162   3.580   3.420
12208TIP3    H136581   4.116   3.562   3.503
12208TIP3    H236582   4.095   3.619   3.364
12209TIP3   OH236583   4.038   0.382   2.377
12209TIP3    H136584   4.113   0.345   2.423
12209TIP3    H236585   4.063   0.473   2.360
12210TIP3   OH236586   7.877   6.515   1.695
12210TIP3    H136587   7.844   6.458   1.626
12210TIP3    H236588   7.804   6.522   1.757
12211TIP3   OH236589   3.676   3.944   3.527
12211TIP3    H136590   3.685   3.887   3.451
12211TIP3    H236591   3.663   3.884   3.601
12212TIP3   OH236592   3.702   7.725   0.475
12212TIP3    H136593   3.788   7.761   0.454
12212TIP3    H236594   3.645   7.802   0.481
12213TIP3   OH236595   4.268   1.270   1.084
12213TIP3    H136596   4.187   1.234   1.119
12213TIP3    H236597   4.252   1.364   1.077
12214TIP3   OH236598   7.367   0.781   2.218
12214TIP3    H136599   7.272   0.777   2.226
12214TIP3    H236600   7.400   0.761   2.305
12215TIP3   OH236601   4.396   3.303   3.393
12215TIP3    H136602   4.327   3.348   3.344
12215TIP3    H236603   4.386   3.211   3.369
12216TIP3   OH236604   0.666   2.797   5.974
12216TIP3    H136605   0.732   2.751   5.922
12216TIP3    H236606   0.697   2.791   6.064
12217TIP3   OH236607   8.232   0.182   5.600
12217TIP3    H136608   8.274   0.120   5.661
12217TIP3    H236609   8.201   0.253   5.655
12218TIP3   OH236610   1.018   1.384   2.546
12218TIP3    H136611   1.003   1.290   2.539
12218TIP3    H236612   1.085   1.393   2.613
12219TIP3   OH236613   3.151   0.185   0.397
12219TIP3    H136614   3.092   0.251   0.361
12219TIP3    H236615   3.148   0.200   0.492
12220TIP3   OH236616   2.558   3.832   3.401
12220TIP3    H136617   2.532   3.749   3.442
12220TIP3    H236618   2.518   3.900   3.455
12221TIP3   OH236619   3.993   4.221   0.682
12221TIP3    H136620   4.036   4.218   0.597
12221TIP3    H236621   3.925   4.288   0.673
12222TIP3   OH236622   8.083   7.142   5.824
12222TIP3    H136623   8.055   7.169   5.912
12222TIP3    H236624   8.128   7.058   5.838
12223TIP3   OH236625   4.472   7.458   1.518
12223TIP3    H136626   4.382   7.485   1.535
12223TIP3    H236627   4.463   7.369   1.484
12224TIP3   OH236628   1.336   1.536   4.152
12224TIP3    H136629   1.278   1.464   4.179
12224TIP3    H236630   1.390   1.553   4.229
12225TIP3   OH236631   4.499   0.660   2.895
12225TIP3    H136632   4.546   0.581   2.867
12225TIP3    H236633   4.447   0.630   2.970
12226TIP3   OH236634   8.201   0.751   5.551
12226TIP3    H136635   8.220   0.837   5.588
12226TIP3    H236636   8.119   0.724   5.592
12227TIP3   OH236637   4.090   4.616   6.065
12227TIP3    H136638   4.028   4.661   6.008
12227TIP3    H236639   4.174   4.660   6.050
12228TIP3   OH236640   1.948   4.017   0.547
12228TIP3    H136641   1.915   3.928   0.533
12228TIP3    H236642   1.997   4.012   0.629
12229TIP3   OH236643   3.082   2.158   3.744
12229TIP3    H136644   3.151   2.191   3.801
12229TIP3    H236645   3.087   2.062   3.753
12230TIP3   OH236646   4.034   1.575   2.097
12230TIP3    H136647   3.943   1.554   2.120
12230TIP3    H236648   4.038   1.561   2.002
12231TIP3   OH236649   7.492   4.229   3.798
12231TIP3    H136650   7.434   4.228   3.721
12231TIP3    H236651   7.579   4.213   3.762
12232TIP3   OH236652   1.790   7.120   0.143
12232TIP3    H136653   1.770   7.211   0.123
12232TIP3    H236654   1.818   7.122   0.234
12233TIP3   OH236655   0.679   5.735   1.920
12233TIP3    H136656   0.775   5.746   1.921
12233TIP3    H236657   0.665   5.645   1.891
12234TIP3   OH236658   1.425   4.064   3.828
12234TIP3    H136659   1.516   4.044   3.846
12234TIP3    H236660   1.381   3.979   3.828
12235TIP3   OH236661   5.102   5.945   2.731
12235TIP3    H136662   5.030   5.884   2.717
12235TIP3    H236663   5.061   6.027   2.755
12236TIP3   OH236664   6.632   1.412   0.626
12236TIP3    H136665   6.675   1.326   0.628
12236TIP3    H236666   6.641   1.446   0.715
12237TIP3   OH236667   7.813   7.531   1.574
12237TIP3    H136668   7.778   7.599   1.632
12237TIP3    H236669   7.904   7.556   1.560
12238TIP3   OH236670   8.150   0.904   2.400
12238TIP3    H136671   8.068   0.908   2.351
12238TIP3    H236672   8.125   0.868   2.485
12239TIP3   OH236673   5.291   2.237   0.658
12239TIP3    H136674   5.369   2.220   0.711
12239TIP3    H236675   5.289   2.331   0.646
12240TIP3   OH236676   7.079   2.604   4.242
12240TIP3    H136677   7.006   2.548   4.266
12240TIP3    H236678   7.155   2.546   4.239
12241TIP3   OH236679   8.125   4.621   3.237
12241TIP3    H136680   8.066   4.683   3.280
12241TIP3    H236681   8.134   4.550   3.301
12242TIP3   OH236682   1.060   2.838   6.201
12242TIP3    H136683   1.039   2.770   6.265
12242TIP3    H236684   1.006   2.913   6.226
12243TIP3   OH236685   2.950   1.980   5.484
12243TIP3    H136686   3.029   1.930   5.505
12243TIP3    H236687   2.879   1.931   5.526
12244TIP3   OH236688   2.698   2.041   5.355
12244TIP3    H136689   2.642   2.106   5.398
12244TIP3    H236690   2.783   2.052   5.397
12245TIP3   OH236691   1.571   7.243   4.525
12245TIP3    H136692   1.560   7.168   4.466
12245TIP3    H236693   1.484   7.280   4.535
12246TIP3   OH236694   1.333   4.184   2.371
12246TIP3    H136695   1.384   4.166   2.291
12246TIP3    H236696   1.243   4.193   2.340
12247TIP3   OH236697   4.389   7.388   5.423
12247TIP3    H136698   4.345   7.334   5.489
12247TIP3    H236699   4.318   7.425   5.371
12248TIP3   OH236700   0.979   7.177   3.907
12248TIP3    H136701   1.054   7.210   3.956
12248TIP3    H236702   0.940   7.256   3.867
12249TIP3   OH236703   2.113   4.247   3.252
12249TIP3    H136704   2.092   4.153   3.255
12249TIP3    H236705   2.204   4.252   3.280
12250TIP3   OH236706   5.421   2.831   5.863
12250TIP3    H136707   5.350   2.893   5.876
12250TIP3    H236708   5.378   2.745   5.862
12251TIP3   OH236709   1.217   6.404   5.349
12251TIP3    H136710   1.218   6.463   5.424
12251TIP3    H236711   1.153   6.336   5.372
12252TIP3   OH236712   3.108   2.366   0.290
12252TIP3    H136713   3.014   2.372   0.272
12252TIP3    H236714   3.148   2.428   0.229
12253TIP3   OH236715   6.543   1.649   3.863
12253TIP3    H136716   6.558   1.561   3.827
12253TIP3    H236717   6.473   1.637   3.928
12254TIP3   OH236718   2.087   1.096   5.013
12254TIP3    H136719   2.157   1.055   4.963
12254TIP3    H236720   2.017   1.111   4.949
12255TIP3   OH236721   2.895   6.197   6.419
12255TIP3    H136722   2.978   6.192   6.467
12255TIP3    H236723   2.890   6.288   6.389
12256TIP3   OH236724   4.499   5.830   1.503
12256TIP3    H136725   4.423   5.788   1.462
12256TIP3    H236726   4.485   5.923   1.488
12257TIP3   OH236727   3.669   6.922   4.419
12257TIP3    H136728   3.623   6.877   4.489
12257TIP3    H236729   3.740   6.863   4.394
12258TIP3   OH236730   1.374   3.605   1.196
12258TIP3    H136731   1.391   3.549   1.120
12258TIP3    H236732   1.418   3.561   1.269
12259TIP3   OH236733   7.373   7.607   2.621
12259TIP3    H136734   7.344   7.667   2.690
12259TIP3    H236735   7.468   7.615   2.620
12260TIP3   OH236736   0.326   0.775   5.553
12260TIP3    H136737   0.416   0.795   5.524
12260TIP3    H236738   0.334   0.693   5.601
12261TIP3   OH236739   4.445   1.826   3.189
12261TIP3    H136740   4.377   1.886   3.156
12261TIP3    H236741   4.522   1.847   3.137
12262TIP3   OH236742   7.471   1.702   4.944
12262TIP3    H136743   7.457   1.644   5.019
12262TIP3    H236744   7.413   1.667   4.876
12263TIP3   OH236745   5.252   6.179   2.586
12263TIP3    H136746   5.179   6.228   2.624
12263TIP3    H236747   5.330   6.221   2.623
12264TIP3   OH236748   0.307   1.487   4.121
12264TIP3    H136749   0.212   1.495   4.120
12264TIP3    H236750   0.324   1.398   4.090
12265TIP3   OH236751   5.126   2.282   1.629
12265TIP3    H136752   5.163   2.299   1.715
12265TIP3    H236753   5.043   2.239   1.646
12266TIP3   OH236754   0.993   4.620   2.836
12266TIP3    H136755   1.038   4.538   2.815
12266TIP3    H236756   1.053   4.667   2.894
12267TIP3   OH236757   8.263   1.933   2.279
12267TIP3    H136758   8.177   1.891   2.282
12267TIP3    H236759   8.267   1.973   2.192
12268TIP3   OH236760   4.284   7.293   3.244
12268TIP3    H136761   4.193   7.286   3.216
12268TIP3    H236762   4.324   7.356   3.184
12269TIP3   OH236763   6.167   4.011   3.673
12269TIP3    H136764   6.128   4.014   3.760
12269TIP3    H236765   6.261   3.996   3.689
12270TIP3   OH236766   6.864   3.332   4.283
12270TIP3    H136767   6.946   3.293   4.314
12270TIP3    H236768   6.810   3.258   4.257
12271TIP3   OH236769   1.454   5.288   5.467
12271TIP3    H136770   1.472   5.375   5.504
12271TIP3    H236771   1.402   5.305   5.389
12272TIP3   OH236772   2.860   4.436   0.565
12272TIP3    H136773   2.895   4.367   0.621
12272TIP3    H236774   2.799   4.390   0.506
12273TIP3   OH236775   7.539   7.267   0.333
12273TIP3    H136776   7.559   7.360   0.339
12273TIP3    H236777   7.474   7.261   0.263
12274TIP3   OH236778   3.123   1.689   6.556
12274TIP3    H136779   3.168   1.709   6.638
12274TIP3    H236780   3.031   1.682   6.581
12275TIP3   OH236781   1.862   7.385   0.592
12275TIP3    H136782   1.924   7.392   0.664
12275TIP3    H236783   1.848   7.476   0.564
12276TIP3   OH236784   5.097   4.601   2.292
12276TIP3    H136785   5.189   4.575   2.291
12276TIP3    H236786   5.053   4.534   2.345
12277TIP3   OH236787   5.399   4.654   4.572
12277TIP3    H136788   5.421   4.742   4.540
12277TIP3    H236789   5.337   4.670   4.643
12278TIP3   OH236790   7.309   7.528   0.728
12278TIP3    H136791   7.301   7.600   0.665
12278TIP3    H236792   7.312   7.449   0.673
12279TIP3   OH236793   0.510   1.178   4.177
12279TIP3    H136794   0.445   1.161   4.245
12279TIP3    H236795   0.576   1.232   4.220
12280TIP3   OH236796   1.170   2.035   4.470
12280TIP3    H136797   1.093   2.059   4.419
12280TIP3    H236798   1.237   2.100   4.446
12281TIP3   OH236799   6.452   7.065   6.464
12281TIP3    H136800   6.383   7.039   6.525
12281TIP3    H236801   6.406   7.112   6.395
12282TIP3   OH236802   2.032   0.918   4.526
12282TIP3    H136803   2.059   0.949   4.613
12282TIP3    H236804   1.937   0.928   4.526
12283TIP3   OH236805   7.267   4.227   6.705
12283TIP3    H136806   7.212   4.262   6.776
12283TIP3    H236807   7.334   4.295   6.692
12284TIP3   OH236808   3.736   2.907   2.650
12284TIP3    H136809   3.653   2.859   2.649
12284TIP3    H236810   3.724   2.975   2.716
12285TIP3   OH236811   3.084   7.044   0.588
12285TIP3    H136812   3.086   6.950   0.575
12285TIP3    H236813   3.025   7.077   0.520
12286TIP3   OH236814   3.471   4.689   1.486
12286TIP3    H136815   3.404   4.639   1.533
12286TIP3    H236816   3.494   4.760   1.545
12287TIP3   OH236817   4.349   3.154   5.547
12287TIP3    H136818   4.279   3.202   5.504
12287TIP3    H236819   4.380   3.213   5.616
12288TIP3   OH236820   2.176   0.820   0.929
12288TIP3    H136821   2.237   0.874   0.979
12288TIP3    H236822   2.090   0.858   0.946
12289TIP3   OH236823   0.621   1.848   1.884
12289TIP3    H136824   0.689   1.781   1.890
12289TIP3    H236825   0.543   1.806   1.921
12290TIP3   OH236826   8.015   7.276   6.068
12290TIP3    H136827   8.069   7.352   6.048
12290TIP3    H236828   8.065   7.227   6.133
12291TIP3   OH236829   7.641   5.759   6.513
12291TIP3    H136830   7.575   5.689   6.513
12291TIP3    H236831   7.634   5.798   6.426
12292TIP3   OH236832   7.646   1.230   5.873
12292TIP3    H136833   7.605   1.317   5.872
12292TIP3    H236834   7.733   1.245   5.910
12293TIP3   OH236835   1.326   6.204   1.748
12293TIP3    H136836   1.290   6.122   1.714
12293TIP3    H236837   1.321   6.264   1.674
12294TIP3   OH236838   7.393   3.298   0.108
12294TIP3    H136839   7.356   3.351   0.038
12294TIP3    H236840   7.350   3.214   0.101
12295TIP3   OH236841   4.074   0.289   1.225
12295TIP3    H136842   4.141   0.230   1.260
12295TIP3    H236843   3.991   0.250   1.253
12296TIP3   OH236844   2.001   3.648   2.128
12296TIP3    H136845   2.057   3.661   2.052
12296TIP3    H236846   1.991   3.735   2.167
12297TIP3   OH236847   1.787   0.709   3.173
12297TIP3    H136848   1.813   0.785   3.121
12297TIP3    H236849   1.869   0.662   3.189
12298TIP3   OH236850   5.902   1.362   2.893
12298TIP3    H136851   5.904   1.449   2.932
12298TIP3    H236852   5.936   1.304   2.962
12299TIP3   OH236853   3.279   0.239   6.754
12299TIP3    H136854   3.204   0.216   6.698
12299TIP3    H236855   3.273   0.178   6.828
12300TIP3   OH236856   5.773   2.263   3.474
12300TIP3    H136857   5.768   2.204   3.549
12300TIP3    H236858   5.842   2.226   3.419
12301TIP3   OH236859   7.304   5.642   0.089
12301TIP3    H136860   7.247   5.614   0.161
12301TIP3    H236861   7.362   5.707   0.128
12302TIP3   OH236862   4.322   6.967   2.729
12302TIP3    H136863   4.297   6.906   2.660
12302TIP3    H236864   4.381   6.916   2.785
12303TIP3   OH236865   6.038   5.549   2.154
12303TIP3    H136866   6.016   5.601   2.232
12303TIP3    H236867   5.959   5.498   2.136
12304TIP3   OH236868   7.905   2.513   0.574
12304TIP3    H136869   7.881   2.601   0.602
12304TIP3    H236870   7.821   2.466   0.569
12305TIP3   OH236871   7.554   7.533   3.530
12305TIP3    H136872   7.572   7.451   3.574
12305TIP3    H236873   7.475   7.566   3.571
12306TIP3   OH236874   2.367   0.111   4.393
12306TIP3    H136875   2.354   0.023   4.358
12306TIP3    H236876   2.433   0.150   4.335
12307TIP3   OH236877   2.054   3.937   0.782
12307TIP3    H136878   2.040   3.842   0.774
12307TIP3    H236879   2.006   3.962   0.861
12308TIP3   OH236880   5.347   0.733   3.880
12308TIP3    H136881   5.396   0.788   3.942
12308TIP3    H236882   5.384   0.755   3.795
12309TIP3   OH236883   2.203   7.137   2.246
12309TIP3    H136884   2.276   7.128   2.308
12309TIP3    H236885   2.239   7.192   2.176
12310TIP3   OH236886   2.370   5.859   3.816
12310TIP3    H136887   2.354   5.770   3.784
12310TIP3    H236888   2.426   5.899   3.749
12311TIP3   OH236889   5.901   0.151   6.575
12311TIP3    H136890   5.850   0.230   6.596
12311TIP3    H236891   5.954   0.177   6.500
12312TIP3   OH236892   7.937   5.265   5.745
12312TIP3    H136893   7.915   5.172   5.747
12312TIP3    H236894   7.875   5.305   5.806
12313TIP3   OH236895   0.910   2.114   5.721
12313TIP3    H136896   0.962   2.180   5.768
12313TIP3    H236897   0.872   2.161   5.647
12314TIP3   OH236898   3.824   3.516   0.217
12314TIP3    H136899   3.910   3.534   0.179
12314TIP3    H236900   3.829   3.425   0.245
12315TIP3   OH236901   0.940   0.045   5.413
12315TIP3    H136902   0.986  -0.026   5.457
12315TIP3    H236903   0.944   0.118   5.475
12316TIP3   OH236904   5.001   2.636   4.250
12316TIP3    H136905   5.072   2.581   4.284
12316TIP3    H236906   4.921   2.588   4.270
12317TIP3   OH236907   1.213   2.307   3.859
12317TIP3    H136908   1.157   2.378   3.828
12317TIP3    H236909   1.297   2.324   3.818
12318TIP3   OH236910   7.253   7.782   4.861
12318TIP3    H136911   7.196   7.770   4.786
12318TIP3    H236912   7.209   7.738   4.933
12319TIP3   OH236913   7.890   4.453   2.144
12319TIP3    H136914   7.955   4.473   2.077
12319TIP3    H236915   7.806   4.478   2.104
12320TIP3   OH236916   6.488   7.218   2.654
12320TIP3    H136917   6.470   7.236   2.562
12320TIP3    H236918   6.524   7.129   2.655
12321TIP3   OH236919   6.737   6.968   3.564
12321TIP3    H136920   6.711   6.886   3.606
12321TIP3    H236921   6.819   6.948   3.520
12322TIP3   OH236922   4.217   5.895   5.843
12322TIP3    H136923   4.208   5.927   5.933
12322TIP3    H236924   4.248   5.805   5.853
12323TIP3   OH236925   5.800   7.385   2.975
12323TIP3    H136926   5.849   7.467   2.979
12323TIP3    H236927   5.763   7.374   3.062
12324TIP3   OH236928   7.150   7.557   3.312
12324TIP3    H136929   7.213   7.484   3.316
12324TIP3    H236930   7.200   7.633   3.340
12325TIP3   OH236931   2.870   5.128   6.556
12325TIP3    H136932   2.831   5.147   6.471
12325TIP3    H236933   2.803   5.077   6.602
12326TIP3   OH236934   3.716   0.723   6.730
12326TIP3    H136935   3.770   0.686   6.800
12326TIP3    H236936   3.764   0.702   6.650
12327TIP3   OH236937   3.356   5.011   2.066
12327TIP3    H136938   3.274   4.999   2.112
12327TIP3    H236939   3.338   4.984   1.976
12328TIP3   OH236940   4.666   6.061   5.094
12328TIP3    H136941   4.643   6.114   5.018
12328TIP3    H236942   4.604   6.087   5.161
12329TIP3   OH236943   1.827   1.258   6.145
12329TIP3    H136944   1.879   1.333   6.175
12329TIP3    H236945   1.851   1.247   6.053
12330TIP3   OH236946   6.830   0.800   3.904
12330TIP3    H136947   6.857   0.774   3.816
12330TIP3    H236948   6.910   0.792   3.957
12331TIP3   OH236949   5.038   0.522   1.491
12331TIP3    H136950   5.053   0.541   1.398
12331TIP3    H236951   4.958   0.470   1.492
12332TIP3   OH236952   3.669   0.388   2.677
12332TIP3    H136953   3.678   0.481   2.659
12332TIP3    H236954   3.580   0.378   2.712
12333TIP3   OH236955   2.159   6.761   5.493
12333TIP3    H136956   2.100   6.819   5.540
12333TIP3    H236957   2.171   6.803   5.408
12334TIP3   OH236958   2.192   6.552   0.767
12334TIP3    H136959   2.234   6.480   0.813
12334TIP3    H236960   2.249   6.627   0.781
12335TIP3   OH236961   4.170   1.714   4.508
12335TIP3    H136962   4.163   1.696   4.414
12335TIP3    H236963   4.254   1.678   4.533
12336TIP3   OH236964   7.103   7.173   2.061
12336TIP3    H136965   7.012   7.166   2.090
12336TIP3    H236966   7.135   7.254   2.099
12337TIP3   OH236967   5.617   2.831   5.630
12337TIP3    H136968   5.578   2.819   5.544
12337TIP3    H236969   5.546   2.864   5.685
12338TIP3   OH236970   0.568   1.910   3.166
12338TIP3    H136971   0.543   1.909   3.258
12338TIP3    H236972   0.486   1.916   3.118
12339TIP3   OH236973   5.020   2.446   2.001
12339TIP3    H136974   5.009   2.513   1.935
12339TIP3    H236975   4.932   2.411   2.016
12340TIP3   OH236976   0.765   5.221   1.232
12340TIP3    H136977   0.764   5.308   1.273
12340TIP3    H236978   0.842   5.178   1.268
12341TIP3   OH236979   5.347   1.411   6.263
12341TIP3    H136980   5.277   1.458   6.218
12341TIP3    H236981   5.301   1.340   6.309
12342TIP3   OH236982   7.874   6.842   1.422
12342TIP3    H136983   7.954   6.816   1.468
12342TIP3    H236984   7.837   6.913   1.475
12343TIP3   OH236985   4.069   1.719   3.589
12343TIP3    H136986   4.011   1.678   3.526
12343TIP3    H236987   4.011   1.753   3.657
12344TIP3   OH236988   0.577   3.077   1.397
12344TIP3    H136989   0.485   3.097   1.413
12344TIP3    H236990   0.599   3.010   1.462
12345TIP3   OH236991   7.326   7.696   0.933
12345TIP3    H136992   7.250   7.739   0.893
12345TIP3    H236993   7.351   7.627   0.871
12346TIP3   OH236994   8.093   5.492   5.044
12346TIP3    H136995   8.179   5.529   5.028
12346TIP3    H236996   8.111   5.406   5.082
12347TIP3   OH236997   0.219   2.955   2.629
12347TIP3    H136998   0.223   2.966   2.534
12347TIP3    H236999   0.234   2.862   2.643
12348TIP3   OH237000   0.446   3.504   4.469
12348TIP3    H137001   0.512   3.516   4.401
12348TIP3    H237002   0.494   3.466   4.543
12349TIP3   OH237003   5.151   4.042   6.234
12349TIP3    H137004   5.073   4.095   6.250
12349TIP3    H237005   5.156   4.035   6.139
12350TIP3   OH237006   6.036   5.789   5.387
12350TIP3    H137007   5.951   5.772   5.428
12350TIP3    H237008   6.100   5.773   5.456
12351TIP3   OH237009   0.256   5.698   1.885
12351TIP3    H137010   0.316   5.745   1.943
12351TIP3    H237011   0.252   5.752   1.806
12352TIP3   OH237012   2.879   6.229   1.531
12352TIP3    H137013   2.902   6.302   1.474
12352TIP3    H237014   2.883   6.264   1.620
12353TIP3   OH237015   1.836   1.638   3.174
12353TIP3    H137016   1.814   1.577   3.103
12353TIP3    H237017   1.892   1.587   3.232
12354TIP3   OH237018   4.928   2.066   0.645
12354TIP3    H137019   4.887   2.051   0.560
12354TIP3    H237020   4.979   1.987   0.661
12355TIP3   OH237021   8.017   0.468   2.932
12355TIP3    H137022   8.042   0.506   2.847
12355TIP3    H237023   8.066   0.386   2.936
12356TIP3   OH237024   0.578   5.693   2.552
12356TIP3    H137025   0.562   5.732   2.466
12356TIP3    H237026   0.500   5.639   2.568
12357TIP3   OH237027   2.208   1.239   0.596
12357TIP3    H137028   2.260   1.208   0.670
12357TIP3    H237029   2.146   1.300   0.635
12358TIP3   OH237030   5.585   2.016   1.553
12358TIP3    H137031   5.587   2.068   1.633
12358TIP3    H237032   5.594   1.925   1.582
12359TIP3   OH237033   1.283   5.375   3.207
12359TIP3    H137034   1.351   5.442   3.199
12359TIP3    H237035   1.315   5.317   3.277
12360TIP3   OH237036   1.257   4.448   4.157
12360TIP3    H137037   1.298   4.466   4.241
12360TIP3    H237038   1.257   4.532   4.112
12361TIP3   OH237039   6.978   1.411   1.733
12361TIP3    H137040   6.914   1.377   1.670
12361TIP3    H237041   6.991   1.339   1.796
12362TIP3   OH237042   3.056   0.245   1.717
12362TIP3    H137043   3.039   0.156   1.748
12362TIP3    H237044   3.126   0.278   1.774
12363TIP3   OH237045   5.782   2.874   2.342
12363TIP3    H137046   5.814   2.786   2.319
12363TIP3    H237047   5.828   2.896   2.423
12364TIP3   OH237048   7.182   6.913   5.784
12364TIP3    H137049   7.158   7.005   5.801
12364TIP3    H237050   7.194   6.909   5.689
12365TIP3   OH237051   1.151   0.615   0.936
12365TIP3    H137052   1.104   0.534   0.913
12365TIP3    H237053   1.208   0.631   0.862
12366TIP3   OH237054   7.050   1.228   4.698
12366TIP3    H137055   7.131   1.262   4.661
12366TIP3    H237056   7.031   1.285   4.773
12367TIP3   OH237057   7.342   6.612   5.775
12367TIP3    H137058   7.377   6.620   5.864
12367TIP3    H237059   7.287   6.690   5.764
12368TIP3   OH237060   5.120   6.402   0.515
12368TIP3    H137061   5.046   6.381   0.458
12368TIP3    H237062   5.107   6.346   0.592
12369TIP3   OH237063   6.446   3.603   0.517
12369TIP3    H137064   6.498   3.545   0.461
12369TIP3    H237065   6.510   3.659   0.560
12370TIP3   OH237066   0.615   1.202   3.922
12370TIP3    H137067   0.567   1.185   4.003
12370TIP3    H237068   0.636   1.295   3.926
12371TIP3   OH237069   2.002   0.865   2.182
12371TIP3    H137070   1.937   0.795   2.195
12371TIP3    H237071   1.995   0.888   2.089
12372TIP3   OH237072   1.823   5.190   1.086
12372TIP3    H137073   1.906   5.142   1.077
12372TIP3    H237074   1.824   5.254   1.015
12373TIP3   OH237075   7.096   0.462   6.594
12373TIP3    H137076   7.117   0.404   6.667
12373TIP3    H237077   7.151   0.432   6.522
12374TIP3   OH237078   0.600   3.650   3.811
12374TIP3    H137079   0.636   3.563   3.796
12374TIP3    H237080   0.597   3.689   3.723
12375TIP3   OH237081   4.156   1.509   3.251
12375TIP3    H137082   4.156   1.538   3.160
12375TIP3    H237083   4.081   1.552   3.291
12376TIP3   OH237084   6.976   6.689   3.223
12376TIP3    H137085   7.032   6.676   3.147
12376TIP3    H237086   6.962   6.601   3.258
12377TIP3   OH237087   7.782   7.588   3.363
12377TIP3    H137088   7.775   7.587   3.267
12377TIP3    H237089   7.693   7.571   3.393
12378TIP3   OH237090   8.127   0.395   5.743
12378TIP3    H137091   8.044   0.442   5.740
12378TIP3    H237092   8.124   0.346   5.826
12379TIP3   OH237093   7.969   7.195   1.260
12379TIP3    H137094   8.031   7.177   1.190
12379TIP3    H237095   7.893   7.141   1.239
12380TIP3   OH237096   6.956   0.442   3.476
12380TIP3    H137097   7.026   0.380   3.499
12380TIP3    H237098   7.001   0.525   3.464
12381TIP3   OH237099   3.107   3.544   1.946
12381TIP3    H137100   3.191   3.590   1.938
12381TIP3    H237101   3.111   3.474   1.880
12382TIP3   OH237102   4.084   2.753   0.898
12382TIP3    H137103   3.995   2.722   0.916
12382TIP3    H237104   4.140   2.682   0.928
12383TIP3   OH237105   5.837   2.686   6.661
12383TIP3    H137106   5.831   2.652   6.750
12383TIP3    H237107   5.756   2.734   6.648
12384TIP3   OH237108   6.864   2.333   5.749
12384TIP3    H137109   6.915   2.398   5.701
12384TIP3    H237110   6.891   2.345   5.840
12385TIP3   OH237111   4.228   2.874   2.748
12385TIP3    H137112   4.135   2.879   2.725
12385TIP3    H237113   4.231   2.902   2.840
12386TIP3   OH237114   8.084   7.693   1.823
12386TIP3    H137115   8.097   7.788   1.817
12386TIP3    H237116   8.071   7.665   1.732
12387TIP3   OH237117   0.896   1.005   5.167
12387TIP3    H137118   0.921   0.952   5.242
12387TIP3    H237119   0.821   0.958   5.129
12388TIP3   OH237120   1.680   2.712   1.612
12388TIP3    H137121   1.669   2.796   1.566
12388TIP3    H237122   1.774   2.708   1.631
12389TIP3   OH237123   1.434  -0.001   3.521
12389TIP3    H137124   1.501  -0.034   3.461
12389TIP3    H237125   1.476   0.071   3.567
12390TIP3   OH237126   1.620   6.741   4.570
12390TIP3    H137127   1.654   6.680   4.636
12390TIP3    H237128   1.599   6.686   4.495
12391TIP3   OH237129   6.749   7.768   5.557
12391TIP3    H137130   6.708   7.787   5.641
12391TIP3    H237131   6.726   7.676   5.540
12392TIP3   OH237132   5.330   4.360   4.589
12392TIP3    H137133   5.289   4.444   4.568
12392TIP3    H237134   5.337   4.315   4.505
12393TIP3   OH237135   7.194   7.606   2.066
12393TIP3    H137136   7.253   7.664   2.018
12393TIP3    H237137   7.118   7.660   2.088
12394TIP3   OH237138   2.574   3.044   1.983
12394TIP3    H137139   2.608   3.035   1.894
12394TIP3    H237140   2.649   3.075   2.034
12395TIP3   OH237141   7.391   0.282   6.518
12395TIP3    H137142   7.335   0.350   6.480
12395TIP3    H237143   7.345   0.200   6.497
12396TIP3   OH237144   0.254   0.446   0.253
12396TIP3    H137145   0.217   0.460   0.166
12396TIP3    H237146   0.261   0.534   0.290
12397TIP3   OH237147   6.684   4.737   2.495
12397TIP3    H137148   6.779   4.731   2.492
12397TIP3    H237149   6.664   4.821   2.454
12398TIP3   OH237150   5.220   2.403   2.769
12398TIP3    H137151   5.151   2.383   2.832
12398TIP3    H237152   5.302   2.388   2.818
12399TIP3   OH237153   8.102   7.636   3.393
12399TIP3    H137154   8.064   7.619   3.479
12399TIP3    H237155   8.184   7.680   3.411
12400TIP3   OH237156   6.870   6.863   5.561
12400TIP3    H137157   6.941   6.921   5.535
12400TIP3    H237158   6.878   6.787   5.503
12401TIP3   OH237159   1.651   6.866   0.770
12401TIP3    H137160   1.681   6.911   0.691
12401TIP3    H237161   1.576   6.814   0.742
12402TIP3   OH237162   4.106   4.319   0.467
12402TIP3    H137163   4.137   4.404   0.435
12402TIP3    H237164   4.105   4.263   0.389
12403TIP3   OH237165   7.432   5.903   4.931
12403TIP3    H137166   7.506   5.880   4.986
12403TIP3    H237167   7.406   5.820   4.890
12404TIP3   OH237168   4.487   3.066   2.904
12404TIP3    H137169   4.441   3.068   2.820
12404TIP3    H237170   4.422   3.034   2.966
12405TIP3   OH237171   6.171   4.426   2.911
12405TIP3    H137172   6.091   4.459   2.872
12405TIP3    H237173   6.149   4.413   3.004
12406TIP3   OH237174   1.275   1.486   1.225
12406TIP3    H137175   1.320   1.522   1.302
12406TIP3    H237176   1.225   1.412   1.258
12407TIP3   OH237177   0.399   3.910   4.126
12407TIP3    H137178   0.404   3.957   4.043
12407TIP3    H237179   0.400   3.817   4.101
12408TIP3   OH237180   7.511   1.886   2.529
12408TIP3    H137181   7.433   1.918   2.574
12408TIP3    H237182   7.585   1.915   2.582
12409TIP3   OH237183   2.764   4.920   1.862
12409TIP3    H137184   2.776   4.849   1.924
12409TIP3    H237185   2.687   4.894   1.810
12410TIP3   OH237186   0.408   1.232   1.804
12410TIP3    H137187   0.376   1.312   1.845
12410TIP3    H237188   0.473   1.262   1.740
12411TIP3   OH237189   2.701   0.859   0.216
12411TIP3    H137190   2.684   0.904   0.299
12411TIP3    H237191   2.628   0.885   0.159
12412TIP3   OH237192   6.906   5.562   2.105
12412TIP3    H137193   6.993   5.587   2.075
12412TIP3    H237194   6.923   5.497   2.174
12413TIP3   OH237195   5.922   4.528   0.610
12413TIP3    H137196   5.855   4.538   0.542
12413TIP3    H237197   5.963   4.444   0.591
12414TIP3   OH237198   5.108   4.186   1.013
12414TIP3    H137199   5.199   4.182   0.985
12414TIP3    H237200   5.085   4.279   1.006
12415TIP3   OH237201   0.477   4.575   2.570
12415TIP3    H137202   0.551   4.532   2.614
12415TIP3    H237203   0.513   4.603   2.486
12416TIP3   OH237204   7.337   0.844   5.125
12416TIP3    H137205   7.317   0.921   5.072
12416TIP3    H237206   7.282   0.854   5.203
12417TIP3   OH237207   7.916   3.348   0.137
12417TIP3    H137208   7.823   3.323   0.135
12417TIP3    H237209   7.934   3.365   0.230
12418TIP3   OH237210   7.564   6.349   1.343
12418TIP3    H137211   7.546   6.301   1.423
12418TIP3    H237212   7.479   6.385   1.317
12419TIP3   OH237213   1.778   6.124   5.355
12419TIP3    H137214   1.844   6.084   5.412
12419TIP3    H237215   1.709   6.152   5.414
12420TIP3   OH237216   7.136   0.240   3.510
12420TIP3    H137217   7.087   0.177   3.457
12420TIP3    H237218   7.195   0.186   3.563
12421TIP3   OH237219   1.468   4.828   5.107
12421TIP3    H137220   1.503   4.806   5.194
12421TIP3    H237221   1.531   4.792   5.045
12422TIP3   OH237222   0.535   2.753   3.403
12422TIP3    H137223   0.525   2.677   3.462
12422TIP3    H237224   0.463   2.811   3.426
12423TIP3   OH237225   2.523   4.565   2.440
12423TIP3    H137226   2.585   4.569   2.513
12423TIP3    H237227   2.447   4.615   2.470
12424TIP3   OH237228   3.734   5.386   6.466
12424TIP3    H137229   3.665   5.325   6.438
12424TIP3    H237230   3.688   5.469   6.481
12425TIP3   OH237231   3.129   5.207   5.827
12425TIP3    H137232   3.085   5.194   5.912
12425TIP3    H237233   3.114   5.126   5.780
12426TIP3   OH237234   1.154   2.893   1.535
12426TIP3    H137235   1.232   2.890   1.479
12426TIP3    H237236   1.164   2.817   1.593
12427TIP3   OH237237   3.346   7.074   2.285
12427TIP3    H137238   3.349   7.134   2.211
12427TIP3    H237239   3.252   7.055   2.296
12428TIP3   OH237240   4.550   0.787   3.546
12428TIP3    H137241   4.623   0.849   3.543
12428TIP3    H237242   4.580   0.718   3.605
12429TIP3   OH237243   3.435   7.584   0.533
12429TIP3    H137244   3.383   7.602   0.612
12429TIP3    H237245   3.504   7.650   0.533
12430TIP3   OH237246   6.854   4.030   5.446
12430TIP3    H137247   6.928   3.980   5.480
12430TIP3    H237248   6.871   4.120   5.472
12431TIP3   OH237249   4.374   5.986   6.588
12431TIP3    H137250   4.299   5.935   6.559
12431TIP3    H237251   4.336   6.066   6.625
12432TIP3   OH237252  -0.009   6.989   5.535
12432TIP3    H137253   0.081   6.993   5.568
12432TIP3    H237254  -0.031   6.895   5.537
12433TIP3   OH237255   0.939   6.505   6.339
12433TIP3    H137256   1.013   6.546   6.293
12433TIP3    H237257   0.980   6.450   6.406
12434TIP3   OH237258   2.079   6.873   6.758
12434TIP3    H137259   2.120   6.880   6.844
12434TIP3    H237260   2.139   6.916   6.698
12435TIP3   OH237261   1.961   1.085   1.273
12435TIP3    H137262   2.028   1.122   1.216
12435TIP3    H237263   1.884   1.140   1.259
12436TIP3   OH237264   2.563   4.571   0.019
12436TIP3    H137265   2.644   4.621   0.025
12436TIP3    H237266   2.495   4.632   0.045
12437TIP3   OH237267   1.447   0.890   5.461
12437TIP3    H137268   1.415   0.880   5.371
12437TIP3    H237269   1.378   0.940   5.505
12438TIP3   OH237270   1.864   3.213   6.085
12438TIP3    H137271   1.774   3.226   6.054
12438TIP3    H237272   1.855   3.157   6.162
12439TIP3   OH237273   0.326   7.655   6.698
12439TIP3    H137274   0.287   7.600   6.630
12439TIP3    H237275   0.387   7.712   6.652
12440TIP3   OH237276   6.038   5.287   2.293
12440TIP3    H137277   6.003   5.259   2.378
12440TIP3    H237278   5.961   5.313   2.243
12441TIP3   OH237279   7.993   4.384   2.707
12441TIP3    H137280   8.053   4.322   2.749
12441TIP3    H237281   8.007   4.370   2.613
12442TIP3   OH237282   2.015   0.236   2.072
12442TIP3    H137283   1.945   0.226   2.008
12442TIP3    H237284   2.065   0.155   2.066
12443TIP3   OH237285   2.990   0.784   3.416
12443TIP3    H137286   3.077   0.818   3.394
12443TIP3    H237287   2.931   0.827   3.353
12444TIP3   OH237288   1.785   2.983   1.984
12444TIP3    H137289   1.864   2.931   1.970
12444TIP3    H237290   1.714   2.919   1.980
12445TIP3   OH237291   3.460   6.061   3.444
12445TIP3    H137292   3.479   5.973   3.476
12445TIP3    H237293   3.402   6.099   3.510
12446TIP3   OH237294   5.873   4.824   4.854
12446TIP3    H137295   5.872   4.740   4.808
12446TIP3    H237296   5.807   4.877   4.809
12447TIP3   OH237297   0.085   3.895   2.124
12447TIP3    H137298   0.158   3.957   2.132
12447TIP3    H237299   0.125   3.817   2.086
12448TIP3   OH237300   5.555   0.080   0.411
12448TIP3    H137301   5.589   0.023   0.479
12448TIP3    H237302   5.632   0.113   0.365
12449TIP3   OH237303   2.221   3.813   6.326
12449TIP3    H137304   2.286   3.759   6.279
12449TIP3    H237305   2.160   3.840   6.258
12450TIP3   OH237306   2.787   3.756   3.251
12450TIP3    H137307   2.727   3.785   3.320
12450TIP3    H237308   2.768   3.814   3.177
12451TIP3   OH237309   0.415   1.428   5.717
12451TIP3    H137310   0.397   1.349   5.666
12451TIP3    H237311   0.332   1.477   5.715
12452TIP3   OH237312   0.923   7.517   3.531
12452TIP3    H137313   0.856   7.565   3.483
12452TIP3    H237314   1.002   7.570   3.520
12453TIP3   OH237315   1.814   4.407   3.698
12453TIP3    H137316   1.874   4.480   3.714
12453TIP3    H237317   1.772   4.392   3.783
12454TIP3   OH237318   4.332   0.542   3.543
12454TIP3    H137319   4.402   0.604   3.565
12454TIP3    H237320   4.259   0.597   3.515
12455TIP3   OH237321   2.143   1.150   5.563
12455TIP3    H137322   2.080   1.140   5.493
12455TIP3    H237323   2.217   1.094   5.538
12456TIP3   OH237324   5.668   5.368   0.370
12456TIP3    H137325   5.635   5.376   0.460
12456TIP3    H237326   5.747   5.421   0.369
12457TIP3   OH237327   6.850   0.175   0.025
12457TIP3    H137328   6.930   0.124   0.039
12457TIP3    H237329   6.799   0.162   0.105
12458TIP3   OH237330   7.684   3.250   2.496
12458TIP3    H137331   7.633   3.270   2.575
12458TIP3    H237332   7.729   3.332   2.476
12459TIP3   OH237333   5.111   2.115   4.926
12459TIP3    H137334   5.156   2.183   4.976
12459TIP3    H237335   5.025   2.152   4.908
12460TIP3   OH237336   2.717   5.526   4.223
12460TIP3    H137337   2.678   5.598   4.173
12460TIP3    H237338   2.691   5.542   4.314
12461TIP3   OH237339   1.781   5.457   5.206
12461TIP3    H137340   1.860   5.410   5.231
12461TIP3    H237341   1.789   5.470   5.111
12462TIP3   OH237342   2.486   6.592   3.311
12462TIP3    H137343   2.553   6.530   3.281
12462TIP3    H237344   2.503   6.672   3.260
12463TIP3   OH237345   3.765   2.813   6.442
12463TIP3    H137346   3.845   2.761   6.444
12463TIP3    H237347   3.706   2.765   6.383
12464TIP3   OH237348   0.025   5.567   2.628
12464TIP3    H137349   0.003   5.501   2.562
12464TIP3    H237350   0.101   5.613   2.592
12465TIP3   OH237351   0.102   0.766   2.369
12465TIP3    H137352   0.143   0.773   2.283
12465TIP3    H237353   0.025   0.823   2.363
12466TIP3   OH237354   7.843   6.952   1.160
12466TIP3    H137355   7.933   6.923   1.142
12466TIP3    H237356   7.815   6.899   1.234
12467TIP3   OH237357   1.252   0.425   0.046
12467TIP3    H137358   1.209   0.466  -0.030
12467TIP3    H237359   1.300   0.351   0.010
12468TIP3   OH237360   0.999   0.031   4.189
12468TIP3    H137361   0.907   0.007   4.179
12468TIP3    H237362   1.034  -0.034   4.251
12469TIP3   OH237363   5.786   3.480   0.523
12469TIP3    H137364   5.709   3.537   0.518
12469TIP3    H237365   5.845   3.514   0.456
12470TIP3   OH237366   3.544   7.219   5.324
12470TIP3    H137367   3.511   7.131   5.304
12470TIP3    H237368   3.619   7.203   5.381
12471TIP3   OH237369   7.229   0.943   5.458
12471TIP3    H137370   7.172   0.962   5.532
12471TIP3    H237371   7.173   0.900   5.394
12472TIP3   OH237372   3.947   1.055   0.371
12472TIP3    H137373   3.886   1.123   0.398
12472TIP3    H237374   4.031   1.081   0.409
12473TIP3   OH237375   1.642   1.133   1.773
12473TIP3    H137376   1.583   1.120   1.847
12473TIP3    H237377   1.589   1.111   1.696
12474TIP3   OH237378   5.365   0.443   4.293
12474TIP3    H137379   5.431   0.437   4.362
12474TIP3    H237380   5.327   0.355   4.288
12475TIP3   OH237381   5.257   5.262   4.557
12475TIP3    H137382   5.193   5.334   4.550
12475TIP3    H237383   5.240   5.208   4.480
12476TIP3   OH237384   3.112   2.791   4.759
12476TIP3    H137385   3.151   2.716   4.715
12476TIP3    H237386   3.187   2.846   4.783
12477TIP3   OH237387   1.571   1.040   0.949
12477TIP3    H137388   1.576   1.054   0.855
12477TIP3    H237389   1.540   0.950   0.959
12478TIP3   OH237390   1.889   1.541   5.507
12478TIP3    H137391   1.832   1.576   5.576
12478TIP3    H237392   1.972   1.525   5.551
12479TIP3   OH237393   6.635   4.965   5.597
12479TIP3    H137394   6.570   4.931   5.658
12479TIP3    H237395   6.610   4.926   5.513
12480TIP3   OH237396   3.708   6.872   4.732
12480TIP3    H137397   3.722   6.911   4.818
12480TIP3    H237398   3.614   6.855   4.728
12481TIP3   OH237399   5.494   5.029   5.275
12481TIP3    H137400   5.589   5.022   5.271
12481TIP3    H237401   5.466   5.031   5.183
12482TIP3   OH237402   3.554   2.904   6.605
12482TIP3    H137403   3.501   2.947   6.538
12482TIP3    H237404   3.638   2.887   6.562
12483TIP3   OH237405   6.141   4.621   4.772
12483TIP3    H137406   6.094   4.586   4.848
12483TIP3    H237407   6.139   4.550   4.708
12484TIP3   OH237408   4.179   4.178   0.862
12484TIP3    H137409   4.187   4.265   0.901
12484TIP3    H237410   4.104   4.186   0.802
12485TIP3   OH237411   1.168   4.112   0.225
12485TIP3    H137412   1.148   4.184   0.164
12485TIP3    H237413   1.172   4.154   0.310
12486TIP3   OH237414   6.930   2.405   1.978
12486TIP3    H137415   6.878   2.335   2.017
12486TIP3    H237416   6.976   2.363   1.905
12487TIP3   OH237417   1.998   0.278   2.843
12487TIP3    H137418   1.986   0.342   2.914
12487TIP3    H237419   2.092   0.263   2.839
12488TIP3   OH237420   3.469   3.302   0.185
12488TIP3    H137421   3.469   3.243   0.261
12488TIP3    H237422   3.457   3.389   0.222
12489TIP3   OH237423   4.522   3.983   3.327
12489TIP3    H137424   4.599   3.928   3.343
12489TIP3    H237425   4.543   4.067   3.367
12490TIP3   OH237426   2.285   4.425   4.595
12490TIP3    H137427   2.327   4.412   4.510
12490TIP3    H237428   2.248   4.340   4.617
12491TIP3   OH237429   4.864   6.428   0.824
12491TIP3    H137430   4.835   6.416   0.734
12491TIP3    H237431   4.950   6.470   0.815
12492TIP3   OH237432   0.497   5.661   1.646
12492TIP3    H137433   0.421   5.714   1.667
12492TIP3    H237434   0.504   5.666   1.551
12493TIP3   OH237435   7.649   7.524   2.574
12493TIP3    H137436   7.736   7.550   2.545
12493TIP3    H237437   7.619   7.462   2.508
12494TIP3   OH237438   7.555   5.927   4.232
12494TIP3    H137439   7.464   5.903   4.254
12494TIP3    H237440   7.577   5.872   4.157
12495TIP3   OH237441   5.310   6.199   6.619
12495TIP3    H137442   5.372   6.207   6.546
12495TIP3    H237443   5.253   6.126   6.593
12496TIP3   OH237444   2.208   4.744   4.425
12496TIP3    H137445   2.249   4.738   4.512
12496TIP3    H237446   2.279   4.771   4.367
12497TIP3   OH237447   4.109   4.085   5.743
12497TIP3    H137448   4.105   4.172   5.782
12497TIP3    H237449   4.198   4.078   5.709
12498TIP3   OH237450   1.082   3.658   3.320
12498TIP3    H137451   1.049   3.721   3.384
12498TIP3    H237452   1.086   3.575   3.369
12499TIP3   OH237453   1.589   4.173   0.653
12499TIP3    H137454   1.588   4.250   0.709
12499TIP3    H237455   1.663   4.187   0.594
12500TIP3   OH237456   7.354   4.755   6.437
12500TIP3    H137457   7.354   4.828   6.376
12500TIP3    H237458   7.268   4.758   6.480
12501TIP3   OH237459   1.735   4.715   2.362
12501TIP3    H137460   1.777   4.692   2.279
12501TIP3    H237461   1.807   4.737   2.420
12502TIP3   OH237462   4.754   3.728   3.678
12502TIP3    H137463   4.832   3.765   3.719
12502TIP3    H237464   4.783   3.644   3.643
12503TIP3   OH237465   5.532   7.058   2.164
12503TIP3    H137466   5.591   6.985   2.182
12503TIP3    H237467   5.455   7.018   2.125
12504TIP3   OH237468   7.778   7.055   2.615
12504TIP3    H137469   7.707   7.038   2.553
12504TIP3    H237470   7.740   7.113   2.680
12505TIP3   OH237471   6.208   6.326   5.355
12505TIP3    H137472   6.191   6.420   5.355
12505TIP3    H237473   6.123   6.286   5.335
12506TIP3   OH237474   1.572   0.997   2.769
12506TIP3    H137475   1.546   0.906   2.777
12506TIP3    H237476   1.531   1.040   2.844
12507TIP3   OH237477   3.330   2.349   0.099
12507TIP3    H137478   3.340   2.288   0.172
12507TIP3    H237479   3.287   2.298   0.031
12508TIP3   OH237480   5.772   3.758   0.167
12508TIP3    H137481   5.770   3.854   0.166
12508TIP3    H237482   5.821   3.735   0.088
12509TIP3   OH237483   7.573   6.415   1.033
12509TIP3    H137484   7.563   6.501   1.075
12509TIP3    H237485   7.590   6.435   0.941
12510TIP3   OH237486   3.941   4.373   3.123
12510TIP3    H137487   3.917   4.448   3.177
12510TIP3    H237488   3.939   4.298   3.183
12511TIP3   OH237489   0.716   1.421   5.975
12511TIP3    H137490   0.678   1.502   5.941
12511TIP3    H237491   0.739   1.441   6.065
12512TIP3   OH237492   2.555   0.558   3.324
12512TIP3    H137493   2.589   0.485   3.272
12512TIP3    H237494   2.487   0.519   3.379
12513TIP3   OH237495   1.723   0.636   5.665
12513TIP3    H137496   1.779   0.591   5.601
12513TIP3    H237497   1.774   0.712   5.692
12514TIP3   OH237498   4.246   2.520   5.409
12514TIP3    H137499   4.323   2.480   5.369
12514TIP3    H237500   4.276   2.605   5.441
12515TIP3   OH237501   4.852   2.862   4.303
12515TIP3    H137502   4.917   2.808   4.259
12515TIP3    H237503   4.843   2.822   4.390
12516TIP3   OH237504   7.824   5.250   2.268
12516TIP3    H137505   7.859   5.183   2.326
12516TIP3    H237506   7.744   5.211   2.232
12517TIP3   OH237507   3.266   7.243   1.033
12517TIP3    H137508   3.238   7.205   0.950
12517TIP3    H237509   3.357   7.214   1.043
12518TIP3   OH237510   3.680   2.385   6.097
12518TIP3    H137511   3.670   2.354   6.007
12518TIP3    H237512   3.621   2.330   6.149
12519TIP3   OH237513   3.995   0.744   5.289
12519TIP3    H137514   4.019   0.814   5.229
12519TIP3    H237515   3.954   0.789   5.363
12520TIP3   OH237516   1.225   1.357   4.952
12520TIP3    H137517   1.252   1.321   4.868
12520TIP3    H237518   1.175   1.286   4.993
12521TIP3   OH237519   6.931   1.781   3.712
12521TIP3    H137520   6.890   1.854   3.758
12521TIP3    H237521   6.876   1.705   3.734
12522TIP3   OH237522   4.132   0.574   1.852
12522TIP3    H137523   4.101   0.484   1.859
12522TIP3    H237524   4.141   0.603   1.942
12523TIP3   OH237525   6.217   0.758   5.512
12523TIP3    H137526   6.234   0.683   5.455
12523TIP3    H237527   6.234   0.726   5.600
12524TIP3   OH237528   2.372   7.013   3.642
12524TIP3    H137529   2.290   7.008   3.594
12524TIP3    H237530   2.429   6.948   3.599
12525TIP3   OH237531   6.365   4.277   0.004
12525TIP3    H137532   6.311   4.231   0.068
12525TIP3    H237533   6.412   4.343   0.054
12526TIP3   OH237534   0.577   1.890   6.599
12526TIP3    H137535   0.665   1.885   6.636
12526TIP3    H237536   0.574   1.976   6.556
12527TIP3   OH237537   0.861   6.124   3.557
12527TIP3    H137538   0.826   6.110   3.645
12527TIP3    H237539   0.806   6.192   3.519
12528TIP3   OH237540   5.576   1.074   2.625
12528TIP3    H137541   5.667   1.093   2.649
12528TIP3    H237542   5.524   1.112   2.695
12529TIP3   OH237543   8.120   2.967   2.449
12529TIP3    H137544   8.046   2.959   2.509
12529TIP3    H237545   8.176   2.892   2.469
12530TIP3   OH237546   3.623   5.692   0.178
12530TIP3    H137547   3.629   5.667   0.270
12530TIP3    H237548   3.548   5.642   0.145
12531TIP3   OH237549   4.459   0.257   0.440
12531TIP3    H137550   4.376   0.237   0.483
12531TIP3    H237551   4.459   0.353   0.431
12532TIP3   OH237552   7.169   5.448   3.053
12532TIP3    H137553   7.084   5.409   3.078
12532TIP3    H237554   7.165   5.455   2.958
12533TIP3   OH237555   4.436   5.256   2.951
12533TIP3    H137556   4.480   5.171   2.948
12533TIP3    H237557   4.343   5.234   2.955
12534TIP3   OH237558   0.976   1.562   4.682
12534TIP3    H137559   1.045   1.514   4.637
12534TIP3    H237560   0.896   1.515   4.661
12535TIP3   OH237561   0.799   2.285   5.540
12535TIP3    H137562   0.718   2.279   5.591
12535TIP3    H237563   0.810   2.379   5.524
12536TIP3   OH237564   0.310   5.741   5.806
12536TIP3    H137565   0.273   5.673   5.863
12536TIP3    H237566   0.265   5.729   5.723
12537TIP3   OH237567   7.770   5.294   0.739
12537TIP3    H137568   7.733   5.267   0.655
12537TIP3    H237569   7.832   5.225   0.762
12538TIP3   OH237570   1.276   1.801   3.748
12538TIP3    H137571   1.312   1.745   3.816
12538TIP3    H237572   1.192   1.832   3.783
12539TIP3   OH237573   0.238   2.227   6.572
12539TIP3    H137574   0.177   2.277   6.517
12539TIP3    H237575   0.191   2.146   6.592
12540TIP3   OH237576   2.416   2.561   2.009
12540TIP3    H137577   2.477   2.608   1.952
12540TIP3    H237578   2.464   2.484   2.037
12541TIP3   OH237579   1.236   2.320   4.688
12541TIP3    H137580   1.266   2.332   4.598
12541TIP3    H237581   1.154   2.273   4.680
12542TIP3   OH237582   1.198   4.577   2.271
12542TIP3    H137583   1.165   4.552   2.185
12542TIP3    H237584   1.121   4.579   2.327
12543TIP3   OH237585   7.799   5.411   1.152
12543TIP3    H137586   7.713   5.450   1.137
12543TIP3    H237587   7.857   5.486   1.164
12544TIP3   OH237588   1.851   6.322   3.402
12544TIP3    H137589   1.781   6.375   3.363
12544TIP3    H237590   1.852   6.347   3.494
12545TIP3   OH237591   8.175   3.689   1.114
12545TIP3    H137592   8.187   3.716   1.023
12545TIP3    H237593   8.129   3.763   1.155
12546TIP3   OH237594   0.568   4.380   2.942
12546TIP3    H137595   0.661   4.393   2.963
12546TIP3    H237596   0.569   4.323   2.865
12547TIP3   OH237597   2.055   7.527   2.790
12547TIP3    H137598   1.965   7.534   2.823
12547TIP3    H237599   2.078   7.615   2.763
12548TIP3   OH237600   7.511   6.348   6.672
12548TIP3    H137601   7.440   6.291   6.641
12548TIP3    H237602   7.587   6.321   6.621
12549TIP3   OH237603   5.926   3.196   2.264
12549TIP3    H137604   6.006   3.144   2.261
12549TIP3    H237605   5.951   3.282   2.229
12550TIP3   OH237606   6.824   6.945   0.220
12550TIP3    H137607   6.816   6.887   0.296
12550TIP3    H237608   6.859   7.027   0.255
12551TIP3   OH237609   5.736   3.992   3.232
12551TIP3    H137610   5.818   3.963   3.271
12551TIP3    H237611   5.687   3.911   3.216
12552TIP3   OH237612   5.357   4.211   3.197
12552TIP3    H137613   5.352   4.256   3.113
12552TIP3    H237614   5.347   4.118   3.175
12553TIP3   OH237615   7.797   4.168   2.048
12553TIP3    H137616   7.850   4.230   2.099
12553TIP3    H237617   7.856   4.138   1.979
12554TIP3   OH237618   3.497   0.363   6.292
12554TIP3    H137619   3.440   0.289   6.310
12554TIP3    H237620   3.518   0.400   6.378
12555TIP3   OH237621   8.169   7.407   6.709
12555TIP3    H137622   8.175   7.421   6.804
12555TIP3    H237623   8.089   7.356   6.697
12556TIP3   OH237624   7.964   5.382   2.028
12556TIP3    H137625   7.932   5.339   2.108
12556TIP3    H237626   8.056   5.400   2.045
12557TIP3   OH237627   3.630   5.096   2.398
12557TIP3    H137628   3.585   5.167   2.351
12557TIP3    H237629   3.587   5.016   2.367
12558TIP3   OH237630   7.439   5.943   2.849
12558TIP3    H137631   7.395   5.862   2.874
12558TIP3    H237632   7.426   5.950   2.754
12559TIP3   OH237633   7.420   3.506   0.670
12559TIP3    H137634   7.350   3.444   0.650
12559TIP3    H237635   7.480   3.456   0.727
12560TIP3   OH237636   2.350   6.810   0.197
12560TIP3    H137637   2.339   6.863   0.276
12560TIP3    H237638   2.261   6.790   0.169
12561TIP3   OH237639   5.476   5.760   5.869
12561TIP3    H137640   5.393   5.732   5.830
12561TIP3    H237641   5.488   5.703   5.945
12562TIP3   OH237642   0.560   0.770   5.931
12562TIP3    H137643   0.560   0.805   6.020
12562TIP3    H237644   0.555   0.847   5.874
12563TIP3   OH237645   2.524   4.442   6.081
12563TIP3    H137646   2.459   4.407   6.141
12563TIP3    H237647   2.477   4.456   5.999
12564TIP3   OH237648   2.566   1.018   4.776
12564TIP3    H137649   2.572   0.933   4.821
12564TIP3    H237650   2.656   1.049   4.772
12565TIP3   OH237651   7.228   2.153   0.762
12565TIP3    H137652   7.273   2.116   0.837
12565TIP3    H237653   7.295   2.202   0.715
12566TIP3   OH237654   7.654   7.727   6.136
12566TIP3    H137655   7.603   7.732   6.055
12566TIP3    H237656   7.728   7.787   6.121
12567TIP3   OH237657   1.604   5.962   0.971
12567TIP3    H137658   1.554   5.994   1.046
12567TIP3    H237659   1.556   5.992   0.894
12568TIP3   OH237660   0.082   1.717   4.740
12568TIP3    H137661   0.174   1.689   4.747
12568TIP3    H237662   0.070   1.778   4.813
12569TIP3   OH237663   5.956   3.220   5.631
12569TIP3    H137664   5.994   3.242   5.716
12569TIP3    H237665   5.950   3.303   5.584
12570TIP3   OH237666   6.151   2.690   1.628
12570TIP3    H137667   6.151   2.664   1.536
12570TIP3    H237668   6.070   2.741   1.638
12571TIP3   OH237669   7.276   3.548   4.390
12571TIP3    H137670   7.237   3.468   4.424
12571TIP3    H237671   7.311   3.592   4.467
12572TIP3   OH237672   4.833   3.272   2.015
12572TIP3    H137673   4.787   3.225   1.945
12572TIP3    H237674   4.797   3.236   2.096
12573TIP3   OH237675   2.275   0.999   4.863
12573TIP3    H137676   2.351   1.052   4.887
12573TIP3    H237677   2.304   0.949   4.787
12574TIP3   OH237678   3.172   7.275   0.206
12574TIP3    H137679   3.222   7.356   0.200
12574TIP3    H237680   3.234   7.206   0.180
12575TIP3   OH237681   7.569   7.522   0.257
12575TIP3    H137682   7.605   7.465   0.189
12575TIP3    H237683   7.641   7.579   0.282
12576TIP3   OH237684   0.616   2.119   5.151
12576TIP3    H137685   0.675   2.158   5.087
12576TIP3    H237686   0.669   2.052   5.194
12577TIP3   OH237687   3.232   4.335   6.334
12577TIP3    H137688   3.309   4.320   6.389
12577TIP3    H237689   3.264   4.317   6.245
12578TIP3   OH237690   5.064   4.634   1.495
12578TIP3    H137691   5.041   4.571   1.563
12578TIP3    H237692   5.023   4.600   1.416
12579TIP3   OH237693   7.088   3.327   6.253
12579TIP3    H137694   7.073   3.386   6.326
12579TIP3    H237695   7.005   3.279   6.243
12580TIP3   OH237696   5.462   2.527   4.395
12580TIP3    H137697   5.465   2.580   4.475
12580TIP3    H237698   5.516   2.450   4.416
12581TIP3   OH237699   6.062   1.723   4.328
12581TIP3    H137700   6.096   1.635   4.313
12581TIP3    H237701   6.025   1.749   4.244
12582TIP3   OH237702   4.795   4.553   1.002
12582TIP3    H137703   4.775   4.487   1.069
12582TIP3    H237704   4.889   4.570   1.012
12583TIP3   OH237705   4.074   4.111   1.532
12583TIP3    H137706   3.997   4.135   1.481
12583TIP3    H237707   4.116   4.042   1.481
12584TIP3   OH237708   2.829   0.073   0.756
12584TIP3    H137709   2.827   0.156   0.708
12584TIP3    H237710   2.907   0.028   0.722
12585TIP3   OH237711   5.521   1.779   3.923
12585TIP3    H137712   5.487   1.690   3.934
12585TIP3    H237713   5.452   1.825   3.875
12586TIP3   OH237714   2.410   1.646   1.980
12586TIP3    H137715   2.452   1.583   2.039
12586TIP3    H237716   2.337   1.681   2.031
12587TIP3   OH237717   6.478   4.846   1.694
12587TIP3    H137718   6.444   4.757   1.702
12587TIP3    H237719   6.572   4.834   1.678
12588TIP3   OH237720   8.013   7.670   3.132
12588TIP3    H137721   8.039   7.653   3.222
12588TIP3    H237722   7.918   7.661   3.132
12589TIP3   OH237723   4.129   7.401   4.955
12589TIP3    H137724   4.162   7.313   4.939
12589TIP3    H237725   4.153   7.451   4.877
12590TIP3   OH237726   1.326   4.420   0.364
12590TIP3    H137727   1.329   4.462   0.278
12590TIP3    H237728   1.409   4.444   0.405
12591TIP3   OH237729   7.563   3.465   2.948
12591TIP3    H137730   7.617   3.543   2.963
12591TIP3    H237731   7.567   3.417   3.031
12592TIP3   OH237732   3.276   0.380   1.600
12592TIP3    H137733   3.183   0.358   1.604
12592TIP3    H237734   3.284   0.433   1.521
12593TIP3   OH237735   0.787   6.025   5.125
12593TIP3    H137736   0.767   5.988   5.211
12593TIP3    H237737   0.872   6.067   5.136
12594TIP3   OH237738   1.137   7.715   1.984
12594TIP3    H137739   1.109   7.806   1.984
12594TIP3    H237740   1.222   7.715   2.027
12595TIP3   OH237741   2.212   2.478   0.827
12595TIP3    H137742   2.188   2.482   0.919
12595TIP3    H237743   2.237   2.386   0.812
12596TIP3   OH237744   0.785   3.081   0.587
12596TIP3    H137745   0.736   3.156   0.620
12596TIP3    H237746   0.717   3.016   0.566
12597TIP3   OH237747   6.174   6.697   2.741
12597TIP3    H137748   6.235   6.765   2.714
12597TIP3    H237749   6.156   6.646   2.662
12598TIP3   OH237750   8.278   5.957   3.697
12598TIP3    H137751   8.246   6.019   3.763
12598TIP3    H237752   8.259   5.871   3.734
12599TIP3   OH237753   5.021   6.508   2.682
12599TIP3    H137754   5.096   6.486   2.738
12599TIP3    H237755   4.978   6.425   2.666
12600TIP3   OH237756   2.681   6.318   1.756
12600TIP3    H137757   2.661   6.411   1.768
12600TIP3    H237758   2.729   6.293   1.835
12601TIP3   OH237759   0.234   0.322   4.978
12601TIP3    H137760   0.275   0.269   5.046
12601TIP3    H237761   0.220   0.263   4.905
12602TIP3   OH237762   2.527   3.121   4.532
12602TIP3    H137763   2.435   3.105   4.512
12602TIP3    H237764   2.575   3.061   4.475
12603TIP3   OH237765   6.870   0.781   6.689
12603TIP3    H137766   6.914   0.790   6.604
12603TIP3    H237767   6.938   0.805   6.753
12604TIP3   OH237768   2.213   1.673   5.280
12604TIP3    H137769   2.190   1.728   5.206
12604TIP3    H237770   2.229   1.734   5.352
12605TIP3   OH237771   5.760   2.984   4.611
12605TIP3    H137772   5.808   2.931   4.676
12605TIP3    H237773   5.695   2.924   4.575
12606TIP3   OH237774   0.462   2.100   3.855
12606TIP3    H137775   0.533   2.038   3.842
12606TIP3    H237776   0.443   2.096   3.949
12607TIP3   OH237777   0.838   6.009   1.985
12607TIP3    H137778   0.839   6.104   1.975
12607TIP3    H237779   0.745   5.985   1.982
12608TIP3   OH237780   7.865   5.348   6.393
12608TIP3    H137781   7.946   5.384   6.430
12608TIP3    H237782   7.839   5.280   6.454
12609TIP3   OH237783   3.139   3.186   2.009
12609TIP3    H137784   3.231   3.200   2.032
12609TIP3    H237785   3.090   3.210   2.087
12610TIP3   OH237786   7.595   1.789   6.743
12610TIP3    H137787   7.677   1.771   6.698
12610TIP3    H237788   7.539   1.715   6.721
12611TIP3   OH237789   6.738   6.666   2.830
12611TIP3    H137790   6.794   6.621   2.767
12611TIP3    H237791   6.793   6.737   2.865
12612TIP3   OH237792   5.076   7.736   4.144
12612TIP3    H137793   5.042   7.668   4.203
12612TIP3    H237794   5.100   7.808   4.202
12613TIP3   OH237795   1.430   4.300   5.101
12613TIP3    H137796   1.417   4.394   5.105
12613TIP3    H237797   1.517   4.289   5.062
12614TIP3   OH237798   1.392   0.360   0.440
12614TIP3    H137799   1.486   0.371   0.426
12614TIP3    H237800   1.380   0.265   0.444
12615TIP3   OH237801   2.155   7.293   3.542
12615TIP3    H137802   2.128   7.385   3.530
12615TIP3    H237803   2.244   7.289   3.507
12616TIP3   OH237804   0.945   0.434   4.606
12616TIP3    H137805   0.924   0.379   4.682
12616TIP3    H237806   0.996   0.506   4.642
12617TIP3   OH237807   5.673   4.823  -0.024
12617TIP3    H137808   5.635   4.824   0.064
12617TIP3    H237809   5.703   4.913  -0.038
12618TIP3   OH237810   4.878   3.043   3.815
12618TIP3    H137811   4.865   3.051   3.720
12618TIP3    H237812   4.799   2.998   3.846
12619TIP3   OH237813   4.981   1.917   1.812
12619TIP3    H137814   4.947   1.952   1.730
12619TIP3    H237815   5.039   1.845   1.785
12620TIP3   OH237816   7.714   1.216   3.792
12620TIP3    H137817   7.710   1.148   3.859
12620TIP3    H237818   7.685   1.172   3.712
12621TIP3   OH237819   6.070   5.117   6.056
12621TIP3    H137820   6.160   5.139   6.079
12621TIP3    H237821   6.047   5.045   6.114
12622TIP3   OH237822   4.300   5.605   0.540
12622TIP3    H137823   4.218   5.631   0.499
12622TIP3    H237824   4.280   5.522   0.583
12623TIP3   OH237825   6.376   1.369   5.220
12623TIP3    H137826   6.407   1.367   5.129
12623TIP3    H237827   6.454   1.389   5.271
12624TIP3   OH237828   3.553   0.818   0.531
12624TIP3    H137829   3.591   0.731   0.530
12624TIP3    H237830   3.560   0.848   0.440
12625TIP3   OH237831   2.134   6.373   3.825
12625TIP3    H137832   2.144   6.468   3.834
12625TIP3    H237833   2.204   6.347   3.765
12626TIP3   OH237834   6.910   1.950   4.598
12626TIP3    H137835   6.902   1.904   4.681
12626TIP3    H237836   6.894   1.883   4.532
12627TIP3   OH237837   1.773   5.394   5.615
12627TIP3    H137838   1.726   5.406   5.697
12627TIP3    H237839   1.717   5.435   5.549
12628TIP3   OH237840   7.212   0.422   6.355
12628TIP3    H137841   7.222   0.516   6.340
12628TIP3    H237842   7.214   0.384   6.267
12629TIP3   OH237843   5.095   1.400   3.218
12629TIP3    H137844   5.037   1.466   3.181
12629TIP3    H237845   5.069   1.318   3.177
12630TIP3   OH237846   1.317   0.300   2.109
12630TIP3    H137847   1.326   0.284   2.203
12630TIP3    H237848   1.406   0.287   2.075
12631TIP3   OH237849   5.748   1.697   3.535
12631TIP3    H137850   5.700   1.625   3.576
12631TIP3    H237851   5.837   1.665   3.527
12632TIP3   OH237852   4.164   0.115   1.597
12632TIP3    H137853   4.219   0.156   1.664
12632TIP3    H237854   4.119   0.044   1.643
12633TIP3   OH237855   1.723   5.560   2.435
12633TIP3    H137856   1.789   5.583   2.500
12633TIP3    H237857   1.663   5.502   2.481
12634TIP3   OH237858   1.664   6.975   6.388
12634TIP3    H137859   1.704   6.889   6.375
12634TIP3    H237860   1.672   6.991   6.482
12635TIP3   OH237861   1.283   0.621   3.606
12635TIP3    H137862   1.356   0.676   3.633
12635TIP3    H237863   1.323   0.537   3.583
12636TIP3   OH237864   4.291   4.758   4.793
12636TIP3    H137865   4.296   4.756   4.697
12636TIP3    H237866   4.283   4.665   4.818
12637TIP3   OH237867   4.764   5.472   1.001
12637TIP3    H137868   4.722   5.551   1.034
12637TIP3    H237869   4.818   5.441   1.074
12638TIP3   OH237870   2.056   5.659   0.223
12638TIP3    H137871   1.975   5.637   0.268
12638TIP3    H237872   2.030   5.673   0.132
12639TIP3   OH237873   3.686   0.965   1.205
12639TIP3    H137874   3.766   0.979   1.155
12639TIP3    H237875   3.707   0.999   1.292
12640TIP3   OH237876   6.712   0.355   0.949
12640TIP3    H137877   6.686   0.357   0.857
12640TIP3    H237878   6.798   0.315   0.948
12641TIP3   OH237879   7.287   4.379   0.765
12641TIP3    H137880   7.226   4.440   0.725
12641TIP3    H237881   7.321   4.327   0.692
12642TIP3   OH237882   6.471   0.961   0.778
12642TIP3    H137883   6.442   0.881   0.734
12642TIP3    H237884   6.508   1.015   0.708
12643TIP3   OH237885   1.437   5.585   1.898
12643TIP3    H137886   1.402   5.674   1.890
12643TIP3    H237887   1.363   5.533   1.929
12644TIP3   OH237888   1.755   1.124   4.327
12644TIP3    H137889   1.784   1.046   4.279
12644TIP3    H237890   1.669   1.143   4.291
12645TIP3   OH237891   6.963   7.235   1.789
12645TIP3    H137892   6.898   7.165   1.796
12645TIP3    H237893   7.021   7.206   1.718
12646TIP3   OH237894   7.706   5.654   6.082
12646TIP3    H137895   7.692   5.561   6.099
12646TIP3    H237896   7.624   5.696   6.105
12647TIP3   OH237897   2.727   1.900   1.224
12647TIP3    H137898   2.730   1.887   1.129
12647TIP3    H237899   2.663   1.836   1.255
12648TIP3   OH237900   2.224   2.639   4.314
12648TIP3    H137901   2.210   2.545   4.303
12648TIP3    H237902   2.210   2.675   4.227
12649TIP3   OH237903   0.169   7.184   6.442
12649TIP3    H137904   0.176   7.150   6.531
12649TIP3    H237905   0.103   7.253   6.448
12650TIP3   OH237906   1.110   3.044   2.764
12650TIP3    H137907   1.101   3.021   2.672
12650TIP3    H237908   1.177   2.985   2.798
12651TIP3   OH237909   8.270   2.700   4.239
12651TIP3    H137910   8.347   2.748   4.208
12651TIP3    H237911   8.270   2.619   4.187
12652TIP3   OH237912   3.198   6.414   6.631
12652TIP3    H137913   3.200   6.318   6.627
12652TIP3    H237914   3.111   6.437   6.597
12653TIP3   OH237915   7.423   6.272   3.815
12653TIP3    H137916   7.349   6.316   3.775
12653TIP3    H237917   7.448   6.203   3.753
12654TIP3   OH237918   4.064   4.615   5.109
12654TIP3    H137919   4.013   4.535   5.127
12654TIP3    H237920   4.129   4.618   5.179
12655TIP3   OH237921   3.546   4.415   0.144
12655TIP3    H137922   3.505   4.330   0.127
12655TIP3    H237923   3.552   4.457   0.058
12656TIP3   OH237924   7.709   2.736   1.679
12656TIP3    H137925   7.770   2.726   1.752
12656TIP3    H237926   7.623   2.740   1.721
12657TIP3   OH237927   3.510   5.815   3.585
12657TIP3    H137928   3.442   5.806   3.652
12657TIP3    H237929   3.499   5.739   3.528
12658TIP3   OH237930   7.553   4.216   5.958
12658TIP3    H137931   7.619   4.230   6.025
12658TIP3    H237932   7.573   4.129   5.923
12659TIP3   OH237933   4.054   2.207   2.172
12659TIP3    H137934   4.026   2.171   2.089
12659TIP3    H237935   4.144   2.178   2.183
12660TIP3   OH237936   7.885   7.589   5.672
12660TIP3    H137937   7.947   7.539   5.619
12660TIP3    H237938   7.817   7.616   5.611
12661TIP3   OH237939   8.282   6.839   0.541
12661TIP3    H137940   8.267   6.767   0.480
12661TIP3    H237941   8.286   6.917   0.487
12662TIP3   OH237942   7.010   7.480   0.613
12662TIP3    H137943   6.957   7.559   0.627
12662TIP3    H237944   7.090   7.496   0.664
12663TIP3   OH237945   5.038   1.791   0.567
12663TIP3    H137946   4.990   1.756   0.642
12663TIP3    H237947   5.107   1.844   0.605
12664TIP3   OH237948   1.388   0.390   5.278
12664TIP3    H137949   1.366   0.346   5.196
12664TIP3    H237950   1.354   0.332   5.346
12665TIP3   OH237951   6.104   4.476   0.982
12665TIP3    H137952   6.133   4.555   1.025
12665TIP3    H237953   6.016   4.497   0.950
12666TIP3   OH237954   8.007   0.874   3.189
12666TIP3    H137955   7.940   0.808   3.170
12666TIP3    H237956   8.011   0.928   3.110
12667TIP3   OH237957   4.734   5.719   1.453
12667TIP3    H137958   4.639   5.729   1.462
12667TIP3    H237959   4.760   5.665   1.528
12668TIP3   OH237960   3.537   5.329   5.328
12668TIP3    H137961   3.581   5.395   5.381
12668TIP3    H237962   3.577   5.338   5.241
12669TIP3   OH237963   3.965   1.077   6.704
12669TIP3    H137964   3.939   1.044   6.790
12669TIP3    H237965   3.964   1.000   6.647
12670TIP3   OH237966   7.826   1.282   6.070
12670TIP3    H137967   7.905   1.329   6.098
12670TIP3    H237968   7.759   1.308   6.134
12671TIP3   OH237969   8.204   3.651   5.194
12671TIP3    H137970   8.194   3.556   5.185
12671TIP3    H237971   8.298   3.664   5.206
12672TIP3   OH237972   6.890   4.076   1.084
12672TIP3    H137973   6.918   4.066   1.175
12672TIP3    H237974   6.935   4.154   1.053
12673TIP3   OH237975   0.793   4.670   1.764
12673TIP3    H137976   0.722   4.734   1.766
12673TIP3    H237977   0.780   4.617   1.842
12674TIP3   OH237978   4.052   1.173   2.695
12674TIP3    H137979   3.983   1.145   2.755
12674TIP3    H237980   4.004   1.207   2.619
12675TIP3   OH237981   1.205   0.304   1.292
12675TIP3    H137982   1.229   0.302   1.200
12675TIP3    H237983   1.227   0.392   1.321
12676TIP3   OH237984   2.598   4.238   1.540
12676TIP3    H137985   2.503   4.237   1.531
12676TIP3    H237986   2.618   4.325   1.575
12677TIP3   OH237987   3.267   1.180   5.535
12677TIP3    H137988   3.277   1.128   5.615
12677TIP3    H237989   3.233   1.118   5.470
12678TIP3   OH237990   2.305   7.711   3.241
12678TIP3    H137991   2.252   7.789   3.256
12678TIP3    H237992   2.337   7.721   3.151
12679TIP3   OH237993   0.273   6.598   1.167
12679TIP3    H137994   0.253   6.505   1.179
12679TIP3    H237995   0.368   6.603   1.170
12680TIP3   OH237996   4.958   2.331   0.710
12680TIP3    H137997   4.954   2.236   0.703
12680TIP3    H237998   4.914   2.363   0.631
12681TIP3   OH237999   0.925   1.279   1.560
12681TIP3    H138000   0.872   1.357   1.546
12681TIP3    H238001   0.866   1.219   1.606
12682TIP3   OH238002   7.731   3.275   4.055
12682TIP3    H138003   7.780   3.206   4.011
12682TIP3    H238004   7.645   3.237   4.070
12683TIP3   OH238005   2.937   7.554   0.253
12683TIP3    H138006   2.913   7.560   0.346
12683TIP3    H238007   3.000   7.482   0.250
12684TIP3   OH238008   5.414   0.415   1.465
12684TIP3    H138009   5.486   0.365   1.424
12684TIP3    H238010   5.370   0.350   1.520
12685TIP3   OH238011   4.515   1.708   5.401
12685TIP3    H138012   4.516   1.641   5.333
12685TIP3    H238013   4.596   1.757   5.388
12686TIP3   OH238014   8.107   6.686   3.303
12686TIP3    H138015   8.031   6.740   3.283
12686TIP3    H238016   8.175   6.716   3.243
12687TIP3   OH238017   2.352   7.596   6.033
12687TIP3    H138018   2.327   7.688   6.035
12687TIP3    H238019   2.420   7.591   5.966
12688TIP3   OH238020   4.285   2.478   5.830
12688TIP3    H138021   4.191   2.480   5.850
12688TIP3    H238022   4.315   2.567   5.849
12689TIP3   OH238023   3.475   2.387   5.591
12689TIP3    H138024   3.566   2.407   5.614
12689TIP3    H238025   3.428   2.388   5.674
12690TIP3   OH238026   6.194   0.097   3.238
12690TIP3    H138027   6.152   0.012   3.224
12690TIP3    H238028   6.251   0.108   3.161
12691TIP3   OH238029   1.260   6.972   0.503
12691TIP3    H138030   1.306   7.013   0.430
12691TIP3    H238031   1.208   7.043   0.541
12692TIP3   OH238032   0.989   3.516   6.176
12692TIP3    H138033   0.952   3.442   6.224
12692TIP3    H238034   0.929   3.588   6.192
12693TIP3   OH238035   1.896   6.800   2.133
12693TIP3    H138036   1.978   6.835   2.098
12693TIP3    H238037   1.832   6.817   2.064
12694TIP3   OH238038   4.298   5.448   0.064
12694TIP3    H138039   4.230   5.466  -0.001
12694TIP3    H238040   4.366   5.512   0.046
12695TIP3   OH238041   6.718   7.016   1.918
12695TIP3    H138042   6.626   6.998   1.940
12695TIP3    H238043   6.733   6.966   1.838
12696TIP3   OH238044   6.950   4.690   2.562
12696TIP3    H138045   6.978   4.776   2.594
12696TIP3    H238046   6.994   4.628   2.620
12697TIP3   OH238047   8.089   6.271   1.853
12697TIP3    H138048   8.127   6.284   1.766
12697TIP3    H238049   8.072   6.360   1.885
12698TIP3   OH238050   1.023   4.541   3.530
12698TIP3    H138051   0.936   4.580   3.541
12698TIP3    H238052   1.028   4.474   3.598
12699TIP3   OH238053   5.664   0.525   3.613
12699TIP3    H138054   5.607   0.449   3.624
12699TIP3    H238055   5.696   0.518   3.523
12700TIP3   OH238056   2.938   3.030   4.414
12700TIP3    H138057   2.968   3.001   4.500
12700TIP3    H238058   2.847   3.002   4.409
12701TIP3   OH238059   4.550   2.553   3.518
12701TIP3    H138060   4.639   2.523   3.500
12701TIP3    H238061   4.534   2.526   3.609
12702TIP3   OH238062   2.413   2.146   3.363
12702TIP3    H138063   2.344   2.167   3.301
12702TIP3    H238064   2.439   2.057   3.341
12703TIP3   OH238065   3.458   0.120   6.536
12703TIP3    H138066   3.423   0.200   6.577
12703TIP3    H238067   3.389   0.055   6.548
12704TIP3   OH238068   5.063   5.116   0.562
12704TIP3    H138069   5.025   5.134   0.476
12704TIP3    H238070   5.095   5.201   0.592
12705TIP3   OH238071   2.862   5.505   5.716
12705TIP3    H138072   2.885   5.465   5.799
12705TIP3    H238073   2.878   5.437   5.651
12706TIP3   OH238074   5.184   6.897   0.833
12706TIP3    H138075   5.178   6.846   0.753
12706TIP3    H238076   5.246   6.967   0.813
12707TIP3   OH238077   6.436   0.706   2.449
12707TIP3    H138078   6.510   0.755   2.486
12707TIP3    H238079   6.427   0.740   2.360
12708TIP3   OH238080   5.305   2.874   2.116
12708TIP3    H138081   5.358   2.814   2.169
12708TIP3    H238082   5.218   2.871   2.156
12709TIP3   OH238083   3.365   3.854   6.142
12709TIP3    H138084   3.341   3.778   6.194
12709TIP3    H238085   3.308   3.924   6.174
12710TIP3   OH238086   5.847   7.559   1.426
12710TIP3    H138087   5.861   7.501   1.500
12710TIP3    H238088   5.882   7.644   1.455
12711TIP3   OH238089   4.602   7.254   3.936
12711TIP3    H138090   4.522   7.235   3.887
12711TIP3    H238091   4.659   7.298   3.873
12712TIP3   OH238092   5.259   3.366   3.177
12712TIP3    H138093   5.201   3.301   3.137
12712TIP3    H238094   5.211   3.448   3.171
12713TIP3   OH238095   1.071   3.175   2.472
12713TIP3    H138096   1.024   3.092   2.475
12713TIP3    H238097   1.150   3.156   2.422
12714TIP3   OH238098   7.340   5.254   4.501
12714TIP3    H138099   7.399   5.179   4.507
12714TIP3    H238100   7.300   5.259   4.588
12715TIP3   OH238101   7.682   5.450   1.947
12715TIP3    H138102   7.587   5.445   1.943
12715TIP3    H238103   7.709   5.370   1.993
12716TIP3   OH238104   5.694   3.437   5.004
12716TIP3    H138105   5.712   3.528   5.025
12716TIP3    H238106   5.730   3.388   5.077
12717TIP3   OH238107   7.127   4.109   2.244
12717TIP3    H138108   7.102   4.191   2.288
12717TIP3    H238109   7.052   4.089   2.187
12718TIP3   OH238110   5.709   4.281   0.904
12718TIP3    H138111   5.766   4.348   0.941
12718TIP3    H238112   5.652   4.328   0.843
12719TIP3   OH238113   2.626   1.762   3.374
12719TIP3    H138114   2.535   1.733   3.381
12719TIP3    H238115   2.641   1.771   3.280
12720TIP3   OH238116   4.423   3.567   1.615
12720TIP3    H138117   4.480   3.543   1.688
12720TIP3    H238118   4.412   3.486   1.565
12721TIP3   OH238119   1.437   7.261   5.236
12721TIP3    H138120   1.413   7.224   5.321
12721TIP3    H238121   1.354   7.282   5.194
12722TIP3   OH238122   1.472   5.976   4.365
12722TIP3    H138123   1.504   6.066   4.355
12722TIP3    H238124   1.474   5.940   4.276
12723TIP3   OH238125   2.549   0.845   6.664
12723TIP3    H138126   2.576   0.855   6.755
12723TIP3    H238127   2.548   0.935   6.630
12724TIP3   OH238128   5.981   0.753   1.859
12724TIP3    H138129   5.938   0.833   1.826
12724TIP3    H238130   6.011   0.776   1.947
12725TIP3   OH238131   2.178   4.481   0.203
12725TIP3    H138132   2.219   4.494   0.117
12725TIP3    H238133   2.223   4.544   0.260
12726TIP3   OH238134   2.294   2.330   1.577
12726TIP3    H138135   2.315   2.416   1.612
12726TIP3    H238136   2.379   2.289   1.561
12727TIP3   OH238137   0.723   6.930   5.906
12727TIP3    H138138   0.657   6.895   5.847
12727TIP3    H238139   0.768   6.853   5.940
12728TIP3   OH238140   2.736   5.930   2.481
12728TIP3    H138141   2.768   6.005   2.432
12728TIP3    H238142   2.790   5.929   2.560
12729TIP3   OH238143   7.004   2.279   0.876
12729TIP3    H138144   7.087   2.242   0.845
12729TIP3    H238145   6.945   2.204   0.880
12730TIP3   OH238146   2.839   2.668   6.223
12730TIP3    H138147   2.748   2.693   6.205
12730TIP3    H238148   2.867   2.623   6.144
12731TIP3   OH238149   5.635   7.441   5.381
12731TIP3    H138150   5.640   7.348   5.403
12731TIP3    H238151   5.693   7.451   5.305
12732TIP3   OH238152   2.708   5.770   0.463
12732TIP3    H138153   2.663   5.851   0.440
12732TIP3    H238154   2.671   5.705   0.403
12733TIP3   OH238155   3.435   0.280   3.560
12733TIP3    H138156   3.399   0.221   3.627
12733TIP3    H238157   3.443   0.225   3.482
12734TIP3   OH238158   5.089   1.201   5.744
12734TIP3    H138159   5.069   1.160   5.660
12734TIP3    H238160   5.003   1.215   5.785
12735TIP3   OH238161   6.851   5.450   3.675
12735TIP3    H138162   6.834   5.543   3.657
12735TIP3    H238163   6.946   5.442   3.672
12736TIP3   OH238164   6.085   4.604   2.184
12736TIP3    H138165   6.130   4.621   2.101
12736TIP3    H238166   6.149   4.555   2.236
12737TIP3   OH238167   5.105   2.805   1.268
12737TIP3    H138168   5.178   2.747   1.290
12737TIP3    H238169   5.132   2.847   1.186
12738TIP3   OH238170   3.100   1.398   4.077
12738TIP3    H138171   3.062   1.434   3.997
12738TIP3    H238172   3.064   1.309   4.082
12739TIP3   OH238173   6.385   7.616   2.632
12739TIP3    H138174   6.337   7.559   2.692
12739TIP3    H238175   6.322   7.685   2.610
12740TIP3   OH238176   4.322   3.629   4.667
12740TIP3    H138177   4.291   3.610   4.578
12740TIP3    H238178   4.392   3.692   4.655
12741TIP3   OH238179   6.674   4.963   0.453
12741TIP3    H138180   6.595   4.972   0.506
12741TIP3    H238181   6.716   5.049   0.456
12742TIP3   OH238182   5.290   4.375   5.295
12742TIP3    H138183   5.212   4.422   5.327
12742TIP3    H238184   5.356   4.391   5.362
12743TIP3   OH238185   7.547   6.481   3.658
12743TIP3    H138186   7.473   6.540   3.673
12743TIP3    H238187   7.520   6.398   3.698
12744TIP3   OH238188   8.314   5.775   4.362
12744TIP3    H138189   8.293   5.755   4.271
12744TIP3    H238190   8.238   5.823   4.394
12745TIP3   OH238191   8.168   6.693   5.810
12745TIP3    H138192   8.104   6.759   5.784
12745TIP3    H238193   8.122   6.639   5.874
12746TIP3   OH238194   6.160   4.639   3.406
12746TIP3    H138195   6.242   4.661   3.362
12746TIP3    H238196   6.102   4.713   3.388
12747TIP3   OH238197   3.480   1.135   1.730
12747TIP3    H138198   3.476   1.141   1.635
12747TIP3    H238199   3.454   1.222   1.761
12748TIP3   OH238200   3.427   7.710   1.063
12748TIP3    H138201   3.414   7.791   1.015
12748TIP3    H238202   3.521   7.709   1.083
12749TIP3   OH238203   4.927   6.891   6.140
12749TIP3    H138204   4.961   6.981   6.146
12749TIP3    H238205   4.841   6.901   6.100
12750TIP3   OH238206   6.338   0.464   3.066
12750TIP3    H138207   6.429   0.449   3.091
12750TIP3    H238208   6.332   0.430   2.976
12751TIP3   OH238209   1.270   0.501   0.691
12751TIP3    H138210   1.200   0.437   0.703
12751TIP3    H238211   1.255   0.537   0.604
12752TIP3   OH238212   0.313   4.158   2.777
12752TIP3    H138213   0.335   4.127   2.864
12752TIP3    H238214   0.393   4.147   2.726
12753TIP3   OH238215   6.187   2.566   4.633
12753TIP3    H138216   6.173   2.552   4.727
12753TIP3    H238217   6.215   2.480   4.600
12754TIP3   OH238218   3.101   4.976   5.700
12754TIP3    H138219   3.058   4.894   5.725
12754TIP3    H238220   3.167   4.950   5.635
12755TIP3   OH238221   5.428   7.678   6.556
12755TIP3    H138222   5.351   7.661   6.500
12755TIP3    H238223   5.500   7.688   6.494
12756TIP3   OH238224   4.082   4.743   4.463
12756TIP3    H138225   4.036   4.662   4.437
12756TIP3    H238226   4.056   4.756   4.554
12757TIP3   OH238227   0.020   0.017   0.124
12757TIP3    H138228   0.043  -0.007   0.214
12757TIP3    H238229   0.076   0.092   0.104
12758TIP3   OH238230   1.514   5.069   1.730
12758TIP3    H138231   1.584   5.112   1.680
12758TIP3    H238232   1.550   4.983   1.751
12759TIP3   OH238233   5.647   2.046   5.854
12759TIP3    H138234   5.579   1.990   5.891
12759TIP3    H238235   5.601   2.126   5.828
12760TIP3   OH238236   4.441   4.342   0.986
12760TIP3    H138237   4.501   4.283   1.032
12760TIP3    H238238   4.368   4.353   1.047
12761TIP3   OH238239   5.576   6.612   1.156
12761TIP3    H138240   5.523   6.674   1.205
12761TIP3    H238241   5.546   6.620   1.065
12762TIP3   OH238242   2.637   4.449   4.659
12762TIP3    H138243   2.600   4.489   4.581
12762TIP3    H238244   2.656   4.358   4.634
12763TIP3   OH238245   0.482   0.149   5.384
12763TIP3    H138246   0.455   0.184   5.469
12763TIP3    H238247   0.449   0.060   5.382
12764TIP3   OH238248   2.549   5.404   3.047
12764TIP3    H138249   2.572   5.481   3.099
12764TIP3    H238250   2.490   5.438   2.979
12765TIP3   OH238251   6.382   1.033   3.036
12765TIP3    H138252   6.386   1.120   3.077
12765TIP3    H238253   6.444   0.980   3.086
12766TIP3   OH238254   0.940   6.090   6.602
12766TIP3    H138255   0.867   6.032   6.626
12766TIP3    H238256   0.965   6.062   6.514
12767TIP3   OH238257   5.427   6.531   1.773
12767TIP3    H138258   5.401   6.467   1.707
12767TIP3    H238259   5.518   6.550   1.754
12768TIP3   OH238260   2.670   0.835   5.291
12768TIP3    H138261   2.712   0.832   5.377
12768TIP3    H238262   2.703   0.914   5.250
12769TIP3   OH238263   7.331   5.767   3.749
12769TIP3    H138264   7.384   5.758   3.827
12769TIP3    H238265   7.243   5.788   3.782
12770TIP3   OH238266   4.778   7.261   2.082
12770TIP3    H138267   4.816   7.293   2.000
12770TIP3    H238268   4.738   7.177   2.058
12771TIP3   OH238269   5.509   5.456   3.951
12771TIP3    H138270   5.427   5.457   4.002
12771TIP3    H238271   5.547   5.370   3.969
12772TIP3   OH238272   5.880   0.145   5.553
12772TIP3    H138273   5.851   0.116   5.639
12772TIP3    H238274   5.975   0.134   5.555
12773TIP3   OH238275   3.226   7.190   0.763
12773TIP3    H138276   3.249   7.275   0.726
12773TIP3    H238277   3.191   7.140   0.689
12774TIP3   OH238278   2.388   6.667   5.657
12774TIP3    H138279   2.315   6.709   5.613
12774TIP3    H238280   2.397   6.582   5.613
12775TIP3   OH238281   8.219   6.145   4.393
12775TIP3    H138282   8.303   6.184   4.417
12775TIP3    H238283   8.185   6.110   4.475
12776TIP3   OH238284   7.370   5.338   6.035
12776TIP3    H138285   7.463   5.360   6.034
12776TIP3    H238286   7.330   5.400   5.974
12777TIP3   OH238287   3.023   5.846   6.139
12777TIP3    H138288   3.014   5.932   6.178
12777TIP3    H238289   3.058   5.862   6.051
12778TIP3   OH238290   5.036   4.348   4.887
12778TIP3    H138291   5.096   4.275   4.871
12778TIP3    H238292   4.994   4.326   4.970
12779TIP3   OH238293   0.075   7.029   3.407
12779TIP3    H138294   0.118   7.082   3.474
12779TIP3    H238295   0.068   6.942   3.445
12780TIP3   OH238296   4.692   4.189   4.691
12780TIP3    H138297   4.607   4.202   4.648
12780TIP3    H238298   4.699   4.094   4.701
12781TIP3   OH238299   4.764   4.596   6.007
12781TIP3    H138300   4.751   4.650   5.929
12781TIP3    H238301   4.849   4.624   6.041
12782TIP3   OH238302   7.718   5.576   0.215
12782TIP3    H138303   7.636   5.528   0.227
12782TIP3    H238304   7.784   5.522   0.259
12783TIP3   OH238305   5.312   7.373   1.130
12783TIP3    H138306   5.372   7.406   1.063
12783TIP3    H238307   5.351   7.290   1.158
12784TIP3   OH238308   4.495   5.221   4.032
12784TIP3    H138309   4.493   5.160   3.958
12784TIP3    H238310   4.510   5.165   4.109
12785TIP3   OH238311   0.284   1.473   0.967
12785TIP3    H138312   0.210   1.437   1.016
12785TIP3    H238313   0.247   1.546   0.917
12786TIP3   OH238314   2.054   2.657   0.683
12786TIP3    H138315   2.116   2.673   0.612
12786TIP3    H238316   2.096   2.588   0.735
12787TIP3   OH238317   6.818   0.168   2.991
12787TIP3    H138318   6.803   0.257   2.960
12787TIP3    H238319   6.802   0.112   2.914
12788TIP3   OH238320   4.570   0.619   0.195
12788TIP3    H138321   4.565   0.690   0.259
12788TIP3    H238322   4.488   0.570   0.206
12789TIP3   OH238323   4.059   6.738   2.885
12789TIP3    H138324   4.044   6.687   2.965
12789TIP3    H238325   4.014   6.689   2.816
12790TIP3   OH238326   1.030   0.176   0.160
12790TIP3    H138327   1.070   0.158   0.075
12790TIP3    H238328   1.102   0.207   0.215
12791TIP3   OH238329   4.237   1.367   2.102
12791TIP3    H138330   4.174   1.400   2.167
12791TIP3    H238331   4.286   1.445   2.075
12792TIP3   OH238332   0.457   5.485   1.117
12792TIP3    H138333   0.426   5.494   1.027
12792TIP3    H238334   0.392   5.532   1.170
12793TIP3   OH238335   2.134   5.976   0.869
12793TIP3    H138336   2.050   6.019   0.881
12793TIP3    H238337   2.113   5.882   0.875
12794TIP3   OH238338   5.972   4.762   1.531
12794TIP3    H138339   5.980   4.811   1.613
12794TIP3    H238340   6.014   4.817   1.466
12795TIP3   OH238341   0.118   1.961   6.616
12795TIP3    H138342   0.060   1.907   6.563
12795TIP3    H238343   0.189   1.902   6.640
12796TIP3   OH238344   4.931   3.517   0.101
12796TIP3    H138345   4.895   3.468   0.174
12796TIP3    H238346   4.897   3.474   0.023
12797TIP3   OH238347   3.304   0.567   6.259
12797TIP3    H138348   3.376   0.512   6.289
12797TIP3    H238349   3.228   0.509   6.256
12798TIP3   OH238350   4.178   2.028   4.449
12798TIP3    H138351   4.236   1.968   4.495
12798TIP3    H238352   4.234   2.074   4.388
12799TIP3   OH238353   5.387   5.021   2.610
12799TIP3    H138354   5.407   4.928   2.623
12799TIP3    H238355   5.432   5.043   2.528
12800TIP3   OH238356   3.872   2.069   6.310
12800TIP3    H138357   3.779   2.067   6.333
12800TIP3    H238358   3.905   1.983   6.334
12801TIP3   OH238359   4.064   4.182   2.108
12801TIP3    H138360   4.053   4.173   2.013
12801TIP3    H238361   4.126   4.113   2.131
12802TIP3   OH238362   4.262   3.000   1.936
12802TIP3    H138363   4.217   3.070   1.888
12802TIP3    H238364   4.205   2.924   1.925
12803TIP3   OH238365   6.486   5.357   3.377
12803TIP3    H138366   6.420   5.402   3.324
12803TIP3    H238367   6.469   5.387   3.466
12804TIP3   OH238368   7.321   5.238   5.008
12804TIP3    H138369   7.251   5.231   5.072
12804TIP3    H238370   7.384   5.171   5.034
12805TIP3   OH238371   4.398   1.689   6.130
12805TIP3    H138372   4.377   1.762   6.072
12805TIP3    H238373   4.382   1.723   6.218
12806TIP3   OH238374   6.149   5.993   4.591
12806TIP3    H138375   6.074   5.941   4.562
12806TIP3    H238376   6.160   5.968   4.683
12807TIP3   OH238377   7.137   6.682   2.049
12807TIP3    H138378   7.082   6.760   2.045
12807TIP3    H238379   7.196   6.697   2.122
12808TIP3   OH238380   6.963   3.542   3.929
12808TIP3    H138381   6.999   3.623   3.965
12808TIP3    H238382   6.891   3.520   3.988
12809TIP3   OH238383   3.992   4.710   2.701
12809TIP3    H138384   4.046   4.632   2.716
12809TIP3    H238385   4.056   4.782   2.695
12810TIP3   OH238386   7.296   6.549   5.078
12810TIP3    H138387   7.351   6.497   5.136
12810TIP3    H238388   7.270   6.487   5.009
12811TIP3   OH238389   1.057   0.170   6.446
12811TIP3    H138390   1.149   0.157   6.424
12811TIP3    H238391   1.009   0.134   6.371
12812TIP3   OH238392   0.570   7.827   3.129
12812TIP3    H138393   0.516   7.855   3.056
12812TIP3    H238394   0.584   7.733   3.114
12813TIP3   OH238395   2.834   7.591   1.237
12813TIP3    H138396   2.869   7.510   1.274
12813TIP3    H238397   2.797   7.564   1.153
12814TIP3   OH238398   1.210   6.362   2.517
12814TIP3    H138399   1.213   6.413   2.598
12814TIP3    H238400   1.134   6.305   2.528
12815TIP3   OH238401   8.094   0.927   3.438
12815TIP3    H138402   8.065   0.923   3.347
12815TIP3    H238403   8.189   0.936   3.433
12816TIP3   OH238404   2.085   6.049   4.279
12816TIP3    H138405   2.116   6.140   4.275
12816TIP3    H238406   2.131   6.005   4.208
12817TIP3   OH238407   1.961   0.442   4.060
12817TIP3    H138408   1.963   0.346   4.068
12817TIP3    H238409   1.897   0.469   4.125
12818TIP3   OH238410   3.774   5.504   1.530
12818TIP3    H138411   3.810   5.428   1.484
12818TIP3    H238412   3.710   5.541   1.469
12819TIP3   OH238413   3.958   5.625   4.538
12819TIP3    H138414   3.907   5.658   4.611
12819TIP3    H238415   4.039   5.592   4.578
12820TIP3   OH238416   3.768   0.782   4.002
12820TIP3    H138417   3.821   0.840   3.947
12820TIP3    H238418   3.729   0.839   4.067
12821TIP3   OH238419   2.421   3.610   0.431
12821TIP3    H138420   2.497   3.601   0.489
12821TIP3    H238421   2.364   3.537   0.454
12822TIP3   OH238422   5.393   2.662   4.630
12822TIP3    H138423   5.304   2.688   4.604
12822TIP3    H238424   5.383   2.629   4.719
12823TIP3   OH238425   2.273   3.319   2.854
12823TIP3    H138426   2.316   3.354   2.776
12823TIP3    H238427   2.312   3.367   2.927
12824TIP3   OH238428   4.590   1.121   4.415
12824TIP3    H138429   4.512   1.065   4.412
12824TIP3    H238430   4.660   1.064   4.446
12825TIP3   OH238431   3.713   6.160   3.402
12825TIP3    H138432   3.754   6.088   3.450
12825TIP3    H238433   3.620   6.135   3.398
12826TIP3   OH238434   1.144   3.675   5.128
12826TIP3    H138435   1.136   3.753   5.183
12826TIP3    H238436   1.221   3.629   5.163
12827TIP3   OH238437   0.460   7.666   5.888
12827TIP3    H138438   0.378   7.715   5.876
12827TIP3    H238439   0.433   7.574   5.887
12828TIP3   OH238440   1.361   0.368   1.626
12828TIP3    H138441   1.302   0.396   1.555
12828TIP3    H238442   1.439   0.335   1.581
12829TIP3   OH238443   2.770   4.351   6.342
12829TIP3    H138444   2.719   4.378   6.418
12829TIP3    H238445   2.847   4.307   6.378
12830TIP3   OH238446   0.486   2.294   5.921
12830TIP3    H138447   0.458   2.383   5.902
12830TIP3    H238448   0.536   2.301   6.002
12831TIP3   OH238449   1.443   2.322   5.152
12831TIP3    H138450   1.500   2.343   5.226
12831TIP3    H238451   1.415   2.407   5.118
12832TIP3   OH238452   7.722   3.990   2.539
12832TIP3    H138453   7.659   4.037   2.595
12832TIP3    H238454   7.770   4.059   2.494
12833TIP3   OH238455   3.239   4.685   2.209
12833TIP3    H138456   3.325   4.700   2.170
12833TIP3    H238457   3.185   4.756   2.175
12834TIP3   OH238458   7.370   7.031   5.058
12834TIP3    H138459   7.381   6.937   5.045
12834TIP3    H238460   7.288   7.051   5.012
12835TIP3   OH238461   1.636   1.005   5.278
12835TIP3    H138462   1.636   1.026   5.371
12835TIP3    H238463   1.545   0.980   5.259
12836TIP3   OH238464   4.845   1.610   3.142
12836TIP3    H138465   4.796   1.631   3.221
12836TIP3    H238466   4.783   1.561   3.088
12837TIP3   OH238467   0.823   4.345   1.376
12837TIP3    H138468   0.817   4.278   1.308
12837TIP3    H238469   0.820   4.296   1.458
12838TIP3   OH238470   3.395   0.473   5.415
12838TIP3    H138471   3.490   0.466   5.404
12838TIP3    H238472   3.358   0.421   5.344
12839TIP3   OH238473   1.846   7.269   4.440
12839TIP3    H138474   1.757   7.254   4.472
12839TIP3    H238475   1.857   7.364   4.444
12840TIP3   OH238476   5.797   6.301   2.571
12840TIP3    H138477   5.814   6.351   2.651
12840TIP3    H238478   5.711   6.332   2.541
12841TIP3   OH238479   0.152   3.714   0.445
12841TIP3    H138480   0.108   3.794   0.417
12841TIP3    H238481   0.234   3.744   0.485
12842TIP3   OH238482   2.306   1.218   1.555
12842TIP3    H138483   2.221   1.177   1.543
12842TIP3    H238484   2.309   1.240   1.648
12843TIP3   OH238485   6.344   6.367   6.344
12843TIP3    H138486   6.371   6.318   6.422
12843TIP3    H238487   6.391   6.450   6.350
12844TIP3   OH238488   7.950   6.421   3.241
12844TIP3    H138489   7.899   6.469   3.176
12844TIP3    H238490   8.015   6.483   3.272
12845TIP3   OH238491   8.229   0.510   2.226
12845TIP3    H138492   8.284   0.439   2.192
12845TIP3    H238493   8.260   0.524   2.315
12846TIP3   OH238494   1.384   4.142   1.223
12846TIP3    H138495   1.372   4.217   1.280
12846TIP3    H238496   1.295   4.118   1.196
12847TIP3   OH238497   5.587   7.235   4.418
12847TIP3    H138498   5.568   7.303   4.483
12847TIP3    H238499   5.629   7.282   4.346
12848TIP3   OH238500   2.690   1.923   3.587
12848TIP3    H138501   2.666   1.871   3.511
12848TIP3    H238502   2.607   1.960   3.618
12849TIP3   OH238503   1.224   5.131   6.412
12849TIP3    H138504   1.194   5.062   6.352
12849TIP3    H238505   1.256   5.201   6.354
12850TIP3   OH238506   4.457   0.252   4.930
12850TIP3    H138507   4.379   0.209   4.964
12850TIP3    H238508   4.449   0.343   4.958
12851TIP3   OH238509   4.069   6.095   4.974
12851TIP3    H138510   4.024   6.052   5.047
12851TIP3    H238511   4.037   6.049   4.896
12852TIP3   OH238512   3.153   0.112   2.923
12852TIP3    H138513   3.073   0.062   2.934
12852TIP3    H238514   3.127   0.204   2.936
12853TIP3   OH238515   0.451   7.777   0.816
12853TIP3    H138516   0.368   7.778   0.769
12853TIP3    H238517   0.488   7.690   0.799
12854TIP3   OH238518   7.905   6.530   3.717
12854TIP3    H138519   7.915   6.444   3.675
12854TIP3    H238520   7.881   6.589   3.646
12855TIP3   OH238521   2.455   3.003   0.047
12855TIP3    H138522   2.433   3.094   0.068
12855TIP3    H238523   2.393   2.951   0.099
12856TIP3   OH238524   3.550   7.585   1.987
12856TIP3    H138525   3.477   7.633   2.025
12856TIP3    H238526   3.517   7.555   1.902
12857TIP3   OH238527   6.978   4.829   6.023
12857TIP3    H138528   6.921   4.757   6.050
12857TIP3    H238529   7.054   4.824   6.081
12858TIP3   OH238530   3.920   1.962   2.352
12858TIP3    H138531   3.900   2.037   2.407
12858TIP3    H238532   3.897   1.990   2.263
12859TIP3   OH238533   0.553   4.054   2.199
12859TIP3    H138534   0.470   4.100   2.186
12859TIP3    H238535   0.536   3.966   2.166
12860TIP3   OH238536   2.110   5.751   6.631
12860TIP3    H138537   2.055   5.722   6.558
12860TIP3    H238538   2.132   5.841   6.611
12861TIP3   OH238539   2.881   5.473   5.063
12861TIP3    H138540   2.844   5.431   4.985
12861TIP3    H238541   2.831   5.438   5.136
12862TIP3   OH238542   5.401   4.548   6.785
12862TIP3    H138543   5.405   4.466   6.735
12862TIP3    H238544   5.491   4.565   6.811
12863TIP3   OH238545   6.510   5.600   0.179
12863TIP3    H138546   6.605   5.614   0.182
12863TIP3    H238547   6.492   5.548   0.257
12864TIP3   OH238548   6.342   2.867   5.581
12864TIP3    H138549   6.337   2.776   5.610
12864TIP3    H238550   6.367   2.915   5.660
12865TIP3   OH238551   6.363   5.821   4.118
12865TIP3    H138552   6.309   5.895   4.089
12865TIP3    H238553   6.364   5.762   4.043
12866TIP3   OH238554   6.239   6.224   1.854
12866TIP3    H138555   6.220   6.301   1.801
12866TIP3    H238556   6.290   6.257   1.928
12867TIP3   OH238557   2.991   2.357   2.189
12867TIP3    H138558   2.962   2.352   2.280
12867TIP3    H238559   2.947   2.434   2.153
12868TIP3   OH238560   2.978   5.668   3.158
12868TIP3    H138561   3.052   5.672   3.219
12868TIP3    H238562   2.919   5.738   3.187
12869TIP3   OH238563   2.880   6.341   3.143
12869TIP3    H138564   2.829   6.411   3.103
12869TIP3    H238565   2.957   6.332   3.087
12870TIP3   OH238566   4.619   6.869   1.559
12870TIP3    H138567   4.624   6.925   1.636
12870TIP3    H238568   4.534   6.826   1.566
12871TIP3   OH238569   6.527   4.234   0.366
12871TIP3    H138570   6.596   4.168   0.357
12871TIP3    H238571   6.533   4.263   0.457
12872TIP3   OH238572   3.724   3.043   1.517
12872TIP3    H138573   3.669   3.007   1.448
12872TIP3    H238574   3.772   2.968   1.551
12873TIP3   OH238575   1.616   5.079   6.673
12873TIP3    H138576   1.530   5.053   6.641
12873TIP3    H238577   1.654   5.130   6.602
12874TIP3   OH238578   5.007   2.463   5.645
12874TIP3    H138579   4.964   2.401   5.585
12874TIP3    H238580   4.935   2.518   5.678
12875TIP3   OH238581   5.851   6.381   1.820
12875TIP3    H138582   5.801   6.305   1.789
12875TIP3    H238583   5.792   6.455   1.810
12876TIP3   OH238584   1.379   1.062   4.504
12876TIP3    H138585   1.442   1.050   4.575
12876TIP3    H238586   1.398   0.992   4.442
12877TIP3   OH238587   2.269   7.417   2.923
12877TIP3    H138588   2.226   7.439   2.841
12877TIP3    H238589   2.197   7.403   2.985
12878TIP3   OH238590   5.807   1.703   5.186
12878TIP3    H138591   5.843   1.619   5.157
12878TIP3    H238592   5.875   1.739   5.243
12879TIP3   OH238593   0.482   3.077   3.153
12879TIP3    H138594   0.433   3.000   3.183
12879TIP3    H238595   0.415   3.137   3.121
12880TIP3   OH238596   3.369   5.391   5.777
12880TIP3    H138597   3.337   5.325   5.838
12880TIP3    H238598   3.464   5.376   5.773
12881TIP3   OH238599   6.629   0.518   3.524
12881TIP3    H138600   6.534   0.529   3.517
12881TIP3    H238601   6.649   0.443   3.468
12882TIP3   OH238602   5.647   4.627   3.758
12882TIP3    H138603   5.657   4.633   3.853
12882TIP3    H238604   5.602   4.544   3.744
12883TIP3   OH238605   6.709   0.415   2.937
12883TIP3    H138606   6.769   0.464   2.880
12883TIP3    H238607   6.682   0.479   3.003
12884TIP3   OH238608   3.604   2.090   1.925
12884TIP3    H138609   3.648   2.140   1.993
12884TIP3    H238610   3.671   2.029   1.893
12885TIP3   OH238611   5.072   3.057   3.509
12885TIP3    H138612   5.084   3.084   3.600
12885TIP3    H238613   5.009   2.985   3.513
12886TIP3   OH238614   1.292   6.135   3.769
12886TIP3    H138615   1.343   6.187   3.832
12886TIP3    H238616   1.258   6.200   3.708
12887TIP3   OH238617   1.371   1.769   5.421
12887TIP3    H138618   1.282   1.735   5.431
12887TIP3    H238619   1.362   1.864   5.430
12888TIP3   OH238620   4.995   0.339   1.205
12888TIP3    H138621   5.027   0.261   1.159
12888TIP3    H238622   5.074   0.390   1.222
12889TIP3   OH238623   6.299   3.446   3.647
12889TIP3    H138624   6.326   3.371   3.595
12889TIP3    H238625   6.345   3.436   3.730
12890TIP3   OH238626   4.392   2.248   1.608
12890TIP3    H138627   4.458   2.256   1.678
12890TIP3    H238628   4.352   2.163   1.622
12891TIP3   OH238629   2.338   6.021   0.110
12891TIP3    H138630   2.364   6.086   0.175
12891TIP3    H238631   2.419   5.974   0.091
12892TIP3   OH238632   2.536   6.173   5.585
12892TIP3    H138633   2.628   6.188   5.567
12892TIP3    H238634   2.535   6.094   5.640
12893TIP3   OH238635   0.031   4.114   6.025
12893TIP3    H138636  -0.015   4.032   6.041
12893TIP3    H238637   0.009   4.137   5.935
12894TIP3   OH238638   3.567   2.378   5.311
12894TIP3    H138639   3.523   2.421   5.385
12894TIP3    H238640   3.650   2.425   5.302
12895TIP3   OH238641   4.557   4.739   3.363
12895TIP3    H138642   4.501   4.796   3.415
12895TIP3    H238643   4.633   4.793   3.342
12896TIP3   OH238644   1.500   3.791   4.437
12896TIP3    H138645   1.550   3.779   4.357
12896TIP3    H238646   1.409   3.778   4.411
12897TIP3   OH238647   0.566   5.964   1.797
12897TIP3    H138648   0.479   5.947   1.834
12897TIP3    H238649   0.606   5.877   1.791
12898TIP3   OH238650   6.802   1.486   6.192
12898TIP3    H138651   6.802   1.552   6.122
12898TIP3    H238652   6.711   1.482   6.220
12899TIP3   OH238653   7.396   1.698   0.379
12899TIP3    H138654   7.466   1.752   0.343
12899TIP3    H238655   7.384   1.628   0.315
12900TIP3   OH238656   6.564   5.513   2.269
12900TIP3    H138657   6.474   5.486   2.251
12900TIP3    H238658   6.574   5.501   2.364
12901TIP3   OH238659   4.614   2.683   3.199
12901TIP3    H138660   4.689   2.698   3.141
12901TIP3    H238661   4.638   2.605   3.249
12902TIP3   OH238662   3.996   6.502   4.405
12902TIP3    H138663   4.040   6.463   4.480
12902TIP3    H238664   3.908   6.522   4.437
12903TIP3   OH238665   6.431   4.582   5.261
12903TIP3    H138666   6.400   4.555   5.174
12903TIP3    H238667   6.388   4.521   5.321
12904TIP3   OH238668   3.099   3.063   6.054
12904TIP3    H138669   3.027   3.011   6.018
12904TIP3    H238670   3.102   3.141   5.999
12905TIP3   OH238671   6.647   4.299   3.351
12905TIP3    H138672   6.677   4.234   3.287
12905TIP3    H238673   6.624   4.248   3.428
12906TIP3   OH238674   2.763   7.435   5.689
12906TIP3    H138675   2.776   7.527   5.710
12906TIP3    H238676   2.851   7.402   5.669
12907TIP3   OH238677   1.972   5.915   6.166
12907TIP3    H138678   2.030   5.924   6.241
12907TIP3    H238679   1.953   6.005   6.140
12908TIP3   OH238680   1.355   5.397   0.410
12908TIP3    H138681   1.268   5.389   0.449
12908TIP3    H238682   1.381   5.488   0.426
12909TIP3   OH238683   0.060   6.547   2.139
12909TIP3    H138684   0.147   6.518   2.166
12909TIP3    H238685   0.058   6.534   2.045
12910TIP3   OH238686   7.450   6.364   4.435
12910TIP3    H138687   7.419   6.394   4.521
12910TIP3    H238688   7.456   6.269   4.444
12911TIP3   OH238689   3.850   2.265   2.432
12911TIP3    H138690   3.796   2.338   2.403
12911TIP3    H238691   3.931   2.273   2.381
12912TIP3   OH238692   4.693   2.228   1.110
12912TIP3    H138693   4.631   2.300   1.120
12912TIP3    H238694   4.691   2.208   1.016
12913TIP3   OH238695   2.257   1.017   6.356
12913TIP3    H138696   2.308   1.033   6.435
12913TIP3    H238697   2.205   1.096   6.345
12914TIP3   OH238698   6.340   6.156   4.769
12914TIP3    H138699   6.354   6.071   4.811
12914TIP3    H238700   6.263   6.143   4.714
12915TIP3   OH238701   4.573   2.984   3.896
12915TIP3    H138702   4.497   3.020   3.852
12915TIP3    H238703   4.548   2.895   3.919
12916TIP3   OH238704   2.731   1.422   6.153
12916TIP3    H138705   2.657   1.390   6.102
12916TIP3    H238706   2.808   1.387   6.108
12917TIP3   OH238707   1.524   5.558   3.044
12917TIP3    H138708   1.571   5.638   3.022
12917TIP3    H238709   1.435   5.572   3.011
12918TIP3   OH238710   4.595   4.559   2.474
12918TIP3    H138711   4.537   4.583   2.401
12918TIP3    H238712   4.664   4.624   2.472
12919TIP3   OH238713   4.042   0.487   5.371
12919TIP3    H138714   4.035   0.580   5.349
12919TIP3    H238715   4.039   0.484   5.466
12920TIP3   OH238716   8.008   0.736   5.778
12920TIP3    H138717   7.955   0.673   5.827
12920TIP3    H238718   7.960   0.818   5.784
12921TIP3   OH238719   2.158   0.142   5.631
12921TIP3    H138720   2.129   0.092   5.706
12921TIP3    H238721   2.196   0.077   5.571
12922TIP3   OH238722   6.246   6.214   1.101
12922TIP3    H138723   6.279   6.147   1.161
12922TIP3    H238724   6.159   6.183   1.077
12923TIP3   OH238725   4.341   2.539   2.521
12923TIP3    H138726   4.314   2.531   2.430
12923TIP3    H238727   4.311   2.626   2.548
12924TIP3   OH238728   2.119   7.399   3.155
12924TIP3    H138729   2.181   7.351   3.210
12924TIP3    H238730   2.099   7.478   3.204
12925TIP3   OH238731   4.718   5.525   5.807
12925TIP3    H138732   4.653   5.521   5.737
12925TIP3    H238733   4.667   5.542   5.886
12926TIP3   OH238734   3.021   0.962   1.547
12926TIP3    H138735   3.089   0.999   1.604
12926TIP3    H238736   2.938   0.990   1.586
12927TIP3   OH238737   0.268   2.976   2.371
12927TIP3    H138738   0.190   2.926   2.346
12927TIP3    H238739   0.331   2.959   2.301
12928TIP3   OH238740   7.816   1.953   1.006
12928TIP3    H138741   7.892   1.894   1.008
12928TIP3    H238742   7.818   1.991   0.918
12929TIP3   OH238743   3.688   3.385   2.019
12929TIP3    H138744   3.593   3.393   2.025
12929TIP3    H238745   3.722   3.472   2.040
12930TIP3   OH238746   8.208   5.305   5.473
12930TIP3    H138747   8.191   5.395   5.500
12930TIP3    H238748   8.121   5.265   5.470
12931TIP3   OH238749   8.267   7.633   2.446
12931TIP3    H138750   8.186   7.673   2.480
12931TIP3    H238751   8.286   7.562   2.507
12932TIP3   OH238752   7.045   2.805   5.148
12932TIP3    H138753   6.982   2.805   5.221
12932TIP3    H238754   6.992   2.824   5.071
12933TIP3   OH238755   2.624   6.540   1.397
12933TIP3    H138756   2.600   6.456   1.435
12933TIP3    H238757   2.719   6.543   1.403
12934TIP3   OH238758   7.764   4.046   1.381
12934TIP3    H138759   7.733   3.990   1.452
12934TIP3    H238760   7.800   4.123   1.426
12935TIP3   OH238761  -0.007   2.442   1.217
12935TIP3    H138762   0.021   2.527   1.183
12935TIP3    H238763   0.048   2.378   1.172
12936TIP3   OH238764   1.827   5.874   5.835
12936TIP3    H138765   1.813   5.827   5.753
12936TIP3    H238766   1.912   5.916   5.825
12937TIP3   OH238767   3.111   3.056   0.051
12937TIP3    H138768   3.082   3.063  -0.040
12937TIP3    H238769   3.080   3.136   0.092
12938TIP3   OH238770   7.674   3.353   4.381
12938TIP3    H138771   7.735   3.306   4.438
12938TIP3    H238772   7.729   3.413   4.331
12939TIP3   OH238773   1.119   3.362   1.439
12939TIP3    H138774   1.139   3.333   1.351
12939TIP3    H238775   1.195   3.336   1.491
12940TIP3   OH238776   1.608   0.066   3.996
12940TIP3    H138777   1.601  -0.027   4.017
12940TIP3    H238778   1.678   0.099   4.051
12941TIP3   OH238779   6.986   7.768   2.155
12941TIP3    H138780   7.001   7.761   2.249
12941TIP3    H238781   6.891   7.780   2.147
12942TIP3   OH238782   8.226   4.119   0.389
12942TIP3    H138783   8.287   4.061   0.434
12942TIP3    H238784   8.206   4.073   0.307
12943TIP3   OH238785   6.144   1.601   6.760
12943TIP3    H138786   6.067   1.647   6.727
12943TIP3    H238787   6.162   1.643   6.845
12944TIP3   OH238788   7.946   0.289   6.321
12944TIP3    H138789   7.941   0.207   6.273
12944TIP3    H238790   7.865   0.335   6.301
12945TIP3   OH238791   4.400   6.960   0.741
12945TIP3    H138792   4.324   7.016   0.732
12945TIP3    H238793   4.365   6.875   0.768
12946TIP3   OH238794   1.403   2.917   4.554
12946TIP3    H138795   1.316   2.902   4.591
12946TIP3    H238796   1.450   2.836   4.570
12947TIP3   OH238797   5.646   0.288   4.171
12947TIP3    H138798   5.663   0.382   4.174
12947TIP3    H238799   5.695   0.253   4.246
12948TIP3   OH238800   1.186   4.262   4.841
12948TIP3    H138801   1.233   4.345   4.836
12948TIP3    H238802   1.250   4.200   4.875
12949TIP3   OH238803   1.983   4.912   1.795
12949TIP3    H138804   2.050   4.856   1.834
12949TIP3    H238805   1.984   4.889   1.702
12950TIP3   OH238806   7.763   7.236   4.008
12950TIP3    H138807   7.724   7.152   3.985
12950TIP3    H238808   7.824   7.255   3.937
12951TIP3   OH238809   2.593   3.033   5.203
12951TIP3    H138810   2.539   3.031   5.124
12951TIP3    H238811   2.642   3.115   5.196
12952TIP3   OH238812   6.964   0.433   5.098
12952TIP3    H138813   7.044   0.482   5.079
12952TIP3    H238814   6.903   0.458   5.029
12953TIP3   OH238815   3.358   3.633   4.965
12953TIP3    H138816   3.309   3.637   5.047
12953TIP3    H238817   3.354   3.723   4.931
12954TIP3   OH238818   2.655   7.778   2.480
12954TIP3    H138819   2.708   7.823   2.414
12954TIP3    H238820   2.717   7.758   2.551
12955TIP3   OH238821   8.029   3.224   2.381
12955TIP3    H138822   8.063   3.135   2.395
12955TIP3    H238823   7.956   3.214   2.320
12956TIP3   OH238824   3.649   1.808   3.280
12956TIP3    H138825   3.704   1.881   3.253
12956TIP3    H238826   3.638   1.820   3.375
12957TIP3   OH238827   2.720   3.839   5.542
12957TIP3    H138828   2.814   3.857   5.555
12957TIP3    H238829   2.684   3.838   5.630
12958TIP3   OH238830   1.383   1.358   1.652
12958TIP3    H138831   1.465   1.406   1.664
12958TIP3    H238832   1.316   1.417   1.687
12959TIP3   OH238833   7.113   4.128   5.835
12959TIP3    H138834   7.123   4.140   5.741
12959TIP3    H238835   7.169   4.196   5.874
12960TIP3   OH238836   5.630   2.775   3.893
12960TIP3    H138837   5.699   2.709   3.895
12960TIP3    H238838   5.584   2.758   3.811
12961TIP3   OH238839   7.829   0.941   0.337
12961TIP3    H138840   7.865   0.856   0.310
12961TIP3    H238841   7.762   0.920   0.401
12962TIP3   OH238842   4.292   0.797   3.784
12962TIP3    H138843   4.371   0.803   3.837
12962TIP3    H238844   4.266   0.888   3.770
12963TIP3   OH238845   3.084   0.548   2.348
12963TIP3    H138846   3.041   0.547   2.263
12963TIP3    H238847   3.173   0.579   2.330
12964TIP3   OH238848   6.479   0.704   6.296
12964TIP3    H138849   6.502   0.614   6.320
12964TIP3    H238850   6.390   0.715   6.330
12965TIP3   OH238851   3.100   1.848   3.651
12965TIP3    H138852   3.089   1.883   3.563
12965TIP3    H238853   3.023   1.880   3.698
12966TIP3   OH238854   4.736   3.635   2.591
12966TIP3    H138855   4.699   3.721   2.610
12966TIP3    H238856   4.831   3.650   2.585
12967TIP3   OH238857   6.327   4.159   4.193
12967TIP3    H138858   6.402   4.215   4.174
12967TIP3    H238859   6.253   4.201   4.148
12968TIP3   OH238860   1.243   4.783   6.767
12968TIP3    H138861   1.294   4.805   6.845
12968TIP3    H238862   1.293   4.714   6.724
12969TIP3   OH238863   2.620   4.094   4.615
12969TIP3    H138864   2.638   4.013   4.568
12969TIP3    H238865   2.698   4.108   4.669
12970TIP3   OH238866   1.366   4.467   6.305
12970TIP3    H138867   1.431   4.405   6.273
12970TIP3    H238868   1.317   4.418   6.372
12971TIP3   OH238869   0.575   6.005   3.965
12971TIP3    H138870   0.620   5.972   4.043
12971TIP3    H238871   0.568   5.928   3.908
12972TIP3   OH238872   7.837   6.375   5.110
12972TIP3    H138873   7.931   6.384   5.126
12972TIP3    H238874   7.825   6.409   5.022
12973TIP3   OH238875   0.755   5.495   0.324
12973TIP3    H138876   0.793   5.421   0.373
12973TIP3    H238877   0.667   5.466   0.303
12974TIP3   OH238878   2.258   7.082   1.880
12974TIP3    H138879   2.305   7.077   1.796
12974TIP3    H238880   2.311   7.142   1.933
12975TIP3   OH238881   4.025   7.723   2.402
12975TIP3    H138882   4.102   7.691   2.449
12975TIP3    H238883   3.991   7.647   2.355
12976TIP3   OH238884   0.028   1.070   5.089
12976TIP3    H138885  -0.047   1.022   5.125
12976TIP3    H238886   0.079   1.003   5.043
12977TIP3   OH238887   0.151   3.386   5.496
12977TIP3    H138888   0.141   3.315   5.432
12977TIP3    H238889   0.244   3.408   5.492
12978TIP3   OH238890   0.717   3.966   4.213
12978TIP3    H138891   0.683   3.880   4.190
12978TIP3    H238892   0.648   4.027   4.188
12979TIP3   OH238893   4.028   3.964   0.021
12979TIP3    H138894   3.990   3.900   0.081
12979TIP3    H238895   4.114   3.929  -0.001
12980TIP3   OH238896   6.293   5.168   6.808
12980TIP3    H138897   6.377   5.200   6.775
12980TIP3    H238898   6.249   5.133   6.730
12981TIP3   OH238899   0.707   5.348   6.072
12981TIP3    H138900   0.768   5.399   6.019
12981TIP3    H238901   0.744   5.351   6.160
12982TIP3   OH238902   5.441   3.760   2.637
12982TIP3    H138903   5.467   3.787   2.726
12982TIP3    H238904   5.447   3.665   2.638
12983TIP3   OH238905   1.763   1.965   5.256
12983TIP3    H138906   1.701   1.947   5.327
12983TIP3    H238907   1.795   1.879   5.230
12984TIP3   OH238908   5.484   5.425   4.726
12984TIP3    H138909   5.517   5.505   4.687
12984TIP3    H238910   5.417   5.394   4.664
12985TIP3   OH238911   7.127   4.548   0.638
12985TIP3    H138912   7.075   4.489   0.582
12985TIP3    H238913   7.061   4.595   0.690
12986TIP3   OH238914   3.285   5.458   1.877
12986TIP3    H138915   3.359   5.458   1.816
12986TIP3    H238916   3.218   5.405   1.834
12987TIP3   OH238917   6.721  -0.012   0.399
12987TIP3    H138918   6.703   0.075   0.362
12987TIP3    H238919   6.748   0.006   0.489
12988TIP3   OH238920   7.261   0.386   2.378
12988TIP3    H138921   7.216   0.469   2.392
12988TIP3    H238922   7.229   0.355   2.293
12989TIP3   OH238923   1.181   6.132   4.321
12989TIP3    H138924   1.226   6.129   4.406
12989TIP3    H238925   1.168   6.225   4.304
12990TIP3   OH238926   5.309   2.565   3.127
12990TIP3    H138927   5.295   2.656   3.152
12990TIP3    H238928   5.248   2.515   3.182
12991TIP3   OH238929   1.905   2.247   2.953
12991TIP3    H138930   1.973   2.314   2.967
12991TIP3    H238931   1.943   2.167   2.988
12992TIP3   OH238932   2.437   0.068   5.442
12992TIP3    H138933   2.470   0.063   5.532
12992TIP3    H238934   2.469  -0.012   5.400
12993TIP3   OH238935   5.934   5.520   0.350
12993TIP3    H138936   5.905   5.526   0.259
12993TIP3    H238937   6.029   5.519   0.345
12994TIP3   OH238938   4.459   1.136   5.491
12994TIP3    H138939   4.555   1.132   5.491
12994TIP3    H238940   4.432   1.048   5.518
12995TIP3   OH238941   1.043   2.173   6.248
12995TIP3    H138942   1.133   2.200   6.267
12995TIP3    H238943   1.020   2.113   6.320
12996TIP3   OH238944   5.012   7.076   4.860
12996TIP3    H138945   5.044   7.009   4.800
12996TIP3    H238946   4.931   7.038   4.896
12997TIP3   OH238947   8.036   3.361   3.217
12997TIP3    H138948   7.989   3.435   3.255
12997TIP3    H238949   7.984   3.337   3.140
12998TIP3   OH238950   6.928   2.528   6.294
12998TIP3    H138951   6.907   2.585   6.368
12998TIP3    H238952   6.843   2.492   6.267
12999TIP3   OH238953   2.913   0.918   1.802
12999TIP3    H138954   2.967   0.845   1.835
12999TIP3    H238955   2.863   0.946   1.878
13000TIP3   OH238956   6.240   1.806   2.830
13000TIP3    H138957   6.237   1.725   2.881
13000TIP3    H238958   6.152   1.842   2.836
13001TIP3   OH238959   4.116   2.766   2.237
13001TIP3    H138960   4.152   2.805   2.317
13001TIP3    H238961   4.070   2.688   2.267
13002TIP3   OH238962   7.363   7.728   2.295
13002TIP3    H138963   7.424   7.775   2.352
13002TIP3    H238964   7.418   7.668   2.245
13003TIP3   OH238965   7.242   2.383   4.329
13003TIP3    H138966   7.205   2.320   4.392
13003TIP3    H238967   7.306   2.332   4.279
13004TIP3   OH238968   0.960   5.522   5.669
13004TIP3    H138969   0.945   5.474   5.750
13004TIP3    H238970   1.028   5.473   5.624
13005TIP3   OH238971   5.626   4.729   3.330
13005TIP3    H138972   5.609   4.806   3.275
13005TIP3    H238973   5.607   4.654   3.274
13006TIP3   OH238974   3.811   1.284   3.495
13006TIP3    H138975   3.785   1.291   3.403
13006TIP3    H238976   3.752   1.218   3.531
13007TIP3   OH238977   5.469   1.844   2.816
13007TIP3    H138978   5.388   1.867   2.863
13007TIP3    H238979   5.522   1.797   2.880
13008TIP3   OH238980   1.532   6.594   1.182
13008TIP3    H138981   1.534   6.689   1.183
13008TIP3    H238982   1.448   6.571   1.221
13009TIP3   OH238983   1.937   1.434   5.897
13009TIP3    H138984   1.877   1.502   5.928
13009TIP3    H238985   2.022   1.459   5.933
13010TIP3   OH238986   2.343   0.325   5.989
13010TIP3    H138987   2.278   0.363   5.929
13010TIP3    H238988   2.353   0.390   6.058
13011TIP3   OH238989   0.260   0.691   6.221
13011TIP3    H138990   0.318   0.751   6.174
13011TIP3    H238991   0.267   0.609   6.173
13012TIP3   OH238992   8.138   1.425   2.360
13012TIP3    H138993   8.059   1.473   2.335
13012TIP3    H238994   8.116   1.333   2.342
13013TIP3   OH238995   0.995   2.975   1.933
13013TIP3    H138996   1.029   3.028   1.860
13013TIP3    H238997   0.991   3.035   2.007
13014TIP3   OH238998   0.164   5.868   0.831
13014TIP3    H138999   0.108   5.943   0.811
13014TIP3    H239000   0.123   5.794   0.785
13015TIP3   OH239001   1.049   5.830   3.758
13015TIP3    H139002   1.076   5.881   3.682
13015TIP3    H239003   1.034   5.742   3.724
13016TIP3   OH239004   6.318   2.240   3.543
13016TIP3    H139005   6.296   2.254   3.635
13016TIP3    H239006   6.327   2.328   3.506
13017TIP3   OH239007   6.450   3.952   4.338
13017TIP3    H139008   6.470   4.028   4.393
13017TIP3    H239009   6.536   3.916   4.316
13018TIP3   OH239010   1.220   1.061   5.470
13018TIP3    H139011   1.146   1.018   5.428
13018TIP3    H239012   1.223   1.147   5.428
13019TIP3   OH239013   3.736   3.487   3.765
13019TIP3    H139014   3.741   3.422   3.695
13019TIP3    H239015   3.704   3.438   3.841
13020TIP3   OH239016   4.525   2.723   5.933
13020TIP3    H139017   4.562   2.680   5.856
13020TIP3    H239018   4.558   2.674   6.008
13021TIP3   OH239019   5.201   7.538   4.982
13021TIP3    H139020   5.170   7.628   4.984
13021TIP3    H239021   5.199   7.514   4.889
13022TIP3   OH239022   5.622   2.382   4.693
13022TIP3    H139023   5.607   2.310   4.754
13022TIP3    H239024   5.611   2.343   4.606
13023TIP3   OH239025   8.102   1.465   0.360
13023TIP3    H139026   8.098   1.409   0.283
13023TIP3    H239027   8.089   1.406   0.434
13024TIP3   OH239028   2.284   5.587   6.261
13024TIP3    H139029   2.292   5.581   6.166
13024TIP3    H239030   2.368   5.622   6.291
13025TIP3   OH239031   5.498   2.130   4.752
13025TIP3    H139032   5.412   2.138   4.709
13025TIP3    H239033   5.515   2.036   4.752
13026TIP3   OH239034   5.178   3.702   3.951
13026TIP3    H139035   5.264   3.679   3.986
13026TIP3    H239036   5.122   3.630   3.976
13027TIP3   OH239037   4.654   6.915   6.095
13027TIP3    H139038   4.599   6.839   6.077
13027TIP3    H239039   4.620   6.983   6.037
13028TIP3   OH239040   7.192   2.997   1.321
13028TIP3    H139041   7.250   2.980   1.247
13028TIP3    H239042   7.172   2.910   1.356
13029TIP3   OH239043   2.867   3.187   2.983
13029TIP3    H139044   2.852   3.136   2.903
13029TIP3    H239045   2.780   3.216   3.010
13030TIP3   OH239046   2.158   1.629   1.579
13030TIP3    H139047   2.136   1.554   1.523
13030TIP3    H239048   2.124   1.705   1.532
13031TIP3   OH239049   1.837   7.764   6.278
13031TIP3    H139050   1.784   7.785   6.354
13031TIP3    H239051   1.870   7.676   6.295
13032TIP3   OH239052   0.961   7.654   0.367
13032TIP3    H139053   0.888   7.627   0.312
13032TIP3    H239054   0.921   7.712   0.433
13033TIP3   OH239055   4.716   0.076   5.332
13033TIP3    H139056   4.628   0.111   5.338
13033TIP3    H239057   4.754   0.121   5.256
13034TIP3   OH239058   6.901   0.177   0.707
13034TIP3    H139059   6.808   0.155   0.698
13034TIP3    H239060   6.923   0.222   0.626
13035TIP3   OH239061   0.697   0.949   0.833
13035TIP3    H139062   0.658   0.930   0.748
13035TIP3    H239063   0.700   1.044   0.838
13036TIP3   OH239064   8.047   6.166   4.772
13036TIP3    H139065   8.034   6.093   4.832
13036TIP3    H239066   8.140   6.160   4.746
13037TIP3   OH239067   1.558   0.439   2.240
13037TIP3    H139068   1.500   0.442   2.316
13037TIP3    H239069   1.605   0.357   2.249
13038TIP3   OH239070   5.598   0.786   3.048
13038TIP3    H139071   5.524   0.736   3.013
13038TIP3    H239072   5.578   0.797   3.141
13039TIP3   OH239073   8.097   1.551   3.746
13039TIP3    H139074   8.054   1.626   3.788
13039TIP3    H239075   8.116   1.580   3.657
13040TIP3   OH239076   4.447   2.723   1.165
13040TIP3    H139077   4.408   2.706   1.251
13040TIP3    H239078   4.453   2.819   1.161
13041TIP3   OH239079   3.094   6.284   2.013
13041TIP3    H139080   3.040   6.235   1.952
13041TIP3    H239081   3.035   6.348   2.054
13042TIP3   OH239082   2.865   1.035   3.282
13042TIP3    H139083   2.808   1.058   3.355
13042TIP3    H239084   2.940   1.095   3.290
13043TIP3   OH239085   3.176   2.653   2.820
13043TIP3    H139086   3.213   2.613   2.741
13043TIP3    H239087   3.174   2.747   2.800
13044TIP3   OH239088   1.615   5.975   6.766
13044TIP3    H139089   1.554   5.909   6.735
13044TIP3    H239090   1.702   5.936   6.755
13045TIP3   OH239091   1.826   1.363   5.313
13045TIP3    H139092   1.853   1.429   5.378
13045TIP3    H239093   1.847   1.403   5.229
13046TIP3   OH239094   1.129   1.438   5.584
13046TIP3    H139095   1.107   1.424   5.492
13046TIP3    H239096   1.220   1.467   5.582
13047TIP3   OH239097   3.004   5.386   4.647
13047TIP3    H139098   2.936   5.361   4.585
13047TIP3    H239099   3.046   5.462   4.607
13048TIP3   OH239100   2.678   2.425   4.006
13048TIP3    H139101   2.661   2.347   4.059
13048TIP3    H239102   2.740   2.396   3.940
13049TIP3   OH239103   3.696   1.558   3.202
13049TIP3    H139104   3.693   1.639   3.252
13049TIP3    H239105   3.624   1.564   3.141
13050TIP3   OH239106   8.106   7.496   0.866
13050TIP3    H139107   8.136   7.587   0.871
13050TIP3    H239108   8.123   7.460   0.953
13051TIP3   OH239109   1.333   5.490   4.849
13051TIP3    H139110   1.274   5.564   4.839
13051TIP3    H239111   1.419   5.524   4.825
13052TIP3   OH239112   6.364   6.784   5.687
13052TIP3    H139113   6.446   6.791   5.735
13052TIP3    H239114   6.337   6.874   5.671
13053TIP3   OH239115   8.103   1.066   0.788
13053TIP3    H139116   8.176   1.019   0.747
13053TIP3    H239117   8.025   1.025   0.751
13054TIP3   OH239118   2.362   3.941   5.236
13054TIP3    H139119   2.440   3.926   5.289
13054TIP3    H239120   2.352   3.861   5.185
13055TIP3   OH239121   2.134   2.956   1.176
13055TIP3    H139122   2.226   2.970   1.199
13055TIP3    H239123   2.096   3.043   1.175
13056TIP3   OH239124   3.160   2.930   2.614
13056TIP3    H139125   3.152   2.999   2.680
13056TIP3    H239126   3.254   2.919   2.602
13057TIP3   OH239127   6.203   0.775   1.254
13057TIP3    H139128   6.127   0.828   1.232
13057TIP3    H239129   6.178   0.686   1.231
13058TIP3   OH239130   1.046   4.604   3.956
13058TIP3    H139131   0.991   4.673   3.919
13058TIP3    H239132   1.112   4.651   4.007
13059TIP3   OH239133   6.327   1.630   6.320
13059TIP3    H139134   6.258   1.616   6.384
13059TIP3    H239135   6.377   1.549   6.319
13060TIP3   OH239136   2.028   5.022   0.144
13060TIP3    H139137   2.107   5.027   0.197
13060TIP3    H239138   1.966   4.973   0.197
13061TIP3   OH239139   7.078   0.729   6.507
13061TIP3    H139140   7.094   0.724   6.413
13061TIP3    H239141   7.085   0.638   6.538
13062TIP3   OH239142   2.865   1.750   1.429
13062TIP3    H139143   2.823   1.705   1.355
13062TIP3    H239144   2.834   1.841   1.422
13063TIP3   OH239145   4.487   6.119   1.825
13063TIP3    H139146   4.393   6.137   1.835
13063TIP3    H239147   4.517   6.183   1.761
13064TIP3   OH239148   0.304   2.554   0.971
13064TIP3    H139149   0.334   2.551   0.881
13064TIP3    H239150   0.209   2.556   0.965
13065TIP3   OH239151   6.942   6.788   1.419
13065TIP3    H139152   6.914   6.875   1.390
13065TIP3    H239153   6.861   6.739   1.430
13066TIP3   OH239154   1.433   5.000   4.668
13066TIP3    H139155   1.353   4.949   4.657
13066TIP3    H239156   1.404   5.081   4.710
13067TIP3   OH239157   3.626   2.933   0.557
13067TIP3    H139158   3.545   2.891   0.528
13067TIP3    H239159   3.679   2.860   0.591
13068TIP3   OH239160   3.605   1.753   6.322
13068TIP3    H139161   3.695   1.742   6.293
13068TIP3    H239162   3.595   1.847   6.337
13069TIP3   OH239163   1.348   4.416   2.536
13069TIP3    H139164   1.430   4.400   2.583
13069TIP3    H239165   1.355   4.362   2.457
13070TIP3   OH239166   3.705   3.460   5.007
13070TIP3    H139167   3.700   3.506   4.923
13070TIP3    H239168   3.658   3.517   5.068
13071TIP3   OH239169   4.870   1.906   1.064
13071TIP3    H139170   4.822   1.974   1.016
13071TIP3    H239171   4.958   1.908   1.027
13072TIP3   OH239172   0.205   1.964   2.181
13072TIP3    H139173   0.242   2.028   2.242
13072TIP3    H239174   0.118   1.945   2.216
13073TIP3   OH239175   0.842   0.664   3.311
13073TIP3    H139176   0.866   0.580   3.349
13073TIP3    H239177   0.917   0.721   3.330
13074TIP3   OH239178   6.174   3.014   5.228
13074TIP3    H139179   6.145   3.042   5.315
13074TIP3    H239180   6.270   3.012   5.234
13075TIP3   OH239181   0.658   5.290   3.798
13075TIP3    H139182   0.704   5.208   3.814
13075TIP3    H239183   0.621   5.313   3.884
13076TIP3   OH239184   7.945   4.275   3.172
13076TIP3    H139185   8.040   4.268   3.164
13076TIP3    H239186   7.914   4.290   3.083
13077TIP3   OH239187   6.581   4.127   4.806
13077TIP3    H139188   6.675   4.143   4.796
13077TIP3    H239189   6.575   4.050   4.863
13078TIP3   OH239190   6.727   5.101   5.270
13078TIP3    H139191   6.669   5.027   5.286
13078TIP3    H239192   6.681   5.155   5.205
13079TIP3   OH239193   1.234   1.047   1.387
13079TIP3    H139194   1.244   0.994   1.308
13079TIP3    H239195   1.321   1.082   1.404
13080TIP3   OH239196   6.611   6.836   4.590
13080TIP3    H139197   6.680   6.790   4.639
13080TIP3    H239198   6.530   6.807   4.631
13081TIP3   OH239199   3.441   6.751   3.217
13081TIP3    H139200   3.462   6.814   3.287
13081TIP3    H239201   3.386   6.685   3.260
13082TIP3   OH239202   0.702   3.464   5.109
13082TIP3    H139203   0.700   3.541   5.166
13082TIP3    H239204   0.782   3.475   5.058
13083TIP3   OH239205   0.755   7.623   0.194
13083TIP3    H139206   0.787   7.601   0.106
13083TIP3    H239207   0.735   7.717   0.189
13084TIP3   OH239208   1.926   7.801   3.531
13084TIP3    H139209   1.994   7.835   3.589
13084TIP3    H239210   1.844   7.835   3.568
13085TIP3   OH239211   7.246   1.871   4.842
13085TIP3    H139212   7.218   1.835   4.927
13085TIP3    H239213   7.324   1.922   4.863
13086TIP3   OH239214   0.331   7.423   2.753
13086TIP3    H139215   0.406   7.366   2.772
13086TIP3    H239216   0.340   7.444   2.660
13087TIP3   OH239217   4.278   6.190   5.171
13087TIP3    H139218   4.284   6.096   5.184
13087TIP3    H239219   4.204   6.202   5.112
13088TIP3   OH239220   5.443   5.131   1.442
13088TIP3    H139221   5.527   5.157   1.480
13088TIP3    H239222   5.402   5.212   1.414
13089TIP3   OH239223   7.145   4.145   5.315
13089TIP3    H139224   7.131   4.074   5.252
13089TIP3    H239225   7.158   4.223   5.260
13090TIP3   OH239226   7.085   5.902   4.611
13090TIP3    H139227   7.038   5.908   4.694
13090TIP3    H239228   7.017   5.885   4.546
13091TIP3   OH239229   5.802   0.065   0.739
13091TIP3    H139230   5.720   0.108   0.717
13091TIP3    H239231   5.777  -0.024   0.765
13092TIP3   OH239232   7.934   2.297   1.772
13092TIP3    H139233   7.877   2.327   1.701
13092TIP3    H239234   7.997   2.368   1.784
13093TIP3   OH239235   3.395   1.319   2.669
13093TIP3    H139236   3.325   1.283   2.614
13093TIP3    H239237   3.350   1.377   2.730
13094TIP3   OH239238   7.523   1.807   1.029
13094TIP3    H139239   7.465   1.827   0.956
13094TIP3    H239240   7.580   1.738   0.997
13095TIP3   OH239241   4.725   2.793   6.654
13095TIP3    H139242   4.714   2.767   6.745
13095TIP3    H239243   4.691   2.883   6.650
13096TIP3   OH239244   6.079   0.055   1.912
13096TIP3    H139245   6.004   0.026   1.861
13096TIP3    H239246   6.109  -0.025   1.957
13097TIP3   OH239247   0.558   4.818   5.732
13097TIP3    H139248   0.480   4.848   5.778
13097TIP3    H239249   0.627   4.821   5.798
13098TIP3   OH239250   4.621   4.086   1.986
13098TIP3    H139251   4.632   4.047   2.073
13098TIP3    H239252   4.684   4.158   1.984
13099TIP3   OH239253   1.027   2.142   4.229
13099TIP3    H139254   1.106   2.194   4.214
13099TIP3    H239255   0.972   2.161   4.154
13100TIP3   OH239256   1.897   5.539   6.191
13100TIP3    H139257   1.820   5.593   6.174
13100TIP3    H239258   1.961   5.568   6.126
13101TIP3   OH239259   1.425   6.575   6.369
13101TIP3    H139260   1.361   6.607   6.432
13101TIP3    H239261   1.507   6.568   6.419
13102TIP3   OH239262   7.060   5.801   3.509
13102TIP3    H139263   7.101   5.745   3.575
13102TIP3    H239264   7.110   5.883   3.513
13103TIP3   OH239265   3.835   2.403   4.551
13103TIP3    H139266   3.807   2.448   4.471
13103TIP3    H239267   3.880   2.324   4.520
13104TIP3   OH239268   5.473   6.509   0.187
13104TIP3    H139269   5.536   6.574   0.218
13104TIP3    H239270   5.391   6.532   0.230
13105TIP3   OH239271   2.054   0.166   3.783
13105TIP3    H139272   2.095   0.090   3.741
13105TIP3    H239273   2.119   0.236   3.774
13106TIP3   OH239274   2.548   1.382   3.817
13106TIP3    H139275   2.517   1.383   3.726
13106TIP3    H239276   2.581   1.293   3.830
13107TIP3   OH239277   2.430   0.579   0.324
13107TIP3    H139278   2.450   0.517   0.394
13107TIP3    H239279   2.357   0.538   0.276
13108TIP3   OH239280   1.741   1.948   0.663
13108TIP3    H139281   1.664   1.996   0.695
13108TIP3    H239282   1.724   1.857   0.686
13109TIP3   OH239283   0.304   4.437   1.040
13109TIP3    H139284   0.279   4.430   1.132
13109TIP3    H239285   0.394   4.469   1.042
13110TIP3   OH239286   4.625   4.237   4.272
13110TIP3    H139287   4.582   4.312   4.229
13110TIP3    H239288   4.636   4.265   4.363
13111TIP3   OH239289   0.173   0.567   6.449
13111TIP3    H139290   0.196   0.624   6.375
13111TIP3    H239291   0.078   0.562   6.447
13112TIP3   OH239292   2.072   5.285   0.283
13112TIP3    H139293   2.106   5.260   0.197
13112TIP3    H239294   1.985   5.246   0.287
13113TIP3   OH239295   8.064   4.745   6.410
13113TIP3    H139296   8.120   4.734   6.333
13113TIP3    H239297   8.001   4.813   6.383
13114TIP3   OH239298   5.553   0.305   3.233
13114TIP3    H139299   5.587   0.330   3.147
13114TIP3    H239300   5.550   0.388   3.282
13115TIP3   OH239301   8.039   6.182   0.390
13115TIP3    H139302   8.101   6.111   0.373
13115TIP3    H239303   7.984   6.185   0.313
13116TIP3   OH239304   6.771   4.448   0.160
13116TIP3    H139305   6.681   4.476   0.143
13116TIP3    H239306   6.825   4.521   0.130
13117TIP3   OH239307   5.873   1.950   1.394
13117TIP3    H139308   5.896   1.906   1.476
13117TIP3    H239309   5.778   1.951   1.393
13118TIP3   OH239310   3.136   6.431   2.733
13118TIP3    H139311   3.163   6.480   2.811
13118TIP3    H239312   3.216   6.419   2.683
13119TIP3   OH239313   1.515   2.391   0.899
13119TIP3    H139314   1.509   2.389   0.994
13119TIP3    H239315   1.458   2.464   0.873
13120TIP3   OH239316   5.252   4.458   0.657
13120TIP3    H139317   5.191   4.385   0.648
13120TIP3    H239318   5.215   4.512   0.726
13121TIP3   OH239319   6.377   2.284   2.052
13121TIP3    H139320   6.461   2.330   2.057
13121TIP3    H239321   6.313   2.349   2.080
13122TIP3   OH239322   1.602   2.652   3.048
13122TIP3    H139323   1.523   2.598   3.044
13122TIP3    H239324   1.644   2.640   2.963
13123TIP3   OH239325   1.290   2.473   6.455
13123TIP3    H139326   1.269   2.536   6.525
13123TIP3    H239327   1.250   2.391   6.483
13124TIP3   OH239328   5.145   0.860   3.018
13124TIP3    H139329   5.172   0.899   2.935
13124TIP3    H239330   5.130   0.936   3.076
13125TIP3   OH239331   5.145   3.161   3.756
13125TIP3    H139332   5.090   3.239   3.745
13125TIP3    H239333   5.220   3.192   3.806
13126TIP3   OH239334   8.275   7.248   3.575
13126TIP3    H139335   8.273   7.325   3.518
13126TIP3    H239336   8.362   7.250   3.615
13127TIP3   OH239337   7.299   3.845   3.095
13127TIP3    H139338   7.294   3.805   3.182
13127TIP3    H239339   7.335   3.776   3.039
13128TIP3   OH239340   0.319   5.062   2.274
13128TIP3    H139341   0.403   5.075   2.317
13128TIP3    H239342   0.324   5.115   2.194
13129TIP3   OH239343   0.519   1.392   2.415
13129TIP3    H139344   0.586   1.361   2.354
13129TIP3    H239345   0.436   1.372   2.372
13130TIP3   OH239346   8.000   0.895   6.587
13130TIP3    H139347   7.990   0.805   6.555
13130TIP3    H239348   7.915   0.916   6.627
13131TIP3   OH239349   3.880   7.107   0.566
13131TIP3    H139350   3.954   7.080   0.511
13131TIP3    H239351   3.911   7.188   0.608
13132TIP3   OH239352   3.566   6.438   3.938
13132TIP3    H139353   3.646   6.396   3.968
13132TIP3    H239354   3.555   6.407   3.848
13133TIP3   OH239355   7.521   1.459   1.679
13133TIP3    H139356   7.457   1.415   1.622
13133TIP3    H239357   7.591   1.486   1.620
13134TIP3   OH239358   4.803   3.669   0.752
13134TIP3    H139359   4.832   3.617   0.677
13134TIP3    H239360   4.779   3.604   0.818
13135TIP3   OH239361   5.891   3.135   3.882
13135TIP3    H139362   5.855   3.103   3.800
13135TIP3    H239363   5.915   3.226   3.864
13136TIP3   OH239364   0.147   7.793   2.979
13136TIP3    H139365   0.197   7.741   3.042
13136TIP3    H239366   0.057   7.761   2.989
13137TIP3   OH239367   8.115   5.047   0.945
13137TIP3    H139368   8.074   5.088   1.021
13137TIP3    H239369   8.059   5.071   0.872
13138TIP3   OH239370   5.282   2.087   1.779
13138TIP3    H139371   5.281   2.039   1.862
13138TIP3    H239372   5.263   2.177   1.804
13139TIP3   OH239373   6.635   7.014   2.887
13139TIP3    H139374   6.669   7.019   2.797
13139TIP3    H239375   6.708   6.977   2.937
13140TIP3   OH239376   8.203   3.145   1.947
13140TIP3    H139377   8.164   3.076   1.893
13140TIP3    H239378   8.280   3.174   1.898
13141TIP3   OH239379   2.266   3.064   0.313
13141TIP3    H139380   2.226   3.059   0.226
13141TIP3    H239381   2.193   3.080   0.372
13142TIP3   OH239382   5.790   6.094   0.539
13142TIP3    H139383   5.764   6.025   0.478
13142TIP3    H239384   5.849   6.050   0.600
13143TIP3   OH239385   6.433   6.659   6.405
13143TIP3    H139386   6.487   6.708   6.467
13143TIP3    H239387   6.455   6.696   6.319
13144TIP3   OH239388   4.590   3.126   1.357
13144TIP3    H139389   4.543   3.112   1.274
13144TIP3    H239390   4.535   3.188   1.405
13145TIP3   OH239391   5.674   1.974   3.087
13145TIP3    H139392   5.709   1.923   3.160
13145TIP3    H239393   5.580   1.979   3.104
13146TIP3   OH239394   2.415   1.707   4.707
13146TIP3    H139395   2.417   1.762   4.785
13146TIP3    H239396   2.375   1.625   4.736
13147TIP3   OH239397   7.543   4.110   0.073
13147TIP3    H139398   7.630   4.123   0.111
13147TIP3    H239399   7.511   4.199   0.058
13148TIP3   OH239400   7.949   6.959   2.008
13148TIP3    H139401   8.009   6.892   1.975
13148TIP3    H239402   7.866   6.913   2.023
13149TIP3   OH239403   5.450   7.226   5.201
13149TIP3    H139404   5.459   7.192   5.112
13149TIP3    H239405   5.471   7.319   5.194
13150TIP3   OH239406   0.238   0.425   3.708
13150TIP3    H139407   0.286   0.346   3.733
13150TIP3    H239408   0.296   0.497   3.731
13151TIP3   OH239409   2.445   1.463   4.221
13151TIP3    H139410   2.441   1.429   4.310
13151TIP3    H239411   2.446   1.386   4.164
13152TIP3   OH239412   4.939   7.519   4.413
13152TIP3    H139413   4.844   7.520   4.404
13152TIP3    H239414   4.962   7.609   4.436
13153TIP3   OH239415   0.861   7.438   3.779
13153TIP3    H139416   0.860   7.450   3.684
13153TIP3    H239417   0.874   7.526   3.814
13154TIP3   OH239418   8.239   4.110   0.712
13154TIP3    H139419   8.311   4.150   0.662
13154TIP3    H239420   8.215   4.032   0.661
13155TIP3   OH239421   4.940   6.113   0.394
13155TIP3    H139422   4.984   6.038   0.355
13155TIP3    H239423   4.853   6.082   0.416
13156TIP3   OH239424   1.340   4.018   2.597
13156TIP3    H139425   1.340   4.066   2.514
13156TIP3    H239426   1.324   3.927   2.571
13157TIP3   OH239427   5.888   0.407   6.677
13157TIP3    H139428   5.963   0.460   6.649
13157TIP3    H239429   5.819   0.471   6.693
13158TIP3   OH239430   7.722   1.799   0.530
13158TIP3    H139431   7.783   1.743   0.483
13158TIP3    H239432   7.672   1.843   0.461
13159TIP3   OH239433   0.336   6.885   3.618
13159TIP3    H139434   0.243   6.863   3.626
13159TIP3    H239435   0.379   6.800   3.608
13160TIP3   OH239436   2.103   2.771   6.590
13160TIP3    H139437   2.145   2.772   6.505
13160TIP3    H239438   2.133   2.851   6.633
13161TIP3   OH239439   7.012   1.450   2.950
13161TIP3    H139440   6.992   1.356   2.945
13161TIP3    H239441   7.056   1.461   3.034
13162TIP3   OH239442   3.092   1.572   6.213
13162TIP3    H139443   3.123   1.614   6.293
13162TIP3    H239444   3.030   1.506   6.243
13163TIP3   OH239445   4.410   2.371   6.604
13163TIP3    H139446   4.404   2.285   6.564
13163TIP3    H239447   4.504   2.387   6.615
13164TIP3   OH239448   1.918   5.020   1.287
13164TIP3    H139449   1.887   4.956   1.223
13164TIP3    H239450   1.844   5.079   1.301
13165TIP3   OH239451   2.908   2.324   4.207
13165TIP3    H139452   2.813   2.336   4.212
13165TIP3    H239453   2.919   2.257   4.139
13166TIP3   OH239454   4.131   6.302   5.426
13166TIP3    H139455   4.174   6.284   5.343
13166TIP3    H239456   4.093   6.389   5.415
13167TIP3   OH239457   2.442   5.276   0.544
13167TIP3    H139458   2.358   5.320   0.555
13167TIP3    H239459   2.501   5.322   0.603
13168TIP3   OH239460   7.064   2.323   6.531
13168TIP3    H139461   6.973   2.301   6.551
13168TIP3    H239462   7.073   2.307   6.437
13169TIP3   OH239463   1.585   6.381   0.108
13169TIP3    H139464   1.591   6.413   0.198
13169TIP3    H239465   1.495   6.348   0.100
13170TIP3   OH239466   0.800   3.344   6.736
13170TIP3    H139467   0.880   3.391   6.714
13170TIP3    H239468   0.818   3.253   6.715
13171TIP3   OH239469   0.704   7.662   1.912
13171TIP3    H139470   0.706   7.732   1.978
13171TIP3    H239471   0.753   7.590   1.952
13172TIP3   OH239472   1.479   3.131   1.368
13172TIP3    H139473   1.432   3.152   1.449
13172TIP3    H239474   1.414   3.144   1.299
13173TIP3   OH239475   5.788   2.095   2.822
13173TIP3    H139476   5.783   2.043   2.902
13173TIP3    H239477   5.700   2.089   2.784
13174TIP3   OH239478   1.534   1.390   5.306
13174TIP3    H139479   1.627   1.367   5.304
13174TIP3    H239480   1.525   1.446   5.383
13175TIP3   OH239481   1.726   6.406   1.322
13175TIP3    H139482   1.673   6.477   1.287
13175TIP3    H239483   1.755   6.357   1.246
13176TIP3   OH239484   4.177   7.411   0.869
13176TIP3    H139485   4.202   7.502   0.885
13176TIP3    H239486   4.220   7.361   0.939
13177TIP3   OH239487   1.909   1.578   0.787
13177TIP3    H139488   1.981   1.516   0.788
13177TIP3    H239489   1.864   1.565   0.871
13178TIP3   OH239490   1.103   0.312   6.762
13178TIP3    H139491   1.175   0.360   6.803
13178TIP3    H239492   1.127   0.220   6.772
13179TIP3   OH239493   2.716   6.223   3.326
13179TIP3    H139494   2.777   6.270   3.268
13179TIP3    H239495   2.736   6.131   3.311
13180TIP3   OH239496   1.678   3.748   5.481
13180TIP3    H139497   1.659   3.655   5.468
13180TIP3    H239498   1.682   3.784   5.392
13181TIP3   OH239499   2.263   2.711   1.049
13181TIP3    H139500   2.232   2.794   1.086
13181TIP3    H239501   2.340   2.735   0.998
13182TIP3   OH239502   1.285   5.467   3.639
13182TIP3    H139503   1.205   5.517   3.649
13182TIP3    H239504   1.261   5.393   3.584
13183TIP3   OH239505   7.653   1.773   3.929
13183TIP3    H139506   7.694   1.691   3.956
13183TIP3    H239507   7.614   1.754   3.844
13184TIP3   OH239508   2.591   2.341   1.784
13184TIP3    H139509   2.608   2.369   1.694
13184TIP3    H239510   2.537   2.262   1.774
13185TIP3   OH239511   3.128   6.669   5.254
13185TIP3    H139512   3.172   6.713   5.327
13185TIP3    H239513   3.155   6.578   5.261
13186TIP3   OH239514   5.968   5.868   3.512
13186TIP3    H139515   5.972   5.844   3.419
13186TIP3    H239516   5.932   5.957   3.512
13187TIP3   OH239517   1.708   0.457   5.874
13187TIP3    H139518   1.646   0.395   5.836
13187TIP3    H239519   1.724   0.520   5.803
13188TIP3   OH239520   7.498   1.992   6.012
13188TIP3    H139521   7.436   1.993   6.085
13188TIP3    H239522   7.582   2.012   6.053
13189TIP3   OH239523   0.194   3.378   5.936
13189TIP3    H139524   0.122   3.387   5.998
13189TIP3    H239525   0.209   3.466   5.902
13190TIP3   OH239526   3.735   1.287   1.045
13190TIP3    H139527   3.744   1.296   0.950
13190TIP3    H239528   3.748   1.193   1.061
13191TIP3   OH239529   0.503   3.081   1.123
13191TIP3    H139530   0.575   3.018   1.121
13191TIP3    H239531   0.483   3.091   1.216
13192TIP3   OH239532   7.008   5.798   3.822
13192TIP3    H139533   6.959   5.783   3.904
13192TIP3    H239534   6.957   5.752   3.755
13193TIP3   OH239535   4.076   5.635   3.113
13193TIP3    H139536   4.114   5.704   3.058
13193TIP3    H239537   4.052   5.566   3.052
13194TIP3   OH239538   4.834   4.989   1.027
13194TIP3    H139539   4.777   5.052   1.070
13194TIP3    H239540   4.872   4.938   1.099
13195TIP3   OH239541   5.929   1.807   2.049
13195TIP3    H139542   5.934   1.747   1.975
13195TIP3    H239543   6.019   1.838   2.061
13196TIP3   OH239544   2.958   3.076   5.378
13196TIP3    H139545   2.975   2.983   5.365
13196TIP3    H239546   3.043   3.118   5.364
13197TIP3   OH239547   0.442   6.479   1.475
13197TIP3    H139548   0.406   6.466   1.563
13197TIP3    H239549   0.445   6.574   1.464
13198TIP3   OH239550   5.232   1.515   5.178
13198TIP3    H139551   5.293   1.588   5.189
13198TIP3    H239552   5.178   1.517   5.256
13199TIP3   OH239553   0.454   2.684   2.187
13199TIP3    H139554   0.521   2.739   2.146
13199TIP3    H239555   0.371   2.717   2.153
13200TIP3   OH239556   0.342   4.670   0.041
13200TIP3    H139557   0.396   4.631   0.110
13200TIP3    H239558   0.254   4.674   0.079
13201TIP3   OH239559   1.894   4.108   4.708
13201TIP3    H139560   1.920   4.035   4.764
13201TIP3    H239561   1.799   4.104   4.705
13202TIP3   OH239562   4.573   2.973   5.850
13202TIP3    H139563   4.588   2.900   5.910
13202TIP3    H239564   4.493   3.014   5.882
13203TIP3   OH239565   6.636   2.549   1.060
13203TIP3    H139566   6.651   2.639   1.031
13203TIP3    H239567   6.658   2.495   0.984
13204TIP3   OH239568   1.456   1.226   1.414
13204TIP3    H139569   1.551   1.232   1.406
13204TIP3    H239570   1.437   1.269   1.498
13205TIP3   OH239571   2.171   0.637   2.289
13205TIP3    H139572   2.147   0.724   2.256
13205TIP3    H239573   2.144   0.577   2.220
13206TIP3   OH239574   0.028   3.550   2.921
13206TIP3    H139575   0.064   3.607   2.852
13206TIP3    H239576  -0.034   3.606   2.968
13207TIP3   OH239577   0.014   1.792   1.200
13207TIP3    H139578   0.043   1.848   1.272
13207TIP3    H239579   0.006   1.705   1.239
13208TIP3   OH239580   0.660   4.156   5.531
13208TIP3    H139581   0.727   4.102   5.574
13208TIP3    H239582   0.680   4.245   5.559
13209TIP3   OH239583   2.081   3.870   3.865
13209TIP3    H139584   2.097   3.901   3.954
13209TIP3    H239585   2.036   3.786   3.876
13210TIP3   OH239586   3.475   1.498   2.414
13210TIP3    H139587   3.440   1.484   2.502
13210TIP3    H239588   3.416   1.561   2.374
13211TIP3   OH239589   0.803   4.014   0.619
13211TIP3    H139590   0.770   4.029   0.531
13211TIP3    H239591   0.741   4.061   0.676
13212TIP3   OH239592   0.235   5.920   1.121
13212TIP3    H139593   0.238   6.013   1.098
13212TIP3    H239594   0.232   5.875   1.036
13213TIP3   OH239595   0.954   4.039   4.107
13213TIP3    H139596   0.868   4.023   4.146
13213TIP3    H239597   1.007   3.964   4.133
13214TIP3   OH239598   5.977   1.873   3.333
13214TIP3    H139599   5.892   1.881   3.375
13214TIP3    H239600   6.039   1.904   3.398
13215TIP3   OH239601   0.990   6.319   5.484
13215TIP3    H139602   0.998   6.361   5.569
13215TIP3    H239603   0.907   6.272   5.488
13216TIP3   OH239604   7.480   0.736   3.766
13216TIP3    H139605   7.533   0.731   3.846
13216TIP3    H239606   7.544   0.723   3.695
13217TIP3   OH239607   2.748   5.081   4.325
13217TIP3    H139608   2.729   4.997   4.285
13217TIP3    H239609   2.735   5.145   4.255
13218TIP3   OH239610   6.650   0.330   3.294
13218TIP3    H139611   6.565   0.288   3.306
13218TIP3    H239612   6.632   0.407   3.239
13219TIP3   OH239613   4.300   6.936   2.438
13219TIP3    H139614   4.360   6.931   2.363
13219TIP3    H239615   4.217   6.902   2.404
13220TIP3   OH239616   0.745   5.934   0.788
13220TIP3    H139617   0.694   5.968   0.862
13220TIP3    H239618   0.687   5.945   0.712
13221TIP3   OH239619   0.674   0.707   2.388
13221TIP3    H139620   0.580   0.695   2.403
13221TIP3    H239621   0.691   0.662   2.306
13222TIP3   OH239622   6.454   1.126   1.005
13222TIP3    H139623   6.513   1.095   0.936
13222TIP3    H239624   6.370   1.135   0.962
13223TIP3   OH239625   4.524   6.280   5.243
13223TIP3    H139626   4.565   6.310   5.162
13223TIP3    H239627   4.433   6.265   5.219
13224TIP3   OH239628   1.311   2.263   0.560
13224TIP3    H139629   1.262   2.187   0.594
13224TIP3    H239630   1.400   2.231   0.549
13225TIP3   OH239631   0.127   2.312   3.785
13225TIP3    H139632   0.089   2.268   3.861
13225TIP3    H239633   0.078   2.394   3.779
13226TIP3   OH239634   8.157   4.648   6.669
13226TIP3    H139635   8.119   4.678   6.587
13226TIP3    H239636   8.182   4.728   6.715
13227TIP3   OH239637   4.874   1.232   5.889
13227TIP3    H139638   4.851   1.285   5.965
13227TIP3    H239639   4.890   1.144   5.925
13228TIP3   OH239640   6.421   3.193   3.004
13228TIP3    H139641   6.508   3.173   3.040
13228TIP3    H239642   6.434   3.272   2.951
13229TIP3   OH239643   0.789   1.646   0.272
13229TIP3    H139644   0.828   1.619   0.355
13229TIP3    H239645   0.799   1.569   0.215
13230TIP3   OH239646   1.525   6.992   4.435
13230TIP3    H139647   1.565   6.918   4.480
13230TIP3    H239648   1.533   6.971   4.342
13231TIP3   OH239649   7.346   4.669   3.169
13231TIP3    H139650   7.263   4.626   3.188
13231TIP3    H239651   7.340   4.692   3.076
13232TIP3   OH239652   0.323   4.871   4.763
13232TIP3    H139653   0.359   4.877   4.675
13232TIP3    H239654   0.378   4.805   4.806
13233TIP3   OH239655   8.148   6.832   1.543
13233TIP3    H139656   8.152   6.922   1.575
13233TIP3    H239657   8.205   6.832   1.466
13234TIP3   OH239658   6.555   4.569   4.909
13234TIP3    H139659   6.519   4.593   4.995
13234TIP3    H239660   6.519   4.482   4.891
13235TIP3   OH239661   5.572   1.725   5.780
13235TIP3    H139662   5.564   1.802   5.724
13235TIP3    H239663   5.523   1.657   5.734
13236TIP3   OH239664   1.660   5.478   5.888
13236TIP3    H139665   1.634   5.481   5.980
13236TIP3    H239666   1.618   5.555   5.849
13237TIP3   OH239667   0.452   2.870   2.814
13237TIP3    H139668   0.447   2.960   2.781
13237TIP3    H239669   0.374   2.860   2.869
13238TIP3   OH239670   5.024   2.374   4.808
13238TIP3    H139671   5.022   2.423   4.727
13238TIP3    H239672   5.045   2.438   4.876
13239TIP3   OH239673   0.648   1.958   4.862
13239TIP3    H139674   0.638   1.866   4.840
13239TIP3    H239675   0.640   1.961   4.958
13240TIP3   OH239676   0.527   0.828   4.841
13240TIP3    H139677   0.532   0.903   4.899
13240TIP3    H239678   0.439   0.831   4.805
13241TIP3   OH239679   6.495   7.045   5.502
13241TIP3    H139680   6.497   6.965   5.449
13241TIP3    H239681   6.416   7.036   5.555
13242TIP3   OH239682   5.729   5.075   5.067
13242TIP3    H139683   5.669   5.144   5.039
13242TIP3    H239684   5.754   5.031   4.986
13243TIP3   OH239685   3.884   6.561   6.036
13243TIP3    H139686   3.966   6.611   6.035
13243TIP3    H239687   3.845   6.578   5.950
13244TIP3   OH239688   2.326   2.658   4.927
13244TIP3    H139689   2.359   2.705   4.851
13244TIP3    H239690   2.328   2.566   4.900
13245TIP3   OH239691   8.244   3.542   5.467
13245TIP3    H139692   8.199   3.538   5.552
13245TIP3    H239693   8.326   3.496   5.481
13246TIP3   OH239694   3.693   6.216   4.122
13246TIP3    H139695   3.758   6.158   4.082
13246TIP3    H239696   3.745   6.277   4.174
13247TIP3   OH239697   5.647   7.688   2.310
13247TIP3    H139698   5.589   7.652   2.377
13247TIP3    H239699   5.657   7.618   2.246
13248TIP3   OH239700   8.255   7.354   1.608
13248TIP3    H139701   8.350   7.363   1.599
13248TIP3    H239702   8.237   7.376   1.699
13249TIP3   OH239703   3.590   5.151   5.755
13249TIP3    H139704   3.517   5.124   5.698
13249TIP3    H239705   3.623   5.232   5.715
13250TIP3   OH239706   0.507   3.371   6.716
13250TIP3    H139707   0.518   3.466   6.716
13250TIP3    H239708   0.594   3.338   6.739
13251TIP3   OH239709   5.545   4.063   4.661
13251TIP3    H139710   5.566   3.985   4.610
13251TIP3    H239711   5.451   4.075   4.650
13252TIP3   OH239712   0.171   2.295   2.540
13252TIP3    H139713   0.238   2.227   2.545
13252TIP3    H239714   0.186   2.349   2.618
13253TIP3   OH239715   1.537   0.753   3.536
13253TIP3    H139716   1.626   0.775   3.507
13253TIP3    H239717   1.481   0.819   3.495
13254TIP3   OH239718   6.746   2.839   2.478
13254TIP3    H139719   6.775   2.929   2.463
13254TIP3    H239720   6.806   2.804   2.544
13255TIP3   OH239721   6.669   1.450   2.095
13255TIP3    H139722   6.758   1.417   2.103
13255TIP3    H239723   6.622   1.411   2.168
13256TIP3   OH239724   5.602   1.012   3.357
13256TIP3    H139725   5.667   0.984   3.421
13256TIP3    H239726   5.553   0.933   3.334
13257TIP3   OH239727   0.702   7.362   3.988
13257TIP3    H139728   0.709   7.450   4.025
13257TIP3    H239729   0.739   7.370   3.901
13258TIP3   OH239730   3.122   7.023   4.469
13258TIP3    H139731   3.078   6.963   4.409
13258TIP3    H239732   3.178   7.076   4.411
13259TIP3   OH239733   3.703   4.966   4.505
13259TIP3    H139734   3.617   4.954   4.546
13259TIP3    H239735   3.762   4.982   4.578
13260TIP3   OH239736   5.645   5.897   0.401
13260TIP3    H139737   5.707   5.827   0.384
13260TIP3    H239738   5.612   5.922   0.314
13261TIP3   OH239739   6.945   0.913   3.091
13261TIP3    H139740   6.866   0.964   3.110
13261TIP3    H239741   7.016   0.963   3.130
13262TIP3   OH239742   0.472   4.750   4.958
13262TIP3    H139743   0.435   4.666   4.985
13262TIP3    H239744   0.454   4.810   5.030
13263TIP3   OH239745   5.333   1.474   2.103
13263TIP3    H139746   5.311   1.482   2.196
13263TIP3    H239747   5.397   1.403   2.099
13264TIP3   OH239748   0.757   3.604   1.473
13264TIP3    H139749   0.802   3.520   1.472
13264TIP3    H239750   0.769   3.639   1.384
13265TIP3   OH239751   0.149   3.894   1.144
13265TIP3    H139752   0.177   3.806   1.120
13265TIP3    H239753   0.129   3.937   1.061
13266TIP3   OH239754   5.161   5.467   3.166
13266TIP3    H139755   5.139   5.557   3.142
13266TIP3    H239756   5.244   5.474   3.214
13267TIP3   OH239757   0.512   5.356   0.222
13267TIP3    H139758   0.526   5.327   0.132
13267TIP3    H239759   0.441   5.420   0.217
13268TIP3   OH239760   4.589   7.409   0.652
13268TIP3    H139761   4.598   7.327   0.700
13268TIP3    H239762   4.649   7.469   0.696
13269TIP3   OH239763   0.991   6.907   3.079
13269TIP3    H139764   0.972   6.937   3.167
13269TIP3    H239765   0.948   6.821   3.073
13270TIP3   OH239766   6.503   1.834   5.531
13270TIP3    H139767   6.421   1.848   5.483
13270TIP3    H239768   6.564   1.897   5.492
13271TIP3   OH239769   4.237   4.247   3.393
13271TIP3    H139770   4.206   4.166   3.432
13271TIP3    H239771   4.332   4.243   3.402
13272TIP3   OH239772   6.541   2.642   1.690
13272TIP3    H139773   6.630   2.628   1.723
13272TIP3    H239774   6.505   2.554   1.681
13273TIP3   OH239775   6.865   4.624   1.862
13273TIP3    H139776   6.900   4.536   1.873
13273TIP3    H239777   6.816   4.641   1.944
13274TIP3   OH239778   4.922   0.965   3.345
13274TIP3    H139779   4.892   0.907   3.275
13274TIP3    H239780   4.859   0.954   3.415
13275TIP3   OH239781   6.163   0.267   4.626
13275TIP3    H139782   6.185   0.174   4.628
13275TIP3    H239783   6.102   0.279   4.699
13276TIP3   OH239784   0.570   0.872   5.432
13276TIP3    H139785   0.529   0.958   5.418
13276TIP3    H239786   0.538   0.818   5.360
13277TIP3   OH239787   6.559   3.117   1.237
13277TIP3    H139788   6.515   3.094   1.155
13277TIP3    H239789   6.573   3.034   1.281
13278TIP3   OH239790   6.411   1.327   6.133
13278TIP3    H139791   6.461   1.261   6.086
13278TIP3    H239792   6.336   1.280   6.169
13279TIP3   OH239793   0.049   4.469   1.860
13279TIP3    H139794   0.040   4.468   1.955
13279TIP3    H239795   0.034   4.378   1.833
13280TIP3   OH239796   5.301   0.684   6.503
13280TIP3    H139797   5.366   0.662   6.436
13280TIP3    H239798   5.303   0.779   6.508
13281TIP3   OH239799   6.918   3.128   5.010
13281TIP3    H139800   6.953   3.148   4.923
13281TIP3    H239801   6.835   3.085   4.994
13282TIP3   OH239802   2.692   3.481   2.662
13282TIP3    H139803   2.722   3.532   2.738
13282TIP3    H239804   2.772   3.457   2.616
13283TIP3   OH239805   4.573   2.561   6.140
13283TIP3    H139806   4.558   2.577   6.233
13283TIP3    H239807   4.530   2.477   6.123
13284TIP3   OH239808   1.768   4.741   3.707
13284TIP3    H139809   1.705   4.709   3.772
13284TIP3    H239810   1.730   4.714   3.623
13285TIP3   OH239811   2.527   0.233   4.191
13285TIP3    H139812   2.526   0.267   4.101
13285TIP3    H239813   2.530   0.312   4.246
13286TIP3   OH239814   5.649   7.128   0.268
13286TIP3    H139815   5.721   7.110   0.329
13286TIP3    H239816   5.627   7.220   0.284
13287TIP3   OH239817   3.702   4.102   3.108
13287TIP3    H139818   3.665   4.021   3.143
13287TIP3    H239819   3.796   4.096   3.128
13288TIP3   OH239820   6.537   6.630   4.868
13288TIP3    H139821   6.526   6.540   4.836
13288TIP3    H239822   6.619   6.628   4.918
13289TIP3   OH239823   5.116   5.807   3.126
13289TIP3    H139824   5.105   5.886   3.178
13289TIP3    H239825   5.167   5.835   3.049
13290TIP3   OH239826   4.571   3.552   4.771
13290TIP3    H139827   4.640   3.617   4.761
13290TIP3    H239828   4.510   3.571   4.700
13291TIP3   OH239829   7.100   2.146   4.488
13291TIP3    H139830   7.140   2.100   4.414
13291TIP3    H239831   7.034   2.084   4.522
13292TIP3   OH239832   5.775   2.041   2.129
13292TIP3    H139833   5.764   1.952   2.097
13292TIP3    H239834   5.870   2.056   2.127
13293TIP3   OH239835   7.661   4.316   0.607
13293TIP3    H139836   7.738   4.278   0.647
13293TIP3    H239837   7.652   4.402   0.649
13294TIP3   OH239838   5.738   3.919   4.999
13294TIP3    H139839   5.771   3.844   5.049
13294TIP3    H239840   5.656   3.889   4.960
13295TIP3   OH239841   4.119   3.772   2.988
13295TIP3    H139842   4.203   3.727   2.996
13295TIP3    H239843   4.098   3.766   2.894
13296TIP3   OH239844   3.625   2.277   4.685
13296TIP3    H139845   3.695   2.306   4.627
13296TIP3    H239846   3.668   2.223   4.750
13297TIP3   OH239847   5.495   2.392   5.526
13297TIP3    H139848   5.492   2.340   5.606
13297TIP3    H239849   5.418   2.448   5.531
13298TIP3   OH239850   3.813   6.600   5.205
13298TIP3    H139851   3.854   6.613   5.290
13298TIP3    H239852   3.843   6.513   5.177
13299TIP3   OH239853   2.776   6.097   5.917
13299TIP3    H139854   2.759   6.143   5.999
13299TIP3    H239855   2.868   6.116   5.898
13300TIP3   OH239856   7.682   6.066   3.974
13300TIP3    H139857   7.599   6.042   4.014
13300TIP3    H239858   7.724   6.125   4.037
13301TIP3   OH239859   3.999   0.618   3.063
13301TIP3    H139860   4.081   0.570   3.051
13301TIP3    H239861   4.025   0.710   3.057
13302TIP3   OH239862   5.481   6.961   4.088
13302TIP3    H139863   5.436   6.998   4.164
13302TIP3    H239864   5.410   6.941   4.026
13303TIP3   OH239865   7.566   2.159   0.330
13303TIP3    H139866   7.623   2.234   0.310
13303TIP3    H239867   7.490   2.198   0.374
13304TIP3   OH239868   2.810   0.437   3.813
13304TIP3    H139869   2.791   0.488   3.734
13304TIP3    H239870   2.898   0.402   3.798
13305TIP3   OH239871   6.658   1.210   6.651
13305TIP3    H139872   6.677   1.186   6.560
13305TIP3    H239873   6.739   1.193   6.698
13306TIP3   OH239874   4.229   3.990   3.453
13306TIP3    H139875   4.291   4.001   3.525
13306TIP3    H239876   4.284   3.969   3.377
13307TIP3   OH239877   7.469   2.375   0.112
13307TIP3    H139878   7.507   2.461   0.127
13307TIP3    H239879   7.434   2.349   0.197
13308TIP3   OH239880   7.238   6.270   6.643
13308TIP3    H139881   7.180   6.346   6.655
13308TIP3    H239882   7.186   6.209   6.589
13309TIP3   OH239883   0.775   7.588   4.129
13309TIP3    H139884   0.742   7.605   4.217
13309TIP3    H239885   0.868   7.611   4.134
13310TIP3   OH239886   7.388   3.545   4.141
13310TIP3    H139887   7.336   3.511   4.214
13310TIP3    H239888   7.466   3.581   4.182
13311TIP3   OH239889   5.118   2.006   2.445
13311TIP3    H139890   5.164   1.924   2.461
13311TIP3    H239891   5.025   1.984   2.447
13312TIP3   OH239892   6.951   6.171   4.902
13312TIP3    H139893   6.862   6.202   4.883
13312TIP3    H239894   6.947   6.076   4.885
13313TIP3   OH239895   5.587   4.200   0.324
13313TIP3    H139896   5.564   4.288   0.296
13313TIP3    H239897   5.640   4.212   0.403
13314TIP3   OH239898   3.773   1.044   5.008
13314TIP3    H139899   3.807   1.131   4.988
13314TIP3    H239900   3.848   0.996   5.042
13315TIP3   OH239901   1.338   3.751   3.549
13315TIP3    H139902   1.393   3.782   3.477
13315TIP3    H239903   1.291   3.676   3.513
13316TIP3   OH239904   1.974   2.983   5.409
13316TIP3    H139905   2.011   2.941   5.332
13316TIP3    H239906   1.955   3.073   5.382
13317TIP3   OH239907   2.368   3.577   5.602
13317TIP3    H139908   2.272   3.567   5.600
13317TIP3    H239909   2.382   3.671   5.593
13318TIP3   OH239910   4.942   5.421   6.159
13318TIP3    H139911   4.868   5.360   6.156
13318TIP3    H239912   4.939   5.459   6.246
13319TIP3   OH239913   7.945   3.017   6.239
13319TIP3    H139914   8.028   3.061   6.226
13319TIP3    H239915   7.942   2.950   6.171
13320TIP3   OH239916   6.379   6.902   1.113
13320TIP3    H139917   6.347   6.942   1.032
13320TIP3    H239918   6.302   6.856   1.148
13321TIP3   OH239919   0.192   2.462   5.851
13321TIP3    H139920   0.158   2.536   5.801
13321TIP3    H239921   0.222   2.400   5.785
13322TIP3   OH239922   5.775   2.505   3.860
13322TIP3    H139923   5.839   2.532   3.927
13322TIP3    H239924   5.777   2.409   3.862
13323TIP3   OH239925  -0.019   0.485   0.370
13323TIP3    H139926   0.051   0.465   0.307
13323TIP3    H239927   0.025   0.491   0.454
13324TIP3   OH239928   6.447   1.125   6.804
13324TIP3    H139929   6.382   1.111   6.735
13324TIP3    H239930   6.522   1.164   6.758
13325TIP3   OH239931   7.758   3.608   5.960
13325TIP3    H139932   7.681   3.649   6.000
13325TIP3    H239933   7.746   3.622   5.866
13326TIP3   OH239934   3.244   2.994   1.372
13326TIP3    H139935   3.273   2.913   1.329
13326TIP3    H239936   3.291   3.063   1.326
13327TIP3   OH239937   3.302   5.708   4.254
13327TIP3    H139938   3.337   5.679   4.170
13327TIP3    H239939   3.365   5.677   4.318
13328TIP3   OH239940   2.287   5.959   4.079
13328TIP3    H139941   2.344   5.926   4.149
13328TIP3    H239942   2.335   5.942   3.998
13329TIP3   OH239943   1.813   1.456   2.972
13329TIP3    H139944   1.721   1.444   2.948
13329TIP3    H239945   1.848   1.367   2.980
13330TIP3   OH239946   7.916   7.183   4.603
13330TIP3    H139947   7.956   7.099   4.576
13330TIP3    H239948   7.938   7.190   4.696
13331TIP3   OH239949   4.052   5.120   3.209
13331TIP3    H139950   4.011   5.204   3.231
13331TIP3    H239951   4.072   5.080   3.294
13332TIP3   OH239952   2.568   4.196   2.634
13332TIP3    H139953   2.563   4.261   2.704
13332TIP3    H239954   2.483   4.202   2.590
13333TIP3   OH239955   7.482   5.497   2.908
13333TIP3    H139956   7.420   5.569   2.894
13333TIP3    H239957   7.434   5.418   2.883
13334TIP3   OH239958   7.778   3.660   0.730
13334TIP3    H139959   7.834   3.616   0.794
13334TIP3    H239960   7.790   3.609   0.650
13335TIP3   OH239961   5.971   5.472   4.882
13335TIP3    H139962   5.914   5.425   4.820
13335TIP3    H239963   6.037   5.408   4.906
13336TIP3   OH239964   4.189   6.023   1.939
13336TIP3    H139965   4.101   6.001   1.968
13336TIP3    H239966   4.203   5.970   1.861
13337TIP3   OH239967   6.566   4.645   0.297
13337TIP3    H139968   6.520   4.633   0.380
13337TIP3    H239969   6.658   4.651   0.321
13338TIP3   OH239970   7.610   7.360   1.001
13338TIP3    H139971   7.518   7.342   1.020
13338TIP3    H239972   7.643   7.280   0.961
13339TIP3   OH239973   6.505   6.592   0.879
13339TIP3    H139974   6.452   6.619   0.803
13339TIP3    H239975   6.445   6.540   0.933
13340TIP3   OH239976   0.836   5.118   3.864
13340TIP3    H139977   0.870   5.029   3.859
13340TIP3    H239978   0.913   5.174   3.874
13341TIP3   OH239979   6.340   5.717   3.511
13341TIP3    H139980   6.398   5.761   3.448
13341TIP3    H239981   6.290   5.789   3.551
13342TIP3   OH239982   3.240   6.555   2.059
13342TIP3    H139983   3.297   6.604   1.999
13342TIP3    H239984   3.151   6.578   2.032
13343TIP3   OH239985   6.753   7.778   3.360
13343TIP3    H139986   6.811   7.812   3.428
13343TIP3    H239987   6.812   7.753   3.289
13344TIP3   OH239988   6.873   3.805   6.151
13344TIP3    H139989   6.950   3.822   6.097
13344TIP3    H239990   6.854   3.712   6.137
13345TIP3   OH239991   3.190   0.946   5.383
13345TIP3    H139992   3.244   0.867   5.389
13345TIP3    H239993   3.227   0.994   5.309
13346TIP3   OH239994   6.624   5.070   4.817
13346TIP3    H139995   6.624   4.977   4.794
13346TIP3    H239996   6.687   5.109   4.756
13347TIP3   OH239997   3.391   1.181   3.046
13347TIP3    H139998   3.412   1.117   3.114
13347TIP3    H239999   3.424   1.142   2.965
13348TIP3   OH240000   1.548   6.917   5.403
13348TIP3    H140001   1.580   6.828   5.418
13348TIP3    H240002   1.550   6.958   5.490
13349TIP3   OH240003   2.281   2.119   3.946
13349TIP3    H140004   2.339   2.062   3.896
13349TIP3    H240005   2.206   2.135   3.888
13350TIP3   OH240006   1.365   0.659   2.360
13350TIP3    H140007   1.369   0.679   2.454
13350TIP3    H240008   1.334   0.569   2.356
13351TIP3   OH240009   0.848   1.918   1.668
13351TIP3    H140010   0.892   1.879   1.743
13351TIP3    H240011   0.849   1.850   1.601
13352TIP3   OH240012   7.494   0.543   2.687
13352TIP3    H140013   7.441   0.602   2.633
13352TIP3    H240014   7.564   0.513   2.629
13353TIP3   OH240015   4.436   4.902   1.726
13353TIP3    H140016   4.477   4.817   1.743
13353TIP3    H240017   4.396   4.926   1.810
13354TIP3   OH240018   4.420   4.545   2.262
13354TIP3    H140019   4.361   4.474   2.237
13354TIP3    H240020   4.364   4.623   2.265
13355TIP3   OH240021   1.659   3.264   1.200
13355TIP3    H140022   1.722   3.200   1.165
13355TIP3    H240023   1.603   3.213   1.259
13356TIP3   OH240024   0.050   0.867   6.345
13356TIP3    H140025   0.123   0.829   6.295
13356TIP3    H240026  -0.022   0.873   6.282
13357TIP3   OH240027   4.244   2.942   5.161
13357TIP3    H140028   4.190   3.005   5.114
13357TIP3    H240029   4.233   2.861   5.112
13358TIP3   OH240030   2.022   5.296   1.608
13358TIP3    H140031   2.098   5.279   1.663
13358TIP3    H240032   1.995   5.210   1.576
13359TIP3   OH240033   5.612   5.524   2.477
13359TIP3    H140034   5.623   5.609   2.432
13359TIP3    H240035   5.567   5.469   2.413
13360TIP3   OH240036   5.589   3.065   1.500
13360TIP3    H140037   5.592   3.159   1.518
13360TIP3    H240038   5.671   3.031   1.537
13361TIP3   OH240039   5.306   0.988   5.741
13361TIP3    H140040   5.308   0.968   5.835
13361TIP3    H240041   5.245   1.062   5.733
13362TIP3   OH240042   2.972   2.580   6.004
13362TIP3    H140043   2.950   2.513   5.939
13362TIP3    H240044   3.022   2.532   6.071
13363TIP3   OH240045   4.352   1.821   5.737
13363TIP3    H140046   4.413   1.869   5.682
13363TIP3    H240047   4.350   1.733   5.700
13364TIP3   OH240048   3.959   2.125   0.061
13364TIP3    H140049   3.938   2.201   0.007
13364TIP3    H240050   3.909   2.139   0.142
13365TIP3   OH240051   5.106   6.854   5.924
13365TIP3    H140052   5.057   6.886   6.000
13365TIP3    H240053   5.189   6.902   5.926
13366TIP3   OH240054   7.402   3.341   3.683
13366TIP3    H140055   7.470   3.408   3.679
13366TIP3    H240056   7.374   3.341   3.775
13367TIP3   OH240057   1.878   4.034   5.376
13367TIP3    H140058   1.929   4.045   5.457
13367TIP3    H240059   1.839   4.120   5.361
13368TIP3   OH240060   4.241   3.243   2.565
13368TIP3    H140061   4.166   3.276   2.516
13368TIP3    H240062   4.213   3.245   2.656
13369TIP3   OH240063   7.450   5.416   6.393
13369TIP3    H140064   7.440   5.506   6.363
13369TIP3    H240065   7.397   5.411   6.473
13370TIP3   OH240066   4.966   2.634   1.820
13370TIP3    H140067   4.996   2.617   1.731
13370TIP3    H240068   5.020   2.707   1.850
13371TIP3   OH240069   6.004   2.177   2.537
13371TIP3    H140070   5.927   2.165   2.594
13371TIP3    H240071   6.050   2.252   2.575
13372TIP3   OH240072   6.949   1.578   5.777
13372TIP3    H140073   6.964   1.673   5.783
13372TIP3    H240074   6.869   1.563   5.828
13373TIP3   OH240075   5.602   4.357   1.540
13373TIP3    H140076   5.692   4.389   1.549
13373TIP3    H240077   5.567   4.403   1.465
13374TIP3   OH240078   4.006   0.659   0.674
13374TIP3    H140079   3.925   0.654   0.623
13374TIP3    H240080   4.013   0.573   0.714
13375TIP3   OH240081   6.558   2.102   4.383
13375TIP3    H140082   6.613   2.044   4.331
13375TIP3    H240083   6.500   2.144   4.320
13376TIP3   OH240084   8.195   2.354   5.564
13376TIP3    H140085   8.131   2.333   5.496
13376TIP3    H240086   8.143   2.373   5.642
13377TIP3   OH240087   3.017   2.577   0.607
13377TIP3    H140088   3.076   2.513   0.567
13377TIP3    H240089   2.941   2.578   0.548
13378TIP3   OH240090   3.344   1.827   6.425
13378TIP3    H140091   3.287   1.775   6.481
13378TIP3    H240092   3.424   1.775   6.418
13379TIP3   OH240093   7.601   0.667   3.990
13379TIP3    H140094   7.634   0.696   4.075
13379TIP3    H240095   7.583   0.573   4.002
13380TIP3   OH240096   1.809   0.808   5.989
13380TIP3    H140097   1.904   0.799   5.998
13380TIP3    H240098   1.795   0.819   5.895
13381TIP3   OH240099   2.418   7.808   4.988
13381TIP3    H140100   2.324   7.808   5.004
13381TIP3    H240101   2.431   7.742   4.920
13382TIP3   OH240102   4.381   5.452   5.181
13382TIP3    H140103   4.319   5.429   5.112
13382TIP3    H240104   4.383   5.376   5.239
13383TIP3   OH240105   2.750   1.706   3.103
13383TIP3    H140106   2.694   1.766   3.054
13383TIP3    H240107   2.835   1.713   3.060
13384TIP3   OH240108   3.394   3.041   1.112
13384TIP3    H140109   3.330   3.086   1.057
13384TIP3    H240110   3.371   2.949   1.105
13385TIP3   OH240111   8.037   4.851   0.097
13385TIP3    H140112   8.085   4.841   0.179
13385TIP3    H240113   7.976   4.777   0.095
13386TIP3   OH240114   4.035   6.047   5.517
13386TIP3    H140115   3.954   6.061   5.566
13386TIP3    H240116   4.079   6.132   5.520
13387TIP3   OH240117   6.381   3.685   6.716
13387TIP3    H140118   6.475   3.669   6.728
13387TIP3    H240119   6.345   3.598   6.700
13388TIP3   OH240120   8.118   0.663   3.821
13388TIP3    H140121   8.106   0.592   3.884
13388TIP3    H240122   8.136   0.740   3.875
13389TIP3   OH240123   0.564   0.420   4.352
13389TIP3    H140124   0.521   0.353   4.405
13389TIP3    H240125   0.494   0.483   4.331
13390TIP3   OH240126   6.098   1.966   6.558
13390TIP3    H140127   6.165   2.033   6.545
13390TIP3    H240128   6.063   1.950   6.470
13391TIP3   OH240129   6.752   7.436   2.985
13391TIP3    H140130   6.758   7.405   3.075
13391TIP3    H240131   6.662   7.414   2.958
13392TIP3   OH240132   6.641   4.139   4.532
13392TIP3    H140133   6.670   4.053   4.565
13392TIP3    H240134   6.649   4.197   4.607
13393TIP3   OH240135   5.929   7.755   6.641
13393TIP3    H140136   5.964   7.796   6.720
13393TIP3    H240137   5.869   7.688   6.674
13394TIP3   OH240138   4.659   7.693   2.546
13394TIP3    H140139   4.618   7.656   2.468
13394TIP3    H240140   4.595   7.757   2.578
13395TIP3   OH240141   7.269   3.494   5.636
13395TIP3    H140142   7.329   3.558   5.598
13395TIP3    H240143   7.303   3.481   5.725
13396TIP3   OH240144   2.089   7.489   1.682
13396TIP3    H140145   2.017   7.546   1.709
13396TIP3    H240146   2.056   7.445   1.603
13397TIP3   OH240147   7.884   3.816   0.167
13397TIP3    H140148   7.859   3.822   0.259
13397TIP3    H240149   7.831   3.744   0.132
13398TIP3   OH240150   6.210   6.586   1.242
13398TIP3    H140151   6.247   6.504   1.209
13398TIP3    H240152   6.159   6.621   1.169
13399TIP3   OH240153   8.049   1.712   1.557
13399TIP3    H140154   8.097   1.794   1.545
13399TIP3    H240155   7.981   1.714   1.490
13400TIP3   OH240156   1.816   2.967   0.432
13400TIP3    H140157   1.879   3.038   0.445
13400TIP3    H240158   1.855   2.914   0.362
13401TIP3   OH240159   0.924   6.697   5.895
13401TIP3    H140160   0.934   6.702   5.800
13401TIP3    H240161   1.003   6.737   5.930
13402TIP3   OH240162   3.714   2.227   2.928
13402TIP3    H140163   3.729   2.284   3.003
13402TIP3    H240164   3.773   2.260   2.860
13403TIP3   OH240165   5.651   2.642   4.746
13403TIP3    H140166   5.652   2.550   4.775
13403TIP3    H240167   5.583   2.645   4.679
13404TIP3   OH240168   7.397   7.141   4.648
13404TIP3    H140169   7.491   7.124   4.652
13404TIP3    H240170   7.388   7.229   4.686
13405TIP3   OH240171   6.770   1.811   6.280
13405TIP3    H140172   6.728   1.763   6.351
13405TIP3    H240173   6.761   1.903   6.306
13406TIP3   OH240174   2.490   5.974   5.340
13406TIP3    H140175   2.562   5.912   5.338
13406TIP3    H240176   2.501   6.021   5.423
13407TIP3   OH240177   7.670   0.671   6.031
13407TIP3    H140178   7.619   0.711   6.101
13407TIP3    H240179   7.668   0.735   5.960
13408TIP3   OH240180   1.064   7.625   1.313
13408TIP3    H140181   1.102   7.661   1.393
13408TIP3    H240182   1.140   7.598   1.261
13409TIP3   OH240183   4.880   2.966   6.147
13409TIP3    H140184   4.948   3.029   6.126
13409TIP3    H240185   4.898   2.891   6.090
13410TIP3   OH240186   1.642   1.911   3.887
13410TIP3    H140187   1.660   1.832   3.937
13410TIP3    H240188   1.549   1.927   3.900
13411TIP3   OH240189   2.474   7.597   3.981
13411TIP3    H140190   2.494   7.581   3.889
13411TIP3    H240191   2.380   7.582   3.989
13412TIP3   OH240192   4.017   1.307   6.190
13412TIP3    H140193   4.076   1.272   6.124
13412TIP3    H240194   4.072   1.361   6.247
13413TIP3   OH240195   6.977   4.321   5.471
13413TIP3    H140196   6.988   4.390   5.405
13413TIP3    H240197   7.038   4.253   5.445
13414TIP3   OH240198   8.074   4.713   0.966
13414TIP3    H140199   8.028   4.787   1.005
13414TIP3    H240200   8.126   4.676   1.037
13415TIP3   OH240201   1.947   5.926   1.501
13415TIP3    H140202   1.892   5.940   1.424
13415TIP3    H240203   2.027   5.888   1.467
13416TIP3   OH240204   5.147   4.758   0.794
13416TIP3    H140205   5.178   4.819   0.726
13416TIP3    H240206   5.062   4.727   0.762
13417TIP3   OH240207   5.579   5.554   2.000
13417TIP3    H140208   5.586   5.649   1.984
13417TIP3    H240209   5.486   5.535   1.990
13418TIP3   OH240210   1.525   6.274   1.926
13418TIP3    H140211   1.446   6.253   1.875
13418TIP3    H240212   1.554   6.189   1.960
13419TIP3   OH240213   5.486   4.040   5.314
13419TIP3    H140214   5.484   4.106   5.383
13419TIP3    H240215   5.440   4.081   5.241
13420TIP3   OH240216   6.763   2.279   4.438
13420TIP3    H140217   6.699   2.208   4.433
13420TIP3    H240218   6.813   2.261   4.518
13421TIP3   OH240219   3.745   1.239   1.655
13421TIP3    H140220   3.672   1.300   1.644
13421TIP3    H240221   3.716   1.179   1.724
13422TIP3   OH240222   6.369   4.541   1.100
13422TIP3    H140223   6.408   4.461   1.064
13422TIP3    H240224   6.368   4.527   1.194
13423TIP3   OH240225   0.976   5.081   6.498
13423TIP3    H140226   1.067   5.106   6.484
13423TIP3    H240227   0.980   4.996   6.542
13424TIP3   OH240228   3.431   4.977   3.975
13424TIP3    H140229   3.490   4.994   3.901
13424TIP3    H240230   3.438   4.883   3.989
13425TIP3   OH240231   7.172   2.965   6.021
13425TIP3    H140232   7.200   2.888   6.069
13425TIP3    H240233   7.077   2.957   6.015
13426TIP3   OH240234   7.000   2.144   0.596
13426TIP3    H140235   7.080   2.160   0.647
13426TIP3    H240236   7.020   2.180   0.509
13427TIP3   OH240237   5.548   0.775   3.668
13427TIP3    H140238   5.579   0.689   3.640
13427TIP3    H240239   5.616   0.806   3.728
13428TIP3   OH240240   3.675   2.735   5.230
13428TIP3    H140241   3.595   2.691   5.258
13428TIP3    H240242   3.697   2.693   5.146
13429TIP3   OH240243   6.796   1.684   4.060
13429TIP3    H140244   6.750   1.612   4.104
13429TIP3    H240245   6.811   1.652   3.971
13430TIP3   OH240246   0.876   7.725   0.979
13430TIP3    H140247   0.872   7.640   0.935
13430TIP3    H240248   0.793   7.767   0.956
13431TIP3   OH240249   7.246   4.034   0.654
13431TIP3    H140250   7.221   3.942   0.649
13431TIP3    H240251   7.214   4.063   0.739
13432TIP3   OH240252   7.275   3.536   1.655
13432TIP3    H140253   7.335   3.461   1.657
13432TIP3    H240254   7.301   3.585   1.576
13433TIP3   OH240255   0.558   1.278   1.561
13433TIP3    H140256   0.584   1.190   1.588
13433TIP3    H240257   0.620   1.301   1.492
13434TIP3   OH240258   0.994   7.852   3.995
13434TIP3    H140259   0.999   7.762   4.026
13434TIP3    H240260   0.982   7.844   3.900
13435TIP3   OH240261   2.526   2.553   4.646
13435TIP3    H140262   2.487   2.641   4.653
13435TIP3    H240263   2.616   2.564   4.676
13436TIP3   OH240264   4.526   7.639   5.561
13436TIP3    H140265   4.438   7.611   5.536
13436TIP3    H240266   4.548   7.709   5.500
13437TIP3   OH240267   1.125   3.434   4.359
13437TIP3    H140268   1.117   3.421   4.264
13437TIP3    H240269   1.200   3.492   4.368
13438TIP3   OH240270   0.045   0.772   4.267
13438TIP3    H140271   0.035   0.856   4.223
13438TIP3    H240272   0.111   0.788   4.334
13439TIP3   OH240273   4.015   4.863   4.086
13439TIP3    H140274   3.961   4.786   4.099
13439TIP3    H240275   4.097   4.843   4.130
13440TIP3   OH240276   0.007   1.513   3.095
13440TIP3    H140277   0.015   1.468   3.011
13440TIP3    H240278   0.012   1.443   3.160
13441TIP3   OH240279   6.909   0.604   0.802
13441TIP3    H140280   6.900   0.555   0.884
13441TIP3    H240281   6.819   0.626   0.778
13442TIP3   OH240282   7.098   3.347   3.774
13442TIP3    H140283   7.113   3.268   3.825
13442TIP3    H240284   7.058   3.409   3.836
13443TIP3   OH240285   6.682   6.351   0.473
13443TIP3    H140286   6.692   6.428   0.530
13443TIP3    H240287   6.729   6.375   0.393
13444TIP3   OH240288   6.506   5.863   1.482
13444TIP3    H140289   6.455   5.918   1.422
13444TIP3    H240290   6.441   5.826   1.541
13445TIP3   OH240291   0.948   3.426   2.771
13445TIP3    H140292   1.003   3.504   2.773
13445TIP3    H240293   0.918   3.415   2.862
13446TIP3   OH240294   4.263   6.277   5.648
13446TIP3    H140295   4.242   6.286   5.556
13446TIP3    H240296   4.179   6.284   5.693
13447TIP3   OH240297   2.612   7.097   1.611
13447TIP3    H140298   2.585   7.168   1.670
13447TIP3    H240299   2.705   7.111   1.597
13448TIP3   OH240300   4.452   2.227   4.269
13448TIP3    H140301   4.537   2.250   4.307
13448TIP3    H240302   4.389   2.282   4.315
13449TIP3   OH240303   2.331   6.379   0.932
13449TIP3    H140304   2.387   6.422   0.997
13449TIP3    H240305   2.354   6.286   0.939
13450TIP3   OH240306   3.797   7.015   3.530
13450TIP3    H140307   3.783   7.095   3.581
13450TIP3    H240308   3.840   7.045   3.450
13451TIP3   OH240309   1.167   3.337   0.800
13451TIP3    H140310   1.169   3.270   0.868
13451TIP3    H240311   1.084   3.323   0.755
13452TIP3   OH240312   4.139   7.699   6.709
13452TIP3    H140313   4.082   7.622   6.696
13452TIP3    H240314   4.129   7.721   6.801
13453TIP3   OH240315   7.305   2.482   6.056
13453TIP3    H140316   7.318   2.555   6.116
13453TIP3    H240317   7.351   2.409   6.097
13454TIP3   OH240318   6.834   0.944   5.432
13454TIP3    H140319   6.847   0.877   5.365
13454TIP3    H240320   6.742   0.970   5.422
13455TIP3   OH240321   7.445   1.198   6.275
13455TIP3    H140322   7.414   1.155   6.195
13455TIP3    H240323   7.494   1.274   6.243
13456TIP3   OH240324   3.452   5.774   1.273
13456TIP3    H140325   3.486   5.854   1.313
13456TIP3    H240326   3.470   5.706   1.337
13457TIP3   OH240327   4.893   5.293   5.008
13457TIP3    H140328   4.962   5.251   5.059
13457TIP3    H240329   4.841   5.341   5.073
13458TIP3   OH240330   4.350   3.755   1.993
13458TIP3    H140331   4.443   3.732   1.994
13458TIP3    H240332   4.324   3.747   1.901
13459TIP3   OH240333   5.335   0.413   6.677
13459TIP3    H140334   5.427   0.439   6.683
13459TIP3    H240335   5.313   0.384   6.765
13460TIP3   OH240336   2.801   7.255   0.161
13460TIP3    H140337   2.713   7.286   0.141
13460TIP3    H240338   2.852   7.275   0.082
13461TIP3   OH240339   4.038  -0.012   3.204
13461TIP3    H140340   4.037   0.078   3.237
13461TIP3    H240341   3.954  -0.048   3.233
13462TIP3   OH240342   0.339   5.286   5.441
13462TIP3    H140343   0.304   5.202   5.411
13462TIP3    H240344   0.377   5.267   5.527
13463TIP3   OH240345   0.754   5.199   5.043
13463TIP3    H140346   0.705   5.121   5.017
13463TIP3    H240347   0.839   5.190   4.999
13464TIP3   OH240348   8.092   2.491   2.519
13464TIP3    H140349   8.123   2.582   2.517
13464TIP3    H240350   8.119   2.454   2.435
13465TIP3   OH240351   1.562   6.057   2.390
13465TIP3    H140352   1.481   6.068   2.340
13465TIP3    H240353   1.598   5.974   2.359
13466TIP3   OH240354   3.786   3.122   6.730
13466TIP3    H140355   3.829   3.039   6.751
13466TIP3    H240356   3.693   3.105   6.743
13467TIP3   OH240357   3.021   4.849   1.752
13467TIP3    H140358   3.043   4.775   1.695
13467TIP3    H240359   2.959   4.813   1.816
13468TIP3   OH240360   3.623   7.357   1.206
13468TIP3    H140361   3.670   7.427   1.252
13468TIP3    H240362   3.634   7.377   1.113
13469TIP3   OH240363   3.793   6.304   2.188
13469TIP3    H140364   3.847   6.378   2.159
13469TIP3    H240365   3.768   6.326   2.277
13470TIP3   OH240366   6.798   0.509   3.729
13470TIP3    H140367   6.737   0.506   3.655
13470TIP3    H240368   6.852   0.431   3.719
13471TIP3   OH240369   7.443   5.738   6.017
13471TIP3    H140370   7.509   5.753   5.951
13471TIP3    H240371   7.360   5.763   5.975
13472TIP3   OH240372   7.093   5.116   5.541
13472TIP3    H140373   7.101   5.136   5.635
13472TIP3    H240374   7.003   5.141   5.519
13473TIP3   OH240375   7.983   1.514   6.392
13473TIP3    H140376   8.062   1.466   6.367
13473TIP3    H240377   7.921   1.446   6.419
13474TIP3   OH240378   6.123   1.126   3.046
13474TIP3    H140379   6.150   1.158   2.960
13474TIP3    H240380   6.199   1.080   3.080
13475TIP3   OH240381   3.876   2.683   2.774
13475TIP3    H140382   3.856   2.644   2.859
13475TIP3    H240383   3.803   2.744   2.758
13476TIP3   OH240384   2.448   2.850   3.012
13476TIP3    H140385   2.394   2.788   2.962
13476TIP3    H240386   2.518   2.874   2.952
13477TIP3   OH240387   6.506   6.823   5.353
13477TIP3    H140388   6.566   6.751   5.372
13477TIP3    H240389   6.434   6.782   5.304
13478TIP3   OH240390   0.299   1.462   2.238
13478TIP3    H140391   0.331   1.378   2.205
13478TIP3    H240392   0.224   1.438   2.294
13479TIP3   OH240393   2.679   4.767   4.817
13479TIP3    H140394   2.712   4.857   4.823
13479TIP3    H240395   2.631   4.765   4.734
13480TIP3   OH240396   5.347   6.062   0.596
13480TIP3    H140397   5.352   6.085   0.503
13480TIP3    H240398   5.378   5.972   0.601
13481TIP3   OH240399   4.783   6.341   1.897
13481TIP3    H140400   4.711   6.396   1.927
13481TIP3    H240401   4.795   6.365   1.805
13482TIP3   OH240402   1.994   7.179   1.906
13482TIP3    H140403   2.001   7.272   1.927
13482TIP3    H240404   2.084   7.151   1.890
13483TIP3   OH240405   0.984   4.258   4.642
13483TIP3    H140406   0.924   4.199   4.687
13483TIP3    H240407   1.064   4.257   4.694
13484TIP3   OH240408   2.021   4.914   1.524
13484TIP3    H140409   2.020   4.975   1.451
13484TIP3    H240410   1.969   4.839   1.494
13485TIP3   OH240411   4.433   4.354   1.722
13485TIP3    H140412   4.347   4.379   1.688
13485TIP3    H240413   4.419   4.342   1.816
13486TIP3   OH240414   4.008   6.424   6.577
13486TIP3    H140415   3.914   6.406   6.583
13486TIP3    H240416   4.042   6.399   6.663
13487TIP3   OH240417   0.660   5.910   3.689
13487TIP3    H140418   0.598   5.960   3.636
13487TIP3    H240419   0.730   5.887   3.628
13488TIP3   OH240420   5.358   4.182   5.099
13488TIP3    H140421   5.384   4.228   5.019
13488TIP3    H240422   5.363   4.249   5.168
13489TIP3   OH240423   2.510   7.286   5.777
13489TIP3    H140424   2.455   7.276   5.699
13489TIP3    H240425   2.582   7.344   5.749
13490TIP3   OH240426   1.662   6.383   5.121
13490TIP3    H140427   1.599   6.376   5.193
13490TIP3    H240428   1.748   6.374   5.163
13491TIP3   OH240429   0.087   3.127   5.375
13491TIP3    H140430   0.085   3.035   5.348
13491TIP3    H240431  -0.002   3.158   5.362
13492TIP3   OH240432   6.422   7.707   0.001
13492TIP3    H140433   6.398   7.714   0.094
13492TIP3    H240434   6.346   7.666  -0.040
13493TIP3   OH240435   6.005   1.932   2.820
13493TIP3    H140436   6.031   1.959   2.908
13493TIP3    H240437   5.925   1.982   2.802
13494TIP3   OH240438   3.952   1.306   0.645
13494TIP3    H140439   4.023   1.362   0.613
13494TIP3    H240440   3.912   1.271   0.565
13495TIP3   OH240441   1.011   3.192   6.267
13495TIP3    H140442   1.095   3.160   6.233
13495TIP3    H240443   0.996   3.142   6.347
13496TIP3   OH240444   5.530   3.315   3.185
13496TIP3    H140445   5.435   3.322   3.195
13496TIP3    H240446   5.560   3.280   3.269
13497TIP3   OH240447   1.032   3.400   3.448
13497TIP3    H140448   1.010   3.354   3.367
13497TIP3    H240449   1.108   3.352   3.482
13498TIP3   OH240450   2.055   2.234   0.581
13498TIP3    H140451   1.988   2.301   0.564
13498TIP3    H240452   2.057   2.227   0.676
13499TIP3   OH240453   6.066   4.378   4.636
13499TIP3    H140454   6.077   4.312   4.703
13499TIP3    H240455   6.097   4.336   4.555
13500TIP3   OH240456   6.675   4.797   4.732
13500TIP3    H140457   6.717   4.753   4.658
13500TIP3    H240458   6.622   4.728   4.773
13501TIP3   OH240459   3.054   7.180   2.492
13501TIP3    H140460   3.082   7.105   2.543
13501TIP3    H240461   3.026   7.245   2.556
13502TIP3   OH240462   2.709   3.272   3.663
13502TIP3    H140463   2.707   3.177   3.661
13502TIP3    H240464   2.672   3.295   3.748
13503TIP3   OH240465   5.924   4.356   5.205
13503TIP3    H140466   5.992   4.290   5.217
13503TIP3    H240467   5.899   4.381   5.294
13504TIP3   OH240468   8.155   1.680   6.132
13504TIP3    H140469   8.245   1.682   6.098
13504TIP3    H240470   8.151   1.755   6.192
13505TIP3   OH240471   5.352   6.357   6.013
13505TIP3    H140472   5.349   6.447   6.045
13505TIP3    H240473   5.430   6.320   6.055
13506TIP3   OH240474   3.433   5.665   2.778
13506TIP3    H140475   3.425   5.761   2.777
13506TIP3    H240476   3.506   5.648   2.837
13507TIP3   OH240477   3.588   4.175   3.364
13507TIP3    H140478   3.640   4.153   3.287
13507TIP3    H240479   3.619   4.116   3.432
13508TIP3   OH240480   2.069   4.346   1.124
13508TIP3    H140481   2.097   4.258   1.100
13508TIP3    H240482   2.007   4.334   1.196
13509TIP3   OH240483   1.094   5.105   5.670
13509TIP3    H140484   1.022   5.081   5.728
13509TIP3    H240485   1.166   5.127   5.729
13510TIP3   OH240486   2.294   6.571   5.188
13510TIP3    H140487   2.292   6.479   5.214
13510TIP3    H240488   2.208   6.588   5.150
13511TIP3   OH240489   8.156   3.348   5.277
13511TIP3    H140490   8.209   3.410   5.328
13511TIP3    H240491   8.112   3.295   5.343
13512TIP3   OH240492   2.554   0.640   2.099
13512TIP3    H140493   2.534   0.727   2.134
13512TIP3    H240494   2.649   0.635   2.100
13513TIP3   OH240495   8.011   0.752   4.455
13513TIP3    H140496   8.080   0.815   4.477
13513TIP3    H240497   7.942   0.805   4.415
13514TIP3   OH240498   5.577   1.822   0.392
13514TIP3    H140499   5.645   1.793   0.453
13514TIP3    H240500   5.625   1.866   0.322
13515TIP3   OH240501   2.992   3.290   2.610
13515TIP3    H140502   2.943   3.259   2.534
13515TIP3    H240503   3.020   3.378   2.585
13516TIP3   OH240504   7.469   4.369   0.053
13516TIP3    H140505   7.449   4.438  -0.011
13516TIP3    H240506   7.391   4.364   0.108
13517TIP3   OH240507   3.506   1.172   0.277
13517TIP3    H140508   3.477   1.254   0.318
13517TIP3    H240509   3.526   1.197   0.187
13518TIP3   OH240510   6.677   4.363   6.745
13518TIP3    H140511   6.598   4.313   6.761
13518TIP3    H240512   6.697   4.347   6.652
13519TIP3   OH240513   2.118   3.763   2.981
13519TIP3    H140514   2.153   3.841   2.940
13519TIP3    H240515   2.194   3.718   3.017
13520TIP3   OH240516   3.954   4.852   1.034
13520TIP3    H140517   3.994   4.937   1.016
13520TIP3    H240518   3.967   4.802   0.953
13521TIP3   OH240519   2.000   4.608   3.740
13521TIP3    H140520   2.081   4.656   3.760
13521TIP3    H240521   1.930   4.673   3.750
13522TIP3   OH240522   1.720   1.259   0.725
13522TIP3    H140523   1.725   1.283   0.818
13522TIP3    H240524   1.803   1.215   0.707
13523TIP3   OH240525   0.218   3.890   3.761
13523TIP3    H140526   0.264   3.843   3.831
13523TIP3    H240527   0.142   3.836   3.741
13524TIP3   OH240528   2.086   5.675   4.040
13524TIP3    H140529   2.169   5.682   4.089
13524TIP3    H240530   2.102   5.725   3.960
13525TIP3   OH240531   3.860   4.163   1.358
13525TIP3    H140532   3.821   4.249   1.374
13525TIP3    H240533   3.889   4.166   1.267
13526TIP3   OH240534   7.508   6.163   3.038
13526TIP3    H140535   7.468   6.155   2.951
13526TIP3    H240536   7.602   6.165   3.021
13527TIP3   OH240537   2.593   7.576   3.669
13527TIP3    H140538   2.565   7.557   3.579
13527TIP3    H240539   2.660   7.511   3.687
13528TIP3   OH240540   3.905   7.769   1.200
13528TIP3    H140541   3.936   7.800   1.285
13528TIP3    H240542   3.814   7.799   1.196
13529TIP3   OH240543   7.714   0.760   2.190
13529TIP3    H140544   7.801   0.733   2.158
13529TIP3    H240545   7.653   0.717   2.130
13530TIP3   OH240546   4.173   3.465   4.891
13530TIP3    H140547   4.261   3.503   4.889
13530TIP3    H240548   4.166   3.420   4.807
13531TIP3   OH240549   0.907   0.679   6.476
13531TIP3    H140550   0.986   0.637   6.511
13531TIP3    H240551   0.866   0.611   6.422
13532TIP3   OH240552   1.253   1.057   6.585
13532TIP3    H140553   1.316   0.986   6.596
13532TIP3    H240554   1.168   1.017   6.607
13533TIP3   OH240555   5.190   6.446   3.814
13533TIP3    H140556   5.257   6.482   3.873
13533TIP3    H240557   5.108   6.459   3.861
13534TIP3   OH240558   5.393   3.057   5.282
13534TIP3    H140559   5.438   2.973   5.296
13534TIP3    H240560   5.337   3.041   5.206
13535TIP3   OH240561   5.477   4.508   0.243
13535TIP3    H140562   5.421   4.440   0.207
13535TIP3    H240563   5.440   4.590   0.210
13536TIP3   OH240564   7.860   1.950   3.799
13536TIP3    H140565   7.785   1.898   3.827
13536TIP3    H240566   7.825   2.011   3.734
13537TIP3   OH240567   3.383   0.566   0.928
13537TIP3    H140568   3.324   0.627   0.972
13537TIP3    H240569   3.432   0.525   1.000
13538TIP3   OH240570   6.125   1.976   3.793
13538TIP3    H140571   6.105   2.058   3.838
13538TIP3    H240572   6.055   1.916   3.818
13539TIP3   OH240573   6.535   0.607   6.680
13539TIP3    H140574   6.581   0.555   6.613
13539TIP3    H240575   6.557   0.564   6.762
13540TIP3   OH240576   7.579   7.484   3.876
13540TIP3    H140577   7.577   7.433   3.795
13540TIP3    H240578   7.663   7.462   3.916
13541TIP3   OH240579   6.015   6.092   1.313
13541TIP3    H140580   6.071   6.018   1.339
13541TIP3    H240581   5.990   6.071   1.222
13542TIP3   OH240582   4.001   0.544   2.655
13542TIP3    H140583   3.978   0.456   2.684
13542TIP3    H240584   4.096   0.540   2.640
13543TIP3   OH240585   5.637   3.627   5.599
13543TIP3    H140586   5.633   3.537   5.565
13543TIP3    H240587   5.730   3.639   5.622
13544TIP3   OH240588   6.319   4.837   4.808
13544TIP3    H140589   6.360   4.819   4.893
13544TIP3    H240590   6.245   4.777   4.804
13545TIP3   OH240591   6.983   7.451   0.351
13545TIP3    H140592   7.019   7.456   0.439
13545TIP3    H240593   6.929   7.372   0.351
13546TIP3   OH240594   3.574   6.929   0.062
13546TIP3    H140595   3.563   6.834   0.053
13546TIP3    H240596   3.642   6.938   0.129
13547TIP3   OH240597   3.606   5.996   1.360
13547TIP3    H140598   3.676   5.987   1.425
13547TIP3    H240599   3.605   6.089   1.339
13548TIP3   OH240600   5.272   5.636   5.717
13548TIP3    H140601   5.296   5.543   5.716
13548TIP3    H240602   5.278   5.662   5.626
13549TIP3   OH240603   1.082   3.245   4.551
13549TIP3    H140604   1.139   3.303   4.502
13549TIP3    H240605   1.010   3.224   4.491
13550TIP3   OH240606   4.465   7.688   2.312
13550TIP3    H140607   4.429   7.726   2.393
13550TIP3    H240608   4.453   7.757   2.247
13551TIP3   OH240609   6.073   6.287   2.467
13551TIP3    H140610   5.981   6.262   2.477
13551TIP3    H240611   6.101   6.246   2.385
13552TIP3   OH240612   6.030   3.958   0.198
13552TIP3    H140613   5.960   3.968   0.263
13552TIP3    H240614   6.075   3.878   0.225
13553TIP3   OH240615   0.262   3.432   4.687
13553TIP3    H140616   0.241   3.524   4.672
13553TIP3    H240617   0.352   3.422   4.658
13554TIP3   OH240618   6.687   3.497   1.566
13554TIP3    H140619   6.678   3.495   1.471
13554TIP3    H240620   6.773   3.537   1.581
13555TIP3   OH240621   3.770   4.343   0.570
13555TIP3    H140622   3.790   4.318   0.480
13555TIP3    H240623   3.776   4.439   0.570
13556TIP3   OH240624   1.823   3.462   3.395
13556TIP3    H140625   1.756   3.406   3.355
13556TIP3    H240626   1.898   3.455   3.336
13557TIP3   OH240627   6.467   6.571   2.770
13557TIP3    H140628   6.550   6.585   2.816
13557TIP3    H240629   6.488   6.585   2.677
13558TIP3   OH240630   4.458   7.633   4.497
13558TIP3    H140631   4.422   7.703   4.443
13558TIP3    H240632   4.483   7.675   4.579
13559TIP3   OH240633   6.870   0.974   4.308
13559TIP3    H140634   6.908   0.983   4.395
13559TIP3    H240635   6.809   0.901   4.316
13560TIP3   OH240636   1.255   6.908   5.387
13560TIP3    H140637   1.257   6.988   5.439
13560TIP3    H240638   1.341   6.904   5.346
13561TIP3   OH240639   3.623   0.187   3.050
13561TIP3    H140640   3.691   0.144   2.998
13561TIP3    H240641   3.541   0.162   3.008
13562TIP3   OH240642   0.641   6.917   2.216
13562TIP3    H140643   0.604   6.910   2.305
13562TIP3    H240644   0.660   7.010   2.205
13563TIP3   OH240645   3.553   1.469   3.865
13563TIP3    H140646   3.489   1.449   3.796
13563TIP3    H240647   3.501   1.473   3.945
13564TIP3   OH240648   7.757   0.766   5.421
13564TIP3    H140649   7.667   0.791   5.439
13564TIP3    H240650   7.790   0.835   5.364
13565TIP3   OH240651   1.703   0.567   2.869
13565TIP3    H140652   1.634   0.569   2.935
13565TIP3    H240653   1.666   0.515   2.798
13566TIP3   OH240654   3.757   3.131   4.512
13566TIP3    H140655   3.759   3.038   4.537
13566TIP3    H240656   3.681   3.166   4.558
13567TIP3   OH240657   7.563   0.453   2.189
13567TIP3    H140658   7.516   0.380   2.149
13567TIP3    H240659   7.562   0.522   2.123
13568TIP3   OH240660   0.188   4.805   5.722
13568TIP3    H140661   0.230   4.751   5.655
13568TIP3    H240662   0.098   4.815   5.691
13569TIP3   OH240663   6.678   2.767   6.296
13569TIP3    H140664   6.643   2.680   6.278
13569TIP3    H240665   6.743   2.753   6.365
13570TIP3   OH240666   0.279   1.832   3.949
13570TIP3    H140667   0.233   1.785   3.880
13570TIP3    H240668   0.210   1.868   4.004
13571TIP3   OH240669   6.872   0.686   1.078
13571TIP3    H140670   6.799   0.726   1.031
13571TIP3    H240671   6.896   0.750   1.145
13572TIP3   OH240672   0.861   7.415   6.710
13572TIP3    H140673   0.929   7.366   6.757
13572TIP3    H240674   0.891   7.506   6.712
13573TIP3   OH240675   7.366   7.365   3.307
13573TIP3    H140676   7.401   7.292   3.358
13573TIP3    H240677   7.429   7.378   3.236
13574TIP3   OH240678   2.093   6.017   5.813
13574TIP3    H140679   2.115   6.106   5.840
13574TIP3    H240680   2.161   5.993   5.750
13575TIP3   OH240681   3.497   1.669   5.695
13575TIP3    H140682   3.507   1.651   5.788
13575TIP3    H240683   3.508   1.764   5.687
13576TIP3   OH240684   0.391   3.055   5.355
13576TIP3    H140685   0.314   3.112   5.347
13576TIP3    H240686   0.457   3.109   5.397
13577TIP3   OH240687   8.138   2.010   4.728
13577TIP3    H140688   8.061   2.033   4.779
13577TIP3    H240689   8.210   2.059   4.768
13578TIP3   OH240690   5.531   0.692   5.701
13578TIP3    H140691   5.510   0.746   5.777
13578TIP3    H240692   5.456   0.702   5.643
13579TIP3   OH240693   6.906   1.249   6.087
13579TIP3    H140694   6.879   1.244   5.995
13579TIP3    H240695   6.865   1.329   6.119
13580TIP3   OH240696   1.143   6.922   5.748
13580TIP3    H140697   1.076   6.982   5.781
13580TIP3    H240698   1.225   6.968   5.760
13581TIP3   OH240699   4.998   2.930   5.389
13581TIP3    H140700   4.945   2.974   5.322
13581TIP3    H240701   4.939   2.922   5.464
13582TIP3   OH240702   7.671   1.386   0.379
13582TIP3    H140703   7.627   1.427   0.454
13582TIP3    H240704   7.739   1.449   0.354
13583TIP3   OH240705   5.418   3.898   0.288
13583TIP3    H140706   5.327   3.887   0.262
13583TIP3    H240707   5.442   3.814   0.328
13584TIP3   OH240708   5.535   2.651   0.895
13584TIP3    H140709   5.565   2.695   0.815
13584TIP3    H240710   5.500   2.722   0.949
13585TIP3   OH240711   0.710   5.346   2.397
13585TIP3    H140712   0.768   5.379   2.329
13585TIP3    H240713   0.626   5.390   2.381
13586TIP3   OH240714   3.917   3.974   5.529
13586TIP3    H140715   3.966   4.001   5.607
13586TIP3    H240716   3.907   4.054   5.478
13587TIP3   OH240717   8.039   3.882   2.681
13587TIP3    H140718   8.054   3.937   2.604
13587TIP3    H240719   8.077   3.797   2.657
13588TIP3   OH240720   1.388   2.098   0.868
13588TIP3    H140721   1.301   2.067   0.894
13588TIP3    H240722   1.409   2.048   0.789
13589TIP3   OH240723   3.474   3.256   6.696
13589TIP3    H140724   3.498   3.320   6.762
13589TIP3    H240725   3.541   3.266   6.628
13590TIP3   OH240726   3.877   7.790   1.749
13590TIP3    H140727   3.871   7.728   1.821
13590TIP3    H240728   3.903   7.873   1.790
13591TIP3   OH240729   0.515   1.833   1.019
13591TIP3    H140730   0.586   1.880   0.976
13591TIP3    H240731   0.511   1.870   1.107
13592TIP3   OH240732   0.811   6.689   3.958
13592TIP3    H140733   0.804   6.783   3.975
13592TIP3    H240734   0.733   6.651   3.997
13593TIP3   OH240735   2.215   0.282   0.778
13593TIP3    H140736   2.293   0.227   0.781
13593TIP3    H240737   2.248   0.369   0.758
13594TIP3   OH240738   1.527   4.602   0.794
13594TIP3    H140739   1.584   4.674   0.819
13594TIP3    H240740   1.443   4.622   0.837
13595TIP3   OH240741   5.658   5.858   6.227
13595TIP3    H140742   5.616   5.884   6.309
13595TIP3    H240743   5.657   5.763   6.228
13596TIP3   OH240744   5.848   0.838   1.455
13596TIP3    H140745   5.753   0.826   1.461
13596TIP3    H240746   5.862   0.931   1.469
13597TIP3   OH240747   4.938   2.242   6.277
13597TIP3    H140748   4.912   2.156   6.243
13597TIP3    H240749   4.940   2.231   6.372
13598TIP3   OH240750   3.624   0.053   2.613
13598TIP3    H140751   3.646   0.145   2.631
13598TIP3    H240752   3.529   0.049   2.622
13599TIP3   OH240753   0.394   1.041   2.359
13599TIP3    H140754   0.322   1.067   2.416
13599TIP3    H240755   0.439   0.971   2.408
13600TIP3   OH240756   7.172   5.517   3.661
13600TIP3    H140757   7.194   5.446   3.601
13600TIP3    H240758   7.255   5.538   3.704
13601TIP3   OH240759   3.156   4.335   5.616
13601TIP3    H140760   3.120   4.257   5.659
13601TIP3    H240761   3.243   4.346   5.655
13602TIP3   OH240762   4.944   7.289   3.954
13602TIP3    H140763   4.881   7.250   3.894
13602TIP3    H240764   4.891   7.333   4.020
13603TIP3   OH240765   5.341   2.480   3.397
13603TIP3    H140766   5.264   2.516   3.441
13603TIP3    H240767   5.370   2.409   3.454
13604TIP3   OH240768   2.567   5.626   1.010
13604TIP3    H140769   2.487   5.674   1.031
13604TIP3    H240770   2.625   5.641   1.085
13605TIP3   OH240771   3.638   6.947   2.274
13605TIP3    H140772   3.642   6.969   2.181
13605TIP3    H240773   3.566   7.000   2.309
13606TIP3   OH240774   6.561   3.392   3.363
13606TIP3    H140775   6.489   3.347   3.408
13606TIP3    H240776   6.523   3.474   3.332
13607TIP3   OH240777   7.982   6.195   0.119
13607TIP3    H140778   8.009   6.118   0.069
13607TIP3    H240779   8.011   6.270   0.066
13608TIP3   OH240780   5.352   1.012   1.616
13608TIP3    H140781   5.263   1.033   1.586
13608TIP3    H240782   5.339   0.976   1.704
13609TIP3   OH240783   6.756   3.203   5.495
13609TIP3    H140784   6.834   3.179   5.445
13609TIP3    H240785   6.711   3.267   5.441
13610TIP3   OH240786   3.809   5.992   1.530
13610TIP3    H140787   3.818   5.998   1.625
13610TIP3    H240788   3.897   5.974   1.498
13611TIP3   OH240789   2.523   6.503   1.132
13611TIP3    H140790   2.612   6.532   1.151
13611TIP3    H240791   2.486   6.482   1.217
13612TIP3   OH240792   2.768   4.340   6.034
13612TIP3    H140793   2.836   4.383   6.085
13612TIP3    H240794   2.686   4.369   6.075
13613TIP3   OH240795   3.586   1.890   3.735
13613TIP3    H140796   3.653   1.823   3.717
13613TIP3    H240797   3.504   1.840   3.740
13614TIP3   OH240798   4.899   3.483   0.998
13614TIP3    H140799   4.972   3.449   0.946
13614TIP3    H240800   4.901   3.431   1.078
13615TIP3   OH240801   0.832   4.870   3.461
13615TIP3    H140802   0.855   4.874   3.554
13615TIP3    H240803   0.809   4.779   3.446
13616TIP3   OH240804   3.771   0.173   5.720
13616TIP3    H140805   3.769   0.130   5.635
13616TIP3    H240806   3.862   0.163   5.750
13617TIP3   OH240807   4.120   1.101   4.718
13617TIP3    H140808   4.134   1.172   4.781
13617TIP3    H240809   4.139   1.140   4.633
13618TIP3   OH240810   5.055   1.060   5.359
13618TIP3    H140811   5.023   1.150   5.350
13618TIP3    H240812   5.150   1.069   5.367
13619TIP3   OH240813   5.822   6.124   2.355
13619TIP3    H140814   5.788   6.200   2.402
13619TIP3    H240815   5.831   6.057   2.423
13620TIP3   OH240816   0.802   6.579   6.689
13620TIP3    H140817   0.780   6.570   6.782
13620TIP3    H240818   0.736   6.526   6.644
13621TIP3   OH240819   1.529   6.248   6.183
13621TIP3    H140820   1.475   6.282   6.112
13621TIP3    H240821   1.500   6.157   6.194
13622TIP3   OH240822   3.609   7.711   3.553
13622TIP3    H140823   3.556   7.643   3.596
13622TIP3    H240824   3.608   7.687   3.461
13623TIP3   OH240825   2.235   7.051   2.686
13623TIP3    H140826   2.188   7.132   2.702
13623TIP3    H240827   2.287   7.068   2.607
13624TIP3   OH240828   1.252   1.744   1.858
13624TIP3    H140829   1.213   1.692   1.787
13624TIP3    H240830   1.268   1.680   1.928
13625TIP3   OH240831   3.966   6.016   5.224
13625TIP3    H140832   3.933   5.935   5.184
13625TIP3    H240833   3.958   6.000   5.318
13626TIP3   OH240834   2.469   3.526   4.725
13626TIP3    H140835   2.480   3.594   4.792
13626TIP3    H240836   2.439   3.574   4.648
13627TIP3   OH240837   5.243   4.983   0.308
13627TIP3    H140838   5.266   5.014   0.396
13627TIP3    H240839   5.148   4.976   0.309
13628TIP3   OH240840   3.038   1.760   1.635
13628TIP3    H140841   2.957   1.745   1.588
13628TIP3    H240842   3.036   1.853   1.658
13629TIP3   OH240843   1.864   6.125   0.344
13629TIP3    H140844   1.893   6.053   0.400
13629TIP3    H240845   1.833   6.082   0.264
13630TIP3   OH240846   7.465   5.644   4.525
13630TIP3    H140847   7.487   5.570   4.581
13630TIP3    H240848   7.542   5.654   4.468
13631TIP3   OH240849   1.383   5.405   0.989
13631TIP3    H140850   1.387   5.475   1.054
13631TIP3    H240851   1.474   5.375   0.981
13632TIP3   OH240852   2.035   0.991   3.419
13632TIP3    H140853   1.998   0.984   3.331
13632TIP3    H240854   2.125   0.960   3.410
13633TIP3   OH240855   3.746   1.272   3.230
13633TIP3    H140856   3.750   1.365   3.211
13633TIP3    H240857   3.706   1.233   3.152
13634TIP3   OH240858   2.226   5.379   5.618
13634TIP3    H140859   2.146   5.401   5.571
13634TIP3    H240860   2.235   5.284   5.607
13635TIP3   OH240861   0.467   5.600   3.030
13635TIP3    H140862   0.476   5.695   3.026
13635TIP3    H240863   0.545   5.570   3.076
13636TIP3   OH240864   4.490   6.114   4.542
13636TIP3    H140865   4.473   6.129   4.635
13636TIP3    H240866   4.507   6.202   4.506
13637TIP3   OH240867   7.330   7.242   3.951
13637TIP3    H140868   7.309   7.335   3.947
13637TIP3    H240869   7.289   7.210   4.031
13638TIP3   OH240870   1.658   2.900   2.677
13638TIP3    H140871   1.658   2.871   2.586
13638TIP3    H240872   1.725   2.969   2.680
13639TIP3   OH240873   2.607   0.126   1.806
13639TIP3    H140874   2.604   0.202   1.749
13639TIP3    H240875   2.589   0.160   1.893
13640TIP3   OH240876   0.312   0.610   3.144
13640TIP3    H140877   0.407   0.621   3.153
13640TIP3    H240878   0.281   0.591   3.232
13641TIP3   OH240879   5.010   0.755   1.683
13641TIP3    H140880   5.049   0.741   1.597
13641TIP3    H240881   4.999   0.666   1.719
13642TIP3   OH240882   4.673   6.543   3.528
13642TIP3    H140883   4.596   6.563   3.474
13642TIP3    H240884   4.692   6.451   3.511
13643TIP3   OH240885   4.033   0.151   5.800
13643TIP3    H140886   4.096   0.078   5.796
13643TIP3    H240887   4.085   0.229   5.781
13644TIP3   OH240888   2.524   3.728   3.098
13644TIP3    H140889   2.571   3.714   3.180
13644TIP3    H240890   2.472   3.807   3.113
13645TIP3   OH240891   7.803   2.084   5.183
13645TIP3    H140892   7.786   2.147   5.112
13645TIP3    H240893   7.895   2.060   5.171
13646TIP3   OH240894   6.444   5.933   0.925
13646TIP3    H140895   6.386   5.876   0.975
13646TIP3    H240896   6.403   6.020   0.931
13647TIP3   OH240897   4.750   3.143   1.784
13647TIP3    H140898   4.708   3.059   1.764
13647TIP3    H240899   4.833   3.140   1.738
13648TIP3   OH240900   5.336   1.714   4.948
13648TIP3    H140901   5.426   1.727   4.917
13648TIP3    H240902   5.343   1.712   5.043
13649TIP3   OH240903   7.523   5.935   5.527
13649TIP3    H140904   7.563   6.021   5.519
13649TIP3    H240905   7.511   5.905   5.436
13650TIP3   OH240906   7.441   3.003   1.163
13650TIP3    H140907   7.472   2.913   1.173
13650TIP3    H240908   7.439   3.018   1.068
13651TIP3   OH240909   1.408   3.619   1.558
13651TIP3    H140910   1.392   3.577   1.643
13651TIP3    H240911   1.344   3.690   1.555
13652TIP3   OH240912   2.916   0.521   5.714
13652TIP3    H140913   3.003   0.554   5.737
13652TIP3    H240914   2.885   0.478   5.794
13653TIP3   OH240915   0.789   3.336   2.399
13653TIP3    H140916   0.738   3.358   2.321
13653TIP3    H240917   0.874   3.377   2.384
13654TIP3   OH240918   1.830   0.348   6.570
13654TIP3    H140919   1.750   0.399   6.580
13654TIP3    H240920   1.811   0.285   6.501
13655TIP3   OH240921   4.477   0.628   4.708
13655TIP3    H140922   4.544   0.661   4.648
13655TIP3    H240923   4.394   0.641   4.662
13656TIP3   OH240924   1.350   3.485   1.798
13656TIP3    H140925   1.274   3.508   1.851
13656TIP3    H240926   1.415   3.456   1.862
13657TIP3   OH240927   5.371   4.155   0.947
13657TIP3    H140928   5.455   4.199   0.961
13657TIP3    H240929   5.389   4.089   0.880
13658TIP3   OH240930   7.304   5.823   2.196
13658TIP3    H140931   7.381   5.881   2.197
13658TIP3    H240932   7.242   5.865   2.255
13659TIP3   OH240933   5.779   7.051   5.181
13659TIP3    H140934   5.794   7.130   5.129
13659TIP3    H240935   5.865   7.008   5.183
13660TIP3   OH240936   2.218   0.437   0.214
13660TIP3    H140937   2.168   0.395   0.144
13660TIP3    H240938   2.186   0.396   0.294
13661TIP3   OH240939   0.985   4.520   4.525
13661TIP3    H140940   0.986   4.435   4.569
13661TIP3    H240941   0.977   4.499   4.432
13662TIP3   OH240942   7.346   6.677   3.780
13662TIP3    H140943   7.416   6.737   3.805
13662TIP3    H240944   7.319   6.635   3.862
13663TIP3   OH240945   1.917   3.547   3.023
13663TIP3    H140946   1.976   3.615   2.991
13663TIP3    H240947   1.966   3.503   3.093
13664TIP3   OH240948   3.300   5.672   5.299
13664TIP3    H140949   3.206   5.686   5.295
13664TIP3    H240950   3.310   5.580   5.323
13665TIP3   OH240951   0.033   1.302   1.409
13665TIP3    H140952   0.115   1.289   1.458
13665TIP3    H240953  -0.035   1.271   1.469
13666TIP3   OH240954   3.156   4.783   2.718
13666TIP3    H140955   3.230   4.770   2.777
13666TIP3    H240956   3.190   4.761   2.632
13667TIP3   OH240957   1.850   0.283   2.580
13667TIP3    H140958   1.918   0.319   2.637
13667TIP3    H240959   1.891   0.280   2.493
13668TIP3   OH240960   3.174   6.790   2.534
13668TIP3    H140961   3.261   6.799   2.573
13668TIP3    H240962   3.155   6.697   2.538
13669TIP3   OH240963   8.100   7.291   2.274
13669TIP3    H140964   8.182   7.303   2.322
13669TIP3    H240965   8.124   7.237   2.199
13670TIP3   OH240966   3.755   5.152   3.307
13670TIP3    H140967   3.803   5.070   3.316
13670TIP3    H240968   3.723   5.171   3.395
13671TIP3   OH240969   8.310   1.486   4.153
13671TIP3    H140970   8.256   1.563   4.138
13671TIP3    H240971   8.296   1.432   4.075
13672TIP3   OH240972   8.323   4.155   6.305
13672TIP3    H140973   8.311   4.154   6.210
13672TIP3    H240974   8.247   4.108   6.339
13673TIP3   OH240975   5.164   7.157   3.843
13673TIP3    H140976   5.138   7.154   3.750
13673TIP3    H240977   5.092   7.201   3.887
13674TIP3   OH240978   4.916   6.629   1.555
13674TIP3    H140979   4.946   6.640   1.465
13674TIP3    H240980   4.927   6.536   1.573
13675TIP3   OH240981   7.032   4.939   1.137
13675TIP3    H140982   7.088   5.010   1.170
13675TIP3    H240983   7.057   4.930   1.045
13676TIP3   OH240984   0.369   2.160   1.975
13676TIP3    H140985   0.327   2.084   1.936
13676TIP3    H240986   0.311   2.233   1.955
13677TIP3   OH240987   1.610   5.948   3.670
13677TIP3    H140988   1.607   5.887   3.744
13677TIP3    H240989   1.519   5.974   3.656
13678TIP3   OH240990   3.562   2.155   3.958
13678TIP3    H140991   3.492   2.197   3.907
13678TIP3    H240992   3.626   2.225   3.971
13679TIP3   OH240993   3.517   6.912   1.430
13679TIP3    H140994   3.577   6.923   1.357
13679TIP3    H240995   3.443   6.970   1.409
13680TIP3   OH240996   5.569   1.323   0.242
13680TIP3    H140997   5.478   1.296   0.227
13680TIP3    H240998   5.578   1.404   0.191
13681TIP3   OH240999   7.171   1.079   1.477
13681TIP3    H141000   7.132   1.131   1.406
13681TIP3    H241001   7.225   1.014   1.432
13682TIP3   OH241002   2.546   1.918   1.938
13682TIP3    H141003   2.608   1.935   2.009
13682TIP3    H241004   2.481   1.859   1.976
13683TIP3   OH241005   1.540   0.700   0.337
13683TIP3    H141006   1.482   0.624   0.329
13683TIP3    H241007   1.566   0.720   0.247
13684TIP3   OH241008   3.425   4.550   5.342
13684TIP3    H141009   3.336   4.519   5.357
13684TIP3    H241010   3.475   4.516   5.417
13685TIP3   OH241011   5.276   1.517   0.288
13685TIP3    H141012   5.214   1.552   0.223
13685TIP3    H241013   5.290   1.426   0.260
13686TIP3   OH241014   0.513   1.333   5.118
13686TIP3    H141015   0.570   1.285   5.177
13686TIP3    H241016   0.503   1.275   5.042
13687TIP3   OH241017   1.418   2.469   2.971
13687TIP3    H141018   1.353   2.400   2.988
13687TIP3    H241019   1.401   2.496   2.881
13688TIP3   OH241020   5.721   3.626   4.321
13688TIP3    H141021   5.673   3.548   4.295
13688TIP3    H241022   5.798   3.593   4.369
13689TIP3   OH241023   7.421   2.194   1.493
13689TIP3    H141024   7.335   2.235   1.498
13689TIP3    H241025   7.461   2.212   1.579
13690TIP3   OH241026   4.118   3.402   5.829
13690TIP3    H141027   4.042   3.392   5.772
13690TIP3    H241028   4.089   3.366   5.913
13691TIP3   OH241029   1.033   2.234   5.953
13691TIP3    H141030   1.064   2.320   5.923
13691TIP3    H241031   1.008   2.249   6.044
13692TIP3   OH241032   5.550   2.521   1.980
13692TIP3    H141033   5.461   2.548   2.002
13692TIP3    H241034   5.565   2.444   2.035
13693TIP3   OH241035   2.422   6.542   2.682
13693TIP3    H141036   2.413   6.616   2.743
13693TIP3    H241037   2.494   6.490   2.719
13694TIP3   OH241038   4.338   7.685   6.521
13694TIP3    H141039   4.312   7.673   6.612
13694TIP3    H241040   4.308   7.604   6.477
13695TIP3   OH241041   2.257   4.425   3.909
13695TIP3    H141042   2.176   4.476   3.908
13695TIP3    H241043   2.311   4.468   3.975
13696TIP3   OH241044   4.091   7.281   3.952
13696TIP3    H141045   4.101   7.225   4.029
13696TIP3    H241046   4.132   7.231   3.881
13697TIP3   OH241047   1.365   0.546   5.881
13697TIP3    H141048   1.275   0.574   5.870
13697TIP3    H241049   1.418   0.622   5.858
13698TIP3   OH241050   1.086   0.219   1.613
13698TIP3    H141051   1.094   0.310   1.584
13698TIP3    H241052   1.113   0.220   1.705
13699TIP3   OH241053   4.324   5.063   0.321
13699TIP3    H141054   4.301   5.033   0.409
13699TIP3    H241055   4.261   5.019   0.263
13700TIP3   OH241056   4.405   1.306   3.514
13700TIP3    H141057   4.429   1.342   3.429
13700TIP3    H241058   4.488   1.279   3.553
13701TIP3   OH241059   1.059   3.497   2.518
13701TIP3    H141060   1.094   3.479   2.431
13701TIP3    H241061   1.093   3.425   2.572
13702TIP3   OH241062   0.820   6.857   4.228
13702TIP3    H141063   0.835   6.769   4.263
13702TIP3    H241064   0.862   6.915   4.291
13703TIP3   OH241065   3.669   4.934   6.209
13703TIP3    H141066   3.608   4.891   6.269
13703TIP3    H241067   3.744   4.957   6.264
13704TIP3   OH241068   5.070   4.370   2.444
13704TIP3    H141069   5.112   4.355   2.529
13704TIP3    H241070   5.097   4.295   2.391
13705TIP3   OH241071   0.908   7.252   2.356
13705TIP3    H141072   0.955   7.334   2.370
13705TIP3    H241073   0.960   7.205   2.291
13706TIP3   OH241074   7.370   2.944   0.443
13706TIP3    H141075   7.403   3.028   0.476
13706TIP3    H241076   7.326   2.904   0.518
13707TIP3   OH241077   2.992   6.270   2.549
13707TIP3    H141078   3.029   6.321   2.621
13707TIP3    H241079   3.063   6.261   2.486
13708TIP3   OH241080   6.329   6.482   0.685
13708TIP3    H141081   6.281   6.432   0.619
13708TIP3    H241082   6.358   6.418   0.749
13709TIP3   OH241083   1.349   6.138   2.232
13709TIP3    H141084   1.264   6.152   2.192
13709TIP3    H241085   1.406   6.111   2.159
13710TIP3   OH241086   7.580   0.898   2.637
13710TIP3    H141087   7.534   0.942   2.708
13710TIP3    H241088   7.669   0.932   2.641
13711TIP3   OH241089   1.928   7.205   4.767
13711TIP3    H141090   1.904   7.132   4.710
13711TIP3    H241091   1.871   7.276   4.739
13712TIP3   OH241092   4.663   4.114   6.779
13712TIP3    H141093   4.653   4.183   6.713
13712TIP3    H241094   4.577   4.108   6.820
13713TIP3   OH241095   4.950   3.932   0.675
13713TIP3    H141096   4.981   3.905   0.589
13713TIP3    H241097   4.921   3.851   0.717
13714TIP3   OH241098   0.756   3.790   6.721
13714TIP3    H141099   0.784   3.864   6.775
13714TIP3    H241100   0.822   3.785   6.652
13715TIP3   OH241101   4.281   2.359   4.034
13715TIP3    H141102   4.220   2.306   3.982
13715TIP3    H241103   4.366   2.320   4.017
13716TIP3   OH241104   7.337   0.038   5.714
13716TIP3    H141105   7.335   0.126   5.676
13716TIP3    H241106   7.375  -0.017   5.645
13717TIP3   OH241107   5.022   0.690   4.113
13717TIP3    H141108   5.101   0.732   4.079
13717TIP3    H241109   5.038   0.596   4.103
13718TIP3   OH241110   7.927   7.490   2.382
13718TIP3    H141111   7.901   7.422   2.445
13718TIP3    H241112   7.970   7.442   2.311
13719TIP3   OH241113   6.361   1.635   2.167
13719TIP3    H141114   6.360   1.701   2.097
13719TIP3    H241115   6.309   1.562   2.132
13720TIP3   OH241116   0.574   6.399   2.958
13720TIP3    H141117   0.506   6.465   2.975
13720TIP3    H241118   0.637   6.443   2.901
13721TIP3   OH241119   8.263   2.184   6.467
13721TIP3    H141120   8.174   2.213   6.447
13721TIP3    H241121   8.302   2.166   6.382
13722TIP3   OH241122   3.964   0.230   0.346
13722TIP3    H141123   3.940   0.153   0.398
13722TIP3    H241124   3.881   0.257   0.306
13723TIP3   OH241125   0.262   0.860   0.872
13723TIP3    H141126   0.245   0.929   0.936
13723TIP3    H241127   0.322   0.901   0.809
13724TIP3   OH241128   6.532   2.049   3.605
13724TIP3    H141129   6.543   2.091   3.519
13724TIP3    H241130   6.545   1.956   3.588
13725TIP3   OH241131   8.051   1.330   5.137
13725TIP3    H141132   8.030   1.398   5.072
13725TIP3    H241133   8.096   1.378   5.207
13726TIP3   OH241134   8.219   1.756   5.811
13726TIP3    H141135   8.195   1.825   5.749
13726TIP3    H241136   8.310   1.736   5.790
13727TIP3   OH241137   5.197   5.082   0.063
13727TIP3    H141138   5.208   5.022   0.136
13727TIP3    H241139   5.265   5.148   0.076
13728TIP3   OH241140   4.843   5.763   3.950
13728TIP3    H141141   4.766   5.728   3.905
13728TIP3    H241142   4.811   5.786   4.037
13729TIP3   OH241143   5.169   0.235   4.029
13729TIP3    H141144   5.177   0.331   4.026
13729TIP3    H241145   5.257   0.204   4.050
13730TIP3   OH241146   4.770   0.621   2.179
13730TIP3    H141147   4.809   0.707   2.163
13730TIP3    H241148   4.831   0.559   2.138
13731TIP3   OH241149   0.541   0.811   1.854
13731TIP3    H141150   0.612   0.811   1.919
13731TIP3    H241151   0.470   0.859   1.896
13732TIP3   OH241152   5.189   5.933   5.404
13732TIP3    H141153   5.238   5.852   5.416
13732TIP3    H241154   5.141   5.945   5.486
13733TIP3   OH241155   1.943   2.493   5.859
13733TIP3    H141156   2.021   2.545   5.875
13733TIP3    H241157   1.972   2.422   5.802
13734TIP3   OH241158   2.617   3.629   0.250
13734TIP3    H141159   2.524   3.626   0.272
13734TIP3    H241160   2.621   3.679   0.168
13735TIP3   OH241161   7.050   1.670   4.719
13735TIP3    H141162   7.011   1.749   4.757
13735TIP3    H241163   7.022   1.599   4.777
13736TIP3   OH241164   4.092   1.523   5.709
13736TIP3    H141165   4.143   1.481   5.778
13736TIP3    H241166   4.153   1.587   5.670
13737TIP3   OH241167   1.436   3.685   5.793
13737TIP3    H141168   1.420   3.719   5.705
13737TIP3    H241169   1.531   3.678   5.799
13738TIP3   OH241170   0.343   6.689   4.581
13738TIP3    H141171   0.251   6.667   4.596
13738TIP3    H241172   0.386   6.605   4.563
13739TIP3   OH241173   0.825   3.718   1.746
13739TIP3    H141174   0.808   3.705   1.653
13739TIP3    H241175   0.905   3.668   1.763
13740TIP3   OH241176   1.295   4.016   4.186
13740TIP3    H141177   1.255   4.088   4.235
13740TIP3    H241178   1.304   3.945   4.249
13741TIP3   OH241179   0.365   1.290   0.328
13741TIP3    H141180   0.393   1.295   0.237
13741TIP3    H241181   0.429   1.233   0.370
13742TIP3   OH241182   7.959   3.277   1.972
13742TIP3    H141183   8.029   3.229   1.929
13742TIP3    H241184   8.000   3.358   2.001
13743TIP3   OH241185   0.685   4.195   6.406
13743TIP3    H141186   0.780   4.203   6.419
13743TIP3    H241187   0.665   4.259   6.337
13744TIP3   OH241188   3.343   5.580   5.567
13744TIP3    H141189   3.252   5.608   5.580
13744TIP3    H241190   3.351   5.499   5.619
13745TIP3   OH241191   7.197   6.787   4.179
13745TIP3    H141192   7.289   6.803   4.196
13745TIP3    H241193   7.179   6.832   4.096
13746TIP3   OH241194   1.196   0.881   4.814
13746TIP3    H141195   1.190   0.878   4.909
13746TIP3    H241196   1.169   0.970   4.791
13747TIP3   OH241197   7.180   6.346   1.791
13747TIP3    H141198   7.133   6.290   1.729
13747TIP3    H241199   7.121   6.420   1.806
13748TIP3   OH241200   7.544   4.888   0.310
13748TIP3    H141201   7.573   4.858   0.397
13748TIP3    H241202   7.610   4.853   0.250
13749TIP3   OH241203   7.196   3.218   2.770
13749TIP3    H141204   7.143   3.152   2.814
13749TIP3    H241205   7.279   3.174   2.751
13750TIP3   OH241206   5.300   4.315   6.618
13750TIP3    H141207   5.250   4.342   6.541
13750TIP3    H241208   5.333   4.228   6.596
13751TIP3   OH241209   6.173   5.461   6.668
13751TIP3    H141210   6.102   5.442   6.730
13751TIP3    H241211   6.165   5.392   6.601
13752TIP3   OH241212   3.625   1.126   6.741
13752TIP3    H141213   3.567   1.074   6.685
13752TIP3    H241214   3.711   1.085   6.731
13753TIP3   OH241215   7.978   6.902   6.039
13753TIP3    H141216   7.967   6.905   6.134
13753TIP3    H241217   8.072   6.907   6.025
13754TIP3   OH241218   3.259   1.030   5.766
13754TIP3    H141219   3.333   1.040   5.827
13754TIP3    H241220   3.199   0.971   5.811
13755TIP3   OH241221   0.956   0.957   1.514
13755TIP3    H141222   1.027   1.015   1.484
13755TIP3    H241223   0.971   0.947   1.608
13756TIP3   OH241224   5.817   0.661   5.792
13756TIP3    H141225   5.727   0.689   5.772
13756TIP3    H241226   5.868   0.690   5.716
13757TIP3   OH241227   1.450   0.871   6.675
13757TIP3    H141228   1.498   0.842   6.597
13757TIP3    H241229   1.519   0.892   6.738
13758TIP3   OH241230   3.965   3.518   2.872
13758TIP3    H141231   3.943   3.429   2.899
13758TIP3    H241232   3.901   3.573   2.918
13759TIP3   OH241233   2.839   3.926   5.842
13759TIP3    H141234   2.865   3.994   5.904
13759TIP3    H241235   2.743   3.926   5.846
13760TIP3   OH241236   3.649   5.537   1.088
13760TIP3    H141237   3.642   5.486   1.007
13760TIP3    H241238   3.629   5.627   1.062
13761TIP3   OH241239   1.495   3.759   2.939
13761TIP3    H141240   1.446   3.714   2.871
13761TIP3    H241241   1.475   3.710   3.019
13762TIP3   OH241242   3.443   4.936   4.518
13762TIP3    H141243   3.358   4.903   4.545
13762TIP3    H241244   3.430   4.966   4.428
13763TIP3   OH241245   0.839   0.238   1.175
13763TIP3    H141246   0.745   0.219   1.180
13763TIP3    H241247   0.876   0.196   1.252
13764TIP3   OH241248   7.327   7.421   6.736
13764TIP3    H141249   7.408   7.371   6.735
13764TIP3    H241250   7.283   7.396   6.655
13765TIP3   OH241251   2.647   5.016   0.697
13765TIP3    H141252   2.594   4.980   0.626
13765TIP3    H241253   2.719   4.954   0.707
13766TIP3   OH241254   1.602   3.335   1.618
13766TIP3    H141255   1.691   3.351   1.586
13766TIP3    H241256   1.615   3.296   1.705
13767TIP3   OH241257   7.807   7.114   5.990
13767TIP3    H141258   7.884   7.165   6.016
13767TIP3    H241259   7.838   7.023   5.989
13768TIP3   OH241260   0.853   4.107   1.157
13768TIP3    H141261   0.874   4.014   1.160
13768TIP3    H241262   0.759   4.110   1.142
13769TIP3   OH241263   7.131   2.144   5.112
13769TIP3    H141264   7.192   2.173   5.180
13769TIP3    H241265   7.045   2.146   5.155
13770TIP3   OH241266   6.544   4.019   3.459
13770TIP3    H141267   6.483   4.012   3.385
13770TIP3    H241268   6.524   4.103   3.499
13771TIP3   OH241269   6.358   1.250   5.615
13771TIP3    H141270   6.316   1.336   5.610
13771TIP3    H241271   6.286   1.189   5.633
13772TIP3   OH241272   1.719   1.296   0.296
13772TIP3    H141273   1.768   1.244   0.360
13772TIP3    H241274   1.740   1.255   0.212
13773TIP3   OH241275   5.390   3.880   1.918
13773TIP3    H141276   5.333   3.869   1.842
13773TIP3    H241277   5.412   3.973   1.919
13774TIP3   OH241278   4.396   7.253   6.218
13774TIP3    H141279   4.445   7.218   6.293
13774TIP3    H241280   4.352   7.331   6.252
13775TIP3   OH241281   6.642   1.695   6.518
13775TIP3    H141282   6.613   1.607   6.542
13775TIP3    H241283   6.673   1.733   6.600
13776TIP3   OH241284   5.281   0.231   4.833
13776TIP3    H141285   5.187   0.231   4.815
13776TIP3    H241286   5.322   0.235   4.747
13777TIP3   OH241287   6.088   3.503   4.557
13777TIP3    H141288   6.138   3.526   4.479
13777TIP3    H241289   6.010   3.459   4.523
13778TIP3   OH241290   4.139   3.748   5.109
13778TIP3    H141291   4.219   3.741   5.161
13778TIP3    H241292   4.169   3.770   5.021
13779TIP3   OH241293   3.446   6.960   5.234
13779TIP3    H141294   3.383   6.963   5.162
13779TIP3    H241295   3.461   6.867   5.249
13780TIP3   OH241296   3.060   3.937   3.523
13780TIP3    H141297   3.133   3.928   3.462
13780TIP3    H241298   3.065   3.859   3.579
13781TIP3   OH241299   7.137   1.838   1.972
13781TIP3    H141300   7.161   1.880   1.889
13781TIP3    H241301   7.120   1.747   1.949
13782TIP3   OH241302   1.872   6.040   3.726
13782TIP3    H141303   1.780   6.018   3.716
13782TIP3    H241304   1.874   6.136   3.732
13783TIP3   OH241305   8.041   6.272   5.883
13783TIP3    H141306   7.971   6.210   5.863
13783TIP3    H241307   8.122   6.225   5.862
13784TIP3   OH241308   1.290   4.827   2.608
13784TIP3    H141309   1.344   4.787   2.540
13784TIP3    H241310   1.200   4.806   2.583
13785TIP3   OH241311   2.394   2.474   3.155
13785TIP3    H141312   2.305   2.502   3.177
13785TIP3    H241313   2.441   2.472   3.238
13786TIP3   OH241314   4.636   3.855   1.072
13786TIP3    H141315   4.600   3.791   1.011
13786TIP3    H241316   4.731   3.850   1.059
13787TIP3   OH241317   3.161   3.134   0.973
13787TIP3    H141318   3.177   3.175   0.888
13787TIP3    H241319   3.142   3.207   1.032
13788TIP3   OH241320   0.138   0.020   3.329
13788TIP3    H141321   0.045   0.000   3.332
13788TIP3    H241322   0.141   0.112   3.302
13789TIP3   OH241323   6.818   6.366   0.226
13789TIP3    H141324   6.877   6.291   0.239
13789TIP3    H241325   6.744   6.329   0.177
13790TIP3   OH241326   8.138   7.604   0.244
13790TIP3    H141327   8.198   7.580   0.173
13790TIP3    H241328   8.074   7.663   0.203
13791TIP3   OH241329   1.313   4.530   4.856
13791TIP3    H141330   1.299   4.591   4.783
13791TIP3    H241331   1.295   4.582   4.935
13792TIP3   OH241332   7.583   2.920   3.344
13792TIP3    H141333   7.611   2.929   3.435
13792TIP3    H241334   7.556   3.009   3.318
13793TIP3   OH241335   7.208   2.274   2.828
13793TIP3    H141336   7.194   2.358   2.873
13793TIP3    H241337   7.136   2.269   2.765
13794TIP3   OH241338   3.179   4.932   4.432
13794TIP3    H141339   3.140   4.985   4.501
13794TIP3    H241340   3.150   4.972   4.350
13795TIP3   OH241341   0.572   2.531   2.571
13795TIP3    H141342   0.578   2.627   2.564
13795TIP3    H241343   0.572   2.514   2.665
13796TIP3   OH241344   4.810   7.847   5.960
13796TIP3    H141345   4.826   7.841   5.866
13796TIP3    H241346   4.739   7.786   5.977
13797TIP3   OH241347   5.416   6.301   1.618
13797TIP3    H141348   5.344   6.258   1.665
13797TIP3    H241349   5.388   6.300   1.526
13798TIP3   OH241350   2.112   7.231   4.376
13798TIP3    H141351   2.036   7.266   4.422
13798TIP3    H241352   2.128   7.146   4.418
13799TIP3   OH241353   4.092   6.847   3.360
13799TIP3    H141354   4.180   6.872   3.388
13799TIP3    H241355   4.059   6.793   3.431
13800TIP3   OH241356   5.460   2.930   4.538
13800TIP3    H141357   5.386   2.880   4.572
13800TIP3    H241358   5.525   2.864   4.514
13801TIP3   OH241359   0.570   0.201   4.984
13801TIP3    H141360   0.487   0.163   5.015
13801TIP3    H241361   0.590   0.269   5.049
13802TIP3   OH241362   7.914   1.971   4.167
13802TIP3    H141363   7.906   1.944   4.259
13802TIP3    H241364   7.845   1.923   4.122
13803TIP3   OH241365   5.214   4.124   2.237
13803TIP3    H141366   5.234   4.031   2.225
13803TIP3    H241367   5.128   4.125   2.279
13804TIP3   OH241368   3.730   3.175   0.506
13804TIP3    H141369   3.680   3.094   0.512
13804TIP3    H241370   3.673   3.242   0.543
13805TIP3   OH241371   2.596   6.491   6.175
13805TIP3    H141372   2.656   6.563   6.153
13805TIP3    H241373   2.566   6.512   6.263
13806TIP3   OH241374   8.209   5.965   0.346
13806TIP3    H141375   8.187   5.943   0.255
13806TIP3    H241376   8.227   5.881   0.387
13807TIP3   OH241377   7.590   3.116   4.261
13807TIP3    H141378   7.653   3.096   4.192
13807TIP3    H241379   7.597   3.211   4.273
13808TIP3   OH241380   5.654   6.640   4.977
13808TIP3    H141381   5.602   6.594   5.043
13808TIP3    H241382   5.628   6.600   4.894
13809TIP3   OH241383   5.746   4.177   1.727
13809TIP3    H141384   5.701   4.223   1.655
13809TIP3    H241385   5.775   4.094   1.688
13810TIP3   OH241386   7.271   0.056   2.674
13810TIP3    H141387   7.306   0.129   2.724
13810TIP3    H241388   7.196   0.026   2.726
13811TIP3   OH241389   0.659   3.803   2.986
13811TIP3    H141390   0.733   3.864   2.989
13811TIP3    H241391   0.655   3.776   2.894
13812TIP3   OH241392   3.244   4.165   6.666
13812TIP3    H141393   3.150   4.168   6.648
13812TIP3    H241394   3.261   4.075   6.693
13813TIP3   OH241395   0.347   2.745   4.565
13813TIP3    H141396   0.404   2.814   4.533
13813TIP3    H241397   0.307   2.707   4.487
13814TIP3   OH241398   0.444   2.827   5.755
13814TIP3    H141399   0.521   2.846   5.808
13814TIP3    H241400   0.431   2.732   5.764
13815TIP3   OH241401   2.838   6.306   3.588
13815TIP3    H141402   2.797   6.268   3.510
13815TIP3    H241403   2.853   6.232   3.646
13816TIP3   OH241404   1.775   3.694   2.831
13816TIP3    H141405   1.795   3.617   2.884
13816TIP3    H241406   1.681   3.708   2.844
13817TIP3   OH241407   3.339   2.378   3.014
13817TIP3    H141408   3.255   2.333   3.020
13817TIP3    H241409   3.377   2.369   3.102
13818TIP3   OH241410   7.989   5.505   3.746
13818TIP3    H141411   7.929   5.556   3.691
13818TIP3    H241412   8.010   5.428   3.694
13819TIP3   OH241413   2.941   7.203   1.134
13819TIP3    H141414   2.991   7.285   1.136
13819TIP3    H241415   2.867   7.222   1.076
13820TIP3   OH241416   6.794   5.347   4.417
13820TIP3    H141417   6.875   5.385   4.451
13820TIP3    H241418   6.743   5.423   4.388
13821TIP3   OH241419   3.909   0.216   5.007
13821TIP3    H141420   3.946   0.203   5.094
13821TIP3    H241421   3.881   0.308   5.007
13822TIP3   OH241422   5.012   1.776   2.251
13822TIP3    H141423   5.048   1.856   2.212
13822TIP3    H241424   4.942   1.807   2.309
13823TIP3   OH241425   3.228   6.778   5.494
13823TIP3    H141426   3.227   6.864   5.451
13823TIP3    H241427   3.156   6.782   5.557
13824TIP3   OH241428   5.203   0.771   2.028
13824TIP3    H141429   5.114   0.792   2.057
13824TIP3    H241430   5.259   0.825   2.083
13825TIP3   OH241431   7.781   6.445   3.972
13825TIP3    H141432   7.837   6.460   3.896
13825TIP3    H241433   7.718   6.517   3.971
13826TIP3   OH241434   2.376   6.027   1.227
13826TIP3    H141435   2.320   5.984   1.291
13826TIP3    H241436   2.457   6.047   1.275
13827TIP3   OH241437   0.314   7.317   0.281
13827TIP3    H141438   0.244   7.383   0.287
13827TIP3    H241439   0.395   7.369   0.282
13828TIP3   OH241440   2.784   0.399   5.920
13828TIP3    H141441   2.698   0.378   5.883
13828TIP3    H241442   2.765   0.439   6.005
13829TIP3   OH241443   0.782   7.617   1.620
13829TIP3    H141444   0.748   7.627   1.709
13829TIP3    H241445   0.834   7.696   1.605
13830TIP3   OH241446   7.143   1.589   4.470
13830TIP3    H141447   7.126   1.632   4.554
13830TIP3    H241448   7.159   1.661   4.409
13831TIP3   OH241449   0.072   3.078   6.012
13831TIP3    H141450   0.096   3.120   5.930
13831TIP3    H241451   0.031   2.996   5.986
13832TIP3   OH241452   2.642   6.911   5.113
13832TIP3    H141453   2.719   6.854   5.105
13832TIP3    H241454   2.588   6.869   5.181
13833TIP3   OH241455   0.690   4.768   6.161
13833TIP3    H141456   0.757   4.706   6.189
13833TIP3    H241457   0.608   4.730   6.192
13834TIP3   OH241458   4.950   2.011   6.442
13834TIP3    H141459   4.954   1.953   6.518
13834TIP3    H241460   4.860   2.043   6.440
13835TIP3   OH241461   3.319   7.598   3.439
13835TIP3    H141462   3.358   7.511   3.448
13835TIP3    H241463   3.344   7.627   3.351
13836TIP3   OH241464   6.127   6.219   3.353
13836TIP3    H141465   6.147   6.136   3.310
13836TIP3    H241466   6.141   6.286   3.286
13837TIP3   OH241467   1.480   4.400   1.660
13837TIP3    H141468   1.469   4.325   1.719
13837TIP3    H241469   1.396   4.406   1.614
13838TIP3   OH241470   4.105   7.814   5.672
13838TIP3    H141471   4.036   7.767   5.626
13838TIP3    H241472   4.059   7.883   5.720
13839TIP3   OH241473   3.937   6.371   1.232
13839TIP3    H141474   3.855   6.365   1.183
13839TIP3    H241475   4.006   6.354   1.167
13840TIP3   OH241476   8.075   2.656   5.264
13840TIP3    H141477   8.049   2.748   5.269
13840TIP3    H241478   8.138   2.644   5.335
13841TIP3   OH241479   0.457   1.245   0.920
13841TIP3    H141480   0.550   1.231   0.902
13841TIP3    H241481   0.446   1.340   0.921
13842TIP3   OH241482   3.289   3.949   3.899
13842TIP3    H141483   3.316   3.925   3.987
13842TIP3    H241484   3.349   4.018   3.872
13843TIP3   OH241485   2.607   6.762   5.511
13843TIP3    H141486   2.571   6.749   5.424
13843TIP3    H241487   2.535   6.744   5.571
13844TIP3   OH241488   8.102   6.301   3.009
13844TIP3    H141489   8.067   6.302   3.098
13844TIP3    H241490   8.160   6.226   3.006
13845TIP3   OH241491   2.421   3.422   2.613
13845TIP3    H141492   2.416   3.368   2.534
13845TIP3    H241493   2.514   3.423   2.635
13846TIP3   OH241494   1.460   2.287   1.156
13846TIP3    H141495   1.418   2.373   1.165
13846TIP3    H241496   1.386   2.226   1.146
13847TIP3   OH241497   4.898   1.103   1.238
13847TIP3    H141498   4.913   1.014   1.206
13847TIP3    H241499   4.808   1.123   1.215
13848TIP3   OH241500   0.604   6.552   4.819
13848TIP3    H141501   0.637   6.520   4.903
13848TIP3    H241502   0.608   6.648   4.827
13849TIP3   OH241503   0.181   6.027   5.594
13849TIP3    H141504   0.211   5.991   5.510
13849TIP3    H241505   0.262   6.054   5.638
13850TIP3   OH241506   6.790   1.029   2.426
13850TIP3    H141507   6.886   1.027   2.436
13850TIP3    H241508   6.776   1.025   2.331
13851TIP3   OH241509   2.579   1.333   5.951
13851TIP3    H141510   2.509   1.288   5.906
13851TIP3    H241511   2.648   1.345   5.885
13852TIP3   OH241512   7.077   1.306   3.625
13852TIP3    H141513   7.104   1.395   3.601
13852TIP3    H241514   7.159   1.260   3.644
13853TIP3   OH241515   0.188   6.410   3.581
13853TIP3    H141516   0.119   6.356   3.542
13853TIP3    H241517   0.234   6.447   3.507
13854TIP3   OH241518   6.604   3.666   2.356
13854TIP3    H141519   6.516   3.669   2.394
13854TIP3    H241520   6.598   3.719   2.277
13855TIP3   OH241521   6.102   1.587   3.282
13855TIP3    H141522   6.046   1.640   3.339
13855TIP3    H241523   6.175   1.644   3.260
13856TIP3   OH241524   2.711   0.716   5.559
13856TIP3    H141525   2.631   0.663   5.556
13856TIP3    H241526   2.782   0.652   5.563
13857TIP3   OH241527   2.605   4.719   3.911
13857TIP3    H141528   2.610   4.814   3.901
13857TIP3    H241529   2.545   4.690   3.842
13858TIP3   OH241530   1.086   3.642   1.053
13858TIP3    H141531   1.167   3.623   1.099
13858TIP3    H241532   1.017   3.613   1.113
13859TIP3   OH241533   6.658   3.380   5.062
13859TIP3    H141534   6.616   3.425   5.136
13859TIP3    H241535   6.653   3.287   5.086
13860TIP3   OH241536   2.710   3.030   0.174
13860TIP3    H141537   2.622   3.040   0.137
13860TIP3    H241538   2.760   3.102   0.136
13861TIP3   OH241539   0.183   0.624   0.754
13861TIP3    H141540   0.204   0.713   0.785
13861TIP3    H241541   0.119   0.591   0.817
13862TIP3   OH241542   1.795   4.569   4.322
13862TIP3    H141543   1.889   4.583   4.309
13862TIP3    H241544   1.789   4.480   4.357
13863TIP3   OH241545   8.106   2.324   3.399
13863TIP3    H141546   8.058   2.251   3.360
13863TIP3    H241547   8.173   2.345   3.334
13864TIP3   OH241548   7.087   5.043   2.380
13864TIP3    H141549   7.175   5.007   2.379
13864TIP3    H241550   7.093   5.124   2.330
13865TIP3   OH241551   3.557   4.962   3.568
13865TIP3    H141552   3.546   4.945   3.475
13865TIP3    H241553   3.537   4.879   3.611
13866TIP3   OH241554   2.438   4.810   4.248
13866TIP3    H141555   2.436   4.894   4.294
13866TIP3    H241556   2.428   4.834   4.155
13867TIP3   OH241557   2.851   3.905   1.503
13867TIP3    H141558   2.792   3.921   1.429
13867TIP3    H241559   2.793   3.896   1.578
13868TIP3   OH241560   1.385   7.101   1.873
13868TIP3    H141561   1.419   7.048   1.801
13868TIP3    H241562   1.457   7.105   1.936
13869TIP3   OH241563   7.586   1.942   4.126
13869TIP3    H141564   7.492   1.961   4.121
13869TIP3    H241565   7.606   1.900   4.042
13870TIP3   OH241566   5.990   0.901   5.877
13870TIP3    H141567   5.950   0.962   5.939
13870TIP3    H241568   5.936   0.822   5.884
13871TIP3   OH241569   3.174   2.620   0.860
13871TIP3    H141570   3.158   2.710   0.889
13871TIP3    H241571   3.134   2.615   0.774
13872TIP3   OH241572   1.354   7.196   6.278
13872TIP3    H141573   1.401   7.252   6.339
13872TIP3    H241574   1.325   7.122   6.332
13873TIP3   OH241575   2.083   5.137   2.966
13873TIP3    H141576   2.152   5.180   2.916
13873TIP3    H241577   2.129   5.074   3.020
13874TIP3   OH241578   3.777   3.413   0.700
13874TIP3    H141579   3.751   3.432   0.790
13874TIP3    H241580   3.805   3.322   0.702
13875TIP3   OH241581   6.561   0.848   3.570
13875TIP3    H141582   6.510   0.773   3.599
13875TIP3    H241583   6.532   0.864   3.480
13876TIP3   OH241584   4.552   6.000   3.031
13876TIP3    H141585   4.511   6.056   2.965
13876TIP3    H241586   4.517   5.913   3.013
13877TIP3   OH241587   3.945   7.430   5.591
13877TIP3    H141588   4.034   7.465   5.592
13877TIP3    H241589   3.956   7.337   5.613
13878TIP3   OH241590   7.685   3.002   1.887
13878TIP3    H141591   7.659   2.910   1.885
13878TIP3    H241592   7.639   3.039   1.962
13879TIP3   OH241593   6.364   6.855   2.650
13879TIP3    H141594   6.393   6.790   2.587
13879TIP3    H241595   6.434   6.859   2.715
13880TIP3   OH241596   1.879   1.441   3.378
13880TIP3    H141597   1.943   1.381   3.417
13880TIP3    H241598   1.817   1.383   3.332
13881TIP3   OH241599   4.335   2.313   6.233
13881TIP3    H141600   4.240   2.326   6.225
13881TIP3    H241601   4.345   2.262   6.313
13882TIP3   OH241602   5.982   6.567   5.144
13882TIP3    H141603   5.897   6.611   5.140
13882TIP3    H241604   6.015   6.588   5.231
13883TIP3   OH241605   4.326   2.778   5.529
13883TIP3    H141606   4.409   2.825   5.516
13883TIP3    H241607   4.298   2.803   5.617
13884TIP3   OH241608   1.995   5.983   5.447
13884TIP3    H141609   2.013   5.900   5.491
13884TIP3    H241610   2.080   6.027   5.444
13885TIP3   OH241611   4.820   7.483   5.733
13885TIP3    H141612   4.806   7.405   5.787
13885TIP3    H241613   4.733   7.522   5.725
13886TIP3   OH241614   2.136   1.893   2.291
13886TIP3    H141615   2.107   1.863   2.377
13886TIP3    H241616   2.212   1.948   2.309
13887TIP3   OH241617   8.273   2.373   1.562
13887TIP3    H141618   8.195   2.328   1.529
13887TIP3    H241619   8.346   2.317   1.535
13888TIP3   OH241620   6.510   6.816   6.164
13888TIP3    H141621   6.590   6.868   6.168
13888TIP3    H241622   6.469   6.842   6.082
13889TIP3   OH241623   0.132   2.271   4.289
13889TIP3    H141624   0.114   2.187   4.331
13889TIP3    H241625   0.056   2.325   4.311
13890TIP3   OH241626   6.228   3.810   4.614
13890TIP3    H141627   6.308   3.758   4.625
13890TIP3    H241628   6.260   3.899   4.596
13891TIP3   OH241629   3.090   2.444   1.060
13891TIP3    H141630   3.153   2.379   1.091
13891TIP3    H241631   3.142   2.508   1.013
13892TIP3   OH241632   1.490   3.240   5.414
13892TIP3    H141633   1.511   3.211   5.503
13892TIP3    H241634   1.406   3.199   5.394
13893TIP3   OH241635   8.099   6.536   1.927
13893TIP3    H141636   8.060   6.597   1.864
13893TIP3    H241637   8.192   6.560   1.929
13894TIP3   OH241638   0.897   1.057   1.141
13894TIP3    H141639   0.921   0.968   1.116
13894TIP3    H241640   0.842   1.046   1.218
13895TIP3   OH241641   1.663   3.817   6.536
13895TIP3    H141642   1.687   3.726   6.517
13895TIP3    H241643   1.585   3.811   6.590
13896TIP3   OH241644   2.759   7.249   0.933
13896TIP3    H141645   2.793   7.238   0.844
13896TIP3    H241646   2.742   7.343   0.941
13897TIP3   OH241647   6.208   2.355   6.599
13897TIP3    H141648   6.233   2.308   6.520
13897TIP3    H241649   6.274   2.424   6.608
13898TIP3   OH241650   0.027   1.996   3.406
13898TIP3    H141651   0.011   2.054   3.480
13898TIP3    H241652   0.116   1.963   3.421
13899TIP3   OH241653   7.263   5.873   4.236
13899TIP3    H141654   7.282   5.909   4.149
13899TIP3    H241655   7.230   5.785   4.218
13900TIP3   OH241656   8.039   1.785   2.248
13900TIP3    H141657   7.957   1.819   2.284
13900TIP3    H241658   8.019   1.694   2.226
13901TIP3   OH241659   7.950   7.231   2.502
13901TIP3    H141660   8.018   7.223   2.434
13901TIP3    H241661   7.895   7.154   2.491
13902TIP3   OH241662   2.688   5.943   5.078
13902TIP3    H141663   2.618   5.883   5.055
13902TIP3    H241664   2.762   5.886   5.101
13903TIP3   OH241665   3.982   3.381   2.554
13903TIP3    H141666   4.039   3.453   2.527
13903TIP3    H241667   3.906   3.424   2.593
13904TIP3   OH241668   4.856   2.334   4.065
13904TIP3    H141669   4.810   2.346   4.148
13904TIP3    H241670   4.863   2.239   4.055
13905TIP3   OH241671   3.710   0.040   1.631
13905TIP3    H141672   3.784   0.101   1.626
13905TIP3    H241673   3.669   0.045   1.545
13906TIP3   OH241674   0.337   1.970   0.730
13906TIP3    H141675   0.399   1.902   0.755
13906TIP3    H241676   0.263   1.922   0.692
13907TIP3   OH241677   5.594   6.898   0.149
13907TIP3    H141678   5.595   6.972   0.210
13907TIP3    H241679   5.658   6.836   0.185
13908TIP3   OH241680   4.175   2.638   4.000
13908TIP3    H141681   4.221   2.577   4.057
13908TIP3    H241682   4.144   2.707   4.060
13909TIP3   OH241683   5.674   5.237   1.589
13909TIP3    H141684   5.756   5.207   1.629
13909TIP3    H241685   5.673   5.332   1.605
13910TIP3   OH241686   1.654   3.189   1.857
13910TIP3    H141687   1.717   3.150   1.917
13910TIP3    H241688   1.636   3.120   1.793
13911TIP3   OH241689   1.558   3.419   1.979
13911TIP3    H141690   1.603   3.441   2.061
13911TIP3    H241691   1.593   3.334   1.954
13912TIP3   OH241692   5.562   0.733   3.334
13912TIP3    H141693   5.506   0.656   3.320
13912TIP3    H241694   5.647   0.696   3.360
13913TIP3   OH241695   7.622   3.560   1.425
13913TIP3    H141696   7.648   3.478   1.466
13913TIP3    H241697   7.703   3.608   1.413
13914TIP3   OH241698   7.923   4.697   2.807
13914TIP3    H141699   7.972   4.615   2.817
13914TIP3    H241700   7.988   4.766   2.818
13915TIP3   OH241701   3.173   4.809   0.455
13915TIP3    H141702   3.164   4.723   0.495
13915TIP3    H241703   3.162   4.871   0.527
13916TIP3   OH241704   2.776   0.335   1.268
13916TIP3    H141705   2.836   0.328   1.342
13916TIP3    H241706   2.833   0.352   1.192
13917TIP3   OH241707   1.511   5.376   0.684
13917TIP3    H141708   1.539   5.301   0.632
13917TIP3    H241709   1.423   5.353   0.715
13918TIP3   OH241710   5.393   4.767   0.164
13918TIP3    H141711   5.354   4.822   0.232
13918TIP3    H241712   5.486   4.762   0.187
13919TIP3   OH241713   0.697   7.485   5.618
13919TIP3    H141714   0.761   7.502   5.687
13919TIP3    H241715   0.668   7.572   5.592
13920TIP3   OH241716   8.116   2.998   0.533
13920TIP3    H141717   8.050   3.031   0.595
13920TIP3    H241718   8.125   3.068   0.468
13921TIP3   OH241719   0.993   5.686   0.743
13921TIP3    H141720   0.933   5.755   0.771
13921TIP3    H241721   1.063   5.733   0.697
13922TIP3   OH241722   0.507   3.235   2.811
13922TIP3    H141723   0.561   3.217   2.887
13922TIP3    H241724   0.568   3.264   2.744
13923TIP3   OH241725   1.182   6.623   2.235
13923TIP3    H141726   1.198   6.546   2.289
13923TIP3    H241727   1.269   6.653   2.208
13924TIP3   OH241728   3.307   4.418   3.099
13924TIP3    H141729   3.331   4.330   3.125
13924TIP3    H241730   3.347   4.475   3.165
13925TIP3   OH241731   3.149   7.738   2.947
13925TIP3    H141732   3.103   7.788   2.880
13925TIP3    H241733   3.229   7.788   2.963
13926TIP3   OH241734   1.735   1.856   1.476
13926TIP3    H141735   1.688   1.924   1.427
13926TIP3    H241736   1.695   1.859   1.563
13927TIP3   OH241737   1.549   6.359   3.446
13927TIP3    H141738   1.551   6.348   3.541
13927TIP3    H241739   1.589   6.279   3.412
13928TIP3   OH241740   7.111   5.416   5.659
13928TIP3    H141741   7.029   5.442   5.700
13928TIP3    H241742   7.115   5.468   5.578
13929TIP3   OH241743   7.851   3.105   0.373
13929TIP3    H141744   7.923   3.164   0.352
13929TIP3    H241745   7.887   3.017   0.366
13930TIP3   OH241746   0.274   6.966   2.774
13930TIP3    H141747   0.201   7.027   2.785
13930TIP3    H241748   0.312   6.958   2.861
13931TIP3   OH241749   1.351   5.871   3.761
13931TIP3    H141750   1.318   5.960   3.778
13931TIP3    H241751   1.284   5.813   3.797
13932TIP3   OH241752   1.360   2.555   4.827
13932TIP3    H141753   1.293   2.613   4.791
13932TIP3    H241754   1.358   2.478   4.770
13933TIP3   OH241755   3.554   7.376   5.821
13933TIP3    H141756   3.497   7.433   5.768
13933TIP3    H241757   3.582   7.307   5.761
13934TIP3   OH241758   2.994   7.432   3.824
13934TIP3    H141759   2.977   7.521   3.794
13934TIP3    H241760   3.075   7.439   3.876
13935TIP3   OH241761   0.835   4.105   2.097
13935TIP3    H141762   0.880   4.047   2.158
13935TIP3    H241763   0.743   4.077   2.102
13936TIP3   OH241764   1.871   6.161   0.826
13936TIP3    H141765   1.794   6.147   0.770
13936TIP3    H241766   1.895   6.253   0.811
13937TIP3   OH241767   7.481   0.797   5.783
13937TIP3    H141768   7.394   0.812   5.822
13937TIP3    H241769   7.535   0.867   5.820
13938TIP3   OH241770   4.218   5.261   3.715
13938TIP3    H141771   4.292   5.289   3.661
13938TIP3    H241772   4.234   5.300   3.800
13939TIP3   OH241773   4.067   2.143   3.597
13939TIP3    H141774   4.107   2.106   3.518
13939TIP3    H241775   3.990   2.089   3.613
13940TIP3   OH241776   6.050   0.045   5.215
13940TIP3    H141777   6.046   0.017   5.124
13940TIP3    H241778   5.960   0.068   5.237
13941TIP3   OH241779   4.386   0.665   3.143
13941TIP3    H141780   4.323   0.594   3.151
13941TIP3    H241781   4.451   0.648   3.211
13942TIP3   OH241782   3.264   5.322   5.262
13942TIP3    H141783   3.209   5.322   5.341
13942TIP3    H241784   3.354   5.328   5.296
13943TIP3   OH241785   2.484   6.394   3.046
13943TIP3    H141786   2.505   6.440   2.965
13943TIP3    H241787   2.397   6.426   3.070
13944TIP3   OH241788   3.143   6.109   5.338
13944TIP3    H141789   3.123   6.185   5.284
13944TIP3    H241790   3.219   6.136   5.390
13945TIP3   OH241791   0.856   1.783   2.809
13945TIP3    H141792   0.831   1.767   2.900
13945TIP3    H241793   0.830   1.873   2.793
13946TIP3   OH241794   3.112   6.759   0.479
13946TIP3    H141795   3.170   6.800   0.415
13946TIP3    H241796   3.165   6.692   0.521
13947TIP3   OH241797   6.672   1.259   2.457
13947TIP3    H141798   6.718   1.177   2.442
13947TIP3    H241799   6.626   1.276   2.375
13948TIP3   OH241800   2.043   3.693   1.517
13948TIP3    H141801   1.975   3.717   1.579
13948TIP3    H241802   2.089   3.620   1.558
13949TIP3   OH241803   3.957   1.491   2.655
13949TIP3    H141804   3.870   1.485   2.694
13949TIP3    H241805   4.004   1.555   2.709
13950TIP3   OH241806   3.740   2.387   3.155
13950TIP3    H141807   3.695   2.465   3.186
13950TIP3    H241808   3.791   2.357   3.230
13951TIP3   OH241809   4.769   2.866   4.586
13951TIP3    H141810   4.861   2.847   4.604
13951TIP3    H241811   4.721   2.793   4.625
13952TIP3   OH241812   6.602   0.523   0.300
13952TIP3    H141813   6.562   0.451   0.251
13952TIP3    H241814   6.528   0.579   0.324
13953TIP3   OH241815   0.556   6.434   2.651
13953TIP3    H141816   0.648   6.416   2.668
13953TIP3    H241817   0.509   6.365   2.699
13954TIP3   OH241818   5.272   3.932   4.988
13954TIP3    H141819   5.309   4.007   5.035
13954TIP3    H241820   5.192   3.967   4.948
13955TIP3   OH241821   3.028   3.993   5.239
13955TIP3    H141822   3.040   3.970   5.147
13955TIP3    H241823   3.098   4.055   5.258
13956TIP3   OH241824   4.078   7.788   4.077
13956TIP3    H141825   3.983   7.791   4.060
13956TIP3    H241826   4.108   7.710   4.031
13957TIP3   OH241827   5.325   1.075   1.888
13957TIP3    H141828   5.334   1.049   1.980
13957TIP3    H241829   5.378   1.154   1.881
13958TIP3   OH241830   6.473   1.973   1.656
13958TIP3    H141831   6.389   1.946   1.619
13958TIP3    H241832   6.452   2.044   1.715
13959TIP3   OH241833   2.506   0.320   0.441
13959TIP3    H141834   2.569   0.296   0.373
13959TIP3    H241835   2.425   0.274   0.416
13960TIP3   OH241836   1.217   1.644   2.990
13960TIP3    H141837   1.245   1.720   2.940
13960TIP3    H241838   1.191   1.679   3.076
13961TIP3   OH241839   7.706   0.356   0.687
13961TIP3    H141840   7.695   0.296   0.761
13961TIP3    H241841   7.768   0.422   0.719
13962TIP3   OH241842   2.014   7.782   0.180
13962TIP3    H141843   1.953   7.811   0.247
13962TIP3    H241844   2.101   7.805   0.215
13963TIP3   OH241845   2.748   5.360   1.769
13963TIP3    H141846   2.783   5.293   1.828
13963TIP3    H241847   2.653   5.355   1.780
13964TIP3   OH241848   6.465   7.628   3.311
13964TIP3    H141849   6.556   7.630   3.283
13964TIP3    H241850   6.429   7.712   3.280
13965TIP3   OH241851   1.366   2.602   0.812
13965TIP3    H141852   1.279   2.639   0.822
13965TIP3    H241853   1.424   2.677   0.805
13966TIP3   OH241854   7.665   4.813   4.724
13966TIP3    H141855   7.661   4.819   4.819
13966TIP3    H241856   7.654   4.720   4.705
13967TIP3   OH241857   4.090   0.650   3.915
13967TIP3    H141858   4.165   0.700   3.882
13967TIP3    H241859   4.127   0.569   3.948
13968TIP3   OH241860   6.263   4.250   5.572
13968TIP3    H141861   6.311   4.220   5.495
13968TIP3    H241862   6.210   4.324   5.541
13969TIP3   OH241863   6.229   1.158   0.826
13969TIP3    H141864   6.254   1.151   0.734
13969TIP3    H241865   6.135   1.143   0.827
13970TIP3   OH241866   7.083   3.921   0.962
13970TIP3    H141867   7.154   3.984   0.978
13970TIP3    H241868   7.016   3.943   1.027
13971TIP3   OH241869   2.018   5.731   5.565
13971TIP3    H141870   2.101   5.731   5.611
13971TIP3    H241871   2.021   5.652   5.510
13972TIP3   OH241872   5.563   7.396   4.637
13972TIP3    H141873   5.606   7.481   4.633
13972TIP3    H241874   5.517   7.396   4.721
13973TIP3   OH241875   1.085   1.680   2.119
13973TIP3    H141876   1.153   1.613   2.127
13973TIP3    H241877   1.103   1.741   2.191
13974TIP3   OH241878   3.176   1.792   1.035
13974TIP3    H141879   3.115   1.724   1.007
13974TIP3    H241880   3.156   1.867   0.979
13975TIP3   OH241881   0.021   7.676   4.511
13975TIP3    H141882  -0.044   7.735   4.551
13975TIP3    H241883   0.068   7.732   4.449
13976TIP3   OH241884   0.347   6.553   5.911
13976TIP3    H141885   0.281   6.620   5.889
13976TIP3    H241886   0.374   6.517   5.827
13977TIP3   OH241887   3.528   6.363   3.654
13977TIP3    H141888   3.573   6.359   3.570
13977TIP3    H241889   3.436   6.347   3.633
13978TIP3   OH241890   6.139   2.204   0.145
13978TIP3    H141891   6.063   2.259   0.127
13978TIP3    H241892   6.172   2.180   0.058
13979TIP3   OH241893   4.921   3.504   0.528
13979TIP3    H141894   5.006   3.472   0.499
13979TIP3    H241895   4.860   3.477   0.460
13980TIP3   OH241896   1.692   5.787   2.963
13980TIP3    H141897   1.747   5.805   3.039
13980TIP3    H241898   1.633   5.862   2.958
13981TIP3   OH241899   5.584   4.408   2.795
13981TIP3    H141900   5.665   4.362   2.817
13981TIP3    H241901   5.515   4.359   2.841
13982TIP3   OH241902   2.342   5.725   1.127
13982TIP3    H141903   2.280   5.728   1.199
13982TIP3    H241904   2.335   5.811   1.085
13983TIP3   OH241905   1.902   5.641   4.517
13983TIP3    H141906   1.968   5.701   4.481
13983TIP3    H241907   1.823   5.694   4.524
13984TIP3   OH241908   7.444   4.547   0.897
13984TIP3    H141909   7.408   4.476   0.843
13984TIP3    H241910   7.539   4.543   0.883
13985TIP3   OH241911   2.058   3.037   3.548
13985TIP3    H141912   2.028   2.975   3.614
13985TIP3    H241913   2.154   3.031   3.552
13986TIP3   OH241914   0.492   3.282   5.119
13986TIP3    H141915   0.426   3.311   5.182
13986TIP3    H241916   0.547   3.358   5.105
13987TIP3   OH241917   6.785   1.834   0.354
13987TIP3    H141918   6.830   1.912   0.321
13987TIP3    H241919   6.801   1.834   0.448
13988TIP3   OH241920   1.945   1.574   1.212
13988TIP3    H141921   1.878   1.563   1.144
13988TIP3    H241922   2.001   1.644   1.178
13989TIP3   OH241923   1.028   5.219   6.137
13989TIP3    H141924   0.967   5.248   6.205
13989TIP3    H241925   1.010   5.126   6.127
13990TIP3   OH241926   3.129   7.220   5.138
13990TIP3    H141927   3.128   7.173   5.055
13990TIP3    H241928   3.116   7.152   5.204
13991TIP3   OH241929   0.578   3.714   6.445
13991TIP3    H141930   0.567   3.717   6.540
13991TIP3    H241931   0.657   3.661   6.432
13992TIP3   OH241932   6.088   7.282   5.494
13992TIP3    H141933   6.054   7.221   5.428
13992TIP3    H241934   6.051   7.251   5.577
13993TIP3   OH241935   8.284   5.906   2.165
13993TIP3    H141936   8.191   5.912   2.145
13993TIP3    H241937   8.294   5.821   2.208
13994TIP3   OH241938   7.543   3.150   6.023
13994TIP3    H141939   7.518   3.241   6.041
13994TIP3    H241940   7.516   3.135   5.932
13995TIP3   OH241941   4.451   6.344   0.940
13995TIP3    H141942   4.399   6.409   0.988
13995TIP3    H241943   4.520   6.320   1.001
13996TIP3   OH241944   7.589   6.159   1.753
13996TIP3    H141945   7.665   6.211   1.778
13996TIP3    H241946   7.517   6.197   1.803
13997TIP3   OH241947   7.626   0.750   4.276
13997TIP3    H141948   7.650   0.754   4.368
13997TIP3    H241949   7.670   0.826   4.237
13998TIP3   OH241950   3.252   7.008   3.537
13998TIP3    H141951   3.304   6.949   3.592
13998TIP3    H241952   3.222   7.076   3.598
13999TIP3   OH241953   1.965   5.877   2.866
13999TIP3    H141954   1.896   5.815   2.841
13999TIP3    H241955   1.930   5.963   2.840
14000TIP3   OH241956   3.780   3.706   1.007
14000TIP3    H141957   3.713   3.687   0.941
14000TIP3    H241958   3.863   3.681   0.965
14001TIP3   OH241959   4.989   0.643   0.543
14001TIP3    H141960   5.055   0.616   0.607
14001TIP3    H241961   4.905   0.622   0.584
14002TIP3   OH241962   1.968   3.629   3.914
14002TIP3    H141963   2.046   3.599   3.961
14002TIP3    H241964   1.978   3.596   3.825
14003TIP3   OH241965   1.505   1.860   1.020
14003TIP3    H141966   1.550   1.941   0.994
14003TIP3    H241967   1.565   1.818   1.081
14004TIP3   OH241968   0.456   6.302   5.021
14004TIP3    H141969   0.396   6.375   5.011
14004TIP3    H241970   0.539   6.333   4.986
14005TIP3   OH241971   5.104   4.347   3.749
14005TIP3    H141972   5.168   4.402   3.794
14005TIP3    H241973   5.156   4.287   3.696
14006TIP3   OH241974   5.822   0.905   4.574
14006TIP3    H141975   5.829   0.809   4.568
14006TIP3    H241976   5.912   0.935   4.587
14007TIP3   OH241977   7.726   7.404   0.524
14007TIP3    H141978   7.697   7.485   0.567
14007TIP3    H241979   7.821   7.411   0.522
14008TIP3   OH241980   0.804   0.817   4.781
14008TIP3    H141981   0.797   0.769   4.698
14008TIP3    H241982   0.713   0.834   4.806
14009TIP3   OH241983   6.781   3.941   1.686
14009TIP3    H141984   6.861   3.995   1.684
14009TIP3    H241985   6.801   3.868   1.628
14010TIP3   OH241986   4.703   7.844   2.969
14010TIP3    H141987   4.645   7.789   2.916
14010TIP3    H241988   4.710   7.797   3.052
14011TIP3   OH241989   1.855   4.671   1.998
14011TIP3    H141990   1.825   4.758   2.023
14011TIP3    H241991   1.944   4.684   1.966
14012TIP3   OH241992   7.252   5.536   5.864
14012TIP3    H141993   7.256   5.623   5.824
14012TIP3    H241994   7.202   5.483   5.802
14013TIP3   OH241995   3.332   0.477   6.612
14013TIP3    H141996   3.422   0.491   6.582
14013TIP3    H241997   3.341   0.417   6.686
14014TIP3   OH241998   4.597   1.107   3.313
14014TIP3    H141999   4.621   1.109   3.220
14014TIP3    H242000   4.530   1.040   3.320
14015TIP3   OH242001   5.619   3.785   5.348
14015TIP3    H142002   5.579   3.872   5.349
14015TIP3    H242003   5.647   3.770   5.438
14016TIP3   OH242004   4.004   6.051   6.572
14016TIP3    H142005   4.100   6.051   6.579
14016TIP3    H242006   3.981   5.958   6.574
14017TIP3   OH242007   1.594   7.688   5.055
14017TIP3    H142008   1.685   7.714   5.036
14017TIP3    H242009   1.602   7.599   5.091
14018TIP3   OH242010   3.672   7.187   4.349
14018TIP3    H142011   3.663   7.097   4.380
14018TIP3    H242012   3.667   7.241   4.428
14019TIP3   OH242013   2.889   2.004   0.640
14019TIP3    H142014   2.960   1.975   0.585
14019TIP3    H242015   2.810   1.965   0.602
14020TIP3   OH242016   3.174   6.068   4.761
14020TIP3    H142017   3.114   6.095   4.691
14020TIP3    H242018   3.208   5.984   4.732
14021TIP3   OH242019   6.394   2.794   2.375
14021TIP3    H142020   6.381   2.881   2.337
14021TIP3    H242021   6.388   2.808   2.470
14022TIP3   OH242022   1.218   1.400   2.727
14022TIP3    H142023   1.234   1.492   2.704
14022TIP3    H242024   1.185   1.404   2.817
14023TIP3   OH242025   6.611   0.805   6.094
14023TIP3    H142026   6.622   0.725   6.042
14023TIP3    H242027   6.550   0.780   6.164
14024TIP3   OH242028   3.177   0.523   5.890
14024TIP3    H142029   3.209   0.518   5.800
14024TIP3    H242030   3.238   0.469   5.941
14025TIP3   OH242031   2.501   0.423   5.116
14025TIP3    H142032   2.564   0.474   5.167
14025TIP3    H242033   2.509   0.334   5.149
14026TIP3   OH242034   6.573   5.344   0.914
14026TIP3    H142035   6.665   5.327   0.936
14026TIP3    H242036   6.554   5.283   0.843
14027TIP3   OH242037   5.144   0.295   0.401
14027TIP3    H142038   5.227   0.255   0.428
14027TIP3    H242039   5.165   0.386   0.385
14028TIP3   OH242040   2.758   0.469   2.655
14028TIP3    H142041   2.837   0.501   2.613
14028TIP3    H242042   2.731   0.540   2.713
14029TIP3   OH242043   3.326   3.707   2.593
14029TIP3    H142044   3.244   3.678   2.554
14029TIP3    H242045   3.303   3.787   2.640
14030TIP3   OH242046   5.988   5.766   6.590
14030TIP3    H142047   6.006   5.802   6.503
14030TIP3    H242048   6.068   5.718   6.614
14031TIP3   OH242049   6.645   0.819   2.578
14031TIP3    H142050   6.686   0.815   2.664
14031TIP3    H242051   6.699   0.882   2.529
14032TIP3   OH242052   5.958   5.130   1.634
14032TIP3    H142053   5.963   5.199   1.568
14032TIP3    H242054   6.037   5.077   1.620
14033TIP3   OH242055   4.702   7.219   5.011
14033TIP3    H142056   4.783   7.245   5.056
14033TIP3    H242057   4.723   7.134   4.972
14034TIP3   OH242058   4.431   2.985   1.083
14034TIP3    H142059   4.514   3.031   1.071
14034TIP3    H242060   4.413   2.946   0.997
14035TIP3   OH242061   1.377   6.891   5.057
14035TIP3    H142062   1.442   6.822   5.044
14035TIP3    H242063   1.334   6.868   5.140
14036TIP3   OH242064   1.941   0.231   0.781
14036TIP3    H142065   1.900   0.220   0.695
14036TIP3    H242066   2.033   0.210   0.766
14037TIP3   OH242067   6.607   5.510   4.304
14037TIP3    H142068   6.610   5.591   4.355
14037TIP3    H242069   6.515   5.501   4.279
14038TIP3   OH242070   5.340   4.049   0.626
14038TIP3    H142071   5.271   4.108   0.655
14038TIP3    H242072   5.321   4.033   0.534
14039TIP3   OH242073   2.835   1.405   4.972
14039TIP3    H142074   2.878   1.399   5.057
14039TIP3    H242075   2.904   1.384   4.909
14040TIP3   OH242076   0.627   1.866   5.563
14040TIP3    H142077   0.679   1.922   5.505
14040TIP3    H242078   0.575   1.927   5.615
14041TIP3   OH242079   6.744   3.971   6.319
14041TIP3    H142080   6.818   4.032   6.322
14041TIP3    H242081   6.769   3.906   6.253
14042TIP3   OH242082   5.649   2.467   5.054
14042TIP3    H142083   5.641   2.501   5.143
14042TIP3    H242084   5.709   2.529   5.010
14043TIP3   OH242085   1.379   1.991   3.211
14043TIP3    H142086   1.409   1.902   3.192
14043TIP3    H242087   1.437   2.021   3.282
14044TIP3   OH242088   6.219   0.813   6.491
14044TIP3    H142089   6.144   0.772   6.448
14044TIP3    H242090   6.218   0.777   6.579
14045TIP3   OH242091   3.988   3.059   3.137
14045TIP3    H142092   3.955   2.977   3.102
14045TIP3    H242093   4.015   3.038   3.226
14046TIP3   OH242094   3.442   2.577   5.991
14046TIP3    H142095   3.508   2.599   6.056
14046TIP3    H242096   3.362   2.563   6.041
14047TIP3   OH242097   1.972   0.039   5.140
14047TIP3    H142098   1.886   0.080   5.147
14047TIP3    H242099   2.033   0.105   5.174
14048TIP3   OH242100   4.396   5.863   2.859
14048TIP3    H142101   4.477   5.817   2.839
14048TIP3    H242102   4.416   5.955   2.841
14049TIP3   OH242103   6.436   1.538   1.532
14049TIP3    H142104   6.394   1.618   1.563
14049TIP3    H242105   6.450   1.485   1.611
14050TIP3   OH242106   0.509   5.201   3.425
14050TIP3    H142107   0.549   5.287   3.419
14050TIP3    H242108   0.415   5.218   3.424
14051TIP3   OH242109   7.905   3.285   3.583
14051TIP3    H142110   7.947   3.363   3.619
14051TIP3    H242111   7.965   3.256   3.514
14052TIP3   OH242112   8.106   5.919   2.638
14052TIP3    H142113   8.060   5.851   2.590
14052TIP3    H242114   8.038   5.964   2.688
14053TIP3   OH242115   7.528   5.147   1.823
14053TIP3    H142116   7.555   5.058   1.847
14053TIP3    H242117   7.556   5.157   1.732
14054TIP3   OH242118   8.253   4.304   1.076
14054TIP3    H142119   8.184   4.292   1.010
14054TIP3    H242120   8.281   4.395   1.064
14055TIP3   OH242121   5.283   4.096   4.658
14055TIP3    H142122   5.283   4.189   4.635
14055TIP3    H242123   5.205   4.084   4.712
14056TIP3   OH242124   1.421   1.440   5.864
14056TIP3    H142125   1.381   1.369   5.814
14056TIP3    H242126   1.444   1.400   5.948
14057TIP3   OH242127   6.808   2.878   1.925
14057TIP3    H142128   6.780   2.900   1.836
14057TIP3    H242129   6.904   2.885   1.922
14058TIP3   OH242130   5.577   3.954   4.314
14058TIP3    H142131   5.662   3.911   4.303
14058TIP3    H242132   5.537   3.909   4.389
14059TIP3   OH242133   1.529   6.896   2.461
14059TIP3    H142134   1.582   6.933   2.390
14059TIP3    H242135   1.582   6.824   2.495
14060TIP3   OH242136   6.163   5.026   4.081
14060TIP3    H142137   6.242   5.026   4.136
14060TIP3    H242138   6.161   5.114   4.043
14061TIP3   OH242139   1.998   6.585   4.859
14061TIP3    H142140   2.021   6.499   4.824
14061TIP3    H242141   2.015   6.578   4.953
14062TIP3   OH242142   6.527   4.912   3.796
14062TIP3    H142143   6.539   4.982   3.860
14062TIP3    H242144   6.612   4.904   3.753
14063TIP3   OH242145   2.018   5.262   2.415
14063TIP3    H142146   1.923   5.256   2.411
14063TIP3    H242147   2.045   5.284   2.326
14064TIP3   OH242148   6.896   2.037   0.948
14064TIP3    H142149   6.913   1.979   1.022
14064TIP3    H242150   6.801   2.047   0.946
14065TIP3   OH242151   1.090   5.479   0.111
14065TIP3    H142152   1.006   5.463   0.067
14065TIP3    H242153   1.066   5.512   0.198
14066TIP3   OH242154   4.497   2.631   1.713
14066TIP3    H142155   4.549   2.600   1.639
14066TIP3    H242156   4.453   2.709   1.680
14067TIP3   OH242157   0.784   0.054   1.955
14067TIP3    H142158   0.744  -0.031   1.970
14067TIP3    H242159   0.717   0.106   1.912
14068TIP3   OH242160   5.522   0.634   5.102
14068TIP3    H142161   5.607   0.673   5.084
14068TIP3    H242162   5.534   0.541   5.087
14069TIP3   OH242163   2.676   3.022   4.774
14069TIP3    H142164   2.710   3.088   4.834
14069TIP3    H242165   2.673   3.066   4.689
14070TIP3   OH242166   0.266   1.173   1.564
14070TIP3    H142167   0.360   1.183   1.576
14070TIP3    H242168   0.250   1.079   1.579
14071TIP3   OH242169   2.203   7.529   4.528
14071TIP3    H142170   2.265   7.598   4.554
14071TIP3    H242171   2.250   7.480   4.460
14072TIP3   OH242172   2.612   1.321   1.616
14072TIP3    H142173   2.539   1.294   1.672
14072TIP3    H242174   2.579   1.399   1.571
14073TIP3   OH242175   1.712   6.957   5.792
14073TIP3    H142176   1.749   7.045   5.790
14073TIP3    H242177   1.725   6.927   5.881
14074TIP3   OH242178   5.231   3.768   6.259
14074TIP3    H142179   5.286   3.747   6.334
14074TIP3    H242180   5.215   3.862   6.267
14075TIP3   OH242181   5.636   7.358   5.681
14075TIP3    H142182   5.547   7.337   5.651
14075TIP3    H242183   5.693   7.328   5.610
14076TIP3   OH242184   1.696   4.730   3.232
14076TIP3    H142185   1.601   4.726   3.218
14076TIP3    H242186   1.725   4.802   3.176
14077TIP3   OH242187   6.990   0.645   0.493
14077TIP3    H142188   7.027   0.734   0.490
14077TIP3    H242189   7.032   0.599   0.421
14078TIP3   OH242190   4.931  -0.001   4.886
14078TIP3    H142191   4.886  -0.045   4.814
14078TIP3    H242192   4.965   0.079   4.847
14079TIP3   OH242193   3.902   4.708   2.138
14079TIP3    H142194   3.858   4.704   2.223
14079TIP3    H242195   3.951   4.791   2.141
14080TIP3   OH242196   6.810   3.826   2.533
14080TIP3    H142197   6.901   3.848   2.551
14080TIP3    H242198   6.812   3.780   2.449
14081TIP3   OH242199   3.011   5.186   5.225
14081TIP3    H142200   3.006   5.110   5.281
14081TIP3    H242201   3.023   5.151   5.137
14082TIP3   OH242202   1.163   7.495   5.459
14082TIP3    H142203   1.124   7.505   5.546
14082TIP3    H242204   1.134   7.409   5.430
14083TIP3   OH242205   1.518   6.485   2.121
14083TIP3    H142206   1.475   6.480   2.207
14083TIP3    H242207   1.487   6.408   2.074
14084TIP3   OH242208   4.608   0.391   6.120
14084TIP3    H142209   4.538   0.433   6.070
14084TIP3    H242210   4.586   0.298   6.118
14085TIP3   OH242211   4.708   7.628   2.213
14085TIP3    H142212   4.620   7.603   2.241
14085TIP3    H242213   4.764   7.556   2.243
14086TIP3   OH242214   5.298   1.667   1.397
14086TIP3    H142215   5.291   1.755   1.432
14086TIP3    H242216   5.210   1.630   1.406
14087TIP3   OH242217   1.473   3.227   2.619
14087TIP3    H142218   1.525   3.209   2.540
14087TIP3    H242219   1.447   3.140   2.651
14088TIP3   OH242220   2.106   0.162   4.797
14088TIP3    H142221   2.088   0.074   4.764
14088TIP3    H242222   2.020   0.195   4.825
14089TIP3   OH242223   5.888   6.835   4.931
14089TIP3    H142224   5.880   6.872   4.843
14089TIP3    H242225   5.817   6.771   4.937
14090TIP3   OH242226   1.230   7.405   2.209
14090TIP3    H142227   1.255   7.495   2.230
14090TIP3    H242228   1.230   7.360   2.294
14091TIP3   OH242229   1.294   3.478   6.289
14091TIP3    H142230   1.324   3.411   6.229
14091TIP3    H242231   1.202   3.491   6.267
14092TIP3   OH242232   1.570   3.553   3.527
14092TIP3    H142233   1.497   3.512   3.480
14092TIP3    H242234   1.648   3.523   3.480
14093TIP3   OH242235   5.312   3.046   0.812
14093TIP3    H142236   5.240   2.998   0.770
14093TIP3    H242237   5.277   3.071   0.897
14094TIP3   OH242238   0.308   6.430   5.284
14094TIP3    H142239   0.387   6.480   5.262
14094TIP3    H242240   0.244   6.496   5.311
14095TIP3   OH242241   1.739   0.989   0.511
14095TIP3    H142242   1.665   1.032   0.553
14095TIP3    H242243   1.799   1.060   0.487
14096TIP3   OH242244   7.239   4.858   2.620
14096TIP3    H142245   7.333   4.856   2.603
14096TIP3    H242246   7.223   4.947   2.653
14097TIP3   OH242247   6.732   2.680   3.327
14097TIP3    H142248   6.721   2.662   3.233
14097TIP3    H242249   6.800   2.746   3.331
14098TIP3   OH242250   5.767   2.431   2.487
14098TIP3    H142251   5.732   2.435   2.576
14098TIP3    H242252   5.724   2.354   2.449
14099TIP3   OH242253   1.580   4.460   4.820
14099TIP3    H142254   1.486   4.477   4.828
14099TIP3    H242255   1.616   4.541   4.785
14100TIP3   OH242256   8.260   2.630   5.462
14100TIP3    H142257   8.346   2.616   5.423
14100TIP3    H242258   8.275   2.625   5.557
14101TIP3   OH242259   7.573   5.289   2.533
14101TIP3    H142260   7.484   5.308   2.563
14101TIP3    H242261   7.609   5.374   2.506
14102TIP3   OH242262   0.851   4.853   2.749
14102TIP3    H142263   0.893   4.788   2.805
14102TIP3    H242264   0.814   4.917   2.810
14103TIP3   OH242265   0.715   6.954   5.128
14103TIP3    H142266   0.731   6.921   5.217
14103TIP3    H242267   0.776   6.904   5.073
14104TIP3   OH242268   3.579   5.578   5.443
14104TIP3    H142269   3.499   5.572   5.496
14104TIP3    H242270   3.589   5.672   5.427
14105TIP3   OH242271   0.948   6.705   0.663
14105TIP3    H142272   0.883   6.636   0.676
14105TIP3    H242273   0.972   6.731   0.752
14106TIP3   OH242274   6.139   3.431   2.952
14106TIP3    H142275   6.159   3.521   2.979
14106TIP3    H242276   6.052   3.436   2.913
14107TIP3   OH242277   6.885   0.624   4.391
14107TIP3    H142278   6.978   0.631   4.368
14107TIP3    H242279   6.840   0.620   4.306
14108TIP3   OH242280   3.491   1.744   5.404
14108TIP3    H142281   3.453   1.657   5.419
14108TIP3    H242282   3.478   1.790   5.488
14109TIP3   OH242283   5.534   0.490   4.760
14109TIP3    H142284   5.491   0.572   4.786
14109TIP3    H242285   5.535   0.437   4.839
14110TIP3   OH242286   1.609   0.207   1.203
14110TIP3    H142287   1.670   0.210   1.129
14110TIP3    H242288   1.547   0.278   1.186
14111TIP3   OH242289   3.048   7.773   4.936
14111TIP3    H142290   3.072   7.694   4.983
14111TIP3    H242291   3.122   7.790   4.877
14112TIP3   OH242292   5.241   6.873   3.027
14112TIP3    H142293   5.167   6.856   3.086
14112TIP3    H242294   5.218   6.956   2.984
14113TIP3   OH242295   4.025   6.704   0.598
14113TIP3    H142296   4.072   6.622   0.588
14113TIP3    H242297   4.057   6.741   0.681
14114TIP3   OH242298   2.139   6.270   1.779
14114TIP3    H142299   2.066   6.210   1.760
14114TIP3    H242300   2.098   6.344   1.823
14115TIP3   OH242301   3.983   3.797   0.747
14115TIP3    H142302   3.921   3.768   0.680
14115TIP3    H242303   4.032   3.718   0.770
14116TIP3   OH242304   5.110   7.370   1.337
14116TIP3    H142305   5.154   7.390   1.255
14116TIP3    H242306   5.175   7.387   1.405
14117TIP3   OH242307   3.388   1.378   1.761
14117TIP3    H142308   3.454   1.433   1.719
14117TIP3    H242309   3.311   1.435   1.768
14118TIP3   OH242310   2.975   7.729   3.499
14118TIP3    H142311   2.944   7.767   3.417
14118TIP3    H242312   2.988   7.636   3.480
14119TIP3   OH242313   4.820   0.524   2.908
14119TIP3    H142314   4.846   0.606   2.866
14119TIP3    H242315   4.792   0.468   2.835
14120TIP3   OH242316   6.365   2.538   2.722
14120TIP3    H142317   6.417   2.614   2.697
14120TIP3    H242318   6.321   2.565   2.803
14121TIP3   OH242319   4.561   1.573   6.515
14121TIP3    H142320   4.641   1.539   6.556
14121TIP3    H242321   4.496   1.504   6.527
14122TIP3   OH242322   4.549   6.345   3.973
14122TIP3    H142323   4.590   6.259   3.961
14122TIP3    H242324   4.463   6.325   4.011
14123TIP3   OH242325   0.050   0.287   5.370
14123TIP3    H142326   0.144   0.299   5.378
14123TIP3    H242327   0.023   0.245   5.452
14124TIP3   OH242328   0.524   1.062   6.396
14124TIP3    H142329   0.592   1.128   6.383
14124TIP3    H242330   0.442   1.111   6.391
14125TIP3   OH242331   3.964   6.620   2.410
14125TIP3    H142332   4.002   6.705   2.388
14125TIP3    H242333   3.870   6.633   2.403
14126TIP3   OH242334   4.735   5.259   6.145
14126TIP3    H142335   4.661   5.306   6.183
14126TIP3    H242336   4.708   5.240   6.055
14127TIP3   OH242337   3.238   7.251   3.290
14127TIP3    H142338   3.299   7.231   3.361
14127TIP3    H242339   3.197   7.167   3.269
14128TIP3   OH242340   2.056   2.563   4.791
14128TIP3    H142341   2.080   2.655   4.794
14128TIP3    H242342   2.093   2.531   4.709
14129TIP3   OH242343   2.847   2.396   0.271
14129TIP3    H142344   2.762   2.355   0.257
14129TIP3    H242345   2.827   2.476   0.319
14130TIP3   OH242346   4.853   2.301   5.485
14130TIP3    H142347   4.849   2.292   5.390
14130TIP3    H242348   4.832   2.214   5.518
14131TIP3   OH242349   0.728   0.546   2.825
14131TIP3    H142350   0.759   0.586   2.906
14131TIP3    H242351   0.645   0.505   2.849
14132TIP3   OH242352   7.758   7.254   5.432
14132TIP3    H142353   7.693   7.321   5.408
14132TIP3    H242354   7.748   7.244   5.527
14133TIP3   OH242355   3.674   4.407   2.582
14133TIP3    H142356   3.682   4.401   2.677
14133TIP3    H242357   3.587   4.443   2.568
14134TIP3   OH242358   5.146   7.481   4.731
14134TIP3    H142359   5.194   7.496   4.650
14134TIP3    H242360   5.061   7.523   4.716
14135TIP3   OH242361   6.592   1.496   5.389
14135TIP3    H142362   6.651   1.549   5.444
14135TIP3    H242363   6.649   1.459   5.322
14136TIP3   OH242364   1.101   1.804   0.821
14136TIP3    H142365   1.025   1.756   0.788
14136TIP3    H242366   1.169   1.738   0.829
14137TIP3   OH242367   2.693   1.751   2.150
14137TIP3    H142368   2.757   1.684   2.173
14137TIP3    H242369   2.612   1.723   2.195
14138TIP3   OH242370   7.749   4.184   5.421
14138TIP3    H142371   7.820   4.186   5.484
14138TIP3    H242372   7.677   4.142   5.467
14139TIP3   OH242373   7.651   4.009   3.370
14139TIP3    H142374   7.642   3.959   3.289
14139TIP3    H242375   7.577   3.982   3.424
14140TIP3   OH242376   3.295   7.067   1.331
14140TIP3    H142377   3.232   7.048   1.262
14140TIP3    H242378   3.337   7.149   1.304
14141TIP3   OH242379   2.617   4.980   3.110
14141TIP3    H142380   2.658   5.034   3.177
14141TIP3    H242381   2.687   4.924   3.077
14142TIP3   OH242382   2.723   6.629   4.913
14142TIP3    H142383   2.740   6.674   4.996
14142TIP3    H242384   2.810   6.610   4.878
14143TIP3   OH242385   1.262   3.869   3.955
14143TIP3    H142386   1.274   3.785   3.998
14143TIP3    H242387   1.296   3.933   4.018
14144TIP3   OH242388   4.469   3.238   6.542
14144TIP3    H142389   4.467   3.324   6.584
14144TIP3    H242390   4.472   3.258   6.448
14145TIP3   OH242391   5.403   1.764   0.674
14145TIP3    H142392   5.443   1.715   0.602
14145TIP3    H242393   5.405   1.704   0.749
14146TIP3   OH242394   0.239   1.114   0.995
14146TIP3    H142395   0.315   1.172   0.998
14146TIP3    H242396   0.212   1.105   1.086
14147TIP3   OH242397   6.074   3.978   3.924
14147TIP3    H142398   6.067   3.885   3.945
14147TIP3    H242399   6.009   4.021   3.980
14148TIP3   OH242400   7.885   3.967   2.902
14148TIP3    H142401   7.889   3.906   2.975
14148TIP3    H242402   7.948   3.932   2.838
14149TIP3   OH242403   1.268   3.839   0.833
14149TIP3    H142404   1.341   3.873   0.884
14149TIP3    H242405   1.259   3.900   0.760
14150TIP3   OH242406   6.505   3.030   3.959
14150TIP3    H142407   6.444   3.027   3.886
14150TIP3    H242408   6.556   3.110   3.945
14151TIP3   OH242409   0.629   3.485   4.256
14151TIP3    H142410   0.578   3.414   4.216
14151TIP3    H242411   0.669   3.530   4.181
14152TIP3   OH242412   0.745   5.731   1.535
14152TIP3    H142413   0.824   5.693   1.574
14152TIP3    H242414   0.676   5.714   1.600
14153TIP3   OH242415   3.112   5.013   4.705
14153TIP3    H142416   3.020   5.040   4.713
14153TIP3    H242417   3.158   5.094   4.683
14154TIP3   OH242418   0.383   0.531   5.925
14154TIP3    H142419   0.458   0.586   5.946
14154TIP3    H242420   0.372   0.542   5.830
14155TIP3   OH242421   5.919   5.023   4.547
14155TIP3    H142422   5.922   5.107   4.502
14155TIP3    H242423   5.840   5.028   4.601
14156TIP3   OH242424   0.240   2.743   6.678
14156TIP3    H142425   0.170   2.741   6.743
14156TIP3    H242426   0.202   2.705   6.599
14157TIP3   OH242427   6.188   3.573   2.003
14157TIP3    H142428   6.167   3.615   2.086
14157TIP3    H242429   6.140   3.490   2.005
14158TIP3   OH242430   6.074   7.561   1.046
14158TIP3    H142431   6.075   7.602   1.133
14158TIP3    H242432   5.994   7.594   1.005
14159TIP3   OH242433   3.656   3.508   1.472
14159TIP3    H142434   3.644   3.562   1.394
14159TIP3    H242435   3.723   3.444   1.446
14160TIP3   OH242436   5.035   0.071   0.253
14160TIP3    H142437   5.119   0.033   0.279
14160TIP3    H242438   5.025   0.148   0.309
14161TIP3   OH242439   0.749   3.248   2.667
14161TIP3    H142440   0.753   3.277   2.576
14161TIP3    H242441   0.826   3.287   2.708
14162TIP3   OH242442   4.354   5.865   4.905
14162TIP3    H142443   4.438   5.839   4.867
14162TIP3    H242444   4.339   5.954   4.872
14163TIP3   OH242445   7.306   2.941   5.150
14163TIP3    H142446   7.342   2.880   5.215
14163TIP3    H242447   7.226   2.898   5.118
14164TIP3   OH242448   6.517   3.260   0.975
14164TIP3    H142449   6.433   3.245   1.019
14164TIP3    H242450   6.522   3.191   0.909
14165TIP3   OH242451   3.885   0.406   1.892
14165TIP3    H142452   3.858   0.348   1.963
14165TIP3    H242453   3.912   0.348   1.822
14166TIP3   OH242454   5.910   6.698   6.265
14166TIP3    H142455   5.924   6.604   6.262
14166TIP3    H242456   5.990   6.733   6.303
14167TIP3   OH242457   7.511   3.179   5.166
14167TIP3    H142458   7.439   3.220   5.213
14167TIP3    H242459   7.475   3.157   5.080
14168TIP3   OH242460   0.289   1.232   5.507
14168TIP3    H142461   0.208   1.182   5.499
14168TIP3    H242462   0.270   1.315   5.463
14169TIP3   OH242463   1.472   0.183   2.639
14169TIP3    H142464   1.404   0.126   2.674
14169TIP3    H242465   1.515   0.131   2.571
14170TIP3   OH242466   5.063   7.555   2.944
14170TIP3    H142467   5.152   7.556   2.907
14170TIP3    H242468   5.009   7.516   2.875
14171TIP3   OH242469   5.470   7.270   2.365
14171TIP3    H142470   5.483   7.199   2.303
14171TIP3    H242471   5.453   7.347   2.311
14172TIP3   OH242472   4.822   0.221   0.834
14172TIP3    H142473   4.806   0.129   0.811
14172TIP3    H242474   4.909   0.240   0.800
14173TIP3   OH242475   5.855   3.370   1.930
14173TIP3    H142476   5.801   3.308   1.978
14173TIP3    H242477   5.945   3.340   1.945
14174TIP3   OH242478   1.175   6.472   5.071
14174TIP3    H142479   1.210   6.449   5.157
14174TIP3    H242480   1.134   6.558   5.084
14175TIP3   OH242481   4.025   1.251   0.904
14175TIP3    H142482   4.012   1.345   0.916
14175TIP3    H242483   4.004   1.236   0.811
14176TIP3   OH242484   5.020   2.137   3.407
14176TIP3    H142485   5.033   2.209   3.468
14176TIP3    H242486   5.053   2.060   3.454
14177TIP3   OH242487   7.524   4.268   2.642
14177TIP3    H142488   7.573   4.349   2.653
14177TIP3    H242489   7.546   4.214   2.718
14178TIP3   OH242490   6.143   3.308   4.759
14178TIP3    H142491   6.135   3.392   4.715
14178TIP3    H242492   6.171   3.247   4.690
14179TIP3   OH242493   8.301   7.338   0.103
14179TIP3    H142494   8.348   7.255   0.099
14179TIP3    H242495   8.231   7.330   0.038
14180TIP3   OH242496   8.038   3.049   4.731
14180TIP3    H142497   7.956   3.006   4.707
14180TIP3    H242498   8.097   3.032   4.658
14181TIP3   OH242499   5.122   7.848   6.274
14181TIP3    H142500   5.036   7.876   6.306
14181TIP3    H242501   5.108   7.759   6.241
14182TIP3   OH242502   8.012   2.757   5.607
14182TIP3    H142503   8.014   2.663   5.592
14182TIP3    H242504   8.105   2.783   5.608
14183TIP3   OH242505   2.294   0.887   3.412
14183TIP3    H142506   2.246   0.833   3.476
14183TIP3    H242507   2.383   0.850   3.412
14184TIP3   OH242508   3.344   2.355   4.848
14184TIP3    H142509   3.417   2.295   4.834
14184TIP3    H242510   3.310   2.332   4.934
14185TIP3   OH242511   2.821   1.637   1.099
14185TIP3    H142512   2.876   1.648   1.021
14185TIP3    H242513   2.883   1.613   1.168
14186TIP3   OH242514   2.645   3.353   0.199
14186TIP3    H142515   2.634   3.448   0.207
14186TIP3    H242516   2.720   3.343   0.140
14187TIP3   OH242517   1.613   7.468   5.236
14187TIP3    H142518   1.564   7.387   5.227
14187TIP3    H242519   1.645   7.466   5.327
14188TIP3   OH242520   4.944   2.925   2.805
14188TIP3    H142521   4.991   2.842   2.796
14188TIP3    H242522   5.008   2.991   2.778
14189TIP3   OH242523   7.857   6.797   2.810
14189TIP3    H142524   7.894   6.709   2.812
14189TIP3    H242525   7.815   6.804   2.724
14190TIP3   OH242526   2.336   0.292   3.752
14190TIP3    H142527   2.408   0.294   3.688
14190TIP3    H242528   2.332   0.201   3.781
14191TIP3   OH242529   1.703   5.139   2.171
14191TIP3    H142530   1.780   5.152   2.115
14191TIP3    H242531   1.726   5.185   2.252
14192TIP3   OH242532   5.433   6.482   3.128
14192TIP3    H142533   5.505   6.447   3.181
14192TIP3    H242534   5.407   6.408   3.073
14193TIP3   OH242535   1.672   7.122   6.170
14193TIP3    H142536   1.736   7.076   6.116
14193TIP3    H242537   1.663   7.068   6.249
14194TIP3   OH242538   8.241   1.588   1.875
14194TIP3    H142539   8.210   1.504   1.909
14194TIP3    H242540   8.169   1.649   1.895
14195TIP3   OH242541   4.492   3.908   4.967
14195TIP3    H142542   4.405   3.893   4.929
14195TIP3    H242543   4.484   3.879   5.057
14196TIP3   OH242544   7.639   1.260   1.896
14196TIP3    H142545   7.637   1.306   1.813
14196TIP3    H242546   7.679   1.322   1.957
14197TIP3   OH242547   4.533   7.388   2.157
14197TIP3    H142548   4.489   7.409   2.074
14197TIP3    H242549   4.626   7.394   2.137
14198TIP3   OH242550   5.633   5.774   2.350
14198TIP3    H142551   5.674   5.859   2.368
14198TIP3    H242552   5.591   5.784   2.265
14199TIP3   OH242553   5.580   1.947   5.202
14199TIP3    H142554   5.515   1.998   5.251
14199TIP3    H242555   5.658   1.949   5.257
14200TIP3   OH242556   5.703   0.722   1.070
14200TIP3    H142557   5.646   0.798   1.077
14200TIP3    H242558   5.715   0.710   0.976
14201TIP3   OH242559   1.599   3.559   6.202
14201TIP3    H142560   1.568   3.588   6.288
14201TIP3    H242561   1.616   3.640   6.154
14202TIP3   OH242562   4.316   4.359   0.210
14202TIP3    H142563   4.378   4.313   0.267
14202TIP3    H242564   4.357   4.445   0.196
14203TIP3   OH242565   7.712   2.613   4.544
14203TIP3    H142566   7.717   2.640   4.452
14203TIP3    H242567   7.658   2.535   4.542
14204TIP3   OH242568   0.795   2.571   5.807
14204TIP3    H142569   0.826   2.640   5.748
14204TIP3    H242570   0.866   2.561   5.871
14205TIP3   OH242571   6.739   0.339   4.302
14205TIP3    H142572   6.677   0.269   4.281
14205TIP3    H242573   6.703   0.417   4.261
14206TIP3   OH242574   3.611   6.723   5.053
14206TIP3    H142575   3.650   6.669   5.121
14206TIP3    H242576   3.647   6.810   5.067
14207TIP3   OH242577   1.940   4.935   4.499
14207TIP3    H142578   2.019   4.883   4.486
14207TIP3    H242579   1.944   4.965   4.590
14208TIP3   OH242580   6.400   5.092   5.829
14208TIP3    H142581   6.489   5.123   5.848
14208TIP3    H242582   6.343   5.146   5.884
14209TIP3   OH242583   1.226   4.701   5.056
14209TIP3    H142584   1.291   4.770   5.063
14209TIP3    H242585   1.211   4.672   5.146
14210TIP3   OH242586   7.785   0.926   5.206
14210TIP3    H142587   7.789   1.019   5.230
14210TIP3    H242588   7.789   0.926   5.110
14211TIP3   OH242589   3.428   2.433   3.712
14211TIP3    H142590   3.457   2.504   3.769
14211TIP3    H242591   3.509   2.389   3.685
14212TIP3   OH242592   2.958   1.509   4.638
14212TIP3    H142593   3.044   1.492   4.677
14212TIP3    H242594   2.963   1.471   4.551
14213TIP3   OH242595   5.973   0.631   3.383
14213TIP3    H142596   5.974   0.724   3.364
14213TIP3    H242597   6.054   0.597   3.343
14214TIP3   OH242598   6.099   5.587   2.585
14214TIP3    H142599   6.006   5.579   2.567
14214TIP3    H242600   6.119   5.513   2.643
14215TIP3   OH242601   1.071   3.656   1.451
14215TIP3    H142602   1.088   3.565   1.428
14215TIP3    H242603   1.038   3.695   1.370
14216TIP3   OH242604   7.632   2.901   5.672
14216TIP3    H142605   7.561   2.892   5.735
14216TIP3    H242606   7.593   2.950   5.599
14217TIP3   OH242607   1.273   3.961   2.985
14217TIP3    H142608   1.265   3.866   2.999
14217TIP3    H242609   1.233   4.000   3.062
14218TIP3   OH242610   7.349   5.038   6.030
14218TIP3    H142611   7.338   5.132   6.014
14218TIP3    H242612   7.441   5.021   6.012
14219TIP3   OH242613   6.671   5.802   0.713
14219TIP3    H142614   6.692   5.809   0.806
14219TIP3    H242615   6.640   5.712   0.703
14220TIP3   OH242616   2.236   2.196   6.694
14220TIP3    H142617   2.314   2.228   6.649
14220TIP3    H242618   2.206   2.123   6.641
14221TIP3   OH242619   2.038   1.749   4.575
14221TIP3    H142620   2.003   1.665   4.545
14221TIP3    H242621   2.084   1.784   4.498
14222TIP3   OH242622   4.636   6.754   1.939
14222TIP3    H142623   4.609   6.665   1.914
14222TIP3    H242624   4.723   6.765   1.900
14223TIP3   OH242625   4.065   1.431   0.196
14223TIP3    H142626   3.978   1.395   0.179
14223TIP3    H242627   4.066   1.514   0.148
14224TIP3   OH242628   0.884   6.107   1.144
14224TIP3    H142629   0.966   6.062   1.164
14224TIP3    H242630   0.821   6.070   1.206
14225TIP3   OH242631   2.944   3.338   6.598
14225TIP3    H142632   2.884   3.265   6.609
14225TIP3    H242633   3.009   3.306   6.535
14226TIP3   OH242634   4.216   4.137   2.411
14226TIP3    H142635   4.171   4.150   2.494
14226TIP3    H242636   4.177   4.203   2.353
14227TIP3   OH242637   6.008   2.714   1.103
14227TIP3    H142638   6.024   2.743   1.192
14227TIP3    H242639   5.946   2.641   1.112
14228TIP3   OH242640   1.306   3.134   3.162
14228TIP3    H142641   1.262   3.181   3.091
14228TIP3    H242642   1.391   3.110   3.124
14229TIP3   OH242643   4.058   4.309   0.172
14229TIP3    H142644   4.137   4.362   0.165
14229TIP3    H242645   4.090   4.220   0.188
14230TIP3   OH242646   2.077   1.599   4.882
14230TIP3    H142647   2.060   1.651   4.803
14230TIP3    H242648   2.155   1.549   4.861
14231TIP3   OH242649   1.398   6.263   0.975
14231TIP3    H142650   1.383   6.203   0.902
14231TIP3    H242651   1.315   6.266   1.022
14232TIP3   OH242652   1.307   2.462   0.060
14232TIP3    H142653   1.382   2.412   0.029
14232TIP3    H242654   1.340   2.508   0.137
14233TIP3   OH242655   3.582   3.991   5.140
14233TIP3    H142656   3.528   3.913   5.152
14233TIP3    H242657   3.672   3.958   5.147
14234TIP3   OH242658   4.899   3.221   2.916
14234TIP3    H142659   4.867   3.249   3.002
14234TIP3    H242660   4.844   3.269   2.854
14235TIP3   OH242661   3.805   7.574   2.617
14235TIP3    H142662   3.862   7.498   2.620
14235TIP3    H242663   3.864   7.649   2.606
14236TIP3   OH242664   8.227   1.600   5.510
14236TIP3    H142665   8.145   1.565   5.475
14236TIP3    H242666   8.203   1.683   5.550
14237TIP3   OH242667   3.353   3.020   6.446
14237TIP3    H142668   3.295   3.011   6.522
14237TIP3    H242669   3.308   3.081   6.389
14238TIP3   OH242670   2.813   2.600   0.427
14238TIP3    H142671   2.732   2.572   0.470
14238TIP3    H242672   2.785   2.671   0.369
14239TIP3   OH242673   6.358   3.702   3.550
14239TIP3    H142674   6.317   3.628   3.594
14239TIP3    H242675   6.359   3.772   3.616
14240TIP3   OH242676   8.112   1.149   2.261
14240TIP3    H142677   8.137   1.068   2.306
14240TIP3    H242678   8.188   1.171   2.208
14241TIP3   OH242679   3.346   2.447   1.307
14241TIP3    H142680   3.259   2.415   1.284
14241TIP3    H242681   3.401   2.369   1.304
14242TIP3   OH242682   2.288   7.519   5.627
14242TIP3    H142683   2.332   7.440   5.595
14242TIP3    H242684   2.350   7.559   5.687
14243TIP3   OH242685   0.459   5.460   3.679
14243TIP3    H142686   0.510   5.388   3.716
14243TIP3    H242687   0.475   5.454   3.585
14244TIP3   OH242688   2.779   5.864   2.766
14244TIP3    H142689   2.686   5.888   2.773
14244TIP3    H242690   2.778   5.769   2.755
14245TIP3   OH242691   5.946   2.882   4.801
14245TIP3    H142692   6.031   2.844   4.781
14245TIP3    H242693   5.963   2.943   4.873
14246TIP3   OH242694   0.743   4.734   1.210
14246TIP3    H142695   0.733   4.789   1.287
14246TIP3    H242696   0.724   4.792   1.136
14247TIP3   OH242697   4.241   6.564   0.275
14247TIP3    H142698   4.336   6.573   0.279
14247TIP3    H242699   4.219   6.506   0.347
14248TIP3   OH242700   5.801   4.615   3.521
14248TIP3    H142701   5.742   4.598   3.595
14248TIP3    H242702   5.745   4.653   3.454
14249TIP3   OH242703   6.706   3.040   4.804
14249TIP3    H142704   6.658   2.993   4.736
14249TIP3    H242705   6.773   3.090   4.756
14250TIP3   OH242706   2.732   7.080   0.639
14250TIP3    H142707   2.761   6.989   0.635
14250TIP3    H242708   2.813   7.131   0.645
14251TIP3   OH242709   6.880   7.405   3.638
14251TIP3    H142710   6.898   7.343   3.709
14251TIP3    H242711   6.940   7.378   3.568
14252TIP3   OH242712   2.408   1.611   2.550
14252TIP3    H142713   2.391   1.555   2.626
14252TIP3    H242714   2.343   1.583   2.485
14253TIP3   OH242715   4.989   4.677   4.461
14253TIP3    H142716   5.030   4.609   4.514
14253TIP3    H242717   4.969   4.747   4.524
14254TIP3   OH242718   6.850   2.154   3.410
14254TIP3    H142719   6.894   2.174   3.492
14254TIP3    H242720   6.883   2.220   3.349
14255TIP3   OH242721   7.307   0.359   5.121
14255TIP3    H142722   7.285   0.298   5.050
14255TIP3    H242723   7.252   0.436   5.104
14256TIP3   OH242724   0.068   6.578   6.724
14256TIP3    H142725   0.072   6.511   6.792
14256TIP3    H242726   0.136   6.552   6.661
14257TIP3   OH242727   4.831   0.248   5.508
14257TIP3    H142728   4.801   0.177   5.452
14257TIP3    H242729   4.877   0.307   5.448
14258TIP3   OH242730   3.847   3.861   1.218
14258TIP3    H142731   3.920   3.917   1.193
14258TIP3    H242732   3.846   3.792   1.152
14259TIP3   OH242733   1.802   3.124   0.045
14259TIP3    H142734   1.769   3.034   0.038
14259TIP3    H242735   1.734   3.178   0.003
14260TIP3   OH242736   6.873   4.980   0.678
14260TIP3    H142737   6.880   5.010   0.587
14260TIP3    H242738   6.961   4.951   0.700
14261TIP3   OH242739   6.129   6.151   5.858
14261TIP3    H142740   6.094   6.232   5.896
14261TIP3    H242741   6.152   6.097   5.933
14262TIP3   OH242742   0.518   7.254   5.682
14262TIP3    H142743   0.536   7.182   5.622
14262TIP3    H242744   0.568   7.328   5.646
14263TIP3   OH242745   5.816   0.995   2.300
14263TIP3    H142746   5.729   0.959   2.316
14263TIP3    H242747   5.803   1.057   2.228
14264TIP3   OH242748   2.177   5.809   1.388
14264TIP3    H142749   2.193   5.715   1.391
14264TIP3    H242750   2.240   5.846   1.450
14265TIP3   OH242751   2.158   5.178   4.783
14265TIP3    H142752   2.213   5.240   4.830
14265TIP3    H242753   2.219   5.110   4.752
14266TIP3   OH242754   5.742   6.928   4.015
14266TIP3    H142755   5.653   6.938   4.050
14266TIP3    H242756   5.787   6.873   4.080
14267TIP3   OH242757   7.504   1.904   0.713
14267TIP3    H142758   7.437   1.900   0.645
14267TIP3    H242759   7.519   1.812   0.736
14268TIP3   OH242760   7.715   1.566   4.092
14268TIP3    H142761   7.806   1.539   4.078
14268TIP3    H242762   7.698   1.545   4.184
14269TIP3   OH242763   3.463   4.789   6.340
14269TIP3    H142764   3.390   4.850   6.351
14269TIP3    H242765   3.455   4.728   6.412
14270TIP3   OH242766   5.236   1.331   2.773
14270TIP3    H142767   5.169   1.381   2.726
14270TIP3    H242768   5.300   1.397   2.800
14271TIP3   OH242769   4.739   2.999   3.008
14271TIP3    H142770   4.673   3.032   2.947
14271TIP3    H242771   4.823   3.020   2.967
14272TIP3   OH242772   3.007   7.530   2.846
14272TIP3    H142773   3.022   7.442   2.879
14272TIP3    H242774   3.062   7.586   2.901
14273TIP3   OH242775   4.669   5.140   1.946
14273TIP3    H142776   4.709   5.059   1.915
14273TIP3    H242777   4.668   5.132   2.041
14274TIP3   OH242778   2.619   2.015   6.134
14274TIP3    H142779   2.624   1.956   6.208
14274TIP3    H242780   2.628   2.103   6.172
14275TIP3   OH242781   5.019   3.511   4.265
14275TIP3    H142782   4.959   3.494   4.338
14275TIP3    H242783   5.049   3.601   4.280
14276TIP3   OH242784   4.921   0.932   6.486
14276TIP3    H142785   4.877   0.951   6.569
14276TIP3    H242786   4.940   0.839   6.489
14277TIP3   OH242787   0.463   4.056   4.970
14277TIP3    H142788   0.557   4.052   4.988
14277TIP3    H242789   0.437   4.145   4.996
14278TIP3   OH242790   5.025   2.564   3.370
14278TIP3    H142791   5.064   2.601   3.449
14278TIP3    H242792   5.022   2.637   3.308
14279TIP3   OH242793   6.894   2.709   5.376
14279TIP3    H142794   6.944   2.720   5.457
14279TIP3    H242795   6.905   2.617   5.353
14280TIP3   OH242796   3.474   0.759   2.228
14280TIP3    H142797   3.550   0.797   2.272
14280TIP3    H242798   3.504   0.743   2.139
14281TIP3   OH242799   6.407   7.763   0.287
14281TIP3    H142800   6.326   7.814   0.282
14281TIP3    H242801   6.477   7.828   0.285
14282TIP3   OH242802   0.104   5.386   0.165
14282TIP3    H142803   0.047   5.450   0.208
14282TIP3    H242804   0.101   5.409   0.072
14283TIP3   OH242805   5.575   4.773   1.785
14283TIP3    H142806   5.659   4.819   1.791
14283TIP3    H242807   5.538   4.800   1.701
14284TIP3   OH242808   7.163   6.621   2.499
14284TIP3    H142809   7.076   6.621   2.460
14284TIP3    H242810   7.149   6.642   2.591
14285TIP3   OH242811   0.930   2.196   2.987
14285TIP3    H142812   1.012   2.150   3.005
14285TIP3    H242813   0.884   2.196   3.071
14286TIP3   OH242814   6.676   0.337   2.450
14286TIP3    H142815   6.696   0.267   2.512
14286TIP3    H242816   6.706   0.303   2.365
14287TIP3   OH242817   5.216   1.899   5.700
14287TIP3    H142818   5.283   1.960   5.729
14287TIP3    H242819   5.208   1.836   5.771
14288TIP3   OH242820   5.245   6.906   0.495
14288TIP3    H142821   5.228   6.937   0.406
14288TIP3    H242822   5.276   6.816   0.485
14289TIP3   OH242823   6.981   1.006   1.669
14289TIP3    H142824   7.060   1.007   1.616
14289TIP3    H242825   6.990   0.927   1.723
14290TIP3   OH242826   1.934   2.879   4.278
14290TIP3    H142827   1.901   2.928   4.202
14290TIP3    H242828   1.856   2.858   4.329
14291TIP3   OH242829   5.546   4.057   2.645
14291TIP3    H142830   5.555   4.134   2.589
14291TIP3    H242831   5.618   4.000   2.620
14292TIP3   OH242832   0.532   5.604   5.699
14292TIP3    H142833   0.449   5.651   5.703
14292TIP3    H242834   0.525   5.536   5.766
14293TIP3   OH242835   6.099   4.542   1.279
14293TIP3    H142836   6.163   4.492   1.228
14293TIP3    H242837   6.152   4.590   1.343
14294TIP3   OH242838   2.073   1.501   4.368
14294TIP3    H142839   2.071   1.406   4.382
14294TIP3    H242840   2.161   1.527   4.394
14295TIP3   OH242841   5.042   3.902   4.522
14295TIP3    H142842   5.003   3.864   4.444
14295TIP3    H242843   5.134   3.879   4.516
14296TIP3   OH242844   2.430   4.113   3.551
14296TIP3    H142845   2.341   4.079   3.549
14296TIP3    H242846   2.451   4.122   3.644
14297TIP3   OH242847   2.435   6.178   0.326
14297TIP3    H142848   2.342   6.189   0.344
14297TIP3    H242849   2.472   6.266   0.331
14298TIP3   OH242850   7.229   1.542   2.728
14298TIP3    H142851   7.139   1.513   2.746
14298TIP3    H242852   7.269   1.552   2.814
14299TIP3   OH242853   5.607   2.935   0.008
14299TIP3    H142854   5.653   2.897   0.083
14299TIP3    H242855   5.619   2.872  -0.062
14300TIP3   OH242856   5.175   7.197   5.264
14300TIP3    H142857   5.265   7.169   5.280
14300TIP3    H242858   5.122   7.140   5.320
14301TIP3   OH242859   8.207   0.591   6.097
14301TIP3    H142860   8.234   0.515   6.148
14301TIP3    H242861   8.112   0.585   6.093
14302TIP3   OH242862   2.347   0.223   4.915
14302TIP3    H142863   2.369   0.313   4.890
14302TIP3    H242864   2.285   0.194   4.848
14303TIP3   OH242865   0.488   0.627   2.084
14303TIP3    H142866   0.541   0.547   2.086
14303TIP3    H242867   0.448   0.626   1.997
14304TIP3   OH242868   2.018   2.070   4.644
14304TIP3    H142869   1.948   2.037   4.700
14304TIP3    H242870   2.084   2.001   4.645
14305TIP3   OH242871   6.279   3.938   2.632
14305TIP3    H142872   6.250   3.851   2.603
14305TIP3    H242873   6.363   3.950   2.588
14306TIP3   OH242874   6.592   2.818   1.061
14306TIP3    H142875   6.522   2.868   1.017
14306TIP3    H242876   6.670   2.835   1.009
14307TIP3   OH242877   0.032   0.124   5.122
14307TIP3    H142878   0.042   0.188   5.193
14307TIP3    H242879  -0.002   0.175   5.049
14308TIP3   OH242880   6.305   2.074   1.883
14308TIP3    H142881   6.335   2.133   1.952
14308TIP3    H242882   6.271   2.131   1.814
14309TIP3   OH242883   2.232   4.746  -0.003
14309TIP3    H142884   2.262   4.835  -0.019
14309TIP3    H242885   2.273   4.721   0.080
14310TIP3   OH242886   3.751   6.966   4.984
14310TIP3    H142887   3.813   7.038   4.974
14310TIP3    H242888   3.669   7.009   5.011
14311TIP3   OH242889   4.504   0.320   3.423
14311TIP3    H142890   4.430   0.380   3.410
14311TIP3    H242891   4.576   0.377   3.449
14312TIP3   OH242892   0.119   2.168   6.214
14312TIP3    H142893   0.161   2.083   6.228
14312TIP3    H242894   0.129   2.185   6.120
14313TIP3   OH242895   0.137   7.120   1.902
14313TIP3    H142896   0.222   7.114   1.947
14313TIP3    H242897   0.134   7.209   1.867
14314TIP3   OH242898   5.561   5.905   0.132
14314TIP3    H142899   5.507   5.904   0.053
14314TIP3    H242900   5.650   5.917   0.100
14315TIP3   OH242901   6.463   0.757   1.075
14315TIP3    H142902   6.386   0.783   1.024
14315TIP3    H242903   6.434   0.762   1.166
14316TIP3   OH242904   3.873   2.500   0.239
14316TIP3    H142905   3.814   2.576   0.246
14316TIP3    H242906   3.961   2.537   0.250
14317TIP3   OH242907   1.210   6.538   1.031
14317TIP3    H142908   1.240   6.538   1.121
14317TIP3    H242909   1.125   6.493   1.034
14318TIP3   OH242910   4.080   0.912   3.257
14318TIP3    H142911   3.987   0.937   3.252
14318TIP3    H242912   4.117   0.944   3.174
14319TIP3   OH242913   0.066   6.428   4.830
14319TIP3    H142914   0.146   6.454   4.876
14319TIP3    H242915   0.039   6.347   4.875
14320TIP3   OH242916   6.270   5.717   6.607
14320TIP3    H142917   6.278   5.708   6.512
14320TIP3    H242918   6.221   5.639   6.634
14321TIP3   OH242919   7.573   2.373   1.289
14321TIP3    H142920   7.519   2.323   1.228
14321TIP3    H242921   7.554   2.335   1.375
14322TIP3   OH242922   7.192   3.730   3.320
14322TIP3    H142923   7.221   3.745   3.410
14322TIP3    H242924   7.115   3.674   3.329
14323TIP3   OH242925   4.745   5.428   4.091
14323TIP3    H142926   4.672   5.367   4.098
14323TIP3    H242927   4.740   5.481   4.170
14324TIP3   OH242928   0.304   3.950   4.380
14324TIP3    H142929   0.348   4.004   4.445
14324TIP3    H242930   0.361   3.954   4.303
14325TIP3   OH242931   6.379   5.649   5.408
14325TIP3    H142932   6.330   5.691   5.479
14325TIP3    H242933   6.333   5.565   5.394
14326TIP3   OH242934   4.260   3.841   0.618
14326TIP3    H142935   4.257   3.929   0.580
14326TIP3    H242936   4.186   3.838   0.679
14327TIP3   OH242937   1.190   6.141   4.900
14327TIP3    H142938   1.266   6.161   4.956
14327TIP3    H242939   1.115   6.147   4.959
14328TIP3   OH242940   6.128   4.952   3.244
14328TIP3    H142941   6.050   4.931   3.295
14328TIP3    H242942   6.096   4.969   3.156
14329TIP3   OH242943   0.462   0.914   0.319
14329TIP3    H142944   0.537   0.967   0.294
14329TIP3    H242945   0.415   0.968   0.383
14330TIP3   OH242946   5.899   0.569   0.627
14330TIP3    H142947   5.900   0.579   0.532
14330TIP3    H242948   5.975   0.620   0.657
14331TIP3   OH242949   4.221   4.365   2.241
14331TIP3    H142950   4.170   4.397   2.316
14331TIP3    H242951   4.156   4.326   2.183
14332TIP3   OH242952   1.891   0.832   0.997
14332TIP3    H142953   1.855   0.745   0.980
14332TIP3    H242954   1.866   0.851   1.087
14333TIP3   OH242955   0.418   7.184   2.481
14333TIP3    H142956   0.484   7.250   2.501
14333TIP3    H242957   0.396   7.199   2.389
14334TIP3   OH242958   4.044   2.265   2.880
14334TIP3    H142959   4.068   2.322   2.807
14334TIP3    H242960   4.061   2.317   2.958
14335TIP3   OH242961   7.238   3.754   5.427
14335TIP3    H142962   7.264   3.750   5.335
14335TIP3    H242963   7.320   3.750   5.475
14336TIP3   OH242964   0.042   4.190   5.049
14336TIP3    H142965  -0.001   4.272   5.070
14336TIP3    H242966   0.102   4.176   5.122
14337TIP3   OH242967   1.620   2.305   2.821
14337TIP3    H142968   1.670   2.368   2.768
14337TIP3    H242969   1.540   2.290   2.770
14338TIP3   OH242970   6.771   6.959   5.076
14338TIP3    H142971   6.706   7.013   5.121
14338TIP3    H242972   6.751   6.969   4.983
14339TIP3   OH242973   1.809   1.120   2.109
14339TIP3    H142974   1.851   1.096   2.192
14339TIP3    H242975   1.832   1.049   2.050
14340TIP3   OH242976   3.105   6.984   2.752
14340TIP3    H142977   3.122   6.962   2.843
14340TIP3    H242978   3.147   6.915   2.701
14341TIP3   OH242979   7.817   5.371   2.782
14341TIP3    H142980   7.863   5.427   2.844
14341TIP3    H242981   7.727   5.401   2.785
14342TIP3   OH242982   4.894   5.284   2.661
14342TIP3    H142983   4.937   5.346   2.601
14342TIP3    H242984   4.902   5.326   2.747
14343TIP3   OH242985   5.120   2.563   1.585
14343TIP3    H142986   5.207   2.590   1.555
14343TIP3    H242987   5.114   2.470   1.563
14344TIP3   OH242988   7.828   5.973   3.572
14344TIP3    H142989   7.757   5.924   3.531
14344TIP3    H242990   7.905   5.955   3.517
14345TIP3   OH242991   6.238   7.739   4.174
14345TIP3    H142992   6.151   7.770   4.150
14345TIP3    H242993   6.283   7.726   4.090
14346TIP3   OH242994   2.710   6.420   0.929
14346TIP3    H142995   2.672   6.505   0.905
14346TIP3    H242996   2.662   6.393   1.007
14347TIP3   OH242997   5.241   5.245   2.669
14347TIP3    H142998   5.311   5.180   2.668
14347TIP3    H242999   5.185   5.219   2.742
14348TIP3   OH243000   2.426   2.887   1.243
14348TIP3    H143001   2.499   2.836   1.277
14348TIP3    H243002   2.435   2.882   1.148
14349TIP3   OH243003   6.108   3.879   6.277
14349TIP3    H143004   6.152   3.919   6.202
14349TIP3    H243005   6.175   3.827   6.320
14350TIP3   OH243006   7.256   1.093   0.126
14350TIP3    H143007   7.208   1.125   0.051
14350TIP3    H243008   7.343   1.134   0.119
14351TIP3   OH243009   2.034   1.421   2.547
14351TIP3    H143010   1.941   1.437   2.564
14351TIP3    H243011   2.065   1.378   2.627
14352TIP3   OH243012   6.440   0.145   6.317
14352TIP3    H143013   6.461   0.153   6.410
14352TIP3    H243014   6.352   0.184   6.309
14353TIP3   OH243015   7.247   4.155   0.960
14353TIP3    H143016   7.250   4.187   1.051
14353TIP3    H243017   7.254   4.234   0.907
14354TIP3   OH243018   0.334   5.117   4.988
14354TIP3    H143019   0.375   5.117   5.075
14354TIP3    H243020   0.406   5.098   4.928
14355TIP3   OH243021   4.417   5.224   5.373
14355TIP3    H143022   4.352   5.182   5.430
14355TIP3    H243023   4.426   5.163   5.299
14356TIP3   OH243024   7.589   6.244   4.936
14356TIP3    H143025   7.654   6.207   4.995
14356TIP3    H243026   7.613   6.336   4.928
14357TIP3   OH243027   5.479   6.730   0.465
14357TIP3    H143028   5.422   6.708   0.392
14357TIP3    H243029   5.568   6.718   0.431
14358TIP3   OH243030   4.032   1.757   3.070
14358TIP3    H143031   4.031   1.798   3.156
14358TIP3    H243032   4.013   1.828   3.009
14359TIP3   OH243033   1.712   3.224   6.486
14359TIP3    H143034   1.757   3.215   6.570
14359TIP3    H243035   1.644   3.289   6.502
14360TIP3   OH243036   3.951   2.738   5.195
14360TIP3    H143037   4.001   2.790   5.258
14360TIP3    H243038   3.860   2.754   5.217
14361TIP3   OH243039   2.067   0.667   3.980
14361TIP3    H143040   2.157   0.634   3.976
14361TIP3    H243041   2.017   0.593   4.015
14362TIP3   OH243042   2.313   5.301   4.979
14362TIP3    H143043   2.401   5.336   4.973
14362TIP3    H243044   2.322   5.220   5.030
14363TIP3   OH243045   2.296   0.825   5.718
14363TIP3    H143046   2.350   0.893   5.758
14363TIP3    H243047   2.328   0.819   5.628
14364TIP3   OH243048   1.608   0.248   4.371
14364TIP3    H143049   1.681   0.208   4.325
14364TIP3    H243050   1.536   0.247   4.308
14365TIP3   OH243051   2.559   3.303   6.283
14365TIP3    H143052   2.605   3.383   6.255
14365TIP3    H243053   2.618   3.232   6.257
14366TIP3   OH243054   0.618   2.856   5.517
14366TIP3    H143055   0.538   2.830   5.563
14366TIP3    H243056   0.596   2.848   5.424
14367TIP3   OH243057   3.809   2.098   4.828
14367TIP3    H143058   3.736   2.051   4.868
14367TIP3    H243059   3.880   2.034   4.824
14368TIP3   OH243060   5.398   0.533   3.398
14368TIP3    H143061   5.418   0.456   3.451
14368TIP3    H243062   5.319   0.569   3.437
14369TIP3   OH243063   3.856   3.779   1.491
14369TIP3    H143064   3.928   3.721   1.515
14369TIP3    H243065   3.864   3.790   1.397
14370TIP3   OH243066   2.990   2.591   1.405
14370TIP3    H143067   3.062   2.647   1.437
14370TIP3    H243068   3.031   2.506   1.391
14371TIP3   OH243069   5.910   7.239   3.261
14371TIP3    H143070   5.971   7.199   3.323
14371TIP3    H243071   5.933   7.200   3.177
14372TIP3   OH243072   6.029   6.504   4.115
14372TIP3    H143073   6.094   6.447   4.156
14372TIP3    H243074   5.962   6.516   4.182
14373TIP3   OH243075   2.478   4.224   3.930
14373TIP3    H143076   2.413   4.292   3.913
14373TIP3    H243077   2.430   4.142   3.922
14374TIP3   OH243078   5.602   0.056   3.306
14374TIP3    H143079   5.656   0.050   3.227
14374TIP3    H243080   5.564   0.144   3.302
14375TIP3   OH243081   8.056   3.179   2.824
14375TIP3    H143082   8.121   3.245   2.798
14375TIP3    H243083   7.992   3.227   2.877
14376TIP3   OH243084   7.114   0.261   0.303
14376TIP3    H143085   7.129   0.300   0.217
14376TIP3    H243086   7.191   0.285   0.354
14377TIP3   OH243087   3.804   0.802   6.272
14377TIP3    H143088   3.811   0.710   6.245
14377TIP3    H243089   3.715   0.811   6.305
14378TIP3   OH243090   2.914   2.735   2.904
14378TIP3    H143091   2.930   2.829   2.911
14378TIP3    H243092   2.998   2.695   2.927
14379TIP3   OH243093   6.615   3.977   0.226
14379TIP3    H143094   6.681   3.972   0.296
14379TIP3    H243095   6.534   3.999   0.272
14380TIP3   OH243096   2.635   0.481   6.142
14380TIP3    H143097   2.585   0.560   6.165
14380TIP3    H243098   2.607   0.416   6.207
14381TIP3   OH243099   7.022   3.329   1.589
14381TIP3    H143100   6.970   3.312   1.510
14381TIP3    H243101   6.958   3.342   1.658
14382TIP3   OH243102   3.548   6.523   2.126
14382TIP3    H143103   3.640   6.526   2.100
14382TIP3    H243104   3.501   6.559   2.050
14383TIP3   OH243105   6.964   6.114   6.313
14383TIP3    H143106   7.037   6.168   6.340
14383TIP3    H243107   6.910   6.171   6.258
14384TIP3   OH243108   3.093   2.587   3.311
14384TIP3    H143109   3.028   2.567   3.243
14384TIP3    H243110   3.170   2.614   3.262
14385TIP3   OH243111   4.049   3.727   5.501
14385TIP3    H143112   3.966   3.679   5.502
14385TIP3    H243113   4.024   3.818   5.513
14386TIP3   OH243114   6.198   6.415   3.780
14386TIP3    H143115   6.231   6.391   3.693
14386TIP3    H243116   6.185   6.510   3.776
14387TIP3   OH243117   7.830   5.652   2.055
14387TIP3    H143118   7.816   5.565   2.019
14387TIP3    H243119   7.906   5.643   2.112
14388TIP3   OH243120   0.906   6.290   1.465
14388TIP3    H143121   1.000   6.276   1.460
14388TIP3    H243122   0.883   6.330   1.381
14389TIP3   OH243123   7.087   2.859   1.973
14389TIP3    H143124   7.179   2.880   1.992
14389TIP3    H243125   7.077   2.768   1.999
14390TIP3   OH243126   0.429   7.292   4.273
14390TIP3    H143127   0.403   7.204   4.246
14390TIP3    H243128   0.516   7.281   4.312
14391TIP3   OH243129   6.567   6.569   2.247
14391TIP3    H143130   6.549   6.484   2.206
14391TIP3    H243131   6.504   6.629   2.207
14392TIP3   OH243132   4.706   4.462   1.787
14392TIP3    H143133   4.614   4.478   1.805
14392TIP3    H243134   4.737   4.411   1.862
14393TIP3   OH243135   2.887   6.968   4.605
14393TIP3    H143136   2.855   7.057   4.590
14393TIP3    H243137   2.978   6.970   4.575
14394TIP3   OH243138   3.869   3.840   5.120
14394TIP3    H143139   3.962   3.832   5.143
14394TIP3    H243140   3.867   3.905   5.051
14395TIP3   OH243141   4.835   4.284   5.101
14395TIP3    H143142   4.762   4.260   5.044
14395TIP3    H243143   4.803   4.266   5.190
14396TIP3   OH243144   0.724   1.310   2.240
14396TIP3    H143145   0.785   1.239   2.260
14396TIP3    H243146   0.754   1.383   2.295
14397TIP3   OH243147   3.897   4.734   1.279
14397TIP3    H143148   3.881   4.784   1.199
14397TIP3    H243149   3.992   4.743   1.294
14398TIP3   OH243150   3.141   3.687   0.197
14398TIP3    H143151   3.053   3.719   0.178
14398TIP3    H243152   3.199   3.752   0.160
14399TIP3   OH243153   7.648   4.109   2.836
14399TIP3    H143154   7.618   4.112   2.926
14399TIP3    H243155   7.715   4.041   2.834
14400TIP3   OH243156   2.428   1.088   4.324
14400TIP3    H143157   2.438   1.180   4.348
14400TIP3    H243158   2.336   1.078   4.303
14401TIP3   OH243159   3.564   3.560   0.225
14401TIP3    H143160   3.556   3.649   0.191
14401TIP3    H243161   3.658   3.540   0.216
14402TIP3   OH243162   4.321   7.429   0.629
14402TIP3    H143163   4.413   7.409   0.648
14402TIP3    H243164   4.273   7.398   0.705
14403TIP3   OH243165   0.279   2.170   0.536
14403TIP3    H143166   0.287   2.098   0.598
14403TIP3    H243167   0.210   2.226   0.572
14404TIP3   OH243168   4.328   4.325   3.117
14404TIP3    H143169   4.383   4.392   3.157
14404TIP3    H243170   4.262   4.306   3.183
14405TIP3   OH243171   5.426   7.139   3.151
14405TIP3    H143172   5.344   7.092   3.161
14405TIP3    H243173   5.401   7.231   3.152
14406TIP3   OH243174   6.429   6.122   4.182
14406TIP3    H143175   6.415   6.091   4.272
14406TIP3    H243176   6.341   6.129   4.145
14407TIP3   OH243177   7.206   3.681   5.028
14407TIP3    H143178   7.278   3.645   4.976
14407TIP3    H243179   7.139   3.612   5.028
14408TIP3   OH243180   4.140   6.114   0.503
14408TIP3    H143181   4.119   6.088   0.414
14408TIP3    H243182   4.223   6.071   0.523
14409TIP3   OH243183   1.028   2.117   1.948
14409TIP3    H143184   1.093   2.053   1.975
14409TIP3    H243185   0.946   2.068   1.944
14410TIP3   OH243186   3.086   6.655   3.627
14410TIP3    H143187   3.125   6.678   3.543
14410TIP3    H243188   3.000   6.696   3.627
14411TIP3   OH243189   4.012   3.814   0.297
14411TIP3    H143190   4.034   3.739   0.242
14411TIP3    H243191   3.990   3.774   0.382
14412TIP3   OH243192   4.183   3.482   6.613
14412TIP3    H143193   4.277   3.466   6.623
14412TIP3    H243194   4.168   3.567   6.655
14413TIP3   OH243195   7.701   0.353   1.881
14413TIP3    H143196   7.686   0.300   1.959
14413TIP3    H243197   7.615   0.389   1.860
14414TIP3   OH243198   7.157   0.731   3.047
14414TIP3    H143199   7.149   0.663   2.980
14414TIP3    H243200   7.097   0.800   3.018
14415TIP3   OH243201   5.695   6.096   1.991
14415TIP3    H143202   5.681   6.116   1.898
14415TIP3    H243203   5.789   6.081   1.999
14416TIP3   OH243204   3.093   7.628   5.936
14416TIP3    H143205   3.103   7.622   6.031
14416TIP3    H243206   3.128   7.546   5.902
14417TIP3   OH243207   7.421   6.557   2.458
14417TIP3    H143208   7.326   6.564   2.458
14417TIP3    H243209   7.447   6.582   2.369
14418TIP3   OH243210   6.217   0.265   1.362
14418TIP3    H143211   6.258   0.297   1.282
14418TIP3    H243212   6.163   0.338   1.392
14419TIP3   OH243213   5.839   5.279   6.069
14419TIP3    H143214   5.908   5.213   6.060
14419TIP3    H243215   5.886   5.363   6.071
14420TIP3   OH243216   2.971   5.335   1.070
14420TIP3    H143217   2.951   5.369   0.983
14420TIP3    H243218   2.945   5.243   1.066
14421TIP3   OH243219   7.216   6.045   3.510
14421TIP3    H143220   7.235   6.131   3.472
14421TIP3    H243221   7.190   6.063   3.600
14422TIP3   OH243222   0.354   4.013   0.875
14422TIP3    H143223   0.258   4.009   0.874
14422TIP3    H243224   0.382   3.923   0.857
14423TIP3   OH243225   0.547   4.427   3.944
14423TIP3    H143226   0.609   4.495   3.970
14423TIP3    H243227   0.509   4.459   3.862
14424TIP3   OH243228   5.777   3.199   4.427
14424TIP3    H143229   5.822   3.174   4.347
14424TIP3    H243230   5.782   3.121   4.483
14425TIP3   OH243231   0.136   3.680   0.789
14425TIP3    H143232   0.173   3.670   0.877
14425TIP3    H243233   0.160   3.599   0.744
14426TIP3   OH243234   7.341   3.642   0.357
14426TIP3    H143235   7.384   3.679   0.279
14426TIP3    H243236   7.413   3.609   0.411
14427TIP3   OH243237   1.033   2.193   2.544
14427TIP3    H143238   1.066   2.219   2.458
14427TIP3    H243239   0.940   2.215   2.543
14428TIP3   OH243240   7.910   1.730   0.100
14428TIP3    H143241   7.978   1.792   0.072
14428TIP3    H243242   7.913   1.660   0.036
14429TIP3   OH243243   7.866   4.900   3.074
14429TIP3    H143244   7.830   4.923   3.159
14429TIP3    H243245   7.859   4.804   3.070
14430TIP3   OH243246   1.937   1.441   1.850
14430TIP3    H143247   2.032   1.452   1.856
14430TIP3    H243248   1.904   1.527   1.826
14431TIP3   OH243249   8.059   5.061   6.715
14431TIP3    H143250   8.066   5.045   6.621
14431TIP3    H243251   8.121   4.999   6.754
14432TIP3   OH243252   5.230   3.753   5.733
14432TIP3    H143253   5.179   3.674   5.713
14432TIP3    H243254   5.249   3.746   5.826
14433TIP3   OH243255   0.451   7.753   6.167
14433TIP3    H143256   0.473   7.725   6.078
14433TIP3    H243257   0.518   7.713   6.222
14434TIP3   OH243258   1.526   7.819   4.271
14434TIP3    H143259   1.556   7.734   4.303
14434TIP3    H243260   1.448   7.799   4.219
14435TIP3   OH243261   7.275   7.080   1.313
14435TIP3    H143262   7.326   7.136   1.371
14435TIP3    H243263   7.325   7.077   1.232
14436TIP3   OH243264   1.841   2.061   6.674
14436TIP3    H143265   1.905   2.048   6.605
14436TIP3    H243266   1.756   2.049   6.632
14437TIP3   OH243267   8.173   7.800   3.612
14437TIP3    H143268   8.223   7.747   3.675
14437TIP3    H243269   8.113   7.852   3.667
14438TIP3   OH243270   7.264   5.105   0.515
14438TIP3    H143271   7.265   5.136   0.425
14438TIP3    H243272   7.264   5.010   0.508
14439TIP3   OH243273   3.050   0.391   3.730
14439TIP3    H143274   3.112   0.351   3.792
14439TIP3    H243275   3.092   0.474   3.706
14440TIP3   OH243276   3.959   5.319   0.202
14440TIP3    H143277   3.900   5.295   0.129
14440TIP3    H243278   3.952   5.246   0.263
14441TIP3   OH243279   7.880   5.434   1.758
14441TIP3    H143280   7.866   5.427   1.853
14441TIP3    H243281   7.846   5.521   1.735
14442TIP3   OH243282   5.419   6.838   5.215
14442TIP3    H143283   5.324   6.852   5.218
14442TIP3    H243284   5.432   6.757   5.264
14443TIP3   OH243285   7.171   6.350   4.939
14443TIP3    H143286   7.083   6.325   4.912
14443TIP3    H243287   7.226   6.274   4.917
14444TIP3   OH243288   6.911   6.884   0.487
14444TIP3    H143289   6.961   6.822   0.541
14444TIP3    H243290   6.889   6.955   0.548
14445TIP3   OH243291   1.992   0.929   2.966
14445TIP3    H143292   2.069   0.975   2.933
14445TIP3    H243293   2.027   0.857   3.018
14446TIP3   OH243294   1.260   3.266   5.661
14446TIP3    H143295   1.280   3.343   5.713
14446TIP3    H243296   1.166   3.254   5.671
14447TIP3   OH243297   0.523   5.647   4.673
14447TIP3    H143298   0.553   5.593   4.599
14447TIP3    H243299   0.483   5.584   4.733
14448TIP3   OH243300   6.058   1.947   6.282
14448TIP3    H143301   6.142   1.976   6.246
14448TIP3    H243302   6.056   1.853   6.267
14449TIP3   OH243303   4.935   0.050   1.669
14449TIP3    H143304   4.875   0.008   1.730
14449TIP3    H243305   4.879   0.085   1.600
14450TIP3   OH243306   6.634   3.715   1.168
14450TIP3    H143307   6.672   3.655   1.232
14450TIP3    H243308   6.707   3.739   1.111
14451TIP3   OH243309   3.242   3.137   1.751
14451TIP3    H143310   3.171   3.118   1.813
14451TIP3    H243311   3.225   3.228   1.723
14452TIP3   OH243312   0.351   4.758   5.222
14452TIP3    H143313   0.446   4.749   5.224
14452TIP3    H243314   0.319   4.693   5.284
14453TIP3   OH243315   4.017   4.022   4.976
14453TIP3    H143316   4.104   4.061   4.982
14453TIP3    H243317   3.991   4.034   4.885
14454TIP3   OH243318   0.218   3.269   0.682
14454TIP3    H143319   0.250   3.266   0.773
14454TIP3    H243320   0.259   3.347   0.645
14455TIP3   OH243321   2.654   6.030   2.136
14455TIP3    H143322   2.723   6.026   2.203
14455TIP3    H243323   2.688   5.978   2.063
14456TIP3   OH243324   7.935   5.082   1.378
14456TIP3    H143325   7.983   5.080   1.461
14456TIP3    H243326   7.901   4.993   1.368
14457TIP3   OH243327   3.305   3.581   3.056
14457TIP3    H143328   3.322   3.532   3.137
14457TIP3    H243329   3.218   3.552   3.028
14458TIP3   OH243330   2.424   2.622   3.657
14458TIP3    H143331   2.433   2.529   3.680
14458TIP3    H243332   2.507   2.661   3.684
14459TIP3   OH243333   7.866   6.822   1.704
14459TIP3    H143334   7.877   6.727   1.697
14459TIP3    H243335   7.808   6.833   1.779
14460TIP3   OH243336   7.866   0.059   5.996
14460TIP3    H143337   7.783   0.035   5.956
14460TIP3    H243338   7.854   0.038   6.089
14461TIP3   OH243339   6.386   0.669   1.817
14461TIP3    H143340   6.300   0.641   1.849
14461TIP3    H243341   6.405   0.609   1.745
14462TIP3   OH243342   2.761   2.447   5.047
14462TIP3    H143343   2.803   2.361   5.053
14462TIP3    H243344   2.819   2.499   4.991
14463TIP3   OH243345   2.552   5.056   4.964
14463TIP3    H143346   2.614   5.028   5.031
14463TIP3    H243347   2.483   5.101   5.013
14464TIP3   OH243348   6.889   5.462   0.166
14464TIP3    H143349   6.888   5.369   0.144
14464TIP3    H243350   6.939   5.504   0.096
14465TIP3   OH243351   0.960   4.902   1.697
14465TIP3    H143352   1.038   4.887   1.749
14465TIP3    H243353   0.896   4.839   1.731
14466TIP3   OH243354   2.093   0.871   5.192
14466TIP3    H143355   2.153   0.832   5.129
14466TIP3    H243356   2.072   0.957   5.155
14467TIP3   OH243357   3.005   2.012   2.353
14467TIP3    H143358   3.046   1.986   2.270
14467TIP3    H243359   3.077   2.045   2.406
14468TIP3   OH243360   2.487   0.565   3.644
14468TIP3    H143361   2.483   0.541   3.737
14468TIP3    H243362   2.575   0.603   3.633
14469TIP3   OH243363   1.579   6.647   5.468
14469TIP3    H143364   1.672   6.639   5.447
14469TIP3    H243365   1.538   6.574   5.423
14470TIP3   OH243366   6.624   5.887   4.143
14470TIP3    H143367   6.531   5.876   4.127
14470TIP3    H243368   6.630   5.916   4.234
14471TIP3   OH243369   3.136   3.562   6.624
14471TIP3    H143370   3.059   3.513   6.594
14471TIP3    H243371   3.107   3.605   6.704
14472TIP3   OH243372   6.176   0.888   5.286
14472TIP3    H143373   6.192   0.982   5.283
14472TIP3    H243374   6.208   0.861   5.372
14473TIP3   OH243375   5.975   4.654   0.173
14473TIP3    H143376   5.929   4.616   0.098
14473TIP3    H243377   5.943   4.743   0.178
14474TIP3   OH243378   3.623   5.020   5.254
14474TIP3    H143379   3.577   4.935   5.259
14474TIP3    H243380   3.586   5.063   5.177
14475TIP3   OH243381   2.614   3.737   2.026
14475TIP3    H143382   2.669   3.813   2.008
14475TIP3    H243383   2.637   3.711   2.115
14476TIP3   OH243384   7.678   1.598   6.454
14476TIP3    H143385   7.732   1.594   6.533
14476TIP3    H243386   7.592   1.567   6.482
14477TIP3   OH243387   7.458   0.321   6.086
14477TIP3    H143388   7.407   0.309   6.006
14477TIP3    H243389   7.449   0.413   6.107
14478TIP3   OH243390   2.202   2.525   0.411
14478TIP3    H143391   2.256   2.464   0.463
14478TIP3    H243392   2.255   2.545   0.334
14479TIP3   OH243393   0.832   4.178   2.819
14479TIP3    H143394   0.826   4.115   2.890
14479TIP3    H243395   0.870   4.256   2.859
14480TIP3   OH243396   1.632   2.814   5.692
14480TIP3    H143397   1.575   2.790   5.619
14480TIP3    H243398   1.585   2.883   5.738
14481TIP3   OH243399   1.207   6.955   1.613
14481TIP3    H143400   1.169   7.039   1.588
14481TIP3    H243401   1.290   6.951   1.565
14482TIP3   OH243402   4.630   6.159   5.885
14482TIP3    H143403   4.635   6.162   5.980
14482TIP3    H243404   4.609   6.249   5.859
14483TIP3   OH243405   1.465   3.146   0.968
14483TIP3    H143406   1.431   3.085   0.903
14483TIP3    H243407   1.560   3.137   0.964
14484TIP3   OH243408   3.581   3.827   0.111
14484TIP3    H143409   3.623   3.847   0.027
14484TIP3    H243410   3.624   3.885   0.174
14485TIP3   OH243411   1.806   7.131   3.937
14485TIP3    H143412   1.780   7.170   4.020
14485TIP3    H243413   1.895   7.162   3.923
14486TIP3   OH243414   8.135   7.507   5.998
14486TIP3    H143415   8.117   7.596   5.968
14486TIP3    H243416   8.231   7.502   6.001
14487TIP3   OH243417   2.251   4.561   3.451
14487TIP3    H143418   2.325   4.502   3.440
14487TIP3    H243419   2.180   4.521   3.401
14488TIP3   OH243420   0.302   3.552   6.495
14488TIP3    H143421   0.366   3.491   6.458
14488TIP3    H243422   0.217   3.513   6.473
14489TIP3   OH243423   4.798   1.698   4.988
14489TIP3    H143424   4.882   1.658   4.969
14489TIP3    H243425   4.767   1.732   4.904
14490TIP3   OH243426   2.807   1.443   3.192
14490TIP3    H143427   2.808   1.458   3.286
14490TIP3    H243428   2.794   1.529   3.153
14491TIP3   OH243429   7.589   0.803   4.569
14491TIP3    H143430   7.521   0.748   4.609
14491TIP3    H243431   7.660   0.803   4.633
14492TIP3   OH243432   4.082   1.705   1.057
14492TIP3    H143433   4.080   1.766   0.982
14492TIP3    H243434   4.084   1.762   1.134
14493TIP3   OH243435   0.697   3.407   3.685
14493TIP3    H143436   0.736   3.467   3.620
14493TIP3    H243437   0.648   3.344   3.632
14494TIP3   OH243438   7.762   5.895   3.312
14494TIP3    H143439   7.781   5.863   3.225
14494TIP3    H243440   7.681   5.944   3.303
14495TIP3   OH243441   1.449   1.278   2.207
14495TIP3    H143442   1.464   1.234   2.290
14495TIP3    H243443   1.462   1.210   2.141
14496TIP3   OH243444   1.398   6.427   3.117
14496TIP3    H143445   1.431   6.503   3.070
14496TIP3    H243446   1.453   6.421   3.195
14497TIP3   OH243447   2.098   5.199   2.659
14497TIP3    H143448   2.065   5.195   2.569
14497TIP3    H243449   2.059   5.279   2.694
14498TIP3   OH243450   0.079   0.217   0.658
14498TIP3    H143451   0.117   0.218   0.746
14498TIP3    H243452   0.040   0.303   0.648
14499TIP3   OH243453   2.654   1.345   1.171
14499TIP3    H143454   2.648   1.251   1.184
14499TIP3    H243455   2.732   1.371   1.221
14500TIP3   OH243456   5.764   2.754   5.848
14500TIP3    H143457   5.729   2.673   5.886
14500TIP3    H243458   5.706   2.774   5.774
14501TIP3   OH243459   2.417   6.144   1.698
14501TIP3    H143460   2.359   6.198   1.751
14501TIP3    H243461   2.505   6.164   1.730
14502TIP3   OH243462   0.366   5.478   2.626
14502TIP3    H143463   0.315   5.428   2.562
14502TIP3    H243464   0.435   5.418   2.654
14503TIP3   OH243465   6.189   0.377   2.633
14503TIP3    H143466   6.159   0.291   2.661
14503TIP3    H243467   6.277   0.363   2.599
14504TIP3   OH243468   0.498   2.348   1.075
14504TIP3    H143469   0.456   2.401   1.007
14504TIP3    H243470   0.458   2.261   1.066
14505TIP3   OH243471   3.990   3.465   4.341
14505TIP3    H143472   3.947   3.426   4.418
14505TIP3    H243473   4.082   3.469   4.365
14506TIP3   OH243474   1.609   5.389   0.284
14506TIP3    H143475   1.611   5.420   0.193
14506TIP3    H243476   1.522   5.414   0.315
14507TIP3   OH243477   8.140   3.643   6.292
14507TIP3    H143478   8.065   3.656   6.235
14507TIP3    H243479   8.108   3.584   6.360
14508TIP3   OH243480   3.368   2.384   1.989
14508TIP3    H143481   3.400   2.471   1.965
14508TIP3    H243482   3.405   2.368   2.076
14509TIP3   OH243483   7.815   4.595   5.738
14509TIP3    H143484   7.772   4.553   5.812
14509TIP3    H243485   7.780   4.550   5.661
14510TIP3   OH243486   3.731   3.809   4.389
14510TIP3    H143487   3.653   3.758   4.410
14510TIP3    H243488   3.697   3.897   4.369
14511TIP3   OH243489   1.584   4.411   3.133
14511TIP3    H143490   1.522   4.338   3.135
14511TIP3    H243491   1.636   4.401   3.213
14512TIP3   OH243492   3.634   1.559   0.762
14512TIP3    H143493   3.569   1.629   0.754
14512TIP3    H243494   3.595   1.484   0.719
14513TIP3   OH243495   3.191   5.798   5.074
14513TIP3    H143496   3.233   5.723   5.031
14513TIP3    H243497   3.246   5.817   5.149
14514TIP3   OH243498   6.992   6.885   1.971
14514TIP3    H143499   7.042   6.964   1.949
14514TIP3    H243500   6.921   6.883   1.906
14515TIP3   OH243501   5.469   4.833   3.538
14515TIP3    H143502   5.537   4.835   3.471
14515TIP3    H243503   5.435   4.743   3.535
14516TIP3   OH243504   1.878   4.942   5.259
14516TIP3    H143505   1.830   4.861   5.278
14516TIP3    H243506   1.901   4.934   5.166
14517TIP3   OH243507   1.647   6.325   4.617
14517TIP3    H143508   1.558   6.318   4.585
14517TIP3    H243509   1.697   6.359   4.543
14518TIP3   OH243510   5.682   7.763   0.720
14518TIP3    H143511   5.667   7.838   0.662
14518TIP3    H243512   5.604   7.761   0.775
14519TIP3   OH243513   8.111   1.889   6.723
14519TIP3    H143514   8.175   1.818   6.729
14519TIP3    H243515   8.050   1.860   6.655
14520TIP3   OH243516   2.643   1.062   2.977
14520TIP3    H143517   2.715   1.113   2.941
14520TIP3    H243518   2.671   0.971   2.970
14521TIP3   OH243519   6.001   2.590   2.565
14521TIP3    H143520   6.063   2.523   2.592
14521TIP3    H243521   5.917   2.545   2.561
14522TIP3   OH243522   2.451   4.391   5.533
14522TIP3    H143523   2.543   4.393   5.508
14522TIP3    H243524   2.404   4.408   5.452
14523TIP3   OH243525   2.220   0.619   3.557
14523TIP3    H143526   2.300   0.575   3.586
14523TIP3    H243527   2.189   0.567   3.483
14524TIP3   OH243528   5.437   1.968   1.019
14524TIP3    H143529   5.434   1.874   1.004
14524TIP3    H243530   5.468   1.977   1.109
14525TIP3   OH243531   7.820   1.035   2.086
14525TIP3    H143532   7.869   1.042   2.168
14525TIP3    H243533   7.754   0.969   2.103
14526TIP3   OH243534   3.566   1.525   4.623
14526TIP3    H143535   3.484   1.526   4.673
14526TIP3    H243536   3.628   1.574   4.677
14527TIP3   OH243537   3.606   5.732   1.566
14527TIP3    H143538   3.631   5.817   1.530
14527TIP3    H243539   3.689   5.686   1.578
14528TIP3   OH243540   7.556   0.043   0.706
14528TIP3    H143541   7.531   0.052   0.614
14528TIP3    H243542   7.652   0.048   0.704
14529TIP3   OH243543   1.110   2.175   0.042
14529TIP3    H143544   1.143   2.184  -0.048
14529TIP3    H243545   1.051   2.100   0.038
14530TIP3   OH243546   5.499   2.216   0.860
14530TIP3    H143547   5.508   2.121   0.869
14530TIP3    H243548   5.451   2.243   0.938
14531TIP3   OH243549   2.912   5.065   0.580
14531TIP3    H143550   2.857   5.136   0.612
14531TIP3    H243551   2.993   5.073   0.629
14532TIP3   OH243552   7.735   2.596   0.870
14532TIP3    H143553   7.668   2.577   0.804
14532TIP3    H243554   7.779   2.512   0.885
14533TIP3   OH243555   0.835   7.513   1.150
14533TIP3    H143556   0.881   7.444   1.198
14533TIP3    H243557   0.899   7.584   1.142
14534TIP3   OH243558   1.711   4.431   2.866
14534TIP3    H143559   1.790   4.447   2.917
14534TIP3    H243560   1.641   4.420   2.930
14535TIP3   OH243561   2.927   6.585   2.666
14535TIP3    H143562   2.998   6.538   2.709
14535TIP3    H243563   2.964   6.613   2.582
14536TIP3   OH243564   2.282   2.143   5.769
14536TIP3    H143565   2.267   2.154   5.676
14536TIP3    H243566   2.289   2.232   5.803
14537TIP3   OH243567   6.205   7.719   2.374
14537TIP3    H143568   6.113   7.744   2.368
14537TIP3    H243569   6.251   7.780   2.316
14538TIP3   OH243570   7.341   3.635   2.914
14538TIP3    H143571   7.260   3.600   2.876
14538TIP3    H243572   7.399   3.559   2.918
14539TIP3   OH243573   2.431   7.323   1.185
14539TIP3    H143574   2.366   7.368   1.239
14539TIP3    H243575   2.498   7.294   1.248
14540TIP3   OH243576   4.563   6.149   2.109
14540TIP3    H143577   4.528   6.153   2.020
14540TIP3    H243578   4.620   6.071   2.108
14541TIP3   OH243579   0.278   4.666   1.313
14541TIP3    H143580   0.242   4.708   1.391
14541TIP3    H243581   0.358   4.623   1.343
14542TIP3   OH243582   2.178   3.883   6.773
14542TIP3    H143583   2.149   3.972   6.756
14542TIP3    H243584   2.273   3.886   6.763
14543TIP3   OH243585   7.355   5.471   0.711
14543TIP3    H143586   7.304   5.489   0.632
14543TIP3    H243587   7.390   5.383   0.698
14544TIP3   OH243588   3.188   4.459   0.150
14544TIP3    H143589   3.214   4.371   0.179
14544TIP3    H243590   3.214   4.462   0.058
14545TIP3   OH243591   4.824   0.744   0.867
14545TIP3    H143592   4.815   0.678   0.799
14545TIP3    H243593   4.767   0.815   0.839
14546TIP3   OH243594   1.636   4.732   4.185
14546TIP3    H143595   1.686   4.812   4.169
14546TIP3    H243596   1.698   4.674   4.229
14547TIP3   OH243597   4.008   4.670   5.469
14547TIP3    H143598   3.981   4.618   5.545
14547TIP3    H243599   4.103   4.655   5.464
14548TIP3   OH243600   7.907   6.506   0.949
14548TIP3    H143601   7.927   6.581   0.893
14548TIP3    H243602   7.887   6.435   0.888
14549TIP3   OH243603   2.356   6.424   3.652
14549TIP3    H143604   2.415   6.368   3.602
14549TIP3    H243605   2.317   6.482   3.587
14550TIP3   OH243606   5.979   3.683   1.183
14550TIP3    H143607   6.000   3.712   1.095
14550TIP3    H243608   6.063   3.667   1.225
14551TIP3   OH243609   2.967   3.493   3.713
14551TIP3    H143610   2.873   3.511   3.719
14551TIP3    H243611   3.006   3.575   3.684
14552TIP3   OH243612   5.048   6.145   5.873
14552TIP3    H143613   4.971   6.189   5.835
14552TIP3    H243614   5.122   6.201   5.848
14553TIP3   OH243615   7.394   0.742   4.764
14553TIP3    H143616   7.372   0.649   4.754
14553TIP3    H243617   7.477   0.741   4.812
14554TIP3   OH243618   8.024   1.073   0.193
14554TIP3    H143619   7.963   1.023   0.248
14554TIP3    H243620   7.976   1.151   0.168
14555TIP3   OH243621   6.354   3.595   5.044
14555TIP3    H143622   6.383   3.532   4.977
14555TIP3    H243623   6.260   3.582   5.049
14556TIP3   OH243624   6.910   1.825   1.123
14556TIP3    H143625   6.965   1.832   1.202
14556TIP3    H243626   6.833   1.777   1.152
14557TIP3   OH243627   0.517   5.025   5.540
14557TIP3    H143628   0.547   5.081   5.613
14557TIP3    H243629   0.518   4.937   5.576
14558TIP3   OH243630   5.057   5.900   5.173
14558TIP3    H143631   5.110   5.844   5.116
14558TIP3    H243632   5.104   5.901   5.256
14559TIP3   OH243633   5.418   0.079   1.510
14559TIP3    H143634   5.404  -0.010   1.541
14559TIP3    H243635   5.335   0.124   1.529
14560TIP3   OH243636   1.667   6.334   2.872
14560TIP3    H143637   1.690   6.423   2.897
14560TIP3    H243638   1.636   6.341   2.782
14561TIP3   OH243639   3.065   6.632   1.851
14561TIP3    H143640   3.074   6.582   1.770
14561TIP3    H243641   3.102   6.718   1.830
14562TIP3   OH243642   3.333   0.761   6.479
14562TIP3    H143643   3.249   0.741   6.520
14562TIP3    H243644   3.331   0.715   6.395
14563TIP3   OH243645   1.819   5.607   0.348
14563TIP3    H143646   1.777   5.692   0.360
14563TIP3    H243647   1.747   5.544   0.348
14564TIP3   OH243648   3.463   6.044   3.166
14564TIP3    H143649   3.456   6.052   3.261
14564TIP3    H243650   3.484   5.952   3.151
14565TIP3   OH243651   7.381   2.964   3.633
14565TIP3    H143652   7.426   2.966   3.718
14565TIP3    H243653   7.398   2.876   3.600
14566TIP3   OH243654   4.835   2.090   1.962
14566TIP3    H143655   4.827   2.178   1.926
14566TIP3    H243656   4.891   2.044   1.900
14567TIP3   OH243657   5.995   5.768   3.250
14567TIP3    H143658   6.087   5.748   3.232
14567TIP3    H243659   5.949   5.685   3.237
14568TIP3   OH243660   1.102   4.530   2.552
14568TIP3    H143661   1.042   4.456   2.554
14568TIP3    H243662   1.188   4.492   2.533
14569TIP3   OH243663   0.138   5.790   6.621
14569TIP3    H143664   0.167   5.847   6.549
14569TIP3    H243665   0.064   5.837   6.660
14570TIP3   OH243666   7.142   6.787   6.623
14570TIP3    H143667   7.223   6.835   6.637
14570TIP3    H243668   7.096   6.837   6.555
14571TIP3   OH243669   5.317   2.632   1.272
14571TIP3    H143670   5.316   2.543   1.309
14571TIP3    H243671   5.409   2.658   1.275
14572TIP3   OH243672   5.610   3.316   2.325
14572TIP3    H143673   5.519   3.341   2.341
14572TIP3    H243674   5.659   3.399   2.333
14573TIP3   OH243675   2.147   0.198   0.100
14573TIP3    H143676   2.174   0.227   0.013
14573TIP3    H243677   2.052   0.188   0.093
14574TIP3   OH243678   7.658   5.638   2.746
14574TIP3    H143679   7.602   5.593   2.809
14574TIP3    H243680   7.675   5.723   2.786
14575TIP3   OH243681   5.662   3.407   0.966
14575TIP3    H143682   5.689   3.452   1.045
14575TIP3    H243683   5.707   3.322   0.970
14576TIP3   OH243684   2.646   3.693   5.317
14576TIP3    H143685   2.554   3.684   5.291
14576TIP3    H243686   2.642   3.713   5.410
14577TIP3   OH243687   1.855   4.695   0.717
14577TIP3    H143688   1.881   4.787   0.714
14577TIP3    H243689   1.859   4.672   0.810
14578TIP3   OH243690   2.836   6.956   2.948
14578TIP3    H143691   2.743   6.971   2.930
14578TIP3    H243692   2.844   6.968   3.043
14579TIP3   OH243693   1.558   7.279   4.045
14579TIP3    H143694   1.532   7.369   4.062
14579TIP3    H243695   1.643   7.269   4.089
14580TIP3   OH243696   3.215   4.460   0.822
14580TIP3    H143697   3.209   4.365   0.825
14580TIP3    H243698   3.287   4.482   0.881
14581TIP3   OH243699   5.371   6.572   5.350
14581TIP3    H143700   5.277   6.585   5.360
14581TIP3    H243701   5.394   6.512   5.421
14582TIP3   OH243702   7.477   4.970   6.296
14582TIP3    H143703   7.408   5.034   6.281
14582TIP3    H243704   7.494   4.976   6.390
14583TIP3   OH243705   6.460   5.564   2.833
14583TIP3    H143706   6.451   5.514   2.915
14583TIP3    H243707   6.468   5.655   2.862
14584TIP3   OH243708   3.637   3.736   3.727
14584TIP3    H143709   3.662   3.770   3.813
14584TIP3    H243710   3.672   3.647   3.725
14585TIP3   OH243711   2.675   3.068   6.034
14585TIP3    H143712   2.598   3.012   6.025
14585TIP3    H243713   2.700   3.060   6.126
14586TIP3   OH243714   4.403   4.255   2.018
14586TIP3    H143715   4.361   4.227   2.099
14586TIP3    H243716   4.485   4.207   2.015
14587TIP3   OH243717   3.271   2.102   6.306
14587TIP3    H143718   3.177   2.118   6.319
14587TIP3    H243719   3.280   2.007   6.318
14588TIP3   OH243720   0.944   3.598   3.982
14588TIP3    H143721   0.927   3.506   4.003
14588TIP3    H243722   1.034   3.599   3.951
14589TIP3   OH243723   4.580   5.663   1.073
14589TIP3    H143724   4.580   5.738   1.014
14589TIP3    H243725   4.494   5.667   1.116
14590TIP3   OH243726   4.580   7.243   3.611
14590TIP3    H143727   4.616   7.319   3.565
14590TIP3    H243728   4.486   7.246   3.591
14591TIP3   OH243729   2.797   7.264   6.747
14591TIP3    H143730   2.859   7.331   6.720
14591TIP3    H243731   2.722   7.314   6.780
14592TIP3   OH243732   3.102   0.553   0.444
14592TIP3    H143733   3.089   0.498   0.367
14592TIP3    H243734   3.196   0.545   0.463
14593TIP3   OH243735   2.338   1.631   0.816
14593TIP3    H143736   2.431   1.651   0.824
14593TIP3    H243737   2.333   1.536   0.823
14594TIP3   OH243738   3.763   7.693   6.293
14594TIP3    H143739   3.815   7.710   6.215
14594TIP3    H243740   3.742   7.779   6.328
14595TIP3   OH243741   7.013   5.284   1.969
14595TIP3    H143742   6.952   5.315   1.902
14595TIP3    H243743   7.095   5.272   1.922
14596TIP3   OH243744   3.675   4.714   5.761
14596TIP3    H143745   3.668   4.796   5.809
14596TIP3    H243746   3.631   4.732   5.677
14597TIP3   OH243747   1.506   7.716   0.408
14597TIP3    H143748   1.460   7.653   0.463
14597TIP3    H243749   1.501   7.799   0.455
14598TIP3   OH243750   0.204   1.771   0.984
14598TIP3    H143751   0.167   1.780   1.072
14598TIP3    H243752   0.298   1.787   0.996
14599TIP3   OH243753   3.019   3.555   2.210
14599TIP3    H143754   3.022   3.548   2.115
14599TIP3    H243755   3.091   3.614   2.232
14600TIP3   OH243756   5.198   4.316   1.764
14600TIP3    H143757   5.137   4.275   1.703
14600TIP3    H243758   5.182   4.272   1.848
14601TIP3   OH243759   7.150   6.632   1.559
14601TIP3    H143760   7.105   6.713   1.533
14601TIP3    H243761   7.079   6.570   1.577
14602TIP3   OH243762   0.024   2.057   5.957
14602TIP3    H143763  -0.068   2.082   5.960
14602TIP3    H243764   0.049   2.063   5.865
14603TIP3   OH243765   7.848   2.491   4.138
14603TIP3    H143766   7.872   2.411   4.184
14603TIP3    H243767   7.843   2.466   4.046
14604TIP3   OH243768   0.827   0.431   5.124
14604TIP3    H143769   0.911   0.435   5.078
14604TIP3    H243770   0.821   0.340   5.153
14605TIP3   OH243771   3.246   4.148   5.245
14605TIP3    H143772   3.315   4.153   5.179
14605TIP3    H243773   3.292   4.123   5.326
14606TIP3   OH243774   2.741   3.464   3.482
14606TIP3    H143775   2.751   3.398   3.413
14606TIP3    H243776   2.742   3.414   3.564
14607TIP3   OH243777   3.352   5.019   1.050
14607TIP3    H143778   3.395   5.103   1.066
14607TIP3    H243779   3.388   4.960   1.116
14608TIP3   OH243780   6.716   5.020   0.900
14608TIP3    H143781   6.742   5.110   0.921
14608TIP3    H243782   6.767   4.997   0.823
14609TIP3   OH243783   6.806   4.408   2.800
14609TIP3    H143784   6.867   4.373   2.865
14609TIP3    H243785   6.853   4.399   2.717
14610TIP3   OH243786   7.536   1.427   3.748
14610TIP3    H143787   7.478   1.394   3.818
14610TIP3    H243788   7.623   1.398   3.775
14611TIP3   OH243789   0.086   1.561   3.436
14611TIP3    H143790   0.152   1.552   3.367
14611TIP3    H243791   0.020   1.494   3.416
14612TIP3   OH243792   7.726   7.413   5.814
14612TIP3    H143793   7.732   7.443   5.905
14612TIP3    H243794   7.783   7.472   5.765
14613TIP3   OH243795   0.633   6.025   2.865
14613TIP3    H143796   0.642   6.036   2.771
14613TIP3    H243797   0.579   6.099   2.893
14614TIP3   OH243798   1.305   5.689   1.209
14614TIP3    H143799   1.382   5.715   1.259
14614TIP3    H243800   1.291   5.597   1.231
14615TIP3   OH243801   5.534   5.127   5.910
14615TIP3    H143802   5.546   5.101   5.819
14615TIP3    H243803   5.588   5.065   5.960
14616TIP3   OH243804   6.504   2.663   4.151
14616TIP3    H143805   6.509   2.570   4.130
14616TIP3    H243806   6.423   2.673   4.201
14617TIP3   OH243807   1.939   0.513   5.565
14617TIP3    H143808   1.970   0.567   5.493
14617TIP3    H243809   2.016   0.465   5.594
14618TIP3   OH243810   5.037   4.753   5.104
14618TIP3    H143811   5.098   4.681   5.090
14618TIP3    H243812   4.992   4.764   5.020
14619TIP3   OH243813   1.888   4.623   3.068
14619TIP3    H143814   1.920   4.713   3.071
14619TIP3    H243815   1.811   4.623   3.125
14620TIP3   OH243816   5.299   4.750   1.269
14620TIP3    H143817   5.275   4.785   1.184
14620TIP3    H243818   5.250   4.803   1.332
14621TIP3   OH243819   0.620   7.796   4.339
14621TIP3    H143820   0.679   7.721   4.352
14621TIP3    H243821   0.634   7.850   4.417
14622TIP3   OH243822   1.542   1.016   4.739
14622TIP3    H143823   1.491   0.939   4.760
14622TIP3    H243824   1.541   1.069   4.819
14623TIP3   OH243825   7.529   6.962   2.243
14623TIP3    H143826   7.499   7.030   2.304
14623TIP3    H243827   7.624   6.975   2.237
14624TIP3   OH243828   2.151   2.324   4.603
14624TIP3    H143829   2.169   2.345   4.511
14624TIP3    H243830   2.113   2.236   4.600
14625TIP3   OH243831   7.751   3.777   4.752
14625TIP3    H143832   7.794   3.693   4.759
14625TIP3    H243833   7.822   3.841   4.755
14626TIP3   OH243834   2.793   4.918   1.461
14626TIP3    H143835   2.847   4.984   1.505
14626TIP3    H243836   2.788   4.846   1.524
14627TIP3   OH243837   6.742   0.456   1.517
14627TIP3    H143838   6.807   0.401   1.561
14627TIP3    H243839   6.753   0.436   1.424
14628TIP3   OH243840   4.904   4.973   4.109
14628TIP3    H143841   4.878   5.058   4.073
14628TIP3    H243842   4.933   4.993   4.198
14629TIP3   OH243843   4.747   3.331   6.141
14629TIP3    H143844   4.748   3.296   6.230
14629TIP3    H243845   4.663   3.302   6.105
14630TIP3   OH243846   1.595   2.493   6.288
14630TIP3    H143847   1.532   2.559   6.315
14630TIP3    H243848   1.644   2.472   6.368
14631TIP3   OH243849   1.086   7.072   6.696
14631TIP3    H143850   1.079   7.014   6.772
14631TIP3    H243851   1.020   7.039   6.635
14632TIP3   OH243852   4.570   3.772   4.540
14632TIP3    H143853   4.505   3.837   4.513
14632TIP3    H243854   4.601   3.734   4.458
14633TIP3   OH243855   3.242   7.462   2.599
14633TIP3    H143856   3.271   7.379   2.637
14633TIP3    H243857   3.156   7.477   2.637
14634TIP3   OH243858   5.975   0.571   2.579
14634TIP3    H143859   6.048   0.510   2.590
14634TIP3    H243860   6.017   0.654   2.557
14635TIP3   OH243861   2.282   4.591   2.156
14635TIP3    H143862   2.336   4.511   2.156
14635TIP3    H243863   2.222   4.578   2.229
14636TIP3   OH243864   3.760   2.339   1.592
14636TIP3    H143865   3.779   2.305   1.504
14636TIP3    H243866   3.692   2.405   1.577
14637TIP3   OH243867   2.306   6.301   1.285
14637TIP3    H143868   2.332   6.210   1.276
14637TIP3    H243869   2.302   6.316   1.380
14638TIP3   OH243870   3.255   1.164   3.921
14638TIP3    H143871   3.337   1.119   3.901
14638TIP3    H243872   3.254   1.240   3.863
14639TIP3   OH243873   6.024   2.957   0.078
14639TIP3    H143874   5.935   2.990   0.072
14639TIP3    H243875   6.026   2.881   0.020
14640TIP3   OH243876   4.420   6.105   3.686
14640TIP3    H143877   4.337   6.090   3.639
14640TIP3    H243878   4.474   6.029   3.664
14641TIP3   OH243879   6.452   0.925   1.930
14641TIP3    H143880   6.410   0.845   1.898
14641TIP3    H243881   6.415   0.994   1.876
14642TIP3   OH243882   6.407   5.640   4.650
14642TIP3    H143883   6.397   5.627   4.556
14642TIP3    H243884   6.492   5.601   4.670
14643TIP3   OH243885   3.338   0.818   4.058
14643TIP3    H143886   3.404   0.860   4.113
14643TIP3    H243887   3.286   0.890   4.023
14644TIP3   OH243888   2.230   6.126   4.916
14644TIP3    H143889   2.320   6.152   4.898
14644TIP3    H243890   2.231   6.096   5.007
14645TIP3   OH243891   7.396   4.381   6.267
14645TIP3    H143892   7.305   4.362   6.292
14645TIP3    H243893   7.424   4.448   6.329
14646TIP3   OH243894   0.113   5.867   6.096
14646TIP3    H143895   0.129   5.812   6.019
14646TIP3    H243896   0.024   5.845   6.124
14647TIP3   OH243897   3.045   3.377   4.176
14647TIP3    H143898   3.092   3.434   4.116
14647TIP3    H243899   3.086   3.392   4.261
14648TIP3   OH243900   0.298   6.895   0.903
14648TIP3    H143901   0.379   6.923   0.946
14648TIP3    H243902   0.267   6.972   0.856
14649TIP3   OH243903   6.106   7.077   4.885
14649TIP3    H143904   6.158   7.025   4.824
14649TIP3    H243905   6.088   7.017   4.958
14650TIP3   OH243906   6.179   3.656   0.533
14650TIP3    H143907   6.144   3.689   0.616
14650TIP3    H243908   6.269   3.630   0.554
14651TIP3   OH243909   5.465   2.691   1.545
14651TIP3    H143910   5.521   2.713   1.471
14651TIP3    H243911   5.518   2.712   1.622
14652TIP3   OH243912   2.910   3.739   2.608
14652TIP3    H143913   2.863   3.730   2.691
14652TIP3    H243914   2.984   3.796   2.629
14653TIP3   OH243915   3.753   4.157   4.532
14653TIP3    H143916   3.737   4.216   4.605
14653TIP3    H243917   3.707   4.076   4.555
14654TIP3   OH243918   4.912   1.136   0.276
14654TIP3    H143919   4.888   1.048   0.304
14654TIP3    H243920   4.834   1.189   0.292
14655TIP3   OH243921   4.903   3.763   0.351
14655TIP3    H143922   4.964   3.702   0.394
14655TIP3    H243923   4.949   3.791   0.272
14656TIP3   OH243924   3.374   2.868   0.456
14656TIP3    H143925   3.311   2.879   0.528
14656TIP3    H243926   3.385   2.955   0.419
14657TIP3   OH243927   2.578   7.401   4.208
14657TIP3    H143928   2.569   7.482   4.157
14657TIP3    H243929   2.644   7.350   4.161
14658TIP3   OH243930   7.049   7.745   6.655
14658TIP3    H143931   7.132   7.757   6.608
14658TIP3    H243932   7.066   7.779   6.742
14659TIP3   OH243933   1.385   7.284   0.933
14659TIP3    H143934   1.444   7.326   0.996
14659TIP3    H243935   1.434   7.209   0.900
14660TIP3   OH243936   7.613   6.668   4.046
14660TIP3    H143937   7.698   6.651   4.086
14660TIP3    H243938   7.550   6.631   4.108
14661TIP3   OH243939   7.742   4.471   6.343
14661TIP3    H143940   7.800   4.471   6.419
14661TIP3    H243941   7.698   4.556   6.347
14662TIP3   OH243942   0.434   5.806   2.049
14662TIP3    H143943   0.509   5.803   1.990
14662TIP3    H243944   0.399   5.895   2.039
14663TIP3   OH243945   2.482   6.770   5.276
14663TIP3    H143946   2.433   6.694   5.244
14663TIP3    H243947   2.424   6.845   5.259
14664TIP3   OH243948   1.057   1.865   3.889
14664TIP3    H143949   1.027   1.955   3.883
14664TIP3    H243950   1.049   1.842   3.981
14665TIP3   OH243951   3.998   2.994   3.929
14665TIP3    H143952   3.917   3.019   3.883
14665TIP3    H243953   4.011   2.902   3.906
14666TIP3   OH243954   5.083   3.711   5.419
14666TIP3    H143955   5.139   3.788   5.414
14666TIP3    H243956   5.120   3.650   5.355
14667TIP3   OH243957   4.571   7.423   5.944
14667TIP3    H143958   4.583   7.513   5.915
14667TIP3    H243959   4.658   7.384   5.936
14668TIP3   OH243960   4.891   4.122   0.853
14668TIP3    H143961   4.962   4.144   0.913
14668TIP3    H243962   4.924   4.048   0.802
14669TIP3   OH243963   4.403   2.675   6.674
14669TIP3    H143964   4.415   2.582   6.657
14669TIP3    H243965   4.375   2.712   6.590
14670TIP3   OH243966   8.141   7.712   3.899
14670TIP3    H143967   8.199   7.776   3.942
14670TIP3    H243968   8.185   7.628   3.910
14671TIP3   OH243969   8.031   6.810   5.250
14671TIP3    H143970   8.004   6.877   5.312
14671TIP3    H243971   7.966   6.740   5.260
14672TIP3   OH243972   1.732   5.648   1.759
14672TIP3    H143973   1.734   5.665   1.853
14672TIP3    H243974   1.765   5.558   1.750
14673TIP3   OH243975   2.252   4.683   4.689
14673TIP3    H143976   2.262   4.593   4.659
14673TIP3    H243977   2.165   4.687   4.728
14674TIP3   OH243978   1.709   4.433   2.014
14674TIP3    H143979   1.632   4.485   2.036
14674TIP3    H243980   1.779   4.497   2.002
14675TIP3   OH243981   3.120   5.192   1.344
14675TIP3    H143982   3.108   5.287   1.343
14675TIP3    H243983   3.078   5.163   1.424
14676TIP3   OH243984   2.788   6.828   2.645
14676TIP3    H143985   2.698   6.799   2.658
14676TIP3    H243986   2.841   6.755   2.676
14677TIP3   OH243987   8.245   4.737   1.860
14677TIP3    H143988   8.280   4.651   1.881
14677TIP3    H243989   8.285   4.759   1.775
14678TIP3   OH243990   0.009   3.458   0.519
14678TIP3    H143991   0.064   3.382   0.498
14678TIP3    H243992   0.052   3.532   0.476
14679TIP3   OH243993   2.617   4.750   5.711
14679TIP3    H143994   2.666   4.822   5.670
14679TIP3    H243995   2.684   4.686   5.734
14680TIP3   OH243996   6.474   0.896   1.586
14680TIP3    H143997   6.557   0.913   1.542
14680TIP3    H243998   6.450   0.979   1.627
14681TIP3   OH243999   4.161   2.744   3.492
14681TIP3    H144000   4.085   2.737   3.550
14681TIP3    H244001   4.234   2.764   3.551
14682TIP3   OH244002   2.845   5.676   2.461
14682TIP3    H144003   2.800   5.663   2.545
14682TIP3    H244004   2.803   5.753   2.423
14683TIP3   OH244005   8.077   7.534   4.856
14683TIP3    H144006   8.105   7.587   4.930
14683TIP3    H244007   8.156   7.489   4.827
14684TIP3   OH244008   8.232   4.013   2.907
14684TIP3    H144009   8.187   3.989   2.827
14684TIP3    H244010   8.311   4.059   2.878
14685TIP3   OH244011   4.000   7.428   4.621
14685TIP3    H144012   4.084   7.473   4.632
14685TIP3    H244013   3.973   7.449   4.531
14686TIP3   OH244014   3.801   2.527   0.540
14686TIP3    H144015   3.708   2.551   0.533
14686TIP3    H244016   3.837   2.546   0.453
14687TIP3   OH244017   1.163   4.920   4.561
14687TIP3    H144018   1.157   5.016   4.562
14687TIP3    H244019   1.077   4.891   4.534
14688TIP3   OH244020   5.068   5.478   5.283
14688TIP3    H144021   5.078   5.403   5.224
14688TIP3    H244022   5.012   5.539   5.235
14689TIP3   OH244023   1.939   4.831   0.325
14689TIP3    H144024   1.956   4.863   0.414
14689TIP3    H244025   2.005   4.764   0.310
14690TIP3   OH244026   5.053   3.017   1.439
14690TIP3    H144027   5.061   2.945   1.376
14690TIP3    H244028   5.141   3.024   1.477
14691TIP3   OH244029   2.283   6.276   0.560
14691TIP3    H144030   2.211   6.215   0.544
14691TIP3    H244031   2.273   6.343   0.491
14692TIP3   OH244032   6.776   6.001   5.977
14692TIP3    H144033   6.706   5.966   6.031
14692TIP3    H244034   6.848   5.938   5.988
14693TIP3   OH244035   4.663   6.768   0.282
14693TIP3    H144036   4.607   6.784   0.206
14693TIP3    H244037   4.617   6.701   0.332
14694TIP3   OH244038   4.705   1.764   4.258
14694TIP3    H144039   4.621   1.803   4.284
14694TIP3    H244040   4.757   1.764   4.338
14695TIP3   OH244041   5.888   6.957   2.039
14695TIP3    H144042   5.978   6.960   2.007
14695TIP3    H244043   5.896   6.928   2.130
14696TIP3   OH244044   2.864   7.249   3.666
14696TIP3    H144045   2.774   7.253   3.698
14696TIP3    H244046   2.912   7.309   3.723
14697TIP3   OH244047   6.680   4.670   2.765
14697TIP3    H144048   6.662   4.650   2.673
14697TIP3    H244049   6.718   4.588   2.800
14698TIP3   OH244050   4.519   2.685   0.448
14698TIP3    H144051   4.453   2.750   0.421
14698TIP3    H244052   4.577   2.734   0.506
14699TIP3   OH244053   7.677   1.596   2.722
14699TIP3    H144054   7.723   1.677   2.699
14699TIP3    H244055   7.703   1.579   2.813
14700TIP3   OH244056   5.770   1.351   4.530
14700TIP3    H144057   5.718   1.311   4.461
14700TIP3    H244058   5.771   1.444   4.508
14701TIP3   OH244059   3.613   7.572   5.014
14701TIP3    H144060   3.626   7.616   4.930
14701TIP3    H244061   3.644   7.483   4.999
14702TIP3   OH244062   2.693   0.081   1.513
14702TIP3    H144063   2.693   0.176   1.528
14702TIP3    H244064   2.745   0.045   1.585
14703TIP3   OH244065   1.102   5.573   4.357
14703TIP3    H144066   1.142   5.526   4.284
14703TIP3    H244067   1.045   5.638   4.316
14704TIP3   OH244068   2.205   1.755   5.563
14704TIP3    H144069   2.151   1.682   5.594
14704TIP3    H244070   2.288   1.744   5.608
14705TIP3   OH244071   7.336   2.726   5.324
14705TIP3    H144072   7.242   2.725   5.311
14705TIP3    H244073   7.349   2.687   5.411
14706TIP3   OH244074   8.227   7.656   2.973
14706TIP3    H144075   8.155   7.664   3.035
14706TIP3    H244076   8.184   7.633   2.890
14707TIP3   OH244077   6.700   6.676   5.131
14707TIP3    H144078   6.674   6.664   5.223
14707TIP3    H244079   6.725   6.768   5.125
14708TIP3   OH244080   1.118   3.028   3.760
14708TIP3    H144081   1.045   3.078   3.723
14708TIP3    H244082   1.154   3.086   3.828
14709TIP3   OH244083   2.780   5.267   3.002
14709TIP3    H144084   2.701   5.311   3.033
14709TIP3    H244085   2.840   5.337   2.981
14710TIP3   OH244086   6.214   7.755   5.397
14710TIP3    H144087   6.302   7.724   5.378
14710TIP3    H244088   6.157   7.683   5.370
14711TIP3   OH244089   5.769   4.638   2.672
14711TIP3    H144090   5.841   4.633   2.609
14711TIP3    H244091   5.782   4.562   2.729
14712TIP3   OH244092   6.864   1.206   3.323
14712TIP3    H144093   6.875   1.164   3.408
14712TIP3    H244094   6.815   1.286   3.342
14713TIP3   OH244095   2.603   5.006   3.877
14713TIP3    H144096   2.691   5.019   3.913
14713TIP3    H244097   2.616   5.012   3.782
14714TIP3   OH244098   4.967   5.129   5.715
14714TIP3    H144099   4.889   5.096   5.671
14714TIP3    H244100   4.970   5.222   5.692
14715TIP3   OH244101   5.061   4.941   5.426
14715TIP3    H144102   5.050   4.934   5.521
14715TIP3    H244103   5.034   4.856   5.392
14716TIP3   OH244104   1.495   3.886   1.847
14716TIP3    H144105   1.573   3.836   1.870
14716TIP3    H244106   1.427   3.820   1.834
14717TIP3   OH244107   6.714   1.194   0.818
14717TIP3    H144108   6.726   1.264   0.882
14717TIP3    H244109   6.791   1.199   0.762
14718TIP3   OH244110   3.051   4.576   6.425
14718TIP3    H144111   3.118   4.508   6.433
14718TIP3    H244112   3.096   4.658   6.446
14719TIP3   OH244113   2.670   6.020   6.315
14719TIP3    H144114   2.681   6.115   6.311
14719TIP3    H244115   2.596   6.002   6.257
14720TIP3   OH244116   4.939   4.122   2.298
14720TIP3    H144117   4.870   4.066   2.263
14720TIP3    H244118   4.936   4.108   2.393
14721TIP3   OH244119   1.995   0.989   6.689
14721TIP3    H144120   1.912   1.034   6.673
14721TIP3    H244121   2.003   0.928   6.615
14722TIP3   OH244122   5.231   2.230   4.680
14722TIP3    H144123   5.177   2.151   4.669
14722TIP3    H244124   5.187   2.278   4.751
14723TIP3   OH244125   6.568   5.157   4.319
14723TIP3    H144126   6.592   5.205   4.239
14723TIP3    H244127   6.606   5.208   4.390
14724TIP3   OH244128   2.979   2.849   0.332
14724TIP3    H144129   3.030   2.912   0.384
14724TIP3    H244130   3.034   2.771   0.329
14725TIP3   OH244131   5.981   6.750   1.348
14725TIP3    H144132   6.058   6.706   1.382
14725TIP3    H244133   6.009   6.787   1.264
14726TIP3   OH244134   1.292   0.162   6.308
14726TIP3    H144135   1.327   0.104   6.376
14726TIP3    H244136   1.357   0.231   6.299
14727TIP3   OH244137   2.094   6.740   3.587
14727TIP3    H144138   2.103   6.835   3.586
14727TIP3    H244139   2.174   6.708   3.546
14728TIP3   OH244140   0.016   2.394   6.064
14728TIP3    H144141   0.083   2.403   5.996
14728TIP3    H244142   0.029   2.469   6.120
14729TIP3   OH244143   2.834   6.506   5.292
14729TIP3    H144144   2.764   6.441   5.299
14729TIP3    H244145   2.910   6.457   5.260
14730TIP3   OH244146   0.923   1.131   2.287
14730TIP3    H144147   1.013   1.137   2.253
14730TIP3    H244148   0.905   1.037   2.292
14731TIP3   OH244149   3.524   3.964   4.580
14731TIP3    H144150   3.512   3.977   4.486
14731TIP3    H244151   3.487   3.878   4.598
14732TIP3   OH244152   4.526   0.281   5.801
14732TIP3    H144153   4.524   0.368   5.840
14732TIP3    H244154   4.615   0.272   5.765
14733TIP3   OH244155   6.208   0.213   2.095
14733TIP3    H144156   6.176   0.193   2.183
14733TIP3    H244157   6.160   0.153   2.038
14734TIP3   OH244158   7.114   1.757   0.257
14734TIP3    H144159   7.103   1.722   0.345
14734TIP3    H244160   7.142   1.847   0.270
14735TIP3   OH244161   0.728   5.620   1.105
14735TIP3    H144162   0.707   5.709   1.077
14735TIP3    H244163   0.644   5.583   1.132
14736TIP3   OH244164   0.936   3.293   3.180
14736TIP3    H144165   0.983   3.360   3.129
14736TIP3    H244166   0.916   3.224   3.117
14737TIP3   OH244167   1.676   6.458   6.356
14737TIP3    H144168   1.590   6.434   6.320
14737TIP3    H244169   1.679   6.414   6.441
14738TIP3   OH244170   2.300   2.486   5.369
14738TIP3    H144171   2.384   2.459   5.332
14738TIP3    H244172   2.251   2.520   5.294
14739TIP3   OH244173   7.143   1.471   1.175
14739TIP3    H144174   7.207   1.540   1.163
14739TIP3    H244175   7.086   1.502   1.246
14740TIP3   OH244176   0.917   2.844   0.433
14740TIP3    H144177   0.860   2.894   0.491
14740TIP3    H244178   0.935   2.763   0.482
14741TIP3   OH244179   1.191   4.641   1.796
14741TIP3    H144180   1.263   4.703   1.785
14741TIP3    H244181   1.143   4.675   1.871
14742TIP3   OH244182   5.405   7.450   3.186
14742TIP3    H144183   5.454   7.472   3.264
14742TIP3    H244184   5.313   7.459   3.211
14743TIP3   OH244185   5.761   3.565   2.372
14743TIP3    H144186   5.809   3.578   2.290
14743TIP3    H244187   5.828   3.540   2.435
14744TIP3   OH244188   5.358   2.220   6.259
14744TIP3    H144189   5.436   2.198   6.208
14744TIP3    H244190   5.285   2.212   6.197
14745TIP3   OH244191   2.018   0.009   2.462
14745TIP3    H144192   2.096  -0.046   2.458
14745TIP3    H244193   2.039   0.085   2.408
14746TIP3   OH244194   4.295   4.570   5.265
14746TIP3    H144195   4.355   4.514   5.216
14746TIP3    H244196   4.266   4.516   5.339
14747TIP3   OH244197   3.700   2.726   0.308
14747TIP3    H144198   3.708   2.771   0.392
14747TIP3    H244199   3.671   2.793   0.247
14748TIP3   OH244200   2.300   3.544   3.181
14748TIP3    H144201   2.353   3.519   3.105
14748TIP3    H244202   2.360   3.540   3.255
14749TIP3   OH244203   5.422   2.035   3.201
14749TIP3    H144204   5.388   1.971   3.263
14749TIP3    H244205   5.397   2.120   3.239
14750TIP3   OH244206   3.906   4.538   4.629
14750TIP3    H144207   3.963   4.462   4.640
14750TIP3    H244208   3.836   4.507   4.572
14751TIP3   OH244209   3.118   2.541   1.859
14751TIP3    H144210   3.052   2.542   1.929
14751TIP3    H244211   3.138   2.449   1.845
14752TIP3   OH244212   5.700   7.364   2.533
14752TIP3    H144213   5.623   7.324   2.492
14752TIP3    H244214   5.669   7.392   2.619
14753TIP3   OH244215   1.657   5.475   4.131
14753TIP3    H144216   1.712   5.517   4.065
14753TIP3    H244217   1.590   5.429   4.080
14754TIP3   OH244218   3.432   1.688   2.881
14754TIP3    H144219   3.501   1.703   2.816
14754TIP3    H244220   3.469   1.622   2.940
14755TIP3   OH244221   6.257   0.836   4.088
14755TIP3    H144222   6.230   0.776   4.018
14755TIP3    H244223   6.226   0.793   4.168
14756TIP3   OH244224   6.424   5.971   3.431
14756TIP3    H144225   6.432   5.919   3.351
14756TIP3    H244226   6.514   5.979   3.464
14757TIP3   OH244227   2.880   0.572   2.125
14757TIP3    H144228   2.934   0.631   2.073
14757TIP3    H244229   2.842   0.511   2.062
14758TIP3   OH244230   5.772   6.818   1.543
14758TIP3    H144231   5.838   6.809   1.473
14758TIP3    H244232   5.808   6.885   1.601
14759TIP3   OH244233   4.639   4.878   4.041
14759TIP3    H144234   4.731   4.896   4.060
14759TIP3    H244235   4.622   4.792   4.079
14760TIP3   OH244236   8.129   1.777   4.571
14760TIP3    H144237   8.129   1.856   4.627
14760TIP3    H244238   8.208   1.730   4.598
14761TIP3   OH244239   4.420   5.050   4.257
14761TIP3    H144240   4.424   5.054   4.353
14761TIP3    H244241   4.508   5.023   4.232
14762TIP3   OH244242   5.125   1.756   6.619
14762TIP3    H144243   5.190   1.816   6.585
14762TIP3    H244244   5.091   1.799   6.698
14763TIP3   OH244245   0.358   4.761   2.814
14763TIP3    H144246   0.426   4.742   2.878
14763TIP3    H244247   0.362   4.689   2.752
14764TIP3   OH244248   5.042   1.794   3.131
14764TIP3    H144249   4.976   1.732   3.099
14764TIP3    H244250   4.992   1.863   3.174
14765TIP3   OH244251   3.230   7.784   3.630
14765TIP3    H144252   3.136   7.770   3.618
14765TIP3    H244253   3.271   7.711   3.583
14766TIP3   OH244254   5.026   6.374   4.498
14766TIP3    H144255   5.112   6.413   4.483
14766TIP3    H244256   5.045   6.290   4.540
14767TIP3   OH244257   3.196   5.065   3.316
14767TIP3    H144258   3.183   5.127   3.244
14767TIP3    H244259   3.110   5.058   3.357
14768TIP3   OH244260   5.439   5.377   5.216
14768TIP3    H144261   5.408   5.311   5.278
14768TIP3    H244262   5.530   5.394   5.244
14769TIP3   OH244263   6.910   7.349   3.368
14769TIP3    H144264   6.972   7.291   3.413
14769TIP3    H244265   6.963   7.425   3.342
14770TIP3   OH244266   2.319   0.523   4.040
14770TIP3    H144267   2.380   0.521   4.113
14770TIP3    H244268   2.288   0.433   4.033
14771TIP3   OH244269   4.525   3.008   2.057
14771TIP3    H144270   4.542   2.924   2.014
14771TIP3    H244271   4.434   3.027   2.038
14772TIP3   OH244272   8.064   0.544   2.657
14772TIP3    H144273   8.027   0.589   2.581
14772TIP3    H244274   8.104   0.465   2.622
14773TIP3   OH244275   1.754   7.606   2.602
14773TIP3    H144276   1.703   7.529   2.576
14773TIP3    H244277   1.780   7.587   2.692
14774TIP3   OH244278   6.209   4.387   5.923
14774TIP3    H144279   6.166   4.336   5.992
14774TIP3    H244280   6.224   4.473   5.963
14775TIP3   OH244281   7.795   6.953   2.327
14775TIP3    H144282   7.890   6.958   2.316
14775TIP3    H244283   7.782   6.883   2.390
14776TIP3   OH244284   6.813   5.641   4.640
14776TIP3    H144285   6.794   5.572   4.704
14776TIP3    H244286   6.761   5.716   4.668
14777TIP3   OH244287   0.428   6.014   5.740
14777TIP3    H144288   0.401   6.063   5.817
14777TIP3    H244289   0.406   5.923   5.760
14778TIP3   OH244290   5.778   6.025   1.520
14778TIP3    H144291   5.873   6.023   1.521
14778TIP3    H244292   5.755   6.039   1.428
14779TIP3   OH244293   5.639   0.841   6.608
14779TIP3    H144294   5.564   0.899   6.593
14779TIP3    H244295   5.676   0.871   6.691
14780TIP3   OH244296   3.619   5.833   4.425
14780TIP3    H144297   3.664   5.798   4.348
14780TIP3    H244298   3.597   5.756   4.477
14781TIP3   OH244299   2.023   5.023   6.750
14781TIP3    H144300   2.066   4.957   6.805
14781TIP3    H244301   1.983   4.972   6.679
14782TIP3   OH244302   0.470   5.408   5.936
14782TIP3    H144303   0.540   5.419   6.000
14782TIP3    H244304   0.395   5.455   5.972
14783TIP3   OH244305   7.894   7.537   6.347
14783TIP3    H144306   7.896   7.597   6.421
14783TIP3    H244307   7.983   7.539   6.313
14784TIP3   OH244308   1.945   2.556   0.333
14784TIP3    H144309   1.946   2.629   0.272
14784TIP3    H244310   2.034   2.551   0.367
14785TIP3   OH244311   3.856   7.604   0.693
14785TIP3    H144312   3.787   7.652   0.646
14785TIP3    H244313   3.849   7.636   0.784
14786TIP3   OH244314   2.603   2.159   2.560
14786TIP3    H144315   2.545   2.083   2.554
14786TIP3    H244316   2.676   2.129   2.615
14787TIP3   OH244317   5.776   5.938   2.577
14787TIP3    H144318   5.833   5.886   2.633
14787TIP3    H244319   5.695   5.947   2.626
14788TIP3   OH244320   4.974   5.446   0.573
14788TIP3    H144321   5.023   5.428   0.653
14788TIP3    H244322   4.886   5.468   0.604
14789TIP3   OH244323   7.712   2.962   0.979
14789TIP3    H144324   7.646   3.031   0.983
14789TIP3    H244325   7.665   2.887   0.942
14790TIP3   OH244326   3.777   2.854   4.234
14790TIP3    H144327   3.725   2.829   4.158
14790TIP3    H244328   3.813   2.940   4.213
14791TIP3   OH244329   4.873   6.770   0.967
14791TIP3    H144330   4.950   6.756   0.912
14791TIP3    H244331   4.799   6.762   0.908
14792TIP3   OH244332   1.959   4.174   3.580
14792TIP3    H144333   1.893   4.106   3.568
14792TIP3    H244334   1.908   4.253   3.599
14793TIP3   OH244335   6.920   2.704   2.647
14793TIP3    H144336   7.004   2.659   2.637
14793TIP3    H244337   6.863   2.639   2.686
14794TIP3   OH244338   8.072   0.268   0.812
14794TIP3    H144339   8.136   0.312   0.757
14794TIP3    H244340   8.014   0.339   0.842
14795TIP3   OH244341   2.328   3.506   3.738
14795TIP3    H144342   2.368   3.426   3.773
14795TIP3    H244343   2.237   3.502   3.766
14796TIP3   OH244344   0.521   0.839   2.835
14796TIP3    H144345   0.609   0.866   2.806
14796TIP3    H244346   0.529   0.830   2.930
14797TIP3   OH244347   4.010   4.302   3.651
14797TIP3    H144348   4.041   4.241   3.717
14797TIP3    H244349   3.992   4.383   3.699
14798TIP3   OH244350   3.426   2.811   0.939
14798TIP3    H144351   3.513   2.828   0.975
14798TIP3    H244352   3.418   2.715   0.939
14799TIP3   OH244353   3.672   1.833   5.209
14799TIP3    H144354   3.716   1.760   5.164
14799TIP3    H244355   3.604   1.792   5.261
14800TIP3   OH244356   3.279   6.249   3.542
14800TIP3    H144357   3.256   6.271   3.632
14800TIP3    H244358   3.208   6.287   3.490
14801TIP3   OH244359   3.957   6.292   6.082
14801TIP3    H144360   4.006   6.280   6.164
14801TIP3    H244361   3.935   6.385   6.081
14802TIP3   OH244362   4.684   7.768   1.463
14802TIP3    H144363   4.714   7.687   1.506
14802TIP3    H244364   4.590   7.768   1.476
14803TIP3   OH244365   2.544   5.725   4.694
14803TIP3    H144366   2.477   5.745   4.759
14803TIP3    H244367   2.622   5.702   4.744
14804TIP3   OH244368   6.350   1.682   0.437
14804TIP3    H144369   6.418   1.642   0.382
14804TIP3    H244370   6.361   1.641   0.522
14805TIP3   OH244371   8.286   5.760   0.501
14805TIP3    H144372   8.333   5.677   0.490
14805TIP3    H244373   8.237   5.749   0.583
14806TIP3   OH244374   1.238   4.745   4.063
14806TIP3    H144375   1.318   4.778   4.022
14806TIP3    H244376   1.241   4.778   4.152
14807TIP3   OH244377   6.270   7.399   6.466
14807TIP3    H144378   6.232   7.473   6.420
14807TIP3    H244379   6.278   7.331   6.399
14808TIP3   OH244380   3.756   0.151   6.465
14808TIP3    H144381   3.665   0.124   6.475
14808TIP3    H244382   3.781   0.184   6.551
14809TIP3   OH244383   7.923   4.908   1.136
14809TIP3    H144384   7.880   4.993   1.145
14809TIP3    H244385   7.883   4.853   1.203
14810TIP3   OH244386   6.243   1.068   3.338
14810TIP3    H144387   6.314   1.004   3.335
14810TIP3    H244388   6.165   1.018   3.314
14811TIP3   OH244389   4.469   0.021   5.774
14811TIP3    H144390   4.467  -0.026   5.858
14811TIP3    H244391   4.476   0.113   5.799
14812TIP3   OH244392   5.188   2.481   4.431
14812TIP3    H144393   5.278   2.510   4.416
14812TIP3    H244394   5.198   2.397   4.476
14813TIP3   OH244395   6.499   2.334   0.266
14813TIP3    H144396   6.482   2.242   0.243
14813TIP3    H244397   6.418   2.363   0.307
14814TIP3   OH244398   0.778   5.227   0.436
14814TIP3    H144399   0.856   5.195   0.390
14814TIP3    H244400   0.711   5.162   0.417
14815TIP3   OH244401   0.824   7.746   5.380
14815TIP3    H144402   0.772   7.734   5.300
14815TIP3    H244403   0.850   7.658   5.405
14816TIP3   OH244404   4.656   1.574   3.353
14816TIP3    H144405   4.595   1.521   3.301
14816TIP3    H244406   4.648   1.540   3.442
14817TIP3   OH244407   0.210   0.296   3.256
14817TIP3    H144408   0.133   0.351   3.240
14817TIP3    H244409   0.252   0.288   3.170
14818TIP3   OH244410   3.162   7.001   6.155
14818TIP3    H144411   3.191   6.910   6.150
14818TIP3    H244412   3.116   7.016   6.073
14819TIP3   OH244413   6.290   4.869   1.116
14819TIP3    H144414   6.372   4.917   1.111
14819TIP3    H244415   6.306   4.788   1.068
14820TIP3   OH244416   0.762   2.353   4.656
14820TIP3    H144417   0.725   2.441   4.655
14820TIP3    H244418   0.690   2.297   4.682
14821TIP3   OH244419   5.062   2.974   4.021
14821TIP3    H144420   5.024   3.023   3.948
14821TIP3    H244421   5.089   3.042   4.084
14822TIP3   OH244422   2.802   7.548   2.196
14822TIP3    H144423   2.769   7.626   2.150
14822TIP3    H244424   2.726   7.491   2.204
14823TIP3   OH244425   4.266   0.177   0.796
14823TIP3    H144426   4.270   0.098   0.850
14823TIP3    H244427   4.244   0.247   0.857
14824TIP3   OH244428   7.980   2.235   3.927
14824TIP3    H144429   7.920   2.305   3.902
14824TIP3    H244430   7.924   2.160   3.947
14825TIP3   OH244431   0.132   2.808   0.922
14825TIP3    H144432   0.226   2.825   0.927
14825TIP3    H244433   0.092   2.886   0.960
14826TIP3   OH244434   5.555   3.288   6.157
14826TIP3    H144435   5.591   3.318   6.073
14826TIP3    H244436   5.493   3.356   6.182
14827TIP3   OH244437   0.112   6.956   6.225
14827TIP3    H144438   0.076   6.874   6.260
14827TIP3    H244439   0.122   7.012   6.302
14828TIP3   OH244440   0.050   0.963   3.393
14828TIP3    H144441   0.081   0.992   3.478
14828TIP3    H244442   0.126   0.923   3.351
14829TIP3   OH244443   7.410   3.328   3.956
14829TIP3    H144444   7.352   3.259   3.987
14829TIP3    H244445   7.400   3.398   4.020
14830TIP3   OH244446   6.283   0.725   1.526
14830TIP3    H144447   6.343   0.788   1.567
14830TIP3    H244448   6.269   0.759   1.438
14831TIP3   OH244449   3.900   0.245   4.141
14831TIP3    H144450   3.859   0.331   4.141
14831TIP3    H244451   3.833   0.185   4.107
14832TIP3   OH244452   7.250   3.070   0.164
14832TIP3    H144453   7.317   3.058   0.231
14832TIP3    H244454   7.168   3.077   0.212
14833TIP3   OH244455   4.134   4.079   0.302
14833TIP3    H144456   4.091   3.993   0.304
14833TIP3    H244457   4.223   4.061   0.275
14834TIP3   OH244458   0.816   4.885   5.133
14834TIP3    H144459   0.791   4.939   5.209
14834TIP3    H244460   0.817   4.947   5.060
14835TIP3   OH244461   5.465   6.610   2.702
14835TIP3    H144462   5.491   6.684   2.648
14835TIP3    H244463   5.546   6.562   2.717
14836TIP3   OH244464   1.123   4.943   6.214
14836TIP3    H144465   1.061   4.912   6.148
14836TIP3    H244466   1.200   4.886   6.203
14837TIP3   OH244467   6.098   6.869   2.365
14837TIP3    H144468   6.124   6.932   2.432
14837TIP3    H244469   6.037   6.810   2.409
   8.30352   7.82863   6.77979   0.00000   0.00000  -2.76784   0.00000  -2.76784  -3.91432
