Title t= 358.00000 step= 179000
29212
    1ASP      N    1   3.103   1.612   2.244
    1ASP    HT1    2   3.072   1.680   2.316
    1ASP    HT2    3   3.185   1.660   2.201
    1ASP    HT3    4   3.135   1.528   2.296
    1ASP     CA    5   2.986   1.569   2.152
    1ASP     HA    6   2.935   1.656   2.113
    1ASP     CB    7   3.030   1.492   2.019
    1ASP    HB1    8   2.949   1.464   1.949
    1ASP    HB2    9   3.070   1.392   2.043
    1ASP     CG   10   3.134   1.562   1.946
    1ASP    OD1   11   3.153   1.683   1.973
    1ASP    OD2   12   3.208   1.497   1.864
    1ASP      C   13   2.870   1.494   2.233
    1ASP      O   14   2.841   1.539   2.340
    2GLY      N   15   2.812   1.383   2.184
    2GLY     HN   16   2.831   1.348   2.092
    2GLY     CA   17   2.692   1.329   2.245
    2GLY    HA1   18   2.716   1.291   2.344
    2GLY    HA2   19   2.650   1.251   2.183
    2GLY      C   20   2.569   1.413   2.257
    2GLY      O   21   2.559   1.523   2.198
    3ASP      N   22   2.463   1.361   2.321
    3ASP     HN   23   2.470   1.274   2.369
    3ASP     CA   24   2.334   1.424   2.330
    3ASP     HA   25   2.300   1.438   2.229
    3ASP     CB   26   2.232   1.319   2.390
    3ASP    HB1   27   2.136   1.362   2.424
    3ASP    HB2   28   2.283   1.273   2.477
    3ASP     CG   29   2.191   1.200   2.302
    3ASP    OD1   30   2.105   1.121   2.349
    3ASP    OD2   31   2.232   1.196   2.185
    3ASP      C   32   2.337   1.552   2.411
    3ASP      O   33   2.392   1.567   2.517
    4GLY      N   34   2.276   1.661   2.352
    4GLY     HN   35   2.237   1.652   2.261
    4GLY     CA   36   2.259   1.784   2.415
    4GLY    HA1   37   2.208   1.849   2.346
    4GLY    HA2   38   2.359   1.816   2.442
    4GLY      C   39   2.183   1.787   2.542
    4GLY      O   40   2.123   1.684   2.587
    5PRO      N   41   2.200   1.895   2.624
    5PRO     CD   42   2.243   2.028   2.582
    5PRO    HD1   43   2.217   2.067   2.481
    5PRO    HD2   44   2.353   2.022   2.600
    5PRO     CA   45   2.145   1.895   2.759
    5PRO     HA   46   2.178   1.812   2.819
    5PRO     CB   47   2.187   2.033   2.818
    5PRO    HB1   48   2.285   2.019   2.869
    5PRO    HB2   49   2.105   2.072   2.882
    5PRO     CG   50   2.200   2.121   2.691
    5PRO    HG1   51   2.099   2.165   2.671
    5PRO    HG2   52   2.272   2.205   2.703
    5PRO      C   53   1.988   1.882   2.758
    5PRO      O   54   1.922   1.903   2.652
    6GLY      N   55   1.933   1.839   2.868
    6GLY     HN   56   1.986   1.828   2.951
    6GLY     CA   57   1.789   1.793   2.881
    6GLY    HA1   58   1.776   1.764   2.984
    6GLY    HA2   59   1.774   1.709   2.815
    6GLY      C   60   1.677   1.890   2.857
    6GLY      O   61   1.686   2.008   2.884
    7ASP      N   62   1.566   1.846   2.799
    7ASP     HN   63   1.569   1.751   2.770
    7ASP     CA   64   1.434   1.903   2.784
    7ASP     HA   65   1.446   2.001   2.739
    7ASP     CB   66   1.339   1.802   2.711
    7ASP    HB1   67   1.243   1.853   2.687
    7ASP    HB2   68   1.322   1.722   2.785
    7ASP     CG   69   1.389   1.744   2.580
    7ASP    OD1   70   1.309   1.659   2.530
    7ASP    OD2   71   1.488   1.792   2.519
    7ASP      C   72   1.382   1.933   2.928
    7ASP      O   73   1.408   1.855   3.020
    8PRO      N   74   1.305   2.041   2.958
    8PRO     CD   75   1.288   2.156   2.868
    8PRO    HD1   76   1.270   2.124   2.763
    8PRO    HD2   77   1.374   2.227   2.863
    8PRO     CA   78   1.228   2.057   3.084
    8PRO     HA   79   1.291   2.062   3.172
    8PRO     CB   80   1.174   2.202   3.066
    8PRO    HB1   81   1.242   2.280   3.105
    8PRO    HB2   82   1.077   2.217   3.119
    8PRO     CG   83   1.161   2.225   2.912
    8PRO    HG1   84   1.075   2.157   2.891
    8PRO    HG2   85   1.160   2.333   2.888
    8PRO      C   86   1.115   1.943   3.116
    8PRO      O   87   1.036   1.914   3.033
    9GLY      N   88   1.121   1.887   3.237
    9GLY     HN   89   1.195   1.921   3.295
    9GLY     CA   90   1.039   1.775   3.281
    9GLY    HA1   91   1.107   1.714   3.338
    9GLY    HA2   92   0.992   1.733   3.193
    9GLY      C   93   0.932   1.830   3.370
    9GLY      O   94   0.928   1.948   3.393
   10ASP      N   95   0.844   1.740   3.415
   10ASP     HN   96   0.857   1.647   3.383
   10ASP     CA   97   0.733   1.769   3.509
   10ASP     HA   98   0.704   1.873   3.506
   10ASP     CB   99   0.611   1.688   3.479
   10ASP    HB1  100   0.526   1.715   3.545
   10ASP    HB2  101   0.626   1.578   3.485
   10ASP     CG  102   0.554   1.719   3.336
   10ASP    OD1  103   0.561   1.831   3.286
   10ASP    OD2  104   0.486   1.626   3.287
   10ASP      C  105   0.781   1.741   3.652
   10ASP      O  106   0.849   1.642   3.675
   11GLY      N  107   0.740   1.821   3.760
   11GLY     HN  108   0.675   1.894   3.741
   11GLY     CA  109   0.776   1.804   3.896
   11GLY    HA1  110   0.731   1.712   3.929
   11GLY    HA2  111   0.729   1.884   3.950
   11GLY      C  112   0.926   1.805   3.917
   11GLY    OT1  113   1.002   1.901   3.887
   11GLY    OT2  114   0.978   1.713   3.985
   12LIT    LIT  115   5.185   6.234   1.441
   13LIT    LIT  116   6.287   1.309   0.668
   14LIT    LIT  117   0.406   4.623   0.038
   15LIT    LIT  118   0.329   4.137   3.214
   16LIT    LIT  119   1.129   1.829   4.016
   17LIT    LIT  120   4.069   5.828   3.763
   18LIT    LIT  121   2.339   2.503   2.927
   19LIT    LIT  122   2.268   3.845   0.182
   20LIT    LIT  123   1.603   1.539   5.751
   21LIT    LIT  124   1.006   6.202   4.344
   22LIT    LIT  125   5.468   1.343   4.076
   23LIT    LIT  126   5.507   0.228   2.179
   24LIT    LIT  127   6.827   3.647   5.843
   25LIT    LIT  128   0.382   3.280   2.630
   26LIT    LIT  129   0.410   1.769   3.170
   27LIT    LIT  130   6.241   6.748   3.873
   28LIT    LIT  131   0.896   6.744   5.707
   29LIT    LIT  132   6.461   2.723   3.304
   30LIT    LIT  133   0.767   0.738   2.828
   31LIT    LIT  134   6.572   2.547   2.017
   32LIT    LIT  135   5.536   4.871   5.177
   33LIT    LIT  136   3.516   4.293   3.084
   34LIT    LIT  137   6.468   1.526   4.824
   35LIT    LIT  138   1.052   1.310   2.485
   36LIT    LIT  139   6.735   5.937   2.119
   37LIT    LIT  140   2.483   5.397   3.196
   38LIT    LIT  141   2.591   4.516   5.763
   39LIT    LIT  142   3.319   1.769   1.951
   40LIT    LIT  143   2.956   5.138   2.191
   41LIT    LIT  144   2.811   1.362   3.562
   42LIT    LIT  145   2.119   1.061   2.123
   43CLA    CLA  146   3.147   5.236   2.127
   44CLA    CLA  147   7.200   5.950   4.492
   45CLA    CLA  148   1.998   2.289   3.109
   46CLA    CLA  149   5.525   3.233   1.291
   47CLA    CLA  150   7.068   1.089   3.438
   48CLA    CLA  151   5.246   6.705   1.180
   49CLA    CLA  152   0.894   3.855   3.363
   50CLA    CLA  153   0.632   3.943   2.637
   51CLA    CLA  154   6.679   0.835   1.875
   52CLA    CLA  155   1.834   5.287   3.892
   53CLA    CLA  156   2.753   1.044   2.885
   54CLA    CLA  157   2.723   2.074   0.706
   55CLA    CLA  158   6.646   1.704   3.823
   56CLA    CLA  159   1.255   1.309   4.833
   57CLA    CLA  160   2.138   1.597   4.916
   58CLA    CLA  161   3.473   4.358   3.290
   59CLA    CLA  162   4.874   0.204   2.003
   60CLA    CLA  163   1.762   6.591   2.027
   61CLA    CLA  164   1.324   1.267   2.052
   62CLA    CLA  165   1.513   0.316   2.275
   63CLA    CLA  166   2.214   5.709   4.823
   64CLA    CLA  167   2.403   5.324   0.175
   65CLA    CLA  168   6.011   3.661   5.610
   66CLA    CLA  169   0.659   5.391   2.321
   67CLA    CLA  170   1.334   4.955   5.137
   68CLA    CLA  171   5.160   2.768   4.457
   69CLA    CLA  172   3.208   4.917   3.640
   70TIP3   OH2  173   3.034   4.820   1.079
   70TIP3    H1  174   3.062   4.755   1.015
   70TIP3    H2  175   3.015   4.898   1.028
   71TIP3   OH2  176   2.765   1.179   0.496
   71TIP3    H1  177   2.758   1.146   0.586
   71TIP3    H2  178   2.729   1.109   0.441
   72TIP3   OH2  179   0.901   6.676   3.524
   72TIP3    H1  180   0.916   6.771   3.520
   72TIP3    H2  181   0.925   6.652   3.614
   73TIP3   OH2  182   3.242   5.544   3.821
   73TIP3    H1  183   3.283   5.629   3.807
   73TIP3    H2  184   3.220   5.513   3.733
   74TIP3   OH2  185   3.380   4.198   5.720
   74TIP3    H1  186   3.309   4.204   5.655
   74TIP3    H2  187   3.361   4.269   5.782
   75TIP3   OH2  188   4.235   3.013   0.922
   75TIP3    H1  189   4.307   3.045   0.976
   75TIP3    H2  190   4.248   2.918   0.917
   76TIP3   OH2  191   2.900   6.400   4.743
   76TIP3    H1  192   2.853   6.473   4.702
   76TIP3    H2  193   2.960   6.370   4.675
   77TIP3   OH2  194   3.636   2.084   0.356
   77TIP3    H1  195   3.547   2.052   0.347
   77TIP3    H2  196   3.639   2.125   0.442
   78TIP3   OH2  197   0.020   3.003   3.645
   78TIP3    H1  198   0.106   3.043   3.650
   78TIP3    H2  199  -0.038   3.073   3.613
   79TIP3   OH2  200   2.823   1.380   0.297
   79TIP3    H1  201   2.748   1.428   0.263
   79TIP3    H2  202   2.786   1.315   0.356
   80TIP3   OH2  203   2.221   1.537   4.631
   80TIP3    H1  204   2.213   1.542   4.727
   80TIP3    H2  205   2.142   1.579   4.598
   81TIP3   OH2  206   6.759   4.000   1.400
   81TIP3    H1  207   6.768   3.906   1.386
   81TIP3    H2  208   6.848   4.035   1.393
   82TIP3   OH2  209   2.653   4.448   3.630
   82TIP3    H1  210   2.570   4.448   3.582
   82TIP3    H2  211   2.720   4.454   3.562
   83TIP3   OH2  212   0.952   1.133   0.834
   83TIP3    H1  213   0.980   1.066   0.896
   83TIP3    H2  214   0.942   1.087   0.751
   84TIP3   OH2  215   3.479   1.052   4.896
   84TIP3    H1  216   3.502   1.119   4.832
   84TIP3    H2  217   3.533   1.072   4.973
   85TIP3   OH2  218   0.419   1.183   2.374
   85TIP3    H1  219   0.327   1.179   2.401
   85TIP3    H2  220   0.417   1.230   2.291
   86TIP3   OH2  221   5.510   3.864   5.807
   86TIP3    H1  222   5.456   3.859   5.728
   86TIP3    H2  223   5.579   3.799   5.792
   87TIP3   OH2  224   1.260   0.495   1.615
   87TIP3    H1  225   1.337   0.469   1.665
   87TIP3    H2  226   1.188   0.448   1.655
   88TIP3   OH2  227   2.099   5.144   4.403
   88TIP3    H1  228   2.113   5.174   4.313
   88TIP3    H2  229   2.099   5.048   4.396
   89TIP3   OH2  230   1.508   6.124   0.713
   89TIP3    H1  231   1.502   6.137   0.807
   89TIP3    H2  232   1.570   6.052   0.702
   90TIP3   OH2  233   3.595   3.038   3.472
   90TIP3    H1  234   3.595   3.036   3.568
   90TIP3    H2  235   3.639   2.957   3.447
   91TIP3   OH2  236  -0.002   1.992   1.402
   91TIP3    H1  237   0.038   1.965   1.484
   91TIP3    H2  238  -0.062   2.063   1.427
   92TIP3   OH2  239   6.181   3.289   5.839
   92TIP3    H1  240   6.234   3.317   5.765
   92TIP3    H2  241   6.113   3.356   5.846
   93TIP3   OH2  242   3.082   1.043   2.884
   93TIP3    H1  243   3.113   1.102   2.815
   93TIP3    H2  244   2.988   1.063   2.891
   94TIP3   OH2  245   0.574   2.117   5.626
   94TIP3    H1  246   0.595   2.115   5.533
   94TIP3    H2  247   0.484   2.086   5.631
   95TIP3   OH2  248   2.490   4.502   5.593
   95TIP3    H1  249   2.524   4.463   5.512
   95TIP3    H2  250   2.424   4.564   5.563
   96TIP3   OH2  251   6.072   3.412   4.951
   96TIP3    H1  252   6.036   3.484   5.002
   96TIP3    H2  253   6.077   3.446   4.861
   97TIP3   OH2  254   7.042   5.582   4.153
   97TIP3    H1  255   7.131   5.548   4.162
   97TIP3    H2  256   7.038   5.656   4.214
   98TIP3   OH2  257   0.987   3.926   0.842
   98TIP3    H1  258   0.952   3.900   0.927
   98TIP3    H2  259   1.082   3.913   0.850
   99TIP3   OH2  260   2.264   3.554   3.920
   99TIP3    H1  261   2.170   3.546   3.901
   99TIP3    H2  262   2.299   3.466   3.907
  100TIP3   OH2  263   0.917   2.985   3.493
  100TIP3    H1  264   0.934   3.026   3.408
  100TIP3    H2  265   1.004   2.973   3.531
  101TIP3   OH2  266   6.638   4.366   1.837
  101TIP3    H1  267   6.636   4.416   1.919
  101TIP3    H2  268   6.731   4.356   1.818
  102TIP3   OH2  269   2.635   6.759   5.768
  102TIP3    H1  270   2.688   6.712   5.704
  102TIP3    H2  271   2.652   6.851   5.751
  103TIP3   OH2  272   7.125   1.317   1.858
  103TIP3    H1  273   7.075   1.306   1.940
  103TIP3    H2  274   7.094   1.401   1.824
  104TIP3   OH2  275   0.036   2.698   3.213
  104TIP3    H1  276   0.119   2.656   3.189
  104TIP3    H2  277   0.059   2.791   3.224
  105TIP3   OH2  278   5.276   6.257   2.242
  105TIP3    H1  279   5.190   6.292   2.265
  105TIP3    H2  280   5.259   6.165   2.221
  106TIP3   OH2  281   6.936   0.200   5.838
  106TIP3    H1  282   6.869   0.214   5.771
  106TIP3    H2  283   6.930   0.107   5.858
  107TIP3   OH2  284   0.130   5.111   4.070
  107TIP3    H1  285   0.043   5.100   4.031
  107TIP3    H2  286   0.186   5.135   3.996
  108TIP3   OH2  287   1.709   5.763   0.569
  108TIP3    H1  288   1.691   5.671   0.549
  108TIP3    H2  289   1.641   5.812   0.523
  109TIP3   OH2  290   2.506   5.977   0.365
  109TIP3    H1  291   2.540   6.004   0.280
  109TIP3    H2  292   2.509   5.881   0.363
  110TIP3   OH2  293   1.816   0.036   3.786
  110TIP3    H1  294   1.832   0.130   3.779
  110TIP3    H2  295   1.868   0.008   3.861
  111TIP3   OH2  296   0.515   2.429   0.041
  111TIP3    H1  297   0.530   2.340   0.009
  111TIP3    H2  298   0.432   2.425   0.087
  112TIP3   OH2  299   4.011   4.600   2.304
  112TIP3    H1  300   3.974   4.628   2.220
  112TIP3    H2  301   3.971   4.659   2.368
  113TIP3   OH2  302   0.763   6.724   1.908
  113TIP3    H1  303   0.691   6.724   1.845
  113TIP3    H2  304   0.842   6.716   1.855
  114TIP3   OH2  305   3.031   6.159   0.617
  114TIP3    H1  306   2.956   6.207   0.651
  114TIP3    H2  307   3.083   6.137   0.694
  115TIP3   OH2  308   1.545   5.135   2.326
  115TIP3    H1  309   1.525   5.207   2.265
  115TIP3    H2  310   1.489   5.151   2.402
  116TIP3   OH2  311   1.558   0.113   4.271
  116TIP3    H1  312   1.547   0.102   4.365
  116TIP3    H2  313   1.629   0.054   4.248
  117TIP3   OH2  314   6.012   5.363   3.320
  117TIP3    H1  315   6.025   5.282   3.271
  117TIP3    H2  316   6.084   5.363   3.384
  118TIP3   OH2  317   2.719   3.768   5.089
  118TIP3    H1  318   2.650   3.729   5.143
  118TIP3    H2  319   2.672   3.827   5.030
  119TIP3   OH2  320   2.417   2.847   2.789
  119TIP3    H1  321   2.435   2.938   2.766
  119TIP3    H2  322   2.420   2.800   2.706
  120TIP3   OH2  323   5.203   5.156   2.527
  120TIP3    H1  324   5.159   5.154   2.443
  120TIP3    H2  325   5.179   5.240   2.566
  121TIP3   OH2  326   6.152   4.471   5.061
  121TIP3    H1  327   6.226   4.513   5.017
  121TIP3    H2  328   6.164   4.493   5.153
  122TIP3   OH2  329   3.053   4.177   3.515
  122TIP3    H1  330   3.030   4.235   3.587
  122TIP3    H2  331   3.094   4.102   3.557
  123TIP3   OH2  332   7.213   5.626   0.225
  123TIP3    H1  333   7.283   5.675   0.181
  123TIP3    H2  334   7.179   5.688   0.290
  124TIP3   OH2  335   6.785   1.046   1.483
  124TIP3    H1  336   6.762   0.997   1.405
  124TIP3    H2  337   6.719   1.022   1.548
  125TIP3   OH2  338   4.863   6.053   0.521
  125TIP3    H1  339   4.840   6.118   0.588
  125TIP3    H2  340   4.783   6.001   0.510
  126TIP3   OH2  341   1.914   5.986   1.762
  126TIP3    H1  342   1.923   6.051   1.832
  126TIP3    H2  343   1.819   5.979   1.748
  127TIP3   OH2  344   7.028   2.944   2.765
  127TIP3    H1  345   6.949   2.975   2.809
  127TIP3    H2  346   7.001   2.863   2.720
  128TIP3   OH2  347   0.972   2.130   5.628
  128TIP3    H1  348   0.904   2.089   5.682
  128TIP3    H2  349   0.999   2.060   5.568
  129TIP3   OH2  350   4.828   4.908   5.131
  129TIP3    H1  351   4.786   4.823   5.122
  129TIP3    H2  352   4.912   4.889   5.173
  130TIP3   OH2  353   1.485   0.409   1.756
  130TIP3    H1  354   1.567   0.440   1.716
  130TIP3    H2  355   1.471   0.466   1.831
  131TIP3   OH2  356   1.466   3.743   0.146
  131TIP3    H1  357   1.556   3.774   0.144
  131TIP3    H2  358   1.413   3.820   0.129
  132TIP3   OH2  359   6.057   1.715   1.862
  132TIP3    H1  360   6.013   1.731   1.946
  132TIP3    H2  361   6.008   1.769   1.799
  133TIP3   OH2  362   0.621   1.368   2.456
  133TIP3    H1  363   0.543   1.333   2.413
  133TIP3    H2  364   0.587   1.424   2.526
  134TIP3   OH2  365   3.031   1.921   4.797
  134TIP3    H1  366   2.992   1.942   4.713
  134TIP3    H2  367   3.077   2.000   4.824
  135TIP3   OH2  368   2.185   6.740   3.485
  135TIP3    H1  369   2.162   6.713   3.574
  135TIP3    H2  370   2.103   6.736   3.436
  136TIP3   OH2  371   1.897   4.425   1.654
  136TIP3    H1  372   1.833   4.452   1.720
  136TIP3    H2  373   1.974   4.399   1.704
  137TIP3   OH2  374   4.723   0.165   3.123
  137TIP3    H1  375   4.780   0.179   3.047
  137TIP3    H2  376   4.783   0.153   3.197
  138TIP3   OH2  377   0.864   5.306   5.864
  138TIP3    H1  378   0.824   5.298   5.777
  138TIP3    H2  379   0.791   5.329   5.922
  139TIP3   OH2  380   0.168   2.586   4.475
  139TIP3    H1  381   0.137   2.631   4.554
  139TIP3    H2  382   0.106   2.514   4.463
  140TIP3   OH2  383   2.737   2.815   2.930
  140TIP3    H1  384   2.769   2.895   2.889
  140TIP3    H2  385   2.752   2.747   2.864
  141TIP3   OH2  386   6.754   6.218   4.906
  141TIP3    H1  387   6.809   6.188   4.978
  141TIP3    H2  388   6.798   6.185   4.827
  142TIP3   OH2  389   1.156   5.959   1.104
  142TIP3    H1  390   1.181   6.004   1.023
  142TIP3    H2  391   1.146   5.867   1.078
  143TIP3   OH2  392   5.933   5.316   1.333
  143TIP3    H1  393   5.893   5.387   1.283
  143TIP3    H2  394   6.023   5.312   1.302
  144TIP3   OH2  395   6.691   0.709   1.348
  144TIP3    H1  396   6.707   0.763   1.425
  144TIP3    H2  397   6.776   0.673   1.325
  145TIP3   OH2  398   6.628   4.688   3.405
  145TIP3    H1  399   6.666   4.771   3.433
  145TIP3    H2  400   6.622   4.696   3.310
  146TIP3   OH2  401   5.337   1.364   5.848
  146TIP3    H1  402   5.323   1.433   5.783
  146TIP3    H2  403   5.428   1.338   5.835
  147TIP3   OH2  404   0.310   2.041   5.668
  147TIP3    H1  405   0.313   2.046   5.764
  147TIP3    H2  406   0.238   2.099   5.643
  148TIP3   OH2  407   3.960   5.873   2.472
  148TIP3    H1  408   3.928   5.785   2.451
  148TIP3    H2  409   3.881   5.927   2.475
  149TIP3   OH2  410   2.268   2.433   4.457
  149TIP3    H1  411   2.209   2.378   4.509
  149TIP3    H2  412   2.242   2.415   4.366
  150TIP3   OH2  413   1.355   6.271   2.678
  150TIP3    H1  414   1.345   6.362   2.648
  150TIP3    H2  415   1.408   6.230   2.609
  151TIP3   OH2  416   2.311   0.505   4.556
  151TIP3    H1  417   2.401   0.502   4.523
  151TIP3    H2  418   2.310   0.578   4.618
  152TIP3   OH2  419   2.236   3.352   4.661
  152TIP3    H1  420   2.272   3.439   4.642
  152TIP3    H2  421   2.148   3.354   4.625
  153TIP3   OH2  422   6.817   4.284   2.445
  153TIP3    H1  423   6.889   4.230   2.415
  153TIP3    H2  424   6.834   4.370   2.408
  154TIP3   OH2  425   6.122   0.904   1.084
  154TIP3    H1  426   6.180   0.930   1.155
  154TIP3    H2  427   6.121   0.808   1.087
  155TIP3   OH2  428   3.072   6.222   5.352
  155TIP3    H1  429   3.158   6.184   5.368
  155TIP3    H2  430   3.040   6.176   5.274
  156TIP3   OH2  431   6.842   4.906   5.543
  156TIP3    H1  432   6.787   4.915   5.621
  156TIP3    H2  433   6.913   4.969   5.556
  157TIP3   OH2  434   1.801   5.397   1.319
  157TIP3    H1  435   1.876   5.370   1.372
  157TIP3    H2  436   1.812   5.491   1.307
  158TIP3   OH2  437   1.394   5.789   1.889
  158TIP3    H1  438   1.299   5.797   1.900
  158TIP3    H2  439   1.430   5.815   1.974
  159TIP3   OH2  440   5.343   1.055   3.312
  159TIP3    H1  441   5.300   1.095   3.388
  159TIP3    H2  442   5.399   0.987   3.349
  160TIP3   OH2  443   5.747   0.457   5.259
  160TIP3    H1  444   5.699   0.540   5.252
  160TIP3    H2  445   5.780   0.457   5.349
  161TIP3   OH2  446   6.108   3.329   0.124
  161TIP3    H1  447   6.166   3.366   0.058
  161TIP3    H2  448   6.039   3.394   0.135
  162TIP3   OH2  449   5.953   0.759   5.291
  162TIP3    H1  450   5.899   0.710   5.353
  162TIP3    H2  451   5.991   0.830   5.343
  163TIP3   OH2  452   1.744   0.107   1.653
  163TIP3    H1  453   1.730   0.019   1.687
  163TIP3    H2  454   1.719   0.165   1.725
  164TIP3   OH2  455   2.780   5.496   1.539
  164TIP3    H1  456   2.783   5.517   1.446
  164TIP3    H2  457   2.820   5.571   1.582
  165TIP3   OH2  458   2.978   6.699   0.758
  165TIP3    H1  459   2.981   6.738   0.846
  165TIP3    H2  460   2.885   6.677   0.745
  166TIP3   OH2  461   6.728   0.646   4.723
  166TIP3    H1  462   6.769   0.610   4.644
  166TIP3    H2  463   6.679   0.574   4.761
  167TIP3   OH2  464   5.330   3.458   2.098
  167TIP3    H1  465   5.307   3.366   2.105
  167TIP3    H2  466   5.247   3.505   2.098
  168TIP3   OH2  467   4.081   4.379   4.547
  168TIP3    H1  468   4.023   4.391   4.473
  168TIP3    H2  469   4.057   4.293   4.583
  169TIP3   OH2  470   3.837   0.747   0.639
  169TIP3    H1  471   3.824   0.731   0.732
  169TIP3    H2  472   3.822   0.841   0.629
  170TIP3   OH2  473   4.545   0.901   1.706
  170TIP3    H1  474   4.555   0.873   1.615
  170TIP3    H2  475   4.461   0.946   1.709
  171TIP3   OH2  476   3.748   5.251   0.164
  171TIP3    H1  477   3.842   5.234   0.160
  171TIP3    H2  478   3.735   5.296   0.247
  172TIP3   OH2  479   6.598   6.308   0.045
  172TIP3    H1  480   6.654   6.301   0.122
  172TIP3    H2  481   6.551   6.224   0.042
  173TIP3   OH2  482   1.804   3.008   0.548
  173TIP3    H1  483   1.732   2.964   0.594
  173TIP3    H2  484   1.784   2.996   0.455
  174TIP3   OH2  485   4.246   4.659   1.879
  174TIP3    H1  486   4.189   4.735   1.893
  174TIP3    H2  487   4.189   4.592   1.841
  175TIP3   OH2  488   0.026   0.864   2.521
  175TIP3    H1  489   0.067   0.947   2.498
  175TIP3    H2  490   0.047   0.806   2.448
  176TIP3   OH2  491   3.957   6.673   2.129
  176TIP3    H1  492   3.943   6.707   2.040
  176TIP3    H2  493   3.981   6.751   2.180
  177TIP3   OH2  494   1.433   3.677   2.336
  177TIP3    H1  495   1.454   3.756   2.386
  177TIP3    H2  496   1.338   3.677   2.328
  178TIP3   OH2  497   3.382   4.460   3.601
  178TIP3    H1  498   3.456   4.441   3.543
  178TIP3    H2  499   3.343   4.539   3.564
  179TIP3   OH2  500   0.522   4.357   1.043
  179TIP3    H1  501   0.558   4.280   1.085
  179TIP3    H2  502   0.594   4.392   0.990
  180TIP3   OH2  503   2.164   2.406   2.875
  180TIP3    H1  504   2.116   2.440   2.800
  180TIP3    H2  505   2.096   2.377   2.936
  181TIP3   OH2  506   0.684   0.034   5.163
  181TIP3    H1  507   0.756   0.059   5.221
  181TIP3    H2  508   0.721  -0.034   5.107
  182TIP3   OH2  509   5.928   6.174   2.662
  182TIP3    H1  510   5.971   6.236   2.721
  182TIP3    H2  511   5.968   6.190   2.576
  183TIP3   OH2  512   0.460   6.206   0.802
  183TIP3    H1  513   0.454   6.132   0.742
  183TIP3    H2  514   0.550   6.204   0.835
  184TIP3   OH2  515   4.911   5.066   3.053
  184TIP3    H1  516   4.921   5.098   2.963
  184TIP3    H2  517   4.827   5.020   3.053
  185TIP3   OH2  518   3.753   0.436   4.365
  185TIP3    H1  519   3.756   0.343   4.345
  185TIP3    H2  520   3.777   0.479   4.283
  186TIP3   OH2  521   4.207   0.895   2.321
  186TIP3    H1  522   4.147   0.859   2.386
  186TIP3    H2  523   4.160   0.885   2.238
  187TIP3   OH2  524   3.820   4.430   2.582
  187TIP3    H1  525   3.902   4.408   2.538
  187TIP3    H2  526   3.773   4.484   2.519
  188TIP3   OH2  527   6.392   6.702   4.891
  188TIP3    H1  528   6.420   6.614   4.868
  188TIP3    H2  529   6.302   6.709   4.858
  189TIP3   OH2  530   6.836   1.548   2.638
  189TIP3    H1  531   6.777   1.549   2.562
  189TIP3    H2  532   6.920   1.521   2.603
  190TIP3   OH2  533   3.978   3.070   0.715
  190TIP3    H1  534   3.920   3.119   0.773
  190TIP3    H2  535   4.063   3.071   0.758
  191TIP3   OH2  536   1.019   1.923   0.452
  191TIP3    H1  537   0.940   1.978   0.449
  191TIP3    H2  538   1.037   1.913   0.546
  192TIP3   OH2  539   3.053   6.233   5.730
  192TIP3    H1  540   3.142   6.199   5.724
  192TIP3    H2  541   3.065   6.328   5.737
  193TIP3   OH2  542   0.229   1.577   0.677
  193TIP3    H1  543   0.152   1.597   0.731
  193TIP3    H2  544   0.246   1.658   0.629
  194TIP3   OH2  545   3.970   3.891   2.733
  194TIP3    H1  546   4.000   3.966   2.782
  194TIP3    H2  547   4.038   3.876   2.667
  195TIP3   OH2  548   2.207   1.423   0.610
  195TIP3    H1  549   2.162   1.367   0.674
  195TIP3    H2  550   2.138   1.452   0.551
  196TIP3   OH2  551   2.856   3.042   2.251
  196TIP3    H1  552   2.799   3.091   2.193
  196TIP3    H2  553   2.804   2.966   2.278
  197TIP3   OH2  554   6.629   3.665   3.454
  197TIP3    H1  555   6.685   3.591   3.477
  197TIP3    H2  556   6.606   3.705   3.538
  198TIP3   OH2  557   1.250   5.673   3.142
  198TIP3    H1  558   1.321   5.648   3.201
  198TIP3    H2  559   1.278   5.643   3.056
  199TIP3   OH2  560   0.198   2.939   3.212
  199TIP3    H1  561   0.212   3.014   3.270
  199TIP3    H2  562   0.179   2.979   3.127
  200TIP3   OH2  563   2.485   0.341   5.841
  200TIP3    H1  564   2.410   0.369   5.789
  200TIP3    H2  565   2.486   0.400   5.916
  201TIP3   OH2  566   4.875   1.327   4.119
  201TIP3    H1  567   4.946   1.329   4.055
  201TIP3    H2  568   4.891   1.247   4.169
  202TIP3   OH2  569   5.866   4.088   5.858
  202TIP3    H1  570   5.920   4.138   5.918
  202TIP3    H2  571   5.928   4.041   5.802
  203TIP3   OH2  572   0.869   6.275   2.372
  203TIP3    H1  573   0.934   6.278   2.302
  203TIP3    H2  574   0.893   6.199   2.424
  204TIP3   OH2  575   1.778   1.000   0.058
  204TIP3    H1  576   1.692   0.982   0.096
  204TIP3    H2  577   1.816   1.068   0.114
  205TIP3   OH2  578   2.956   1.373   1.127
  205TIP3    H1  579   2.906   1.421   1.060
  205TIP3    H2  580   2.912   1.395   1.209
  206TIP3   OH2  581   5.924   3.972   3.026
  206TIP3    H1  582   6.017   3.990   3.038
  206TIP3    H2  583   5.882   4.058   3.037
  207TIP3   OH2  584   3.638   5.404   0.395
  207TIP3    H1  585   3.673   5.467   0.457
  207TIP3    H2  586   3.554   5.377   0.432
  208TIP3   OH2  587   6.153   6.414   5.121
  208TIP3    H1  588   6.154   6.372   5.035
  208TIP3    H2  589   6.173   6.506   5.103
  209TIP3   OH2  590   2.114   4.158   0.724
  209TIP3    H1  591   2.085   4.207   0.800
  209TIP3    H2  592   2.048   4.175   0.657
  210TIP3   OH2  593   0.262   4.864   0.674
  210TIP3    H1  594   0.302   4.810   0.742
  210TIP3    H2  595   0.219   4.935   0.722
  211TIP3   OH2  596   4.431   3.891   3.189
  211TIP3    H1  597   4.405   3.874   3.099
  211TIP3    H2  598   4.493   3.822   3.210
  212TIP3   OH2  599   0.636   6.616   3.697
  212TIP3    H1  600   0.590   6.608   3.780
  212TIP3    H2  601   0.671   6.705   3.696
  213TIP3   OH2  602   1.424   4.060   4.143
  213TIP3    H1  603   1.374   4.087   4.066
  213TIP3    H2  604   1.513   4.044   4.110
  214TIP3   OH2  605   1.754   1.387   1.637
  214TIP3    H1  606   1.796   1.345   1.561
  214TIP3    H2  607   1.805   1.467   1.650
  215TIP3   OH2  608   2.170   2.030   3.587
  215TIP3    H1  609   2.241   2.010   3.526
  215TIP3    H2  610   2.112   2.088   3.538
  216TIP3   OH2  611   4.251   5.994   1.801
  216TIP3    H1  612   4.262   6.067   1.740
  216TIP3    H2  613   4.184   5.938   1.760
  217TIP3   OH2  614   5.036   5.792   3.893
  217TIP3    H1  615   5.013   5.719   3.951
  217TIP3    H2  616   5.103   5.757   3.835
  218TIP3   OH2  617   2.455   2.501   0.952
  218TIP3    H1  618   2.455   2.591   0.920
  218TIP3    H2  619   2.365   2.470   0.938
  219TIP3   OH2  620   4.324   0.785   0.939
  219TIP3    H1  621   4.313   0.737   1.021
  219TIP3    H2  622   4.321   0.717   0.871
  220TIP3   OH2  623   5.432   5.386   1.863
  220TIP3    H1  624   5.364   5.366   1.799
  220TIP3    H2  625   5.384   5.396   1.946
  221TIP3   OH2  626   4.712   3.029   0.477
  221TIP3    H1  627   4.637   2.972   0.456
  221TIP3    H2  628   4.724   3.081   0.397
  222TIP3   OH2  629   1.705   2.002   2.548
  222TIP3    H1  630   1.775   1.982   2.610
  222TIP3    H2  631   1.628   1.957   2.583
  223TIP3   OH2  632   2.320   4.137   5.161
  223TIP3    H1  633   2.318   4.178   5.248
  223TIP3    H2  634   2.248   4.180   5.113
  224TIP3   OH2  635   0.412   3.125   4.978
  224TIP3    H1  636   0.404   3.029   4.977
  224TIP3    H2  637   0.330   3.155   5.017
  225TIP3   OH2  638   4.617   1.094   2.619
  225TIP3    H1  639   4.569   1.047   2.550
  225TIP3    H2  640   4.619   1.033   2.692
  226TIP3   OH2  641   3.904   0.890   1.050
  226TIP3    H1  642   3.837   0.958   1.044
  226TIP3    H2  643   3.987   0.937   1.052
  227TIP3   OH2  644   3.092   0.911   1.025
  227TIP3    H1  645   3.064   0.946   0.940
  227TIP3    H2  646   3.161   0.849   1.003
  228TIP3   OH2  647   6.409   5.938   3.709
  228TIP3    H1  648   6.401   5.921   3.615
  228TIP3    H2  649   6.501   5.919   3.728
  229TIP3   OH2  650   1.634   5.122   0.373
  229TIP3    H1  651   1.581   5.135   0.451
  229TIP3    H2  652   1.655   5.028   0.373
  230TIP3   OH2  653   4.569   2.356   4.496
  230TIP3    H1  654   4.509   2.339   4.423
  230TIP3    H2  655   4.536   2.434   4.538
  231TIP3   OH2  656   6.574   4.253   1.444
  231TIP3    H1  657   6.596   4.160   1.456
  231TIP3    H2  658   6.508   4.270   1.511
  232TIP3   OH2  659   6.821   1.554   2.910
  232TIP3    H1  660   6.823   1.565   2.815
  232TIP3    H2  661   6.756   1.485   2.925
  233TIP3   OH2  662   4.476   1.829   3.958
  233TIP3    H1  663   4.484   1.776   4.037
  233TIP3    H2  664   4.402   1.887   3.974
  234TIP3   OH2  665   1.885   4.523   1.403
  234TIP3    H1  666   1.826   4.598   1.413
  234TIP3    H2  667   1.854   4.460   1.467
  235TIP3   OH2  668   3.677   5.479   4.578
  235TIP3    H1  669   3.766   5.491   4.544
  235TIP3    H2  670   3.620   5.495   4.503
  236TIP3   OH2  671   2.847   3.505   1.783
  236TIP3    H1  672   2.762   3.497   1.827
  236TIP3    H2  673   2.825   3.522   1.692
  237TIP3   OH2  674   4.578   2.857   3.218
  237TIP3    H1  675   4.646   2.808   3.172
  237TIP3    H2  676   4.497   2.811   3.196
  238TIP3   OH2  677   3.329   5.533   0.242
  238TIP3    H1  678   3.255   5.487   0.283
  238TIP3    H2  679   3.288   5.602   0.190
  239TIP3   OH2  680   5.056   6.002   4.087
  239TIP3    H1  681   5.038   5.952   4.007
  239TIP3    H2  682   5.100   6.081   4.056
  240TIP3   OH2  683   4.049   3.163   3.309
  240TIP3    H1  684   4.126   3.149   3.255
  240TIP3    H2  685   3.990   3.090   3.288
  241TIP3   OH2  686   0.026   6.520   2.725
  241TIP3    H1  687   0.112   6.545   2.690
  241TIP3    H2  688  -0.028   6.599   2.714
  242TIP3   OH2  689   1.567   6.223   5.865
  242TIP3    H1  690   1.630   6.169   5.913
  242TIP3    H2  691   1.492   6.230   5.923
  243TIP3   OH2  692   4.827   0.668   2.593
  243TIP3    H1  693   4.767   0.681   2.520
  243TIP3    H2  694   4.848   0.574   2.590
  244TIP3   OH2  695   0.617   0.123   0.870
  244TIP3    H1  696   0.670   0.172   0.808
  244TIP3    H2  697   0.679   0.070   0.919
  245TIP3   OH2  698   0.917   4.032   3.622
  245TIP3    H1  699   0.915   3.967   3.551
  245TIP3    H2  700   0.992   4.005   3.675
  246TIP3   OH2  701   6.367   6.591   1.234
  246TIP3    H1  702   6.427   6.636   1.294
  246TIP3    H2  703   6.418   6.581   1.153
  247TIP3   OH2  704   2.650   2.675   4.420
  247TIP3    H1  705   2.614   2.589   4.445
  247TIP3    H2  706   2.697   2.704   4.498
  248TIP3   OH2  707   5.668   6.040   2.294
  248TIP3    H1  708   5.611   6.110   2.263
  248TIP3    H2  709   5.622   5.959   2.271
  249TIP3   OH2  710   2.992   5.052   3.455
  249TIP3    H1  711   3.042   5.028   3.533
  249TIP3    H2  712   2.995   4.973   3.400
  250TIP3   OH2  713   3.246   2.385   4.720
  250TIP3    H1  714   3.305   2.309   4.718
  250TIP3    H2  715   3.225   2.397   4.812
  251TIP3   OH2  716   1.236   1.433   3.107
  251TIP3    H1  717   1.211   1.464   3.194
  251TIP3    H2  718   1.305   1.494   3.079
  252TIP3   OH2  719   2.411   4.757   5.101
  252TIP3    H1  720   2.488   4.744   5.156
  252TIP3    H2  721   2.446   4.780   5.015
  253TIP3   OH2  722   3.877   6.112   1.728
  253TIP3    H1  723   3.932   6.079   1.657
  253TIP3    H2  724   3.835   6.033   1.764
  254TIP3   OH2  725   3.670   3.517   4.118
  254TIP3    H1  726   3.630   3.442   4.162
  254TIP3    H2  727   3.744   3.542   4.174
  255TIP3   OH2  728   6.642   4.455   0.156
  255TIP3    H1  729   6.682   4.541   0.144
  255TIP3    H2  730   6.573   4.470   0.221
  256TIP3   OH2  731   6.353   6.637   1.920
  256TIP3    H1  732   6.368   6.623   2.013
  256TIP3    H2  733   6.259   6.646   1.911
  257TIP3   OH2  734   2.157   5.678   0.747
  257TIP3    H1  735   2.246   5.650   0.727
  257TIP3    H2  736   2.103   5.627   0.686
  258TIP3   OH2  737   1.152   0.110   3.530
  258TIP3    H1  738   1.227   0.060   3.564
  258TIP3    H2  739   1.113   0.054   3.463
  259TIP3   OH2  740   4.130   1.429   4.672
  259TIP3    H1  741   4.121   1.488   4.597
  259TIP3    H2  742   4.088   1.347   4.643
  260TIP3   OH2  743   1.423   6.216   0.326
  260TIP3    H1  744   1.448   6.125   0.345
  260TIP3    H2  745   1.502   6.255   0.289
  261TIP3   OH2  746   4.993   1.485   3.718
  261TIP3    H1  747   4.971   1.414   3.658
  261TIP3    H2  748   4.937   1.557   3.691
  262TIP3   OH2  749   3.232   0.691   1.845
  262TIP3    H1  750   3.140   0.696   1.872
  262TIP3    H2  751   3.244   0.767   1.788
  263TIP3   OH2  752   0.888   0.834   4.881
  263TIP3    H1  753   0.876   0.740   4.875
  263TIP3    H2  754   0.809   0.871   4.843
  264TIP3   OH2  755   4.029   1.121   2.789
  264TIP3    H1  756   4.098   1.055   2.782
  264TIP3    H2  757   3.966   1.083   2.850
  265TIP3   OH2  758   0.562   1.936   1.599
  265TIP3    H1  759   0.517   1.857   1.567
  265TIP3    H2  760   0.513   2.009   1.562
  266TIP3   OH2  761   2.320   1.108   1.782
  266TIP3    H1  762   2.388   1.142   1.724
  266TIP3    H2  763   2.350   1.130   1.870
  267TIP3   OH2  764   5.012   6.297   0.655
  267TIP3    H1  765   5.059   6.277   0.574
  267TIP3    H2  766   4.998   6.391   0.652
  268TIP3   OH2  767   7.018   2.697   3.573
  268TIP3    H1  768   7.026   2.627   3.638
  268TIP3    H2  769   6.947   2.668   3.515
  269TIP3   OH2  770   0.856   5.476   0.898
  269TIP3    H1  771   0.949   5.468   0.878
  269TIP3    H2  772   0.836   5.401   0.954
  270TIP3   OH2  773   5.225   1.873   1.711
  270TIP3    H1  774   5.135   1.849   1.691
  270TIP3    H2  775   5.224   1.968   1.723
  271TIP3   OH2  776   1.738   4.236   4.226
  271TIP3    H1  777   1.790   4.298   4.277
  271TIP3    H2  778   1.653   4.235   4.269
  272TIP3   OH2  779   6.930   5.582   2.263
  272TIP3    H1  780   6.841   5.605   2.236
  272TIP3    H2  781   6.985   5.652   2.228
  273TIP3   OH2  782   4.555   4.026   1.576
  273TIP3    H1  783   4.491   4.091   1.603
  273TIP3    H2  784   4.520   3.942   1.606
  274TIP3   OH2  785   4.306   4.584   1.099
  274TIP3    H1  786   4.231   4.573   1.039
  274TIP3    H2  787   4.353   4.659   1.063
  275TIP3   OH2  788   0.546   3.502   3.031
  275TIP3    H1  789   0.525   3.542   2.947
  275TIP3    H2  790   0.641   3.498   3.033
  276TIP3   OH2  791   4.704   3.658   3.794
  276TIP3    H1  792   4.618   3.669   3.835
  276TIP3    H2  793   4.765   3.661   3.868
  277TIP3   OH2  794   2.637   2.355   1.586
  277TIP3    H1  795   2.653   2.271   1.542
  277TIP3    H2  796   2.641   2.420   1.516
  278TIP3   OH2  797   5.732   5.086   2.035
  278TIP3    H1  798   5.735   5.165   2.089
  278TIP3    H2  799   5.758   5.015   2.094
  279TIP3   OH2  800   2.812   2.408   4.610
  279TIP3    H1  801   2.732   2.414   4.558
  279TIP3    H2  802   2.847   2.497   4.610
  280TIP3   OH2  803   4.159   3.959   3.147
  280TIP3    H1  804   4.142   3.883   3.202
  280TIP3    H2  805   4.223   3.929   3.083
  281TIP3   OH2  806   1.303   0.390   3.209
  281TIP3    H1  807   1.394   0.418   3.212
  281TIP3    H2  808   1.258   0.458   3.159
  282TIP3   OH2  809   0.852   0.547   4.887
  282TIP3    H1  810   0.765   0.508   4.896
  282TIP3    H2  811   0.912   0.479   4.917
  283TIP3   OH2  812   2.480   1.090   3.630
  283TIP3    H1  813   2.502   1.021   3.568
  283TIP3    H2  814   2.562   1.108   3.676
  284TIP3   OH2  815   4.739   6.365   0.494
  284TIP3    H1  816   4.787   6.440   0.458
  284TIP3    H2  817   4.780   6.349   0.578
  285TIP3   OH2  818   6.044   2.020   3.814
  285TIP3    H1  819   6.131   2.048   3.839
  285TIP3    H2  820   6.002   1.993   3.896
  286TIP3   OH2  821   6.389   6.317   3.103
  286TIP3    H1  822   6.387   6.271   3.019
  286TIP3    H2  823   6.460   6.380   3.094
  287TIP3   OH2  824   6.684   0.838   2.903
  287TIP3    H1  825   6.681   0.756   2.853
  287TIP3    H2  826   6.639   0.901   2.846
  288TIP3   OH2  827   4.227   3.173   2.875
  288TIP3    H1  828   4.315   3.205   2.852
  288TIP3    H2  829   4.240   3.120   2.953
  289TIP3   OH2  830   5.129   4.040   3.454
  289TIP3    H1  831   5.211   3.996   3.475
  289TIP3    H2  832   5.063   3.991   3.504
  290TIP3   OH2  833   6.303   1.442   0.532
  290TIP3    H1  834   6.371   1.508   0.526
  290TIP3    H2  835   6.261   1.443   0.446
  291TIP3   OH2  836   5.567   2.508   3.571
  291TIP3    H1  837   5.585   2.594   3.608
  291TIP3    H2  838   5.490   2.477   3.619
  292TIP3   OH2  839   4.857   1.443   1.470
  292TIP3    H1  840   4.932   1.485   1.514
  292TIP3    H2  841   4.792   1.430   1.539
  293TIP3   OH2  842   3.982   2.960   1.859
  293TIP3    H1  843   3.935   3.038   1.827
  293TIP3    H2  844   3.964   2.959   1.953
  294TIP3   OH2  845   6.653   6.693   1.416
  294TIP3    H1  846   6.646   6.786   1.398
  294TIP3    H2  847   6.701   6.657   1.342
  295TIP3   OH2  848   5.365   3.207   1.550
  295TIP3    H1  849   5.425   3.228   1.479
  295TIP3    H2  850   5.309   3.284   1.557
  296TIP3   OH2  851   7.066   4.174   1.621
  296TIP3    H1  852   7.041   4.207   1.535
  296TIP3    H2  853   7.011   4.096   1.633
  297TIP3   OH2  854   2.967   0.166   5.792
  297TIP3    H1  855   2.940   0.096   5.852
  297TIP3    H2  856   2.888   0.184   5.740
  298TIP3   OH2  857   1.322   4.995   0.938
  298TIP3    H1  858   1.320   5.080   0.893
  298TIP3    H2  859   1.293   4.933   0.871
  299TIP3   OH2  860   4.737   4.560   2.681
  299TIP3    H1  861   4.710   4.635   2.734
  299TIP3    H2  862   4.703   4.579   2.593
  300TIP3   OH2  863   2.676   6.677   5.071
  300TIP3    H1  864   2.720   6.615   5.012
  300TIP3    H2  865   2.592   6.635   5.090
  301TIP3   OH2  866   4.138   4.197   5.601
  301TIP3    H1  867   4.045   4.177   5.591
  301TIP3    H2  868   4.169   4.209   5.512
  302TIP3   OH2  869   2.604   5.899   2.607
  302TIP3    H1  870   2.605   5.888   2.512
  302TIP3    H2  871   2.511   5.894   2.631
  303TIP3   OH2  872   1.292   2.270   4.747
  303TIP3    H1  873   1.369   2.310   4.786
  303TIP3    H2  874   1.324   2.226   4.668
  304TIP3   OH2  875   6.929   3.306   5.262
  304TIP3    H1  876   6.998   3.296   5.327
  304TIP3    H2  877   6.848   3.299   5.313
  305TIP3   OH2  878   4.888   0.162   5.593
  305TIP3    H1  879   4.980   0.185   5.600
  305TIP3    H2  880   4.888   0.072   5.561
  306TIP3   OH2  881   0.350   4.963   0.961
  306TIP3    H1  882   0.370   4.888   1.017
  306TIP3    H2  883   0.431   5.015   0.961
  307TIP3   OH2  884   4.795   2.487   4.193
  307TIP3    H1  885   4.771   2.513   4.104
  307TIP3    H2  886   4.861   2.551   4.220
  308TIP3   OH2  887   2.030   5.953   0.602
  308TIP3    H1  888   2.009   5.979   0.513
  308TIP3    H2  889   2.123   5.930   0.600
  309TIP3   OH2  890   5.301   3.508   1.191
  309TIP3    H1  891   5.337   3.469   1.271
  309TIP3    H2  892   5.228   3.561   1.221
  310TIP3   OH2  893   0.714   6.310   1.951
  310TIP3    H1  894   0.646   6.344   2.009
  310TIP3    H2  895   0.670   6.241   1.901
  311TIP3   OH2  896   3.232   5.940   4.269
  311TIP3    H1  897   3.309   5.994   4.254
  311TIP3    H2  898   3.235   5.918   4.362
  312TIP3   OH2  899   0.499   0.172   1.914
  312TIP3    H1  900   0.463   0.115   1.846
  312TIP3    H2  901   0.464   0.137   1.996
  313TIP3   OH2  902   0.057   3.383   4.879
  313TIP3    H1  903   0.103   3.379   4.795
  313TIP3    H2  904   0.122   3.415   4.941
  314TIP3   OH2  905   0.304   1.845   4.963
  314TIP3    H1  906   0.286   1.857   5.056
  314TIP3    H2  907   0.225   1.804   4.929
  315TIP3   OH2  908   0.444   4.400   4.677
  315TIP3    H1  909   0.382   4.442   4.736
  315TIP3    H2  910   0.530   4.418   4.715
  316TIP3   OH2  911   4.061   3.586   1.701
  316TIP3    H1  912   4.038   3.622   1.616
  316TIP3    H2  913   4.146   3.543   1.688
  317TIP3   OH2  914   3.624   3.411   0.757
  317TIP3    H1  915   3.610   3.480   0.692
  317TIP3    H2  916   3.699   3.441   0.809
  318TIP3   OH2  917   3.332   0.668   4.780
  318TIP3    H1  918   3.238   0.654   4.795
  318TIP3    H2  919   3.362   0.588   4.737
  319TIP3   OH2  920   4.760   5.589   0.180
  319TIP3    H1  921   4.675   5.555   0.150
  319TIP3    H2  922   4.757   5.682   0.158
  320TIP3   OH2  923   6.100   2.271   0.131
  320TIP3    H1  924   6.047   2.198   0.164
  320TIP3    H2  925   6.140   2.309   0.209
  321TIP3   OH2  926   4.454   3.426   1.415
  321TIP3    H1  927   4.387   3.369   1.379
  321TIP3    H2  928   4.462   3.399   1.507
  322TIP3   OH2  929   7.029   3.948   4.921
  322TIP3    H1  930   7.015   4.028   4.972
  322TIP3    H2  931   7.078   3.891   4.980
  323TIP3   OH2  932   6.953   4.276   5.662
  323TIP3    H1  933   7.004   4.345   5.705
  323TIP3    H2  934   6.883   4.255   5.724
  324TIP3   OH2  935   5.968   5.571   5.572
  324TIP3    H1  936   5.984   5.564   5.478
  324TIP3    H2  937   5.909   5.499   5.592
  325TIP3   OH2  938   3.679   4.505   1.060
  325TIP3    H1  939   3.728   4.533   1.137
  325TIP3    H2  940   3.669   4.411   1.070
  326TIP3   OH2  941   4.425   1.053   3.535
  326TIP3    H1  942   4.486   0.994   3.491
  326TIP3    H2  943   4.358   0.996   3.572
  327TIP3   OH2  944   2.706   5.722   1.226
  327TIP3    H1  945   2.710   5.628   1.211
  327TIP3    H2  946   2.742   5.734   1.314
  328TIP3   OH2  947   2.939   2.592   5.197
  328TIP3    H1  948   3.024   2.592   5.152
  328TIP3    H2  949   2.960   2.621   5.286
  329TIP3   OH2  950   3.605   3.360   1.403
  329TIP3    H1  951   3.690   3.328   1.436
  329TIP3    H2  952   3.556   3.281   1.381
  330TIP3   OH2  953   3.472   1.165   5.202
  330TIP3    H1  954   3.492   1.245   5.250
  330TIP3    H2  955   3.376   1.165   5.195
  331TIP3   OH2  956   3.083   1.196   4.891
  331TIP3    H1  957   3.017   1.128   4.904
  331TIP3    H2  958   3.159   1.149   4.856
  332TIP3   OH2  959   1.907   1.661   1.109
  332TIP3    H1  960   1.858   1.697   1.035
  332TIP3    H2  961   1.973   1.605   1.069
  333TIP3   OH2  962   1.736   0.932   0.389
  333TIP3    H1  963   1.765   0.856   0.339
  333TIP3    H2  964   1.787   0.928   0.470
  334TIP3   OH2  965   7.028   4.909   2.191
  334TIP3    H1  966   7.023   4.882   2.100
  334TIP3    H2  967   7.078   4.840   2.234
  335TIP3   OH2  968   4.072   4.190   4.881
  335TIP3    H1  969   4.089   4.268   4.828
  335TIP3    H2  970   4.084   4.117   4.821
  336TIP3   OH2  971   5.416   6.196   0.316
  336TIP3    H1  972   5.423   6.185   0.221
  336TIP3    H2  973   5.355   6.269   0.327
  337TIP3   OH2  974   1.564   0.770   3.845
  337TIP3    H1  975   1.637   0.798   3.790
  337TIP3    H2  976   1.573   0.822   3.925
  338TIP3   OH2  977   6.991   4.140   2.634
  338TIP3    H1  978   6.997   4.222   2.585
  338TIP3    H2  979   7.053   4.150   2.706
  339TIP3   OH2  980   3.536   0.210   1.520
  339TIP3    H1  981   3.600   0.282   1.522
  339TIP3    H2  982   3.585   0.137   1.481
  340TIP3   OH2  983   0.253   0.243   1.378
  340TIP3    H1  984   0.346   0.254   1.395
  340TIP3    H2  985   0.241   0.272   1.288
  341TIP3   OH2  986   0.184   3.635   3.107
  341TIP3    H1  987   0.150   3.642   3.196
  341TIP3    H2  988   0.107   3.637   3.051
  342TIP3   OH2  989   4.179   2.137   4.584
  342TIP3    H1  990   4.086   2.116   4.582
  342TIP3    H2  991   4.207   2.136   4.493
  343TIP3   OH2  992   0.753   0.497   1.363
  343TIP3    H1  993   0.666   0.535   1.359
  343TIP3    H2  994   0.761   0.465   1.453
  344TIP3   OH2  995   1.420   1.459   2.397
  344TIP3    H1  996   1.379   1.534   2.439
  344TIP3    H2  997   1.480   1.497   2.332
  345TIP3   OH2  998   5.656   0.611   4.173
  345TIP3    H1  999   5.579   0.594   4.227
  345TIP3    H2 1000   5.678   0.526   4.135
  346TIP3   OH2 1001   0.752   3.098   2.560
  346TIP3    H1 1002   0.764   3.185   2.599
  346TIP3    H2 1003   0.780   3.037   2.629
  347TIP3   OH2 1004   3.480   1.049   2.972
  347TIP3    H1 1005   3.464   1.142   2.988
  347TIP3    H2 1006   3.409   1.004   3.017
  348TIP3   OH2 1007   6.761   3.869   3.332
  348TIP3    H1 1008   6.689   3.823   3.374
  348TIP3    H2 1009   6.729   3.891   3.245
  349TIP3   OH2 1010   6.917   3.481   5.837
  349TIP3    H1 1011   6.918   3.401   5.785
  349TIP3    H2 1012   7.009   3.495   5.862
  350TIP3   OH2 1013   5.952   5.142   0.223
  350TIP3    H1 1014   5.940   5.223   0.173
  350TIP3    H2 1015   5.920   5.162   0.310
  351TIP3   OH2 1016   5.706   5.028   5.530
  351TIP3    H1 1017   5.695   4.955   5.591
  351TIP3    H2 1018   5.725   5.103   5.585
  352TIP3   OH2 1019   2.667   5.302   0.356
  352TIP3    H1 1020   2.594   5.303   0.294
  352TIP3    H2 1021   2.626   5.290   0.442
  353TIP3   OH2 1022   6.927   2.258   0.950
  353TIP3    H1 1023   6.852   2.278   1.005
  353TIP3    H2 1024   6.992   2.325   0.972
  354TIP3   OH2 1025   0.753   5.388   0.039
  354TIP3    H1 1026   0.674   5.442   0.038
  354TIP3    H2 1027   0.825   5.451   0.034
  355TIP3   OH2 1028   1.921   3.352   4.635
  355TIP3    H1 1029   1.875   3.334   4.717
  355TIP3    H2 1030   1.884   3.289   4.573
  356TIP3   OH2 1031   1.948   0.959   3.620
  356TIP3    H1 1032   1.941   1.043   3.666
  356TIP3    H2 1033   2.024   0.970   3.563
  357TIP3   OH2 1034   6.112   6.344   4.851
  357TIP3    H1 1035   6.072   6.294   4.780
  357TIP3    H2 1036   6.201   6.364   4.820
  358TIP3   OH2 1037   0.731   6.198   0.847
  358TIP3    H1 1038   0.761   6.240   0.928
  358TIP3    H2 1039   0.761   6.107   0.856
  359TIP3   OH2 1040   1.512   5.127   0.100
  359TIP3    H1 1041   1.428   5.166   0.124
  359TIP3    H2 1042   1.566   5.135   0.179
  360TIP3   OH2 1043   1.798   0.462   2.436
  360TIP3    H1 1044   1.756   0.399   2.378
  360TIP3    H2 1045   1.890   0.458   2.413
  361TIP3   OH2 1046   2.676   5.586   0.445
  361TIP3    H1 1047   2.592   5.616   0.409
  361TIP3    H2 1048   2.684   5.496   0.414
  362TIP3   OH2 1049   3.893   0.136   0.167
  362TIP3    H1 1050   3.904   0.096   0.081
  362TIP3    H2 1051   3.800   0.159   0.170
  363TIP3   OH2 1052   1.528   4.187   5.223
  363TIP3    H1 1053   1.519   4.279   5.195
  363TIP3    H2 1054   1.616   4.182   5.259
  364TIP3   OH2 1055   0.413   3.460   4.037
  364TIP3    H1 1056   0.498   3.430   4.005
  364TIP3    H2 1057   0.395   3.540   3.987
  365TIP3   OH2 1058   6.271   4.621   3.102
  365TIP3    H1 1059   6.228   4.558   3.160
  365TIP3    H2 1060   6.362   4.591   3.098
  366TIP3   OH2 1061   3.403   1.713   2.483
  366TIP3    H1 1062   3.327   1.701   2.540
  366TIP3    H2 1063   3.396   1.804   2.453
  367TIP3   OH2 1064   3.109   4.544   2.602
  367TIP3    H1 1065   3.187   4.530   2.656
  367TIP3    H2 1066   3.091   4.458   2.564
  368TIP3   OH2 1067   6.536   5.767   5.156
  368TIP3    H1 1068   6.620   5.734   5.189
  368TIP3    H2 1069   6.542   5.756   5.061
  369TIP3   OH2 1070   0.438   5.766   4.622
  369TIP3    H1 1071   0.445   5.861   4.610
  369TIP3    H2 1072   0.348   5.753   4.654
  370TIP3   OH2 1073   7.128   3.242   1.265
  370TIP3    H1 1074   7.068   3.168   1.270
  370TIP3    H2 1075   7.116   3.277   1.176
  371TIP3   OH2 1076   3.598   3.872   2.244
  371TIP3    H1 1077   3.633   3.954   2.279
  371TIP3    H2 1078   3.514   3.860   2.289
  372TIP3   OH2 1079   1.318   4.514   1.307
  372TIP3    H1 1080   1.241   4.531   1.361
  372TIP3    H2 1081   1.286   4.518   1.217
  373TIP3   OH2 1082   1.058   5.283   4.852
  373TIP3    H1 1083   1.077   5.276   4.945
  373TIP3    H2 1084   0.987   5.220   4.837
  374TIP3   OH2 1085   1.999   3.550   3.888
  374TIP3    H1 1086   1.964   3.629   3.929
  374TIP3    H2 1087   1.932   3.484   3.901
  375TIP3   OH2 1088   4.054   2.426   1.194
  375TIP3    H1 1089   4.150   2.433   1.189
  375TIP3    H2 1090   4.026   2.420   1.103
  376TIP3   OH2 1091   6.442   5.020   4.317
  376TIP3    H1 1092   6.398   4.979   4.243
  376TIP3    H2 1093   6.461   4.948   4.377
  377TIP3   OH2 1094   1.111   2.154   5.923
  377TIP3    H1 1095   1.151   2.067   5.930
  377TIP3    H2 1096   1.042   2.154   5.989
  378TIP3   OH2 1097   6.218   3.176   2.797
  378TIP3    H1 1098   6.172   3.108   2.847
  378TIP3    H2 1099   6.186   3.258   2.834
  379TIP3   OH2 1100   6.909   4.432   5.410
  379TIP3    H1 1101   6.855   4.492   5.461
  379TIP3    H2 1102   6.936   4.365   5.473
  380TIP3   OH2 1103   1.958   2.511   5.267
  380TIP3    H1 1104   1.998   2.530   5.181
  380TIP3    H2 1105   2.003   2.570   5.327
  381TIP3   OH2 1106   3.864   1.546   4.809
  381TIP3    H1 1107   3.946   1.572   4.851
  381TIP3    H2 1108   3.887   1.534   4.716
  382TIP3   OH2 1109   2.802   0.295   2.032
  382TIP3    H1 1110   2.895   0.273   2.032
  382TIP3    H2 1111   2.758   0.215   2.004
  383TIP3   OH2 1112   1.617   4.804   5.106
  383TIP3    H1 1113   1.618   4.783   5.013
  383TIP3    H2 1114   1.535   4.851   5.119
  384TIP3   OH2 1115   5.167   5.390   0.486
  384TIP3    H1 1116   5.085   5.413   0.442
  384TIP3    H2 1117   5.200   5.473   0.520
  385TIP3   OH2 1118   4.958   1.103   4.601
  385TIP3    H1 1119   4.984   1.189   4.569
  385TIP3    H2 1120   4.870   1.090   4.566
  386TIP3   OH2 1121   2.996   3.120   5.606
  386TIP3    H1 1122   3.060   3.051   5.626
  386TIP3    H2 1123   2.921   3.074   5.569
  387TIP3   OH2 1124   0.262   3.651   5.585
  387TIP3    H1 1125   0.311   3.593   5.643
  387TIP3    H2 1126   0.328   3.687   5.526
  388TIP3   OH2 1127   0.529   4.047   3.242
  388TIP3    H1 1128   0.558   3.990   3.170
  388TIP3    H2 1129   0.608   4.063   3.293
  389TIP3   OH2 1130   0.102   1.257   2.470
  389TIP3    H1 1131   0.024   1.288   2.516
  389TIP3    H2 1132   0.071   1.181   2.421
  390TIP3   OH2 1133   0.251   1.851   3.247
  390TIP3    H1 1134   0.198   1.909   3.192
  390TIP3    H2 1135   0.276   1.906   3.322
  391TIP3   OH2 1136   1.473   1.217   0.341
  391TIP3    H1 1137   1.441   1.180   0.259
  391TIP3    H2 1138   1.562   1.184   0.349
  392TIP3   OH2 1139   1.716   4.416   5.062
  392TIP3    H1 1140   1.761   4.440   5.144
  392TIP3    H2 1141   1.623   4.429   5.080
  393TIP3   OH2 1142   2.901   2.154   2.553
  393TIP3    H1 1143   2.952   2.102   2.491
  393TIP3    H2 1144   2.899   2.242   2.515
  394TIP3   OH2 1145   5.604   3.483   3.979
  394TIP3    H1 1146   5.540   3.538   4.023
  394TIP3    H2 1147   5.561   3.398   3.969
  395TIP3   OH2 1148   1.608   6.472   3.406
  395TIP3    H1 1149   1.590   6.417   3.483
  395TIP3    H2 1150   1.527   6.520   3.392
  396TIP3   OH2 1151   1.682   6.566   4.593
  396TIP3    H1 1152   1.744   6.629   4.555
  396TIP3    H2 1153   1.596   6.595   4.560
  397TIP3   OH2 1154   2.874   4.989   2.621
  397TIP3    H1 1155   2.814   4.923   2.656
  397TIP3    H2 1156   2.954   4.941   2.602
  398TIP3   OH2 1157   0.085   1.600   3.090
  398TIP3    H1 1158   0.165   1.646   3.068
  398TIP3    H2 1159   0.110   1.507   3.092
  399TIP3   OH2 1160   6.975   1.386   0.223
  399TIP3    H1 1161   6.915   1.403   0.150
  399TIP3    H2 1162   7.042   1.454   0.215
  400TIP3   OH2 1163   4.775   5.264   4.241
  400TIP3    H1 1164   4.864   5.264   4.206
  400TIP3    H2 1165   4.720   5.281   4.165
  401TIP3   OH2 1166   4.605   5.872   0.613
  401TIP3    H1 1167   4.572   5.882   0.702
  401TIP3    H2 1168   4.564   5.944   0.565
  402TIP3   OH2 1169   2.055   0.324   1.662
  402TIP3    H1 1170   2.035   0.349   1.753
  402TIP3    H2 1171   2.078   0.231   1.668
  403TIP3   OH2 1172   4.587   5.169   5.831
  403TIP3    H1 1173   4.564   5.260   5.814
  403TIP3    H2 1174   4.683   5.168   5.829
  404TIP3   OH2 1175   6.792   5.759   3.788
  404TIP3    H1 1176   6.868   5.778   3.844
  404TIP3    H2 1177   6.724   5.819   3.819
  405TIP3   OH2 1178   6.211   3.291   3.290
  405TIP3    H1 1179   6.121   3.324   3.290
  405TIP3    H2 1180   6.202   3.198   3.308
  406TIP3   OH2 1181   3.340   6.175   5.625
  406TIP3    H1 1182   3.344   6.124   5.705
  406TIP3    H2 1183   3.431   6.181   5.595
  407TIP3   OH2 1184   6.056   5.706   1.497
  407TIP3    H1 1185   5.971   5.687   1.538
  407TIP3    H2 1186   6.121   5.672   1.559
  408TIP3   OH2 1187   6.188   3.042   3.400
  408TIP3    H1 1188   6.183   2.952   3.369
  408TIP3    H2 1189   6.128   3.046   3.474
  409TIP3   OH2 1190   2.508   3.674   3.311
  409TIP3    H1 1191   2.434   3.650   3.256
  409TIP3    H2 1192   2.563   3.730   3.255
  410TIP3   OH2 1193   2.250   3.989   1.988
  410TIP3    H1 1194   2.166   3.946   2.000
  410TIP3    H2 1195   2.266   3.985   1.893
  411TIP3   OH2 1196   4.871   2.780   2.756
  411TIP3    H1 1197   4.833   2.699   2.790
  411TIP3    H2 1198   4.920   2.753   2.679
  412TIP3   OH2 1199   0.179   4.596   3.850
  412TIP3    H1 1200   0.114   4.556   3.793
  412TIP3    H2 1201   0.165   4.690   3.840
  413TIP3   OH2 1202   4.241   3.886   1.643
  413TIP3    H1 1203   4.187   3.872   1.721
  413TIP3    H2 1204   4.251   3.981   1.637
  414TIP3   OH2 1205   5.246   3.938   4.561
  414TIP3    H1 1206   5.230   3.921   4.654
  414TIP3    H2 1207   5.340   3.925   4.550
  415TIP3   OH2 1208   5.189   1.502   2.946
  415TIP3    H1 1209   5.255   1.458   2.999
  415TIP3    H2 1210   5.170   1.583   2.992
  416TIP3   OH2 1211   5.273   3.273   4.685
  416TIP3    H1 1212   5.345   3.337   4.684
  416TIP3    H2 1213   5.256   3.256   4.592
  417TIP3   OH2 1214   0.154   5.168   0.880
  417TIP3    H1 1215   0.212   5.133   0.947
  417TIP3    H2 1216   0.072   5.121   0.892
  418TIP3   OH2 1217   7.180   5.738   4.904
  418TIP3    H1 1218   7.234   5.667   4.938
  418TIP3    H2 1219   7.105   5.742   4.965
  419TIP3   OH2 1220   3.645   0.273   2.319
  419TIP3    H1 1221   3.551   0.258   2.317
  419TIP3    H2 1222   3.683   0.185   2.325
  420TIP3   OH2 1223   6.809   6.689   4.679
  420TIP3    H1 1224   6.736   6.734   4.720
  420TIP3    H2 1225   6.826   6.614   4.737
  421TIP3   OH2 1226   5.490   4.018   3.116
  421TIP3    H1 1227   5.572   3.999   3.161
  421TIP3    H2 1228   5.516   4.057   3.033
  422TIP3   OH2 1229   0.181   2.888   5.131
  422TIP3    H1 1230   0.266   2.857   5.102
  422TIP3    H2 1231   0.122   2.815   5.117
  423TIP3   OH2 1232   5.470   0.495   0.637
  423TIP3    H1 1233   5.449   0.495   0.731
  423TIP3    H2 1234   5.540   0.431   0.629
  424TIP3   OH2 1235   4.499   5.279   1.310
  424TIP3    H1 1236   4.415   5.292   1.353
  424TIP3    H2 1237   4.490   5.195   1.264
  425TIP3   OH2 1238   0.978   4.661   1.946
  425TIP3    H1 1239   0.938   4.596   1.887
  425TIP3    H2 1240   1.032   4.608   2.006
  426TIP3   OH2 1241   1.458   6.337   3.879
  426TIP3    H1 1242   1.505   6.361   3.798
  426TIP3    H2 1243   1.469   6.413   3.936
  427TIP3   OH2 1244   3.497   0.597   1.758
  427TIP3    H1 1245   3.411   0.584   1.798
  427TIP3    H2 1246   3.482   0.661   1.689
  428TIP3   OH2 1247   6.920   4.555   2.406
  428TIP3    H1 1248   6.875   4.637   2.426
  428TIP3    H2 1249   6.978   4.541   2.481
  429TIP3   OH2 1250   1.705   1.428   4.898
  429TIP3    H1 1251   1.649   1.353   4.883
  429TIP3    H2 1252   1.790   1.402   4.863
  430TIP3   OH2 1253   1.940   6.681   0.802
  430TIP3    H1 1254   1.919   6.616   0.868
  430TIP3    H2 1255   1.937   6.633   0.719
  431TIP3   OH2 1256   2.225   4.540   4.140
  431TIP3    H1 1257   2.316   4.512   4.153
  431TIP3    H2 1258   2.220   4.626   4.182
  432TIP3   OH2 1259   3.721   5.521   3.674
  432TIP3    H1 1260   3.797   5.472   3.642
  432TIP3    H2 1261   3.649   5.495   3.615
  433TIP3   OH2 1262   0.325   4.989   5.502
  433TIP3    H1 1263   0.372   4.908   5.523
  433TIP3    H2 1264   0.388   5.042   5.453
  434TIP3   OH2 1265   3.626   2.152   4.486
  434TIP3    H1 1266   3.541   2.108   4.496
  434TIP3    H2 1267   3.643   2.148   4.391
  435TIP3   OH2 1268   2.297   3.330   5.895
  435TIP3    H1 1269   2.207   3.318   5.866
  435TIP3    H2 1270   2.300   3.419   5.931
  436TIP3   OH2 1271   2.287   6.317   5.735
  436TIP3    H1 1272   2.365   6.263   5.749
  436TIP3    H2 1273   2.273   6.362   5.818
  437TIP3   OH2 1274   1.877   2.944   2.288
  437TIP3    H1 1275   1.933   3.015   2.321
  437TIP3    H2 1276   1.901   2.869   2.342
  438TIP3   OH2 1277   4.775   0.985   0.950
  438TIP3    H1 1278   4.751   0.893   0.936
  438TIP3    H2 1279   4.810   1.014   0.866
  439TIP3   OH2 1280   4.755   2.309   0.306
  439TIP3    H1 1281   4.805   2.275   0.380
  439TIP3    H2 1282   4.821   2.323   0.237
  440TIP3   OH2 1283   1.062   2.671   1.795
  440TIP3    H1 1284   1.112   2.706   1.721
  440TIP3    H2 1285   1.020   2.747   1.834
  441TIP3   OH2 1286   2.783   3.386   2.824
  441TIP3    H1 1287   2.804   3.406   2.915
  441TIP3    H2 1288   2.701   3.433   2.808
  442TIP3   OH2 1289   0.074   3.669   1.757
  442TIP3    H1 1290   0.052   3.709   1.673
  442TIP3    H2 1291   0.137   3.728   1.796
  443TIP3   OH2 1292   4.620   5.241   1.841
  443TIP3    H1 1293   4.593   5.157   1.878
  443TIP3    H2 1294   4.715   5.236   1.835
  444TIP3   OH2 1295   0.070   3.331   3.319
  444TIP3    H1 1296   0.010   3.406   3.318
  444TIP3    H2 1297   0.137   3.352   3.254
  445TIP3   OH2 1298   4.637   6.203   4.919
  445TIP3    H1 1299   4.708   6.185   4.856
  445TIP3    H2 1300   4.561   6.223   4.864
  446TIP3   OH2 1301   3.118   6.524   2.530
  446TIP3    H1 1302   3.111   6.505   2.436
  446TIP3    H2 1303   3.074   6.451   2.573
  447TIP3   OH2 1304   5.890   3.571   4.304
  447TIP3    H1 1305   5.948   3.538   4.235
  447TIP3    H2 1306   5.877   3.496   4.362
  448TIP3   OH2 1307   6.364   6.140   2.877
  448TIP3    H1 1308   6.310   6.099   2.945
  448TIP3    H2 1309   6.424   6.070   2.849
  449TIP3   OH2 1310   6.602   0.522   1.032
  449TIP3    H1 1311   6.656   0.495   0.958
  449TIP3    H2 1312   6.570   0.441   1.070
  450TIP3   OH2 1313   5.135   6.757   1.481
  450TIP3    H1 1314   5.093   6.841   1.460
  450TIP3    H2 1315   5.166   6.725   1.396
  451TIP3   OH2 1316   0.944   6.269   1.480
  451TIP3    H1 1317   0.878   6.316   1.428
  451TIP3    H2 1318   0.933   6.303   1.569
  452TIP3   OH2 1319   4.314   0.521   3.949
  452TIP3    H1 1320   4.370   0.560   3.882
  452TIP3    H2 1321   4.312   0.585   4.020
  453TIP3   OH2 1322   5.697   0.934   3.136
  453TIP3    H1 1323   5.698   1.023   3.171
  453TIP3    H2 1324   5.628   0.935   3.070
  454TIP3   OH2 1325   1.129   3.156   0.594
  454TIP3    H1 1326   1.069   3.116   0.658
  454TIP3    H2 1327   1.199   3.193   0.648
  455TIP3   OH2 1328   3.871   4.928   4.206
  455TIP3    H1 1329   3.964   4.906   4.215
  455TIP3    H2 1330   3.870   5.019   4.178
  456TIP3   OH2 1331   3.887   6.148   3.282
  456TIP3    H1 1332   3.826   6.074   3.283
  456TIP3    H2 1333   3.840   6.217   3.234
  457TIP3   OH2 1334   3.802   2.260   3.072
  457TIP3    H1 1335   3.783   2.242   2.980
  457TIP3    H2 1336   3.719   2.290   3.109
  458TIP3   OH2 1337   0.631   2.019   1.214
  458TIP3    H1 1338   0.726   2.033   1.217
  458TIP3    H2 1339   0.595   2.104   1.238
  459TIP3   OH2 1340   6.496   6.435   3.573
  459TIP3    H1 1341   6.579   6.419   3.618
  459TIP3    H2 1342   6.497   6.372   3.500
  460TIP3   OH2 1343   2.595   3.577   5.284
  460TIP3    H1 1344   2.552   3.498   5.315
  460TIP3    H2 1345   2.688   3.564   5.304
  461TIP3   OH2 1346   1.186   0.375   1.897
  461TIP3    H1 1347   1.099   0.336   1.908
  461TIP3    H2 1348   1.171   0.469   1.901
  462TIP3   OH2 1349   1.618   5.974   5.272
  462TIP3    H1 1350   1.583   5.885   5.278
  462TIP3    H2 1351   1.597   6.002   5.183
  463TIP3   OH2 1352   2.268   6.694   2.987
  463TIP3    H1 1353   2.283   6.787   3.005
  463TIP3    H2 1354   2.198   6.669   3.047
  464TIP3   OH2 1355   2.748   6.559   4.389
  464TIP3    H1 1356   2.676   6.611   4.354
  464TIP3    H2 1357   2.719   6.469   4.380
  465TIP3   OH2 1358   3.613   3.865   4.332
  465TIP3    H1 1359   3.618   3.961   4.336
  465TIP3    H2 1360   3.655   3.836   4.413
  466TIP3   OH2 1361   6.846   2.217   2.018
  466TIP3    H1 1362   6.762   2.259   2.034
  466TIP3    H2 1363   6.910   2.288   2.026
  467TIP3   OH2 1364   6.144   6.125   3.428
  467TIP3    H1 1365   6.080   6.132   3.499
  467TIP3    H2 1366   6.092   6.135   3.348
  468TIP3   OH2 1367   7.088   1.838   5.469
  468TIP3    H1 1368   7.047   1.913   5.512
  468TIP3    H2 1369   7.104   1.775   5.539
  469TIP3   OH2 1370   4.479   6.063   4.250
  469TIP3    H1 1371   4.512   5.989   4.301
  469TIP3    H2 1372   4.545   6.131   4.262
  470TIP3   OH2 1373   1.001   1.268   1.923
  470TIP3    H1 1374   1.085   1.281   1.966
  470TIP3    H2 1375   0.947   1.342   1.953
  471TIP3   OH2 1376   1.291   0.757   3.343
  471TIP3    H1 1377   1.287   0.677   3.394
  471TIP3    H2 1378   1.237   0.739   3.266
  472TIP3   OH2 1379   5.254   5.563   4.049
  472TIP3    H1 1380   5.323   5.529   3.992
  472TIP3    H2 1381   5.257   5.507   4.127
  473TIP3   OH2 1382   3.269   5.367   1.824
  473TIP3    H1 1383   3.251   5.320   1.743
  473TIP3    H2 1384   3.189   5.357   1.876
  474TIP3   OH2 1385   5.266   4.142   4.225
  474TIP3    H1 1386   5.340   4.142   4.284
  474TIP3    H2 1387   5.251   4.049   4.205
  475TIP3   OH2 1388   3.708   1.676   3.176
  475TIP3    H1 1389   3.732   1.743   3.112
  475TIP3    H2 1390   3.666   1.725   3.247
  476TIP3   OH2 1391  -0.003   3.451   0.212
  476TIP3    H1 1392   0.002   3.472   0.119
  476TIP3    H2 1393  -0.017   3.356   0.214
  477TIP3   OH2 1394   5.868   5.741   3.986
  477TIP3    H1 1395   5.929   5.798   3.940
  477TIP3    H2 1396   5.916   5.659   3.997
  478TIP3   OH2 1397   3.494   0.407   0.790
  478TIP3    H1 1398   3.519   0.417   0.698
  478TIP3    H2 1399   3.404   0.375   0.787
  479TIP3   OH2 1400   1.901   3.626   4.583
  479TIP3    H1 1401   1.810   3.645   4.604
  479TIP3    H2 1402   1.907   3.531   4.586
  480TIP3   OH2 1403   6.813   1.470   3.718
  480TIP3    H1 1404   6.765   1.540   3.762
  480TIP3    H2 1405   6.805   1.490   3.625
  481TIP3   OH2 1406   6.914   0.019   2.137
  481TIP3    H1 1407   6.906   0.039   2.044
  481TIP3    H2 1408   6.957  -0.066   2.140
  482TIP3   OH2 1409   0.662   0.493   1.624
  482TIP3    H1 1410   0.689   0.449   1.704
  482TIP3    H2 1411   0.570   0.469   1.614
  483TIP3   OH2 1412   1.701   1.284   3.622
  483TIP3    H1 1413   1.617   1.243   3.598
  483TIP3    H2 1414   1.751   1.213   3.662
  484TIP3   OH2 1415   3.445   4.021   0.979
  484TIP3    H1 1416   3.424   4.001   1.070
  484TIP3    H2 1417   3.362   4.010   0.932
  485TIP3   OH2 1418   2.676   4.119   3.700
  485TIP3    H1 1419   2.618   4.156   3.766
  485TIP3    H2 1420   2.653   4.164   3.619
  486TIP3   OH2 1421   1.780   0.095   5.852
  486TIP3    H1 1422   1.859   0.105   5.906
  486TIP3    H2 1423   1.713   0.068   5.915
  487TIP3   OH2 1424   1.667   4.537   3.396
  487TIP3    H1 1425   1.713   4.461   3.359
  487TIP3    H2 1426   1.694   4.539   3.488
  488TIP3   OH2 1427   0.015   1.673   3.371
  488TIP3    H1 1428   0.023   1.669   3.276
  488TIP3    H2 1429   0.084   1.615   3.403
  489TIP3   OH2 1430   1.619   2.997   4.614
  489TIP3    H1 1431   1.620   2.949   4.532
  489TIP3    H2 1432   1.536   2.973   4.656
  490TIP3   OH2 1433   7.088   2.502   0.426
  490TIP3    H1 1434   7.001   2.540   0.420
  490TIP3    H2 1435   7.147   2.576   0.428
  491TIP3   OH2 1436   5.467   4.226   4.396
  491TIP3    H1 1437   5.474   4.209   4.489
  491TIP3    H2 1438   5.557   4.242   4.367
  492TIP3   OH2 1439   6.993   1.117   5.628
  492TIP3    H1 1440   6.936   1.150   5.558
  492TIP3    H2 1441   7.060   1.185   5.638
  493TIP3   OH2 1442   4.164   2.816   5.008
  493TIP3    H1 1443   4.104   2.789   4.939
  493TIP3    H2 1444   4.246   2.770   4.988
  494TIP3   OH2 1445   2.723   0.254   4.545
  494TIP3    H1 1446   2.774   0.290   4.473
  494TIP3    H2 1447   2.739   0.160   4.541
  495TIP3   OH2 1448   6.025   6.579   5.803
  495TIP3    H1 1449   6.053   6.489   5.783
  495TIP3    H2 1450   5.944   6.568   5.854
  496TIP3   OH2 1451   4.771   3.830   3.024
  496TIP3    H1 1452   4.858   3.790   3.021
  496TIP3    H2 1453   4.789   3.924   3.028
  497TIP3   OH2 1454   5.804   0.220   4.767
  497TIP3    H1 1455   5.796   0.149   4.703
  497TIP3    H2 1456   5.831   0.177   4.847
  498TIP3   OH2 1457   2.819   4.500   3.436
  498TIP3    H1 1458   2.899   4.551   3.442
  498TIP3    H2 1459   2.789   4.513   3.346
  499TIP3   OH2 1460   6.793   2.680   4.640
  499TIP3    H1 1461   6.708   2.700   4.678
  499TIP3    H2 1462   6.826   2.764   4.609
  500TIP3   OH2 1463   2.531   4.609   0.950
  500TIP3    H1 1464   2.453   4.552   0.948
  500TIP3    H2 1465   2.598   4.559   0.904
  501TIP3   OH2 1466   1.824   3.503   5.553
  501TIP3    H1 1467   1.764   3.564   5.511
  501TIP3    H2 1468   1.767   3.434   5.588
  502TIP3   OH2 1469   2.816   0.307   2.621
  502TIP3    H1 1470   2.774   0.391   2.637
  502TIP3    H2 1471   2.762   0.243   2.668
  503TIP3   OH2 1472   3.415   3.741   5.823
  503TIP3    H1 1473   3.473   3.712   5.893
  503TIP3    H2 1474   3.367   3.661   5.798
  504TIP3   OH2 1475   5.431   0.889   4.923
  504TIP3    H1 1476   5.477   0.935   4.993
  504TIP3    H2 1477   5.444   0.796   4.942
  505TIP3   OH2 1478   5.391   6.629   3.489
  505TIP3    H1 1479   5.334   6.664   3.558
  505TIP3    H2 1480   5.343   6.645   3.408
  506TIP3   OH2 1481   0.772   4.583   2.166
  506TIP3    H1 1482   0.712   4.547   2.100
  506TIP3    H2 1483   0.752   4.677   2.167
  507TIP3   OH2 1484   4.321   3.789   0.030
  507TIP3    H1 1485   4.256   3.741   0.081
  507TIP3    H2 1486   4.284   3.793  -0.058
  508TIP3   OH2 1487   7.068   1.930   2.028
  508TIP3    H1 1488   7.047   1.998   1.964
  508TIP3    H2 1489   7.106   1.978   2.102
  509TIP3   OH2 1490   5.251   6.013   1.824
  509TIP3    H1 1491   5.232   5.924   1.794
  509TIP3    H2 1492   5.166   6.051   1.843
  510TIP3   OH2 1493   3.678   4.818   4.353
  510TIP3    H1 1494   3.601   4.875   4.344
  510TIP3    H2 1495   3.745   4.861   4.299
  511TIP3   OH2 1496   5.934   3.190   1.547
  511TIP3    H1 1497   5.910   3.154   1.632
  511TIP3    H2 1498   6.018   3.233   1.562
  512TIP3   OH2 1499   2.612   6.240   5.115
  512TIP3    H1 1500   2.586   6.332   5.125
  512TIP3    H2 1501   2.542   6.201   5.063
  513TIP3   OH2 1502   4.208   1.631   5.452
  513TIP3    H1 1503   4.281   1.683   5.418
  513TIP3    H2 1504   4.178   1.580   5.378
  514TIP3   OH2 1505   0.252   3.270   5.175
  514TIP3    H1 1506   0.258   3.363   5.195
  514TIP3    H2 1507   0.159   3.250   5.181
  515TIP3   OH2 1508   4.680   2.794   1.515
  515TIP3    H1 1509   4.769   2.763   1.533
  515TIP3    H2 1510   4.629   2.763   1.589
  516TIP3   OH2 1511   0.349   5.256   3.420
  516TIP3    H1 1512   0.379   5.208   3.343
  516TIP3    H2 1513   0.372   5.200   3.494
  517TIP3   OH2 1514   3.073   2.802   2.604
  517TIP3    H1 1515   3.119   2.793   2.687
  517TIP3    H2 1516   3.043   2.893   2.603
  518TIP3   OH2 1517  -0.017   5.164   3.793
  518TIP3    H1 1518  -0.042   5.255   3.781
  518TIP3    H2 1519   0.047   5.147   3.724
  519TIP3   OH2 1520   5.431   3.490   4.696
  519TIP3    H1 1521   5.513   3.539   4.702
  519TIP3    H2 1522   5.387   3.507   4.780
  520TIP3   OH2 1523   3.024   6.589   5.113
  520TIP3    H1 1524   2.931   6.572   5.097
  520TIP3    H2 1525   3.067   6.506   5.094
  521TIP3   OH2 1526   7.133   6.394   1.226
  521TIP3    H1 1527   7.099   6.315   1.183
  521TIP3    H2 1528   7.226   6.395   1.204
  522TIP3   OH2 1529   0.582   4.821   3.789
  522TIP3    H1 1530   0.641   4.787   3.856
  522TIP3    H2 1531   0.496   4.825   3.832
  523TIP3   OH2 1532   2.234   2.368   5.249
  523TIP3    H1 1533   2.231   2.463   5.265
  523TIP3    H2 1534   2.180   2.355   5.172
  524TIP3   OH2 1535   5.110   0.299   1.046
  524TIP3    H1 1536   5.040   0.350   1.087
  524TIP3    H2 1537   5.185   0.311   1.104
  525TIP3   OH2 1538   1.456   4.524   4.114
  525TIP3    H1 1539   1.427   4.578   4.188
  525TIP3    H2 1540   1.404   4.554   4.040
  526TIP3   OH2 1541   1.493   3.320   3.490
  526TIP3    H1 1542   1.547   3.313   3.568
  526TIP3    H2 1543   1.511   3.239   3.441
  527TIP3   OH2 1544   3.295   4.793   1.574
  527TIP3    H1 1545   3.275   4.876   1.531
  527TIP3    H2 1546   3.353   4.747   1.513
  528TIP3   OH2 1547   3.233   2.605   3.333
  528TIP3    H1 1548   3.149   2.634   3.296
  528TIP3    H2 1549   3.225   2.621   3.427
  529TIP3   OH2 1550   2.471   2.368   5.000
  529TIP3    H1 1551   2.476   2.315   4.920
  529TIP3    H2 1552   2.499   2.309   5.070
  530TIP3   OH2 1553   5.120   3.895   2.872
  530TIP3    H1 1554   5.060   3.893   2.798
  530TIP3    H2 1555   5.133   3.988   2.891
  531TIP3   OH2 1556   6.510   3.409   4.868
  531TIP3    H1 1557   6.512   3.417   4.963
  531TIP3    H2 1558   6.496   3.316   4.852
  532TIP3   OH2 1559   1.905   3.917   4.680
  532TIP3    H1 1560   1.936   3.846   4.737
  532TIP3    H2 1561   1.970   3.986   4.689
  533TIP3   OH2 1562   0.432   5.589   0.518
  533TIP3    H1 1563   0.502   5.563   0.577
  533TIP3    H2 1564   0.476   5.620   0.439
  534TIP3   OH2 1565   0.269   1.440   3.927
  534TIP3    H1 1566   0.319   1.408   3.852
  534TIP3    H2 1567   0.252   1.532   3.907
  535TIP3   OH2 1568   5.965   3.139   4.864
  535TIP3    H1 1569   5.945   3.095   4.947
  535TIP3    H2 1570   5.964   3.232   4.886
  536TIP3   OH2 1571   4.038   6.219   0.902
  536TIP3    H1 1572   3.980   6.243   0.974
  536TIP3    H2 1573   3.979   6.196   0.830
  537TIP3   OH2 1574   5.296   1.952   1.119
  537TIP3    H1 1575   5.243   1.877   1.093
  537TIP3    H2 1576   5.380   1.914   1.145
  538TIP3   OH2 1577   2.411   1.283   0.514
  538TIP3    H1 1578   2.438   1.199   0.550
  538TIP3    H2 1579   2.338   1.311   0.569
  539TIP3   OH2 1580   0.166   5.532   4.978
  539TIP3    H1 1581   0.161   5.517   5.072
  539TIP3    H2 1582   0.127   5.453   4.939
  540TIP3   OH2 1583   1.689   4.710   1.186
  540TIP3    H1 1584   1.641   4.642   1.232
  540TIP3    H2 1585   1.729   4.665   1.112
  541TIP3   OH2 1586   6.148   0.818   3.431
  541TIP3    H1 1587   6.234   0.816   3.472
  541TIP3    H2 1588   6.165   0.849   3.342
  542TIP3   OH2 1589   3.623   4.011   1.771
  542TIP3    H1 1590   3.612   4.052   1.857
  542TIP3    H2 1591   3.705   3.961   1.779
  543TIP3   OH2 1592   1.413   4.287   0.808
  543TIP3    H1 1593   1.500   4.278   0.768
  543TIP3    H2 1594   1.381   4.197   0.817
  544TIP3   OH2 1595   2.566   6.663   0.593
  544TIP3    H1 1596   2.477   6.634   0.574
  544TIP3    H2 1597   2.590   6.718   0.518
  545TIP3   OH2 1598   4.804   6.082   1.003
  545TIP3    H1 1599   4.735   6.035   1.049
  545TIP3    H2 1600   4.855   6.014   0.960
  546TIP3   OH2 1601   3.903   1.808   5.709
  546TIP3    H1 1602   3.984   1.767   5.741
  546TIP3    H2 1603   3.882   1.874   5.775
  547TIP3   OH2 1604   3.822   3.169   3.791
  547TIP3    H1 1605   3.760   3.218   3.845
  547TIP3    H2 1606   3.784   3.082   3.783
  548TIP3   OH2 1607   3.511   3.587   2.114
  548TIP3    H1 1608   3.465   3.518   2.067
  548TIP3    H2 1609   3.512   3.661   2.054
  549TIP3   OH2 1610   0.184   0.679   2.392
  549TIP3    H1 1611   0.255   0.620   2.415
  549TIP3    H2 1612   0.104   0.631   2.413
  550TIP3   OH2 1613   2.735   0.876   2.614
  550TIP3    H1 1614   2.646   0.845   2.632
  550TIP3    H2 1615   2.751   0.942   2.681
  551TIP3   OH2 1616   5.785   3.313   0.440
  551TIP3    H1 1617   5.739   3.319   0.356
  551TIP3    H2 1618   5.791   3.219   0.456
  552TIP3   OH2 1619   2.636   0.873   3.092
  552TIP3    H1 1620   2.669   0.924   3.018
  552TIP3    H2 1621   2.573   0.931   3.135
  553TIP3   OH2 1622   1.428   5.549   0.507
  553TIP3    H1 1623   1.442   5.642   0.524
  553TIP3    H2 1624   1.424   5.509   0.594
  554TIP3   OH2 1625   2.190   1.261   4.420
  554TIP3    H1 1626   2.186   1.269   4.325
  554TIP3    H2 1627   2.162   1.347   4.453
  555TIP3   OH2 1628   5.687   5.088   3.376
  555TIP3    H1 1629   5.700   5.132   3.292
  555TIP3    H2 1630   5.592   5.074   3.381
  556TIP3   OH2 1631   0.194   2.948   1.663
  556TIP3    H1 1632   0.239   2.946   1.579
  556TIP3    H2 1633   0.262   2.928   1.728
  557TIP3   OH2 1634   4.754   0.901   5.777
  557TIP3    H1 1635   4.752   0.822   5.831
  557TIP3    H2 1636   4.682   0.891   5.715
  558TIP3   OH2 1637   4.511   1.001   2.376
  558TIP3    H1 1638   4.545   1.007   2.287
  558TIP3    H2 1639   4.416   0.989   2.364
  559TIP3   OH2 1640   1.971   4.797   3.806
  559TIP3    H1 1641   2.022   4.857   3.859
  559TIP3    H2 1642   2.016   4.713   3.815
  560TIP3   OH2 1643   3.871   3.425   1.464
  560TIP3    H1 1644   3.881   3.347   1.410
  560TIP3    H2 1645   3.924   3.492   1.421
  561TIP3   OH2 1646   3.010   2.303   3.495
  561TIP3    H1 1647   3.061   2.265   3.423
  561TIP3    H2 1648   2.943   2.355   3.452
  562TIP3   OH2 1649   5.746   2.408   1.476
  562TIP3    H1 1650   5.814   2.399   1.409
  562TIP3    H2 1651   5.789   2.383   1.557
  563TIP3   OH2 1652   6.127   6.322   5.753
  563TIP3    H1 1653   6.068   6.247   5.746
  563TIP3    H2 1654   6.199   6.303   5.694
  564TIP3   OH2 1655   0.161   2.236   3.622
  564TIP3    H1 1656   0.190   2.165   3.565
  564TIP3    H2 1657   0.103   2.289   3.568
  565TIP3   OH2 1658   3.019   0.301   0.269
  565TIP3    H1 1659   3.025   0.289   0.364
  565TIP3    H2 1660   2.991   0.392   0.258
  566TIP3   OH2 1661   3.066   0.226   1.987
  566TIP3    H1 1662   3.048   0.140   1.948
  566TIP3    H2 1663   3.145   0.256   1.942
  567TIP3   OH2 1664   4.286   0.955   1.722
  567TIP3    H1 1665   4.236   0.971   1.642
  567TIP3    H2 1666   4.219   0.938   1.789
  568TIP3   OH2 1667   0.068   6.183   1.465
  568TIP3    H1 1668   0.095   6.213   1.378
  568TIP3    H2 1669   0.142   6.203   1.521
  569TIP3   OH2 1670   2.780   4.811   4.888
  569TIP3    H1 1671   2.829   4.745   4.936
  569TIP3    H2 1672   2.701   4.766   4.858
  570TIP3   OH2 1673   0.213   2.745   2.400
  570TIP3    H1 1674   0.122   2.755   2.429
  570TIP3    H2 1675   0.232   2.828   2.355
  571TIP3   OH2 1676   0.392   6.146   4.350
  571TIP3    H1 1677   0.357   6.200   4.421
  571TIP3    H2 1678   0.341   6.172   4.273
  572TIP3   OH2 1679   1.107   5.205   5.105
  572TIP3    H1 1680   1.170   5.143   5.143
  572TIP3    H2 1681   1.038   5.212   5.172
  573TIP3   OH2 1682   0.807   4.071   5.575
  573TIP3    H1 1683   0.825   3.983   5.542
  573TIP3    H2 1684   0.783   4.121   5.497
  574TIP3   OH2 1685   6.577   1.078   0.449
  574TIP3    H1 1686   6.581   1.099   0.356
  574TIP3    H2 1687   6.634   1.002   0.460
  575TIP3   OH2 1688   0.621   0.907   3.474
  575TIP3    H1 1689   0.701   0.943   3.511
  575TIP3    H2 1690   0.606   0.826   3.523
  576TIP3   OH2 1691   2.668   1.881   1.977
  576TIP3    H1 1692   2.633   1.798   1.945
  576TIP3    H2 1693   2.638   1.946   1.914
  577TIP3   OH2 1694   4.603   3.934   3.690
  577TIP3    H1 1695   4.539   3.922   3.620
  577TIP3    H2 1696   4.600   4.028   3.709
  578TIP3   OH2 1697   5.845   3.351   4.088
  578TIP3    H1 1698   5.855   3.337   3.994
  578TIP3    H2 1699   5.766   3.404   4.096
  579TIP3   OH2 1700   3.247   3.087   0.148
  579TIP3    H1 1701   3.319   3.026   0.132
  579TIP3    H2 1702   3.277   3.171   0.113
  580TIP3   OH2 1703   5.103   5.883   4.933
  580TIP3    H1 1704   5.162   5.921   4.868
  580TIP3    H2 1705   5.098   5.949   5.003
  581TIP3   OH2 1706   5.142   5.857   1.420
  581TIP3    H1 1707   5.135   5.822   1.331
  581TIP3    H2 1708   5.211   5.804   1.461
  582TIP3   OH2 1709   4.849   0.984   4.127
  582TIP3    H1 1710   4.927   0.934   4.151
  582TIP3    H2 1711   4.797   0.986   4.208
  583TIP3   OH2 1712   3.871   1.502   5.815
  583TIP3    H1 1713   3.947   1.463   5.859
  583TIP3    H2 1714   3.905   1.582   5.776
  584TIP3   OH2 1715   5.680   3.282   4.951
  584TIP3    H1 1716   5.642   3.293   5.038
  584TIP3    H2 1717   5.680   3.188   4.937
  585TIP3   OH2 1718   3.775   4.524   1.312
  585TIP3    H1 1719   3.855   4.471   1.306
  585TIP3    H2 1720   3.787   4.578   1.390
  586TIP3   OH2 1721   3.835   0.939   5.291
  586TIP3    H1 1722   3.848   0.997   5.366
  586TIP3    H2 1723   3.796   0.860   5.328
  587TIP3   OH2 1724   2.767   3.751   3.861
  587TIP3    H1 1725   2.847   3.702   3.879
  587TIP3    H2 1726   2.736   3.778   3.948
  588TIP3   OH2 1727   3.362   2.510   4.124
  588TIP3    H1 1728   3.386   2.603   4.133
  588TIP3    H2 1729   3.297   2.495   4.192
  589TIP3   OH2 1730   2.769   2.375   0.812
  589TIP3    H1 1731   2.791   2.367   0.905
  589TIP3    H2 1732   2.752   2.285   0.783
  590TIP3   OH2 1733   5.671   2.027   4.934
  590TIP3    H1 1734   5.601   2.066   4.881
  590TIP3    H2 1735   5.685   2.090   5.005
  591TIP3   OH2 1736   4.540   1.528   1.473
  591TIP3    H1 1737   4.521   1.447   1.521
  591TIP3    H2 1738   4.462   1.542   1.418
  592TIP3   OH2 1739   5.959   2.854   1.193
  592TIP3    H1 1740   6.034   2.905   1.223
  592TIP3    H2 1741   5.883   2.904   1.221
  593TIP3   OH2 1742   0.938   0.966   0.614
  593TIP3    H1 1743   0.870   0.907   0.583
  593TIP3    H2 1744   1.019   0.917   0.604
  594TIP3   OH2 1745   0.008   3.443   2.960
  594TIP3    H1 1746  -0.014   3.374   2.897
  594TIP3    H2 1747   0.095   3.419   2.993
  595TIP3   OH2 1748   3.606   6.286   4.692
  595TIP3    H1 1749   3.629   6.355   4.630
  595TIP3    H2 1750   3.680   6.225   4.689
  596TIP3   OH2 1751   3.473   0.471   4.644
  596TIP3    H1 1752   3.551   0.515   4.610
  596TIP3    H2 1753   3.429   0.436   4.567
  597TIP3   OH2 1754   6.448   3.412   4.566
  597TIP3    H1 1755   6.452   3.460   4.648
  597TIP3    H2 1756   6.360   3.375   4.563
  598TIP3   OH2 1757   6.790   4.358   4.968
  598TIP3    H1 1758   6.858   4.337   4.904
  598TIP3    H2 1759   6.709   4.326   4.927
  599TIP3   OH2 1760   6.365   3.518   4.007
  599TIP3    H1 1761   6.376   3.453   3.938
  599TIP3    H2 1762   6.431   3.494   4.073
  600TIP3   OH2 1763   1.094   3.692   2.024
  600TIP3    H1 1764   1.081   3.672   1.931
  600TIP3    H2 1765   1.164   3.758   2.025
  601TIP3   OH2 1766   4.827   3.095   3.113
  601TIP3    H1 1767   4.886   3.135   3.176
  601TIP3    H2 1768   4.863   3.120   3.028
  602TIP3   OH2 1769   0.560   6.741   1.722
  602TIP3    H1 1770   0.542   6.792   1.642
  602TIP3    H2 1771   0.494   6.672   1.721
  603TIP3   OH2 1772   3.539   2.684   3.626
  603TIP3    H1 1773   3.604   2.741   3.584
  603TIP3    H2 1774   3.455   2.710   3.588
  604TIP3   OH2 1775   5.523   4.030   1.839
  604TIP3    H1 1776   5.574   4.051   1.761
  604TIP3    H2 1777   5.537   3.936   1.852
  605TIP3   OH2 1778   1.570   2.553   0.105
  605TIP3    H1 1779   1.612   2.471   0.079
  605TIP3    H2 1780   1.477   2.532   0.113
  606TIP3   OH2 1781   4.320   3.210   4.455
  606TIP3    H1 1782   4.237   3.178   4.490
  606TIP3    H2 1783   4.360   3.259   4.528
  607TIP3   OH2 1784   6.798   2.849   2.499
  607TIP3    H1 1785   6.778   2.939   2.524
  607TIP3    H2 1786   6.744   2.796   2.557
  608TIP3   OH2 1787   4.677   6.222   3.009
  608TIP3    H1 1788   4.603   6.207   3.067
  608TIP3    H2 1789   4.638   6.252   2.927
  609TIP3   OH2 1790   5.436   2.391   4.833
  609TIP3    H1 1791   5.374   2.450   4.875
  609TIP3    H2 1792   5.426   2.409   4.739
  610TIP3   OH2 1793   3.632   1.091   2.457
  610TIP3    H1 1794   3.718   1.107   2.496
  610TIP3    H2 1795   3.624   1.157   2.388
  611TIP3   OH2 1796   1.181   4.605   5.488
  611TIP3    H1 1797   1.210   4.633   5.401
  611TIP3    H2 1798   1.106   4.661   5.508
  612TIP3   OH2 1799   3.974   2.126   0.886
  612TIP3    H1 1800   3.905   2.108   0.950
  612TIP3    H2 1801   3.937   2.097   0.803
  613TIP3   OH2 1802   5.498   1.307   3.653
  613TIP3    H1 1803   5.550   1.227   3.642
  613TIP3    H2 1804   5.554   1.377   3.619
  614TIP3   OH2 1805   5.169   1.422   0.883
  614TIP3    H1 1806   5.182   1.449   0.792
  614TIP3    H2 1807   5.085   1.460   0.908
  615TIP3   OH2 1808   6.769   4.970   2.470
  615TIP3    H1 1809   6.767   4.946   2.377
  615TIP3    H2 1810   6.860   4.961   2.496
  616TIP3   OH2 1811   0.676   5.090   0.994
  616TIP3    H1 1812   0.740   5.073   1.064
  616TIP3    H2 1813   0.691   5.021   0.930
  617TIP3   OH2 1814   5.082   0.836   2.300
  617TIP3    H1 1815   5.081   0.850   2.206
  617TIP3    H2 1816   5.167   0.871   2.329
  618TIP3   OH2 1817   0.011   4.980   1.520
  618TIP3    H1 1818  -0.022   4.913   1.460
  618TIP3    H2 1819   0.094   5.007   1.482
  619TIP3   OH2 1820   4.532   0.825   4.261
  619TIP3    H1 1821   4.576   0.783   4.187
  619TIP3    H2 1822   4.603   0.851   4.320
  620TIP3   OH2 1823   0.510   2.892   5.112
  620TIP3    H1 1824   0.484   2.855   5.028
  620TIP3    H2 1825   0.598   2.925   5.097
  621TIP3   OH2 1826   1.975   3.177   5.817
  621TIP3    H1 1827   1.901   3.122   5.791
  621TIP3    H2 1828   2.052   3.120   5.805
  622TIP3   OH2 1829   6.186   1.667   0.731
  622TIP3    H1 1830   6.210   1.647   0.641
  622TIP3    H2 1831   6.194   1.583   0.777
  623TIP3   OH2 1832   2.429   5.066   4.117
  623TIP3    H1 1833   2.507   5.068   4.062
  623TIP3    H2 1834   2.421   5.155   4.151
  624TIP3   OH2 1835   4.528   1.853   2.149
  624TIP3    H1 1836   4.567   1.835   2.064
  624TIP3    H2 1837   4.558   1.781   2.205
  625TIP3   OH2 1838   3.872   1.828   1.165
  625TIP3    H1 1839   3.851   1.839   1.258
  625TIP3    H2 1840   3.967   1.816   1.163
  626TIP3   OH2 1841   7.184   1.356   3.962
  626TIP3    H1 1842   7.257   1.412   3.937
  626TIP3    H2 1843   7.146   1.326   3.880
  627TIP3   OH2 1844   2.556   3.049   5.748
  627TIP3    H1 1845   2.507   3.073   5.826
  627TIP3    H2 1846   2.554   2.953   5.747
  628TIP3   OH2 1847   5.659   4.552   4.946
  628TIP3    H1 1848   5.607   4.609   4.889
  628TIP3    H2 1849   5.750   4.574   4.925
  629TIP3   OH2 1850   1.464   5.230   5.253
  629TIP3    H1 1851   1.450   5.292   5.181
  629TIP3    H2 1852   1.429   5.147   5.220
  630TIP3   OH2 1853   1.794   1.348   2.115
  630TIP3    H1 1854   1.702   1.374   2.119
  630TIP3    H2 1855   1.803   1.305   2.031
  631TIP3   OH2 1856   1.329   3.683   5.237
  631TIP3    H1 1857   1.400   3.747   5.240
  631TIP3    H2 1858   1.304   3.679   5.144
  632TIP3   OH2 1859   1.948   3.308   0.899
  632TIP3    H1 1860   1.909   3.264   0.975
  632TIP3    H2 1861   1.978   3.237   0.842
  633TIP3   OH2 1862   0.108   0.566   5.431
  633TIP3    H1 1863   0.166   0.522   5.368
  633TIP3    H2 1864   0.162   0.576   5.510
  634TIP3   OH2 1865   3.060   0.476   4.364
  634TIP3    H1 1866   3.038   0.552   4.311
  634TIP3    H2 1867   2.986   0.467   4.425
  635TIP3   OH2 1868   4.011   4.587   4.739
  635TIP3    H1 1869   4.078   4.654   4.754
  635TIP3    H2 1870   4.056   4.518   4.690
  636TIP3   OH2 1871   4.225   2.676   5.289
  636TIP3    H1 1872   4.199   2.675   5.197
  636TIP3    H2 1873   4.292   2.609   5.297
  637TIP3   OH2 1874   4.792   4.879   3.999
  637TIP3    H1 1875   4.732   4.843   4.065
  637TIP3    H2 1876   4.876   4.885   4.044
  638TIP3   OH2 1877   4.241   0.505   0.140
  638TIP3    H1 1878   4.154   0.468   0.158
  638TIP3    H2 1879   4.299   0.429   0.138
  639TIP3   OH2 1880   3.636   2.731   4.465
  639TIP3    H1 1881   3.641   2.640   4.493
  639TIP3    H2 1882   3.599   2.777   4.541
  640TIP3   OH2 1883   3.509   0.643   1.233
  640TIP3    H1 1884   3.462   0.663   1.153
  640TIP3    H2 1885   3.593   0.688   1.224
  641TIP3   OH2 1886   7.151   2.757   1.313
  641TIP3    H1 1887   7.065   2.716   1.304
  641TIP3    H2 1888   7.162   2.770   1.407
  642TIP3   OH2 1889   6.531   4.902   0.798
  642TIP3    H1 1890   6.489   4.987   0.790
  642TIP3    H2 1891   6.552   4.876   0.709
  643TIP3   OH2 1892   4.220   5.505   5.417
  643TIP3    H1 1893   4.243   5.457   5.496
  643TIP3    H2 1894   4.302   5.509   5.367
  644TIP3   OH2 1895   3.908   3.827   4.572
  644TIP3    H1 1896   3.900   3.801   4.480
  644TIP3    H2 1897   3.996   3.801   4.597
  645TIP3   OH2 1898   2.026   5.930   2.133
  645TIP3    H1 1899   1.950   5.872   2.135
  645TIP3    H2 1900   2.059   5.929   2.223
  646TIP3   OH2 1901   4.202   4.786   5.868
  646TIP3    H1 1902   4.240   4.698   5.872
  646TIP3    H2 1903   4.160   4.790   5.782
  647TIP3   OH2 1904   3.848   1.121   4.819
  647TIP3    H1 1905   3.937   1.118   4.853
  647TIP3    H2 1906   3.793   1.090   4.891
  648TIP3   OH2 1907   6.810   5.540   3.990
  648TIP3    H1 1908   6.898   5.503   3.999
  648TIP3    H2 1909   6.814   5.622   4.039
  649TIP3   OH2 1910   3.429   0.115   3.327
  649TIP3    H1 1911   3.404   0.061   3.253
  649TIP3    H2 1912   3.490   0.180   3.290
  650TIP3   OH2 1913   2.250   3.398   0.240
  650TIP3    H1 1914   2.234   3.375   0.331
  650TIP3    H2 1915   2.327   3.455   0.243
  651TIP3   OH2 1916   2.672   0.952   0.982
  651TIP3    H1 1917   2.649   0.871   0.937
  651TIP3    H2 1918   2.711   0.924   1.065
  652TIP3   OH2 1919   4.674   1.206   1.085
  652TIP3    H1 1920   4.713   1.123   1.057
  652TIP3    H2 1921   4.749   1.262   1.103
  653TIP3   OH2 1922   5.035   6.806   2.998
  653TIP3    H1 1923   5.105   6.741   3.006
  653TIP3    H2 1924   5.082   6.890   2.993
  654TIP3   OH2 1925   2.053   2.884   4.432
  654TIP3    H1 1926   1.981   2.822   4.441
  654TIP3    H2 1927   2.010   2.968   4.415
  655TIP3   OH2 1928   1.124   5.015   0.411
  655TIP3    H1 1929   1.151   5.098   0.450
  655TIP3    H2 1930   1.046   4.989   0.460
  656TIP3   OH2 1931   3.744   5.907   3.439
  656TIP3    H1 1932   3.674   5.971   3.455
  656TIP3    H2 1933   3.701   5.833   3.397
  657TIP3   OH2 1934   5.044   4.356   5.266
  657TIP3    H1 1935   5.076   4.345   5.177
  657TIP3    H2 1936   4.986   4.281   5.280
  658TIP3   OH2 1937   3.377   5.353   5.255
  658TIP3    H1 1938   3.444   5.306   5.206
  658TIP3    H2 1939   3.310   5.287   5.273
  659TIP3   OH2 1940   5.198   2.798   4.796
  659TIP3    H1 1941   5.218   2.796   4.702
  659TIP3    H2 1942   5.230   2.883   4.826
  660TIP3   OH2 1943   0.466   1.212   4.466
  660TIP3    H1 1944   0.409   1.270   4.416
  660TIP3    H2 1945   0.534   1.185   4.405
  661TIP3   OH2 1946   5.471   1.971   1.924
  661TIP3    H1 1947   5.479   2.060   1.891
  661TIP3    H2 1948   5.559   1.935   1.919
  662TIP3   OH2 1949   1.039   6.455   5.098
  662TIP3    H1 1950   1.134   6.447   5.094
  662TIP3    H2 1951   1.021   6.495   5.183
  663TIP3   OH2 1952   1.588   0.929   2.566
  663TIP3    H1 1953   1.625   0.972   2.489
  663TIP3    H2 1954   1.641   0.962   2.639
  664TIP3   OH2 1955   5.598   1.558   5.426
  664TIP3    H1 1956   5.582   1.468   5.456
  664TIP3    H2 1957   5.511   1.592   5.404
  665TIP3   OH2 1958   6.859   4.479   0.688
  665TIP3    H1 1959   6.937   4.480   0.633
  665TIP3    H2 1960   6.791   4.520   0.634
  666TIP3   OH2 1961   0.038   5.161   3.301
  666TIP3    H1 1962   0.114   5.161   3.359
  666TIP3    H2 1963  -0.026   5.216   3.346
  667TIP3   OH2 1964   0.653   5.578   4.550
  667TIP3    H1 1965   0.587   5.643   4.573
  667TIP3    H2 1966   0.736   5.626   4.553
  668TIP3   OH2 1967   1.149   6.212   0.189
  668TIP3    H1 1968   1.234   6.169   0.199
  668TIP3    H2 1969   1.167   6.305   0.207
  669TIP3   OH2 1970   2.937   4.138   1.267
  669TIP3    H1 1971   2.862   4.195   1.249
  669TIP3    H2 1972   3.001   4.162   1.200
  670TIP3   OH2 1973   1.593   5.036   2.702
  670TIP3    H1 1974   1.541   4.983   2.641
  670TIP3    H2 1975   1.603   4.980   2.779
  671TIP3   OH2 1976   2.949   3.521   1.208
  671TIP3    H1 1977   2.900   3.442   1.227
  671TIP3    H2 1978   2.883   3.591   1.209
  672TIP3   OH2 1979   4.699   4.905   2.313
  672TIP3    H1 1980   4.743   4.900   2.228
  672TIP3    H2 1981   4.606   4.909   2.291
  673TIP3   OH2 1982   3.128   5.195   5.281
  673TIP3    H1 1983   3.052   5.247   5.308
  673TIP3    H2 1984   3.112   5.175   5.189
  674TIP3   OH2 1985   5.628   6.151   5.858
  674TIP3    H1 1986   5.558   6.178   5.799
  674TIP3    H2 1987   5.708   6.166   5.809
  675TIP3   OH2 1988   0.977   3.722   0.573
  675TIP3    H1 1989   0.914   3.699   0.641
  675TIP3    H2 1990   1.012   3.807   0.600
  676TIP3   OH2 1991   3.665   6.017   3.096
  676TIP3    H1 1992   3.686   6.106   3.070
  676TIP3    H2 1993   3.575   6.021   3.128
  677TIP3   OH2 1994   2.984   6.032   4.297
  677TIP3    H1 1995   3.065   5.981   4.297
  677TIP3    H2 1996   2.924   5.981   4.352
  678TIP3   OH2 1997   3.787   0.845   3.420
  678TIP3    H1 1998   3.828   0.810   3.341
  678TIP3    H2 1999   3.799   0.777   3.486
  679TIP3   OH2 2000   5.123   2.227   0.323
  679TIP3    H1 2001   5.173   2.291   0.373
  679TIP3    H2 2002   5.076   2.176   0.389
  680TIP3   OH2 2003   1.401   6.130   1.199
  680TIP3    H1 2004   1.430   6.075   1.272
  680TIP3    H2 2005   1.352   6.201   1.242
  681TIP3   OH2 2006   0.585   3.941   2.305
  681TIP3    H1 2007   0.616   3.932   2.395
  681TIP3    H2 2008   0.549   3.855   2.284
  682TIP3   OH2 2009   4.808   3.123   3.517
  682TIP3    H1 2010   4.754   3.148   3.442
  682TIP3    H2 2011   4.894   3.159   3.498
  683TIP3   OH2 2012   3.059   2.189   3.993
  683TIP3    H1 2013   3.010   2.252   4.045
  683TIP3    H2 2014   3.149   2.220   3.995
  684TIP3   OH2 2015   3.329   0.950   4.457
  684TIP3    H1 2016   3.395   0.890   4.492
  684TIP3    H2 2017   3.319   1.016   4.525
  685TIP3   OH2 2018   0.239   0.755   4.267
  685TIP3    H1 2019   0.199   0.771   4.182
  685TIP3    H2 2020   0.244   0.841   4.308
  686TIP3   OH2 2021   1.630   2.890   1.886
  686TIP3    H1 2022   1.645   2.929   1.972
  686TIP3    H2 2023   1.650   2.797   1.897
  687TIP3   OH2 2024   2.421   2.711   1.814
  687TIP3    H1 2025   2.326   2.724   1.807
  687TIP3    H2 2026   2.436   2.623   1.781
  688TIP3   OH2 2027   0.983   3.625   3.549
  688TIP3    H1 2028   1.077   3.612   3.556
  688TIP3    H2 2029   0.973   3.688   3.478
  689TIP3   OH2 2030   4.138   6.312   4.799
  689TIP3    H1 2031   4.102   6.224   4.800
  689TIP3    H2 2032   4.081   6.361   4.739
  690TIP3   OH2 2033   3.361   0.385   2.915
  690TIP3    H1 2034   3.370   0.313   2.977
  690TIP3    H2 2035   3.323   0.457   2.966
  691TIP3   OH2 2036   4.717   4.923   1.407
  691TIP3    H1 2037   4.774   4.999   1.418
  691TIP3    H2 2038   4.661   4.924   1.485
  692TIP3   OH2 2039   3.998   0.120   2.888
  692TIP3    H1 2040   4.014   0.169   2.807
  692TIP3    H2 2041   3.904   0.129   2.903
  693TIP3   OH2 2042   2.659   2.944   0.845
  693TIP3    H1 2043   2.666   2.911   0.934
  693TIP3    H2 2044   2.696   2.873   0.791
  694TIP3   OH2 2045   1.866   3.094   5.159
  694TIP3    H1 2046   1.799   3.130   5.216
  694TIP3    H2 2047   1.910   3.170   5.121
  695TIP3   OH2 2048   3.517   5.268   3.904
  695TIP3    H1 2049   3.538   5.360   3.888
  695TIP3    H2 2050   3.435   5.270   3.953
  696TIP3   OH2 2051   7.044   4.951   0.158
  696TIP3    H1 2052   7.110   4.946   0.227
  696TIP3    H2 2053   7.061   4.874   0.103
  697TIP3   OH2 2054   4.545   4.589   4.483
  697TIP3    H1 2055   4.507   4.580   4.395
  697TIP3    H2 2056   4.602   4.512   4.492
  698TIP3   OH2 2057   5.353   0.887   2.548
  698TIP3    H1 2058   5.308   0.954   2.600
  698TIP3    H2 2059   5.350   0.921   2.458
  699TIP3   OH2 2060   3.358   4.312   1.708
  699TIP3    H1 2061   3.333   4.243   1.647
  699TIP3    H2 2062   3.306   4.295   1.786
  700TIP3   OH2 2063   5.592   5.614   2.286
  700TIP3    H1 2064   5.540   5.695   2.280
  700TIP3    H2 2065   5.606   5.603   2.380
  701TIP3   OH2 2066   4.713   6.682   1.933
  701TIP3    H1 2067   4.634   6.730   1.910
  701TIP3    H2 2068   4.779   6.715   1.871
  702TIP3   OH2 2069   5.700   3.032   5.446
  702TIP3    H1 2070   5.750   2.962   5.404
  702TIP3    H2 2071   5.608   3.006   5.434
  703TIP3   OH2 2072   3.933   1.844   1.859
  703TIP3    H1 2073   3.903   1.792   1.933
  703TIP3    H2 2074   4.025   1.863   1.879
  704TIP3   OH2 2075   6.548   0.568   5.115
  704TIP3    H1 2076   6.587   0.565   5.202
  704TIP3    H2 2077   6.619   0.544   5.055
  705TIP3   OH2 2078   1.408   6.236   3.241
  705TIP3    H1 2079   1.349   6.299   3.198
  705TIP3    H2 2080   1.406   6.262   3.333
  706TIP3   OH2 2081   1.355   3.134   2.939
  706TIP3    H1 2082   1.379   3.043   2.917
  706TIP3    H2 2083   1.424   3.187   2.899
  707TIP3   OH2 2084   3.640   6.258   2.007
  707TIP3    H1 2085   3.701   6.298   2.069
  707TIP3    H2 2086   3.680   6.173   1.987
  708TIP3   OH2 2087   0.393   1.975   4.538
  708TIP3    H1 2088   0.466   2.008   4.591
  708TIP3    H2 2089   0.379   1.886   4.569
  709TIP3   OH2 2090   3.573   6.805   3.749
  709TIP3    H1 2091   3.542   6.737   3.809
  709TIP3    H2 2092   3.587   6.881   3.805
  710TIP3   OH2 2093   0.489   6.683   4.983
  710TIP3    H1 2094   0.395   6.661   4.979
  710TIP3    H2 2095   0.502   6.715   5.072
  711TIP3   OH2 2096   3.445   6.002   1.964
  711TIP3    H1 2097   3.482   6.035   1.882
  711TIP3    H2 2098   3.519   6.000   2.025
  712TIP3   OH2 2099   5.763   3.000   1.358
  712TIP3    H1 2100   5.717   3.077   1.326
  712TIP3    H2 2101   5.833   3.035   1.413
  713TIP3   OH2 2102   3.495   0.603   0.955
  713TIP3    H1 2103   3.492   0.530   0.893
  713TIP3    H2 2104   3.581   0.642   0.941
  714TIP3   OH2 2105   1.000   5.643   2.195
  714TIP3    H1 2106   0.962   5.578   2.254
  714TIP3    H2 2107   0.988   5.726   2.241
  715TIP3   OH2 2108   6.697   1.588   2.397
  715TIP3    H1 2109   6.670   1.672   2.359
  715TIP3    H2 2110   6.622   1.530   2.384
  716TIP3   OH2 2111   0.083   1.998   4.642
  716TIP3    H1 2112   0.104   1.940   4.568
  716TIP3    H2 2113   0.145   1.973   4.710
  717TIP3   OH2 2114   3.493   0.358   1.205
  717TIP3    H1 2115   3.535   0.312   1.278
  717TIP3    H2 2116   3.530   0.446   1.208
  718TIP3   OH2 2117   3.702   1.620   1.762
  718TIP3    H1 2118   3.782   1.622   1.710
  718TIP3    H2 2119   3.724   1.566   1.838
  719TIP3   OH2 2120   4.948   5.025   1.670
  719TIP3    H1 2121   4.910   4.946   1.710
  719TIP3    H2 2122   5.042   5.014   1.680
  720TIP3   OH2 2123   5.729   6.030   1.253
  720TIP3    H1 2124   5.806   5.973   1.259
  720TIP3    H2 2125   5.763   6.118   1.268
  721TIP3   OH2 2126   3.265   4.066   4.819
  721TIP3    H1 2127   3.291   3.993   4.763
  721TIP3    H2 2128   3.195   4.030   4.874
  722TIP3   OH2 2129   6.836   5.170   2.178
  722TIP3    H1 2130   6.918   5.163   2.128
  722TIP3    H2 2131   6.794   5.084   2.167
  723TIP3   OH2 2132   4.686   6.055   5.324
  723TIP3    H1 2133   4.612   6.115   5.326
  723TIP3    H2 2134   4.663   5.990   5.257
  724TIP3   OH2 2135   6.790   4.906   0.285
  724TIP3    H1 2136   6.877   4.917   0.245
  724TIP3    H2 2137   6.739   4.980   0.252
  725TIP3   OH2 2138   2.770   2.700   0.290
  725TIP3    H1 2139   2.801   2.610   0.287
  725TIP3    H2 2140   2.674   2.692   0.290
  726TIP3   OH2 2141   4.383   3.408   4.221
  726TIP3    H1 2142   4.439   3.434   4.295
  726TIP3    H2 2143   4.367   3.315   4.235
  727TIP3   OH2 2144   5.078   0.542   5.431
  727TIP3    H1 2145   5.147   0.478   5.413
  727TIP3    H2 2146   5.049   0.523   5.520
  728TIP3   OH2 2147   6.421   6.711   5.667
  728TIP3    H1 2148   6.497   6.761   5.696
  728TIP3    H2 2149   6.346   6.764   5.694
  729TIP3   OH2 2150   6.153   6.005   5.779
  729TIP3    H1 2151   6.245   5.978   5.773
  729TIP3    H2 2152   6.105   5.935   5.734
  730TIP3   OH2 2153   5.946   5.134   2.460
  730TIP3    H1 2154   5.974   5.074   2.529
  730TIP3    H2 2155   6.025   5.154   2.411
  731TIP3   OH2 2156   4.463   1.337   2.644
  731TIP3    H1 2157   4.371   1.313   2.656
  731TIP3    H2 2158   4.509   1.254   2.638
  732TIP3   OH2 2159   3.085   0.532   2.296
  732TIP3    H1 2160   3.019   0.463   2.308
  732TIP3    H2 2161   3.139   0.527   2.375
  733TIP3   OH2 2162   6.678   5.920   2.305
  733TIP3    H1 2163   6.596   5.924   2.353
  733TIP3    H2 2164   6.746   5.919   2.372
  734TIP3   OH2 2165   3.951   4.091   1.622
  734TIP3    H1 2166   3.927   4.169   1.673
  734TIP3    H2 2167   3.977   4.026   1.687
  735TIP3   OH2 2168   1.941   1.528   2.247
  735TIP3    H1 2169   1.910   1.472   2.176
  735TIP3    H2 2170   2.001   1.589   2.205
  736TIP3   OH2 2171   2.073   5.278   0.516
  736TIP3    H1 2172   2.003   5.278   0.450
  736TIP3    H2 2173   2.030   5.308   0.596
  737TIP3   OH2 2174   3.658   4.548   2.804
  737TIP3    H1 2175   3.699   4.472   2.763
  737TIP3    H2 2176   3.712   4.565   2.881
  738TIP3   OH2 2177   2.728   3.640   0.826
  738TIP3    H1 2178   2.793   3.708   0.845
  738TIP3    H2 2179   2.688   3.668   0.743
  739TIP3   OH2 2180   3.344   3.167   3.024
  739TIP3    H1 2181   3.316   3.253   3.053
  739TIP3    H2 2182   3.265   3.114   3.021
  740TIP3   OH2 2183   2.900   5.365   5.323
  740TIP3    H1 2184   2.850   5.290   5.290
  740TIP3    H2 2185   2.842   5.440   5.311
  741TIP3   OH2 2186   0.411   3.180   4.651
  741TIP3    H1 2187   0.458   3.128   4.717
  741TIP3    H2 2188   0.453   3.157   4.568
  742TIP3   OH2 2189   0.669   4.879   5.306
  742TIP3    H1 2190   0.736   4.947   5.315
  742TIP3    H2 2191   0.697   4.811   5.367
  743TIP3   OH2 2192   2.615   0.930   1.559
  743TIP3    H1 2193   2.550   0.887   1.615
  743TIP3    H2 2194   2.602   1.024   1.576
  744TIP3   OH2 2195   5.180   3.002   3.001
  744TIP3    H1 2196   5.147   2.943   3.069
  744TIP3    H2 2197   5.176   2.950   2.921
  745TIP3   OH2 2198   7.155   4.190   3.134
  745TIP3    H1 2199   7.175   4.108   3.179
  745TIP3    H2 2200   7.107   4.242   3.198
  746TIP3   OH2 2201   3.032   3.548   3.398
  746TIP3    H1 2202   3.043   3.471   3.342
  746TIP3    H2 2203   3.011   3.619   3.337
  747TIP3   OH2 2204   3.334   1.500   4.367
  747TIP3    H1 2205   3.328   1.444   4.290
  747TIP3    H2 2206   3.325   1.440   4.441
  748TIP3   OH2 2207   6.170   6.416   2.206
  748TIP3    H1 2208   6.173   6.503   2.166
  748TIP3    H2 2209   6.209   6.428   2.293
  749TIP3   OH2 2210   1.338   2.506   1.036
  749TIP3    H1 2211   1.355   2.475   1.125
  749TIP3    H2 2212   1.425   2.526   1.001
  750TIP3   OH2 2213   4.548   4.814   4.160
  750TIP3    H1 2214   4.563   4.851   4.247
  750TIP3    H2 2215   4.517   4.725   4.176
  751TIP3   OH2 2216   5.199   6.299   2.747
  751TIP3    H1 2217   5.151   6.346   2.816
  751TIP3    H2 2218   5.289   6.333   2.754
  752TIP3   OH2 2219   5.965   0.456   4.683
  752TIP3    H1 2220   5.933   0.369   4.658
  752TIP3    H2 2221   5.891   0.515   4.664
  753TIP3   OH2 2222   5.949   4.041   0.074
  753TIP3    H1 2223   5.944   3.981  -0.001
  753TIP3    H2 2224   5.857   4.056   0.098
  754TIP3   OH2 2225   2.220   4.748   4.494
  754TIP3    H1 2226   2.207   4.801   4.415
  754TIP3    H2 2227   2.315   4.733   4.498
  755TIP3   OH2 2228   1.162   4.764   3.224
  755TIP3    H1 2229   1.232   4.807   3.174
  755TIP3    H2 2230   1.207   4.724   3.298
  756TIP3   OH2 2231   0.568   4.343   3.820
  756TIP3    H1 2232   0.489   4.372   3.775
  756TIP3    H2 2233   0.623   4.306   3.751
  757TIP3   OH2 2234   4.670   6.374   3.775
  757TIP3    H1 2235   4.760   6.348   3.755
  757TIP3    H2 2236   4.675   6.468   3.791
  758TIP3   OH2 2237   6.229   0.924   1.329
  758TIP3    H1 2238   6.205   0.910   1.420
  758TIP3    H2 2239   6.289   0.999   1.331
  759TIP3   OH2 2240   5.981   1.181   4.752
  759TIP3    H1 2241   6.063   1.162   4.797
  759TIP3    H2 2242   5.982   1.276   4.740
  760TIP3   OH2 2243   3.223   1.259   5.116
  760TIP3    H1 2244   3.206   1.351   5.138
  760TIP3    H2 2245   3.169   1.243   5.038
  761TIP3   OH2 2246   2.651   3.893   0.993
  761TIP3    H1 2247   2.610   3.875   0.908
  761TIP3    H2 2248   2.640   3.812   1.042
  762TIP3   OH2 2249   1.540   5.993   5.548
  762TIP3    H1 2250   1.585   5.970   5.467
  762TIP3    H2 2251   1.560   6.086   5.560
  763TIP3   OH2 2252   3.354   3.237   3.683
  763TIP3    H1 2253   3.268   3.231   3.724
  763TIP3    H2 2254   3.410   3.279   3.749
  764TIP3   OH2 2255   2.555   1.190   1.376
  764TIP3    H1 2256   2.507   1.116   1.339
  764TIP3    H2 2257   2.543   1.260   1.313
  765TIP3   OH2 2258   4.387   1.148   2.063
  765TIP3    H1 2259   4.315   1.114   2.010
  765TIP3    H2 2260   4.450   1.076   2.066
  766TIP3   OH2 2261   1.733   3.657   3.979
  766TIP3    H1 2262   1.783   3.688   4.055
  766TIP3    H2 2263   1.736   3.561   3.986
  767TIP3   OH2 2264   1.022   0.893   1.451
  767TIP3    H1 2265   0.934   0.876   1.484
  767TIP3    H2 2266   1.015   0.879   1.356
  768TIP3   OH2 2267   0.082   0.571   1.177
  768TIP3    H1 2268   0.010   0.606   1.125
  768TIP3    H2 2269   0.137   0.647   1.197
  769TIP3   OH2 2270   3.674   3.002   0.383
  769TIP3    H1 2271   3.617   3.074   0.412
  769TIP3    H2 2272   3.744   3.046   0.334
  770TIP3   OH2 2273   4.403   6.333   5.528
  770TIP3    H1 2274   4.487   6.366   5.560
  770TIP3    H2 2275   4.421   6.307   5.437
  771TIP3   OH2 2276   3.057   1.414   4.410
  771TIP3    H1 2277   3.144   1.401   4.448
  771TIP3    H2 2278   3.014   1.329   4.423
  772TIP3   OH2 2279   2.556   6.720   2.734
  772TIP3    H1 2280   2.639   6.676   2.717
  772TIP3    H2 2281   2.537   6.702   2.826
  773TIP3   OH2 2282   4.201   5.383   4.917
  773TIP3    H1 2283   4.166   5.296   4.896
  773TIP3    H2 2284   4.129   5.429   4.960
  774TIP3   OH2 2285   4.500   0.631   3.749
  774TIP3    H1 2286   4.536   0.551   3.787
  774TIP3    H2 2287   4.572   0.694   3.753
  775TIP3   OH2 2288   4.559   0.659   5.261
  775TIP3    H1 2289   4.621   0.722   5.297
  775TIP3    H2 2290   4.474   0.701   5.270
  776TIP3   OH2 2291   6.071   4.065   4.791
  776TIP3    H1 2292   6.080   4.160   4.787
  776TIP3    H2 2293   5.976   4.050   4.789
  777TIP3   OH2 2294   0.054   0.459   3.232
  777TIP3    H1 2295  -0.038   0.448   3.255
  777TIP3    H2 2296   0.056   0.538   3.178
  778TIP3   OH2 2297   2.048   4.534   5.085
  778TIP3    H1 2298   2.093   4.605   5.131
  778TIP3    H2 2299   2.034   4.568   4.997
  779TIP3   OH2 2300   6.067   2.079   1.284
  779TIP3    H1 2301   6.134   2.026   1.327
  779TIP3    H2 2302   6.039   2.142   1.350
  780TIP3   OH2 2303   0.932   4.787   1.084
  780TIP3    H1 2304   1.014   4.818   1.121
  780TIP3    H2 2305   0.882   4.755   1.160
  781TIP3   OH2 2306   1.715   5.485   4.094
  781TIP3    H1 2307   1.776   5.431   4.044
  781TIP3    H2 2308   1.688   5.429   4.167
  782TIP3   OH2 2309   6.475   4.848   2.423
  782TIP3    H1 2310   6.508   4.937   2.410
  782TIP3    H2 2311   6.396   4.843   2.369
  783TIP3   OH2 2312   2.795   1.728   1.222
  783TIP3    H1 2313   2.843   1.668   1.279
  783TIP3    H2 2314   2.854   1.743   1.148
  784TIP3   OH2 2315   2.398   3.321   2.166
  784TIP3    H1 2316   2.468   3.309   2.230
  784TIP3    H2 2317   2.365   3.410   2.183
  785TIP3   OH2 2318   6.585   3.131   2.238
  785TIP3    H1 2319   6.538   3.071   2.296
  785TIP3    H2 2320   6.617   3.200   2.296
  786TIP3   OH2 2321   3.789   3.292   4.832
  786TIP3    H1 2322   3.802   3.220   4.893
  786TIP3    H2 2323   3.708   3.272   4.786
  787TIP3   OH2 2324   4.127   3.965   4.267
  787TIP3    H1 2325   4.104   3.895   4.206
  787TIP3    H2 2326   4.205   3.934   4.311
  788TIP3   OH2 2327   3.391   0.861   5.716
  788TIP3    H1 2328   3.372   0.816   5.799
  788TIP3    H2 2329   3.377   0.954   5.736
  789TIP3   OH2 2330   6.460   4.472   5.047
  789TIP3    H1 2331   6.554   4.462   5.060
  789TIP3    H2 2332   6.451   4.496   4.955
  790TIP3   OH2 2333   3.156   4.769   0.710
  790TIP3    H1 2334   3.166   4.691   0.656
  790TIP3    H2 2335   3.191   4.744   0.795
  791TIP3   OH2 2336   0.073   0.945   1.665
  791TIP3    H1 2337   0.133   1.020   1.661
  791TIP3    H2 2338  -0.012   0.981   1.641
  792TIP3   OH2 2339   5.321   1.357   4.211
  792TIP3    H1 2340   5.228   1.332   4.210
  792TIP3    H2 2341   5.342   1.364   4.304
  793TIP3   OH2 2342   4.120   3.181   1.557
  793TIP3    H1 2343   4.191   3.119   1.538
  793TIP3    H2 2344   4.041   3.138   1.521
  794TIP3   OH2 2345   2.940   2.731   5.421
  794TIP3    H1 2346   2.885   2.804   5.392
  794TIP3    H2 2347   2.917   2.720   5.513
  795TIP3   OH2 2348   0.012   2.870   1.860
  795TIP3    H1 2349  -0.041   2.947   1.881
  795TIP3    H2 2350   0.092   2.906   1.822
  796TIP3   OH2 2351   0.718   5.635   1.459
  796TIP3    H1 2352   0.764   5.567   1.410
  796TIP3    H2 2353   0.634   5.597   1.482
  797TIP3   OH2 2354   0.395   2.921   1.423
  797TIP3    H1 2355   0.360   2.942   1.337
  797TIP3    H2 2356   0.442   2.838   1.410
  798TIP3   OH2 2357   3.802   6.188  -0.010
  798TIP3    H1 2358   3.789   6.094   0.003
  798TIP3    H2 2359   3.881   6.209   0.039
  799TIP3   OH2 2360   3.956   3.862   0.721
  799TIP3    H1 2361   3.883   3.803   0.701
  799TIP3    H2 2362   3.940   3.939   0.667
  800TIP3   OH2 2363   3.196   5.206   2.688
  800TIP3    H1 2364   3.256   5.267   2.733
  800TIP3    H2 2365   3.197   5.235   2.597
  801TIP3   OH2 2366   1.525   3.814   4.949
  801TIP3    H1 2367   1.468   3.814   4.871
  801TIP3    H2 2368   1.558   3.725   4.954
  802TIP3   OH2 2369   7.047   0.769   3.370
  802TIP3    H1 2370   7.045   0.863   3.389
  802TIP3    H2 2371   6.959   0.738   3.394
  803TIP3   OH2 2372   0.326   0.483   5.292
  803TIP3    H1 2373   0.392   0.419   5.318
  803TIP3    H2 2374   0.375   0.564   5.280
  804TIP3   OH2 2375   4.427   0.108   5.844
  804TIP3    H1 2376   4.521   0.111   5.860
  804TIP3    H2 2377   4.410   0.187   5.792
  805TIP3   OH2 2378   3.354   4.977   2.668
  805TIP3    H1 2379   3.291   5.050   2.663
  805TIP3    H2 2380   3.439   5.020   2.671
  806TIP3   OH2 2381   5.945   5.111   1.884
  806TIP3    H1 2382   5.860   5.107   1.927
  806TIP3    H2 2383   6.002   5.056   1.937
  807TIP3   OH2 2384   4.676   1.851   1.901
  807TIP3    H1 2385   4.669   1.795   1.824
  807TIP3    H2 2386   4.753   1.818   1.947
  808TIP3   OH2 2387   3.511   0.688   3.371
  808TIP3    H1 2388   3.464   0.765   3.340
  808TIP3    H2 2389   3.571   0.667   3.299
  809TIP3   OH2 2390   1.639   0.212   0.214
  809TIP3    H1 2391   1.659   0.126   0.176
  809TIP3    H2 2392   1.555   0.200   0.258
  810TIP3   OH2 2393   3.529   2.777   0.615
  810TIP3    H1 2394   3.623   2.783   0.597
  810TIP3    H2 2395   3.521   2.800   0.707
  811TIP3   OH2 2396   4.023   4.730   5.666
  811TIP3    H1 2397   4.009   4.658   5.603
  811TIP3    H2 2398   3.937   4.746   5.704
  812TIP3   OH2 2399   1.822   6.790   5.394
  812TIP3    H1 2400   1.727   6.793   5.407
  812TIP3    H2 2401   1.843   6.696   5.389
  813TIP3   OH2 2402   3.696   6.695   4.156
  813TIP3    H1 2403   3.718   6.631   4.224
  813TIP3    H2 2404   3.692   6.778   4.202
  814TIP3   OH2 2405   4.335   6.075   3.722
  814TIP3    H1 2406   4.370   6.164   3.718
  814TIP3    H2 2407   4.288   6.072   3.805
  815TIP3   OH2 2408   5.784   3.544   5.406
  815TIP3    H1 2409   5.866   3.587   5.431
  815TIP3    H2 2410   5.726   3.557   5.480
  816TIP3   OH2 2411   6.001   3.083   3.584
  816TIP3    H1 2412   5.927   3.024   3.576
  816TIP3    H2 2413   5.964   3.170   3.566
  817TIP3   OH2 2414   5.595   1.486   4.037
  817TIP3    H1 2415   5.570   1.564   4.086
  817TIP3    H2 2416   5.668   1.514   3.982
  818TIP3   OH2 2417   2.250   2.932   5.714
  818TIP3    H1 2418   2.339   2.906   5.689
  818TIP3    H2 2419   2.220   2.986   5.641
  819TIP3   OH2 2420   5.020   2.443   4.943
  819TIP3    H1 2421   4.986   2.374   4.885
  819TIP3    H2 2422   4.945   2.468   4.997
  820TIP3   OH2 2423   2.586   5.790   2.918
  820TIP3    H1 2424   2.554   5.879   2.908
  820TIP3    H2 2425   2.633   5.791   3.001
  821TIP3   OH2 2426   6.789   3.946   2.349
  821TIP3    H1 2427   6.877   3.981   2.342
  821TIP3    H2 2428   6.776   3.898   2.267
  822TIP3   OH2 2429   0.380   3.614   0.491
  822TIP3    H1 2430   0.456   3.570   0.529
  822TIP3    H2 2431   0.310   3.549   0.496
  823TIP3   OH2 2432   0.927   3.833   5.116
  823TIP3    H1 2433   0.948   3.890   5.190
  823TIP3    H2 2434   0.842   3.795   5.138
  824TIP3   OH2 2435   7.060   5.507   1.570
  824TIP3    H1 2436   7.065   5.529   1.477
  824TIP3    H2 2437   7.119   5.432   1.580
  825TIP3   OH2 2438   3.559   1.855   4.196
  825TIP3    H1 2439   3.533   1.791   4.262
  825TIP3    H2 2440   3.642   1.889   4.227
  826TIP3   OH2 2441   1.908   0.914   2.498
  826TIP3    H1 2442   1.834   0.936   2.442
  826TIP3    H2 2443   1.967   0.990   2.489
  827TIP3   OH2 2444   3.509   2.410   1.377
  827TIP3    H1 2445   3.576   2.415   1.445
  827TIP3    H2 2446   3.494   2.316   1.365
  828TIP3   OH2 2447   6.581   3.264   2.000
  828TIP3    H1 2448   6.665   3.218   2.003
  828TIP3    H2 2449   6.538   3.241   2.083
  829TIP3   OH2 2450   0.596   6.534   4.800
  829TIP3    H1 2451   0.674   6.513   4.852
  829TIP3    H2 2452   0.551   6.602   4.850
  830TIP3   OH2 2453   5.457   5.908   5.745
  830TIP3    H1 2454   5.493   5.883   5.660
  830TIP3    H2 2455   5.429   5.999   5.735
  831TIP3   OH2 2456   2.206   3.907   1.097
  831TIP3    H1 2457   2.248   3.838   1.045
  831TIP3    H2 2458   2.228   3.988   1.051
  832TIP3   OH2 2459   7.152   2.313   4.743
  832TIP3    H1 2460   7.083   2.274   4.797
  832TIP3    H2 2461   7.111   2.389   4.703
  833TIP3   OH2 2462   2.005   0.200   5.098
  833TIP3    H1 2463   2.098   0.209   5.079
  833TIP3    H2 2464   2.001   0.183   5.192
  834TIP3   OH2 2465   0.267   0.798   1.250
  834TIP3    H1 2466   0.200   0.866   1.259
  834TIP3    H2 2467   0.339   0.840   1.203
  835TIP3   OH2 2468   1.801   0.321   4.936
  835TIP3    H1 2469   1.874   0.287   4.988
  835TIP3    H2 2470   1.815   0.416   4.934
  836TIP3   OH2 2471   3.324   0.563   3.174
  836TIP3    H1 2472   3.336   0.630   3.108
  836TIP3    H2 2473   3.258   0.598   3.233
  837TIP3   OH2 2474   6.659   5.627   2.631
  837TIP3    H1 2475   6.621   5.539   2.627
  837TIP3    H2 2476   6.595   5.679   2.679
  838TIP3   OH2 2477   0.753   4.630   1.242
  838TIP3    H1 2478   0.668   4.592   1.264
  838TIP3    H2 2479   0.814   4.557   1.246
  839TIP3   OH2 2480   5.548   0.114   2.026
  839TIP3    H1 2481   5.627   0.088   1.979
  839TIP3    H2 2482   5.476   0.088   1.969
  840TIP3   OH2 2483   4.403   2.561   4.630
  840TIP3    H1 2484   4.484   2.610   4.642
  840TIP3    H2 2485   4.356   2.571   4.713
  841TIP3   OH2 2486   0.148   1.924   5.452
  841TIP3    H1 2487   0.056   1.902   5.468
  841TIP3    H2 2488   0.157   2.013   5.486
  842TIP3   OH2 2489   7.114   6.668   1.196
  842TIP3    H1 2490   7.123   6.576   1.221
  842TIP3    H2 2491   7.179   6.714   1.250
  843TIP3   OH2 2492   1.276   6.164   0.560
  843TIP3    H1 2493   1.300   6.190   0.471
  843TIP3    H2 2494   1.360   6.156   0.606
  844TIP3   OH2 2495   6.326   2.291   3.153
  844TIP3    H1 2496   6.270   2.222   3.118
  844TIP3    H2 2497   6.285   2.373   3.125
  845TIP3   OH2 2498   2.586   1.362   0.794
  845TIP3    H1 2499   2.580   1.384   0.701
  845TIP3    H2 2500   2.497   1.373   0.827
  846TIP3   OH2 2501   6.908   5.863   0.846
  846TIP3    H1 2502   6.972   5.792   0.847
  846TIP3    H2 2503   6.955   5.937   0.887
  847TIP3   OH2 2504   2.653   4.821   5.473
  847TIP3    H1 2505   2.638   4.731   5.502
  847TIP3    H2 2506   2.566   4.858   5.462
  848TIP3   OH2 2507   4.410   5.250   3.420
  848TIP3    H1 2508   4.373   5.191   3.486
  848TIP3    H2 2509   4.375   5.336   3.443
  849TIP3   OH2 2510   1.903   1.002   5.104
  849TIP3    H1 2511   1.986   1.013   5.059
  849TIP3    H2 2512   1.893   1.081   5.157
  850TIP3   OH2 2513   6.009   1.979   2.793
  850TIP3    H1 2514   5.923   1.961   2.831
  850TIP3    H2 2515   6.003   2.068   2.759
  851TIP3   OH2 2516   2.923   4.742   1.317
  851TIP3    H1 2517   2.958   4.653   1.322
  851TIP3    H2 2518   2.942   4.770   1.227
  852TIP3   OH2 2519   6.478   3.743   4.565
  852TIP3    H1 2520   6.440   3.713   4.648
  852TIP3    H2 2521   6.566   3.704   4.564
  853TIP3   OH2 2522   7.108   3.499   0.802
  853TIP3    H1 2523   7.104   3.594   0.802
  853TIP3    H2 2524   7.074   3.474   0.716
  854TIP3   OH2 2525   2.514   3.574   1.705
  854TIP3    H1 2526   2.425   3.563   1.738
  854TIP3    H2 2527   2.529   3.668   1.706
  855TIP3   OH2 2528   6.919   6.760   3.329
  855TIP3    H1 2529   6.846   6.718   3.284
  855TIP3    H2 2530   6.887   6.777   3.418
  856TIP3   OH2 2531   5.631   6.154   2.725
  856TIP3    H1 2532   5.616   6.240   2.686
  856TIP3    H2 2533   5.726   6.142   2.722
  857TIP3   OH2 2534   0.843   0.048   2.215
  857TIP3    H1 2535   0.887  -0.018   2.162
  857TIP3    H2 2536   0.877   0.131   2.182
  858TIP3   OH2 2537   5.441   0.456   4.248
  858TIP3    H1 2538   5.399   0.384   4.295
  858TIP3    H2 2539   5.425   0.437   4.156
  859TIP3   OH2 2540   3.904   1.075   0.040
  859TIP3    H1 2541   3.861   1.033   0.115
  859TIP3    H2 2542   3.832   1.106  -0.015
  860TIP3   OH2 2543   3.430   4.061   4.535
  860TIP3    H1 2544   3.445   4.034   4.445
  860TIP3    H2 2545   3.368   3.997   4.570
  861TIP3   OH2 2546   2.490   3.774   2.420
  861TIP3    H1 2547   2.571   3.777   2.472
  861TIP3    H2 2548   2.504   3.835   2.349
  862TIP3   OH2 2549   4.604   1.744   3.271
  862TIP3    H1 2550   4.561   1.785   3.346
  862TIP3    H2 2551   4.642   1.817   3.222
  863TIP3   OH2 2552   0.215   0.456   4.810
  863TIP3    H1 2553   0.281   0.526   4.805
  863TIP3    H2 2554   0.241   0.403   4.885
  864TIP3   OH2 2555   3.748   4.567   5.442
  864TIP3    H1 2556   3.722   4.490   5.392
  864TIP3    H2 2557   3.694   4.564   5.521
  865TIP3   OH2 2558   5.580   6.449   2.506
  865TIP3    H1 2559   5.668   6.469   2.537
  865TIP3    H2 2560   5.528   6.437   2.586
  866TIP3   OH2 2561   2.344   3.591   2.269
  866TIP3    H1 2562   2.264   3.573   2.318
  866TIP3    H2 2563   2.393   3.652   2.324
  867TIP3   OH2 2564   5.586   5.805   4.455
  867TIP3    H1 2565   5.613   5.716   4.477
  867TIP3    H2 2566   5.499   5.795   4.415
  868TIP3   OH2 2567   4.121   2.407   2.539
  868TIP3    H1 2568   4.103   2.454   2.458
  868TIP3    H2 2569   4.216   2.412   2.549
  869TIP3   OH2 2570   0.623   1.379   1.765
  869TIP3    H1 2571   0.545   1.409   1.811
  869TIP3    H2 2572   0.691   1.378   1.833
  870TIP3   OH2 2573   0.983   0.658   2.166
  870TIP3    H1 2574   0.913   0.606   2.125
  870TIP3    H2 2575   1.025   0.598   2.228
  871TIP3   OH2 2576   2.332   5.887   3.958
  871TIP3    H1 2577   2.325   5.810   4.015
  871TIP3    H2 2578   2.311   5.961   4.016
  872TIP3   OH2 2579   3.624   5.566   0.978
  872TIP3    H1 2580   3.598   5.642   0.926
  872TIP3    H2 2581   3.618   5.492   0.918
  873TIP3   OH2 2582   7.158   0.731   3.104
  873TIP3    H1 2583   7.156   0.827   3.095
  873TIP3    H2 2584   7.093   0.713   3.172
  874TIP3   OH2 2585   4.529   3.005   2.615
  874TIP3    H1 2586   4.523   3.018   2.710
  874TIP3    H2 2587   4.470   3.071   2.578
  875TIP3   OH2 2588   5.420   1.928   5.019
  875TIP3    H1 2589   5.472   1.954   4.944
  875TIP3    H2 2590   5.484   1.894   5.082
  876TIP3   OH2 2591   7.124   2.756   2.431
  876TIP3    H1 2592   7.056   2.822   2.446
  876TIP3    H2 2593   7.158   2.735   2.518
  877TIP3   OH2 2594   1.408   1.607   1.295
  877TIP3    H1 2595   1.377   1.517   1.286
  877TIP3    H2 2596   1.407   1.642   1.206
  878TIP3   OH2 2597   1.878   0.899   4.390
  878TIP3    H1 2598   1.872   0.806   4.368
  878TIP3    H2 2599   1.805   0.913   4.451
  879TIP3   OH2 2600   4.472   3.591   1.205
  879TIP3    H1 2601   4.490   3.541   1.285
  879TIP3    H2 2602   4.545   3.652   1.198
  880TIP3   OH2 2603   4.156   0.965   4.654
  880TIP3    H1 2604   4.194   0.926   4.576
  880TIP3    H2 2605   4.203   1.047   4.667
  881TIP3   OH2 2606   5.198   0.091   4.736
  881TIP3    H1 2607   5.124   0.118   4.791
  881TIP3    H2 2608   5.264   0.061   4.799
  882TIP3   OH2 2609   5.344   5.217   2.090
  882TIP3    H1 2610   5.409   5.252   2.152
  882TIP3    H2 2611   5.267   5.273   2.104
  883TIP3   OH2 2612   6.294   2.406   5.581
  883TIP3    H1 2613   6.336   2.492   5.582
  883TIP3    H2 2614   6.359   2.348   5.541
  884TIP3   OH2 2615   1.528   6.714   5.491
  884TIP3    H1 2616   1.587   6.640   5.503
  884TIP3    H2 2617   1.442   6.682   5.518
  885TIP3   OH2 2618   7.064   1.055   4.088
  885TIP3    H1 2619   6.986   1.008   4.119
  885TIP3    H2 2620   7.029   1.133   4.045
  886TIP3   OH2 2621   3.723   0.410   1.801
  886TIP3    H1 2622   3.739   0.339   1.738
  886TIP3    H2 2623   3.664   0.469   1.755
  887TIP3   OH2 2624   4.696   2.508   1.936
  887TIP3    H1 2625   4.771   2.521   1.878
  887TIP3    H2 2626   4.700   2.581   1.997
  888TIP3   OH2 2627   1.333   3.578   2.815
  888TIP3    H1 2628   1.288   3.662   2.816
  888TIP3    H2 2629   1.292   3.530   2.742
  889TIP3   OH2 2630   5.568   4.767   4.727
  889TIP3    H1 2631   5.652   4.778   4.682
  889TIP3    H2 2632   5.502   4.782   4.659
  890TIP3   OH2 2633   0.792   5.847   0.275
  890TIP3    H1 2634   0.816   5.934   0.308
  890TIP3    H2 2635   0.797   5.856   0.180
  891TIP3   OH2 2636   4.359   5.818   5.183
  891TIP3    H1 2637   4.439   5.859   5.150
  891TIP3    H2 2638   4.297   5.825   5.110
  892TIP3   OH2 2639   4.998   3.153   2.257
  892TIP3    H1 2640   4.948   3.229   2.228
  892TIP3    H2 2641   5.087   3.169   2.224
  893TIP3   OH2 2642   5.279   1.118   4.919
  893TIP3    H1 2643   5.319   1.033   4.901
  893TIP3    H2 2644   5.244   1.109   5.008
  894TIP3   OH2 2645   0.958   3.181   3.665
  894TIP3    H1 2646   0.969   3.141   3.751
  894TIP3    H2 2647   0.920   3.112   3.611
  895TIP3   OH2 2648   7.070   6.533   0.591
  895TIP3    H1 2649   7.056   6.439   0.593
  895TIP3    H2 2650   7.130   6.547   0.518
  896TIP3   OH2 2651   6.032   3.818   5.317
  896TIP3    H1 2652   6.062   3.749   5.376
  896TIP3    H2 2653   6.102   3.883   5.318
  897TIP3   OH2 2654   0.746   3.523   5.048
  897TIP3    H1 2655   0.695   3.449   5.015
  897TIP3    H2 2656   0.813   3.483   5.103
  898TIP3   OH2 2657   4.921   6.804   1.796
  898TIP3    H1 2658   4.904   6.783   1.705
  898TIP3    H2 2659   5.015   6.792   1.806
  899TIP3   OH2 2660   5.874   6.366   5.571
  899TIP3    H1 2661   5.888   6.307   5.645
  899TIP3    H2 2662   5.954   6.360   5.521
  900TIP3   OH2 2663   0.524   5.004   5.022
  900TIP3    H1 2664   0.587   4.936   5.002
  900TIP3    H2 2665   0.515   5.054   4.941
  901TIP3   OH2 2666   4.281   5.803   3.029
  901TIP3    H1 2667   4.354   5.742   3.043
  901TIP3    H2 2668   4.225   5.759   2.966
  902TIP3   OH2 2669   4.243   2.928   1.454
  902TIP3    H1 2670   4.258   2.915   1.360
  902TIP3    H2 2671   4.330   2.926   1.493
  903TIP3   OH2 2672   4.081   6.576   5.329
  903TIP3    H1 2673   4.103   6.496   5.281
  903TIP3    H2 2674   4.163   6.626   5.330
  904TIP3   OH2 2675   3.469   1.857   0.598
  904TIP3    H1 2676   3.379   1.849   0.565
  904TIP3    H2 2677   3.460   1.852   0.693
  905TIP3   OH2 2678   1.358   5.546   0.227
  905TIP3    H1 2679   1.399   5.558   0.313
  905TIP3    H2 2680   1.306   5.626   0.215
  906TIP3   OH2 2681   1.212   4.259   5.361
  906TIP3    H1 2682   1.302   4.265   5.393
  906TIP3    H2 2683   1.210   4.316   5.284
  907TIP3   OH2 2684   4.804   3.890   0.214
  907TIP3    H1 2685   4.880   3.835   0.233
  907TIP3    H2 2686   4.741   3.868   0.282
  908TIP3   OH2 2687   5.528   2.604   2.684
  908TIP3    H1 2688   5.605   2.659   2.694
  908TIP3    H2 2689   5.469   2.654   2.627
  909TIP3   OH2 2690   3.429   2.089   4.700
  909TIP3    H1 2691   3.388   2.024   4.642
  909TIP3    H2 2692   3.373   2.090   4.778
  910TIP3   OH2 2693   4.736   4.632   5.104
  910TIP3    H1 2694   4.719   4.558   5.163
  910TIP3    H2 2695   4.802   4.599   5.043
  911TIP3   OH2 2696   0.751   4.203   1.069
  911TIP3    H1 2697   0.829   4.250   1.097
  911TIP3    H2 2698   0.763   4.114   1.102
  912TIP3   OH2 2699   3.727   4.830   0.171
  912TIP3    H1 2700   3.644   4.864   0.204
  912TIP3    H2 2701   3.792   4.896   0.196
  913TIP3   OH2 2702   4.090   1.692   4.020
  913TIP3    H1 2703   4.065   1.623   4.082
  913TIP3    H2 2704   4.147   1.649   3.956
  914TIP3   OH2 2705   5.140   1.340   1.311
  914TIP3    H1 2706   5.146   1.435   1.301
  914TIP3    H2 2707   5.201   1.305   1.246
  915TIP3   OH2 2708   1.085   1.253   2.941
  915TIP3    H1 2709   1.139   1.330   2.960
  915TIP3    H2 2710   0.995   1.283   2.956
  916TIP3   OH2 2711   3.548   1.852   3.666
  916TIP3    H1 2712   3.466   1.902   3.674
  916TIP3    H2 2713   3.564   1.819   3.754
  917TIP3   OH2 2714   3.397   2.416   5.442
  917TIP3    H1 2715   3.425   2.494   5.395
  917TIP3    H2 2716   3.307   2.434   5.469
  918TIP3   OH2 2717   4.232   2.383   4.144
  918TIP3    H1 2718   4.255   2.382   4.237
  918TIP3    H2 2719   4.311   2.418   4.101
  919TIP3   OH2 2720   4.558   4.518   4.740
  919TIP3    H1 2721   4.642   4.550   4.771
  919TIP3    H2 2722   4.536   4.577   4.667
  920TIP3   OH2 2723   1.259   3.621   4.087
  920TIP3    H1 2724   1.353   3.602   4.091
  920TIP3    H2 2725   1.233   3.634   4.178
  921TIP3   OH2 2726   0.188   5.481   3.516
  921TIP3    H1 2727   0.247   5.418   3.475
  921TIP3    H2 2728   0.245   5.549   3.551
  922TIP3   OH2 2729   7.072   3.191   2.242
  922TIP3    H1 2730   7.127   3.260   2.205
  922TIP3    H2 2731   7.135   3.131   2.282
  923TIP3   OH2 2732   2.734   2.999   3.184
  923TIP3    H1 2733   2.804   2.996   3.118
  923TIP3    H2 2734   2.657   2.969   3.137
  924TIP3   OH2 2735   4.948   1.058   0.757
  924TIP3    H1 2736   5.010   1.126   0.783
  924TIP3    H2 2737   4.933   1.073   0.664
  925TIP3   OH2 2738   1.630   4.343   3.969
  925TIP3    H1 2739   1.585   4.421   4.001
  925TIP3    H2 2740   1.656   4.297   4.049
  926TIP3   OH2 2741   6.249   0.818   5.140
  926TIP3    H1 2742   6.196   0.739   5.130
  926TIP3    H2 2743   6.186   0.890   5.134
  927TIP3   OH2 2744   6.798   1.694   1.623
  927TIP3    H1 2745   6.883   1.727   1.652
  927TIP3    H2 2746   6.734   1.751   1.666
  928TIP3   OH2 2747   4.020   0.766   2.703
  928TIP3    H1 2748   3.985   0.769   2.614
  928TIP3    H2 2749   4.095   0.825   2.701
  929TIP3   OH2 2750   6.977   3.444   4.879
  929TIP3    H1 2751   7.061   3.491   4.871
  929TIP3    H2 2752   7.002   3.352   4.889
  930TIP3   OH2 2753   4.675   4.486   3.941
  930TIP3    H1 2754   4.588   4.448   3.934
  930TIP3    H2 2755   4.674   4.560   3.880
  931TIP3   OH2 2756   0.527   6.277   4.047
  931TIP3    H1 2757   0.568   6.255   3.964
  931TIP3    H2 2758   0.433   6.284   4.027
  932TIP3   OH2 2759   5.425   2.016   3.327
  932TIP3    H1 2760   5.362   1.978   3.388
  932TIP3    H2 2761   5.502   1.960   3.334
  933TIP3   OH2 2762   5.943   1.083   2.434
  933TIP3    H1 2763   5.871   1.063   2.494
  933TIP3    H2 2764   6.021   1.084   2.490
  934TIP3   OH2 2765   1.234   2.235   2.103
  934TIP3    H1 2766   1.179   2.305   2.136
  934TIP3    H2 2767   1.185   2.155   2.123
  935TIP3   OH2 2768   2.335   2.100   0.517
  935TIP3    H1 2769   2.249   2.138   0.530
  935TIP3    H2 2770   2.387   2.132   0.591
  936TIP3   OH2 2771   4.239   5.529   3.406
  936TIP3    H1 2772   4.154   5.574   3.404
  936TIP3    H2 2773   4.302   5.596   3.381
  937TIP3   OH2 2774   4.941   3.418   3.612
  937TIP3    H1 2775   4.900   3.431   3.526
  937TIP3    H2 2776   4.871   3.380   3.666
  938TIP3   OH2 2777   0.802   4.601   4.500
  938TIP3    H1 2778   0.811   4.566   4.589
  938TIP3    H2 2779   0.869   4.556   4.449
  939TIP3   OH2 2780   4.538   6.055   5.657
  939TIP3    H1 2781   4.468   6.027   5.598
  939TIP3    H2 2782   4.614   6.004   5.631
  940TIP3   OH2 2783   1.769   1.839   1.557
  940TIP3    H1 2784   1.797   1.841   1.466
  940TIP3    H2 2785   1.816   1.912   1.598
  941TIP3   OH2 2786   2.905   5.956   2.587
  941TIP3    H1 2787   2.843   5.884   2.577
  941TIP3    H2 2788   2.852   6.035   2.578
  942TIP3   OH2 2789   5.663   3.794   3.044
  942TIP3    H1 2790   5.627   3.771   3.130
  942TIP3    H2 2791   5.717   3.871   3.060
  943TIP3   OH2 2792   0.628   2.481   4.814
  943TIP3    H1 2793   0.714   2.481   4.857
  943TIP3    H2 2794   0.645   2.515   4.726
  944TIP3   OH2 2795   0.249   3.960   3.153
  944TIP3    H1 2796   0.255   3.916   3.068
  944TIP3    H2 2797   0.279   3.895   3.216
  945TIP3   OH2 2798   3.766   6.324   0.508
  945TIP3    H1 2799   3.783   6.302   0.600
  945TIP3    H2 2800   3.707   6.256   0.477
  946TIP3   OH2 2801   5.743   0.831   1.533
  946TIP3    H1 2802   5.787   0.826   1.448
  946TIP3    H2 2803   5.698   0.747   1.541
  947TIP3   OH2 2804   0.380   2.394   0.488
  947TIP3    H1 2805   0.286   2.400   0.500
  947TIP3    H2 2806   0.417   2.411   0.574
  948TIP3   OH2 2807   4.343   1.303   4.797
  948TIP3    H1 2808   4.378   1.261   4.719
  948TIP3    H2 2809   4.280   1.367   4.764
  949TIP3   OH2 2810   2.224   0.897   2.113
  949TIP3    H1 2811   2.306   0.872   2.156
  949TIP3    H2 2812   2.212   0.830   2.045
  950TIP3   OH2 2813   1.215   3.338   4.056
  950TIP3    H1 2814   1.236   3.296   4.139
  950TIP3    H2 2815   1.260   3.423   4.061
  951TIP3   OH2 2816   1.215   4.050   3.471
  951TIP3    H1 2817   1.119   4.048   3.479
  951TIP3    H2 2818   1.246   4.036   3.560
  952TIP3   OH2 2819   2.736   5.551   3.919
  952TIP3    H1 2820   2.820   5.597   3.925
  952TIP3    H2 2821   2.755   5.464   3.956
  953TIP3   OH2 2822   4.638   0.413   3.828
  953TIP3    H1 2823   4.629   0.336   3.772
  953TIP3    H2 2824   4.615   0.381   3.916
  954TIP3   OH2 2825   2.495   3.773   2.738
  954TIP3    H1 2826   2.477   3.855   2.785
  954TIP3    H2 2827   2.427   3.769   2.671
  955TIP3   OH2 2828   5.460   1.896   2.442
  955TIP3    H1 2829   5.530   1.881   2.506
  955TIP3    H2 2830   5.466   1.989   2.422
  956TIP3   OH2 2831   4.794   3.096   0.722
  956TIP3    H1 2832   4.725   3.058   0.776
  956TIP3    H2 2833   4.774   3.067   0.633
  957TIP3   OH2 2834   1.598   2.033   1.293
  957TIP3    H1 2835   1.593   2.103   1.359
  957TIP3    H2 2836   1.662   1.972   1.329
  958TIP3   OH2 2837   6.529   2.842   3.420
  958TIP3    H1 2838   6.492   2.881   3.500
  958TIP3    H2 2839   6.615   2.883   3.411
  959TIP3   OH2 2840   4.546   0.240   5.301
  959TIP3    H1 2841   4.487   0.226   5.375
  959TIP3    H2 2842   4.508   0.188   5.230
  960TIP3   OH2 2843   1.224   5.696   3.784
  960TIP3    H1 2844   1.308   5.726   3.748
  960TIP3    H2 2845   1.192   5.770   3.836
  961TIP3   OH2 2846   1.442   3.553   0.693
  961TIP3    H1 2847   1.449   3.492   0.620
  961TIP3    H2 2848   1.486   3.632   0.662
  962TIP3   OH2 2849   3.717   1.642   0.353
  962TIP3    H1 2850   3.708   1.706   0.425
  962TIP3    H2 2851   3.806   1.656   0.320
  963TIP3   OH2 2852   0.490   4.555   1.324
  963TIP3    H1 2853   0.449   4.566   1.410
  963TIP3    H2 2854   0.458   4.470   1.293
  964TIP3   OH2 2855   4.232   4.422   5.071
  964TIP3    H1 2856   4.258   4.426   4.979
  964TIP3    H2 2857   4.223   4.328   5.089
  965TIP3   OH2 2858   5.420   1.997   0.088
  965TIP3    H1 2859   5.435   2.015   0.181
  965TIP3    H2 2860   5.324   1.997   0.079
  966TIP3   OH2 2861   0.326   3.608   4.603
  966TIP3    H1 2862   0.278   3.687   4.579
  966TIP3    H2 2863   0.389   3.637   4.669
  967TIP3   OH2 2864   1.209   3.166   4.317
  967TIP3    H1 2865   1.121   3.203   4.310
  967TIP3    H2 2866   1.261   3.233   4.361
  968TIP3   OH2 2867   2.824   1.537   1.709
  968TIP3    H1 2868   2.776   1.484   1.645
  968TIP3    H2 2869   2.912   1.500   1.710
  969TIP3   OH2 2870   1.614   1.480   3.981
  969TIP3    H1 2871   1.646   1.543   3.916
  969TIP3    H2 2872   1.693   1.448   4.024
  970TIP3   OH2 2873   5.193   4.563   3.614
  970TIP3    H1 2874   5.153   4.637   3.659
  970TIP3    H2 2875   5.211   4.500   3.684
  971TIP3   OH2 2876   2.321   1.600   1.355
  971TIP3    H1 2877   2.344   1.671   1.295
  971TIP3    H2 2878   2.243   1.631   1.400
  972TIP3   OH2 2879   1.891   1.630   5.119
  972TIP3    H1 2880   1.961   1.616   5.054
  972TIP3    H2 2881   1.936   1.621   5.203
  973TIP3   OH2 2882   4.537   2.284   1.891
  973TIP3    H1 2883   4.603   2.227   1.851
  973TIP3    H2 2884   4.583   2.365   1.910
  974TIP3   OH2 2885   3.910   2.629   4.924
  974TIP3    H1 2886   3.924   2.535   4.938
  974TIP3    H2 2887   3.931   2.669   5.008
  975TIP3   OH2 2888   5.707   4.275   2.046
  975TIP3    H1 2889   5.761   4.351   2.067
  975TIP3    H2 2890   5.700   4.227   2.128
  976TIP3   OH2 2891   3.037   2.326   0.960
  976TIP3    H1 2892   3.051   2.417   0.987
  976TIP3    H2 2893   3.026   2.330   0.865
  977TIP3   OH2 2894   0.692   5.092   4.572
  977TIP3    H1 2895   0.720   5.039   4.497
  977TIP3    H2 2896   0.755   5.164   4.575
  978TIP3   OH2 2897   5.065   4.846   0.758
  978TIP3    H1 2898   5.037   4.830   0.668
  978TIP3    H2 2899   5.106   4.932   0.756
  979TIP3   OH2 2900   4.120   4.391   2.468
  979TIP3    H1 2901   4.108   4.451   2.395
  979TIP3    H2 2902   4.104   4.444   2.546
  980TIP3   OH2 2903   0.563   5.774   3.183
  980TIP3    H1 2904   0.518   5.693   3.161
  980TIP3    H2 2905   0.502   5.819   3.242
  981TIP3   OH2 2906   4.246   1.892   5.327
  981TIP3    H1 2907   4.302   1.950   5.378
  981TIP3    H2 2908   4.162   1.893   5.373
  982TIP3   OH2 2909   2.415  -0.022   0.190
  982TIP3    H1 2910   2.366   0.043   0.139
  982TIP3    H2 2911   2.507  -0.004   0.169
  983TIP3   OH2 2912   5.872   5.861   2.855
  983TIP3    H1 2913   5.781   5.835   2.844
  983TIP3    H2 2914   5.921   5.780   2.837
  984TIP3   OH2 2915   3.263   4.220   2.613
  984TIP3    H1 2916   3.211   4.174   2.547
  984TIP3    H2 2917   3.199   4.254   2.675
  985TIP3   OH2 2918   6.879   5.771   4.843
  985TIP3    H1 2919   6.939   5.815   4.783
  985TIP3    H2 2920   6.839   5.702   4.790
  986TIP3   OH2 2921   4.781   4.131   0.753
  986TIP3    H1 2922   4.808   4.042   0.777
  986TIP3    H2 2923   4.690   4.136   0.780
  987TIP3   OH2 2924   1.610   6.301   1.480
  987TIP3    H1 2925   1.577   6.227   1.532
  987TIP3    H2 2926   1.618   6.373   1.542
  988TIP3   OH2 2927   5.044   3.285   3.877
  988TIP3    H1 2928   5.092   3.350   3.825
  988TIP3    H2 2929   5.112   3.225   3.909
  989TIP3   OH2 2930   5.517   5.333   3.179
  989TIP3    H1 2931   5.423   5.342   3.160
  989TIP3    H2 2932   5.554   5.418   3.157
  990TIP3   OH2 2933   3.353   5.909   2.845
  990TIP3    H1 2934   3.265   5.892   2.878
  990TIP3    H2 2935   3.353   6.002   2.821
  991TIP3   OH2 2936   3.921   6.601   0.841
  991TIP3    H1 2937   3.964   6.536   0.897
  991TIP3    H2 2938   3.829   6.601   0.870
  992TIP3   OH2 2939   7.182   5.805   5.544
  992TIP3    H1 2940   7.273   5.784   5.525
  992TIP3    H2 2941   7.145   5.834   5.461
  993TIP3   OH2 2942   2.170   2.710   3.649
  993TIP3    H1 2943   2.257   2.679   3.672
  993TIP3    H2 2944   2.150   2.776   3.716
  994TIP3   OH2 2945   4.710   2.972   0.181
  994TIP3    H1 2946   4.764   2.910   0.133
  994TIP3    H2 2947   4.657   3.015   0.114
  995TIP3   OH2 2948   0.949   1.235   3.540
  995TIP3    H1 2949   1.016   1.279   3.592
  995TIP3    H2 2950   0.991   1.216   3.456
  996TIP3   OH2 2951   2.803   4.158   0.883
  996TIP3    H1 2952   2.894   4.156   0.853
  996TIP3    H2 2953   2.786   4.069   0.914
  997TIP3   OH2 2954   6.180   6.255   4.259
  997TIP3    H1 2955   6.174   6.256   4.163
  997TIP3    H2 2956   6.273   6.256   4.278
  998TIP3   OH2 2957   1.389   0.460   0.714
  998TIP3    H1 2958   1.470   0.454   0.765
  998TIP3    H2 2959   1.416   0.500   0.631
  999TIP3   OH2 2960   2.291   5.985   2.774
  999TIP3    H1 2961   2.241   5.995   2.694
  999TIP3    H2 2962   2.306   6.074   2.805
 1000TIP3   OH2 2963   3.322   3.432   1.936
 1000TIP3    H1 2964   3.236   3.407   1.901
 1000TIP3    H2 2965   3.334   3.523   1.908
 1001TIP3   OH2 2966   3.213   0.150   4.742
 1001TIP3    H1 2967   3.180   0.181   4.827
 1001TIP3    H2 2968   3.303   0.123   4.760
 1002TIP3   OH2 2969   1.237   0.020   5.647
 1002TIP3    H1 2970   1.216  -0.049   5.710
 1002TIP3    H2 2971   1.326   0.046   5.668
 1003TIP3   OH2 2972   5.266   2.901   1.101
 1003TIP3    H1 2973   5.222   2.830   1.148
 1003TIP3    H2 2974   5.356   2.900   1.135
 1004TIP3   OH2 2975   4.421   0.653   5.021
 1004TIP3    H1 2976   4.433   0.559   5.026
 1004TIP3    H2 2977   4.360   0.665   4.948
 1005TIP3   OH2 2978   5.288   4.228   1.492
 1005TIP3    H1 2979   5.349   4.164   1.528
 1005TIP3    H2 2980   5.274   4.199   1.401
 1006TIP3   OH2 2981   5.590   5.184   5.718
 1006TIP3    H1 2982   5.501   5.194   5.750
 1006TIP3    H2 2983   5.629   5.118   5.775
 1007TIP3   OH2 2984   6.555   0.121   2.616
 1007TIP3    H1 2985   6.609   0.049   2.647
 1007TIP3    H2 2986   6.465   0.093   2.632
 1008TIP3   OH2 2987   6.068   2.255   5.652
 1008TIP3    H1 2988   6.133   2.321   5.629
 1008TIP3    H2 2989   6.108   2.206   5.724
 1009TIP3   OH2 2990   6.298   4.369   5.436
 1009TIP3    H1 2991   6.351   4.341   5.361
 1009TIP3    H2 2992   6.318   4.462   5.445
 1010TIP3   OH2 2993   6.381   5.796   3.471
 1010TIP3    H1 2994   6.420   5.832   3.391
 1010TIP3    H2 2995   6.292   5.773   3.446
 1011TIP3   OH2 2996   4.184   0.736   5.465
 1011TIP3    H1 2997   4.193   0.641   5.463
 1011TIP3    H2 2998   4.120   0.753   5.534
 1012TIP3   OH2 2999   4.014   5.665   3.391
 1012TIP3    H1 3000   4.001   5.645   3.298
 1012TIP3    H2 3001   3.965   5.746   3.405
 1013TIP3   OH2 3002   5.676   4.970   5.268
 1013TIP3    H1 3003   5.743   5.023   5.224
 1013TIP3    H2 3004   5.691   4.986   5.361
 1014TIP3   OH2 3005   3.607   6.129   5.523
 1014TIP3    H1 3006   3.698   6.101   5.530
 1014TIP3    H2 3007   3.600   6.166   5.435
 1015TIP3   OH2 3008   5.737   4.721   2.532
 1015TIP3    H1 3009   5.688   4.803   2.535
 1015TIP3    H2 3010   5.828   4.747   2.548
 1016TIP3   OH2 3011   0.937   6.692   0.987
 1016TIP3    H1 3012   0.954   6.639   1.065
 1016TIP3    H2 3013   1.011   6.673   0.928
 1017TIP3   OH2 3014   5.222   0.148   2.125
 1017TIP3    H1 3015   5.193   0.238   2.118
 1017TIP3    H2 3016   5.254   0.126   2.037
 1018TIP3   OH2 3017   3.358   5.091   1.944
 1018TIP3    H1 3018   3.407   5.163   1.905
 1018TIP3    H2 3019   3.289   5.133   1.995
 1019TIP3   OH2 3020   0.665   4.896   1.280
 1019TIP3    H1 3021   0.672   4.801   1.275
 1019TIP3    H2 3022   0.579   4.916   1.243
 1020TIP3   OH2 3023   6.157   4.946   1.993
 1020TIP3    H1 3024   6.124   4.857   1.985
 1020TIP3    H2 3025   6.201   4.963   1.909
 1021TIP3   OH2 3026   5.862   2.466   0.976
 1021TIP3    H1 3027   5.785   2.426   0.935
 1021TIP3    H2 3028   5.844   2.560   0.972
 1022TIP3   OH2 3029   2.423   6.416   3.630
 1022TIP3    H1 3030   2.351   6.375   3.678
 1022TIP3    H2 3031   2.481   6.343   3.606
 1023TIP3   OH2 3032   1.837   4.167   5.009
 1023TIP3    H1 3033   1.795   4.243   5.049
 1023TIP3    H2 3034   1.810   4.171   4.917
 1024TIP3   OH2 3035   4.189   1.386   3.310
 1024TIP3    H1 3036   4.127   1.314   3.315
 1024TIP3    H2 3037   4.165   1.444   3.382
 1025TIP3   OH2 3038   2.537   6.100   3.507
 1025TIP3    H1 3039   2.559   6.106   3.414
 1025TIP3    H2 3040   2.461   6.043   3.511
 1026TIP3   OH2 3041   4.153   3.529   1.243
 1026TIP3    H1 3042   4.200   3.448   1.261
 1026TIP3    H2 3043   4.219   3.587   1.205
 1027TIP3   OH2 3044   0.404   4.739   1.597
 1027TIP3    H1 3045   0.432   4.648   1.606
 1027TIP3    H2 3046   0.415   4.775   1.685
 1028TIP3   OH2 3047   2.836   3.497   3.566
 1028TIP3    H1 3048   2.894   3.501   3.642
 1028TIP3    H2 3049   2.892   3.523   3.493
 1029TIP3   OH2 3050   1.304   0.082   4.444
 1029TIP3    H1 3051   1.313   0.175   4.421
 1029TIP3    H2 3052   1.223   0.054   4.402
 1030TIP3   OH2 3053   1.614   1.998   3.942
 1030TIP3    H1 3054   1.693   2.039   3.908
 1030TIP3    H2 3055   1.646   1.922   3.991
 1031TIP3   OH2 3056   3.743   1.770   3.471
 1031TIP3    H1 3057   3.697   1.693   3.505
 1031TIP3    H2 3058   3.693   1.845   3.502
 1032TIP3   OH2 3059   3.140   2.177   1.977
 1032TIP3    H1 3060   3.121   2.249   1.917
 1032TIP3    H2 3061   3.054   2.137   1.994
 1033TIP3   OH2 3062   0.173   3.823   4.517
 1033TIP3    H1 3063   0.202   3.834   4.427
 1033TIP3    H2 3064   0.209   3.899   4.564
 1034TIP3   OH2 3065   3.358   2.359   5.855
 1034TIP3    H1 3066   3.263   2.352   5.851
 1034TIP3    H2 3067   3.389   2.271   5.834
 1035TIP3   OH2 3068   4.828   0.539   1.761
 1035TIP3    H1 3069   4.756   0.502   1.813
 1035TIP3    H2 3070   4.868   0.604   1.819
 1036TIP3   OH2 3071   1.099   3.011   5.568
 1036TIP3    H1 3072   1.150   2.993   5.648
 1036TIP3    H2 3073   1.156   3.066   5.515
 1037TIP3   OH2 3074   0.124   3.255   0.544
 1037TIP3    H1 3075   0.109   3.232   0.636
 1037TIP3    H2 3076   0.037   3.247   0.503
 1038TIP3   OH2 3077   3.280   4.855   3.212
 1038TIP3    H1 3078   3.280   4.911   3.134
 1038TIP3    H2 3079   3.364   4.874   3.255
 1039TIP3   OH2 3080   4.436   2.211   0.600
 1039TIP3    H1 3081   4.352   2.179   0.633
 1039TIP3    H2 3082   4.412   2.274   0.531
 1040TIP3   OH2 3083   6.818   1.275   1.602
 1040TIP3    H1 3084   6.822   1.193   1.553
 1040TIP3    H2 3085   6.814   1.343   1.534
 1041TIP3   OH2 3086   1.997   5.776   5.053
 1041TIP3    H1 3087   2.047   5.784   4.971
 1041TIP3    H2 3088   1.974   5.865   5.076
 1042TIP3   OH2 3089   5.539   0.269   5.185
 1042TIP3    H1 3090   5.617   0.315   5.216
 1042TIP3    H2 3091   5.467   0.307   5.235
 1043TIP3   OH2 3092   2.392   4.881   2.394
 1043TIP3    H1 3093   2.356   4.792   2.396
 1043TIP3    H2 3094   2.487   4.869   2.395
 1044TIP3   OH2 3095   3.673   6.754   5.181
 1044TIP3    H1 3096   3.753   6.701   5.176
 1044TIP3    H2 3097   3.704   6.842   5.204
 1045TIP3   OH2 3098   5.143   0.312   3.524
 1045TIP3    H1 3099   5.127   0.306   3.430
 1045TIP3    H2 3100   5.143   0.221   3.555
 1046TIP3   OH2 3101   1.845   6.109   4.488
 1046TIP3    H1 3102   1.851   6.163   4.567
 1046TIP3    H2 3103   1.752   6.090   4.479
 1047TIP3   OH2 3104   0.653   2.884   2.364
 1047TIP3    H1 3105   0.679   2.936   2.440
 1047TIP3    H2 3106   0.560   2.902   2.351
 1048TIP3   OH2 3107   5.773   2.066   3.101
 1048TIP3    H1 3108   5.755   2.160   3.100
 1048TIP3    H2 3109   5.811   2.050   3.188
 1049TIP3   OH2 3110   1.785   3.341   3.640
 1049TIP3    H1 3111   1.803   3.248   3.627
 1049TIP3    H2 3112   1.871   3.380   3.656
 1050TIP3   OH2 3113   2.900   1.248   1.859
 1050TIP3    H1 3114   2.825   1.306   1.849
 1050TIP3    H2 3115   2.886   1.179   1.795
 1051TIP3   OH2 3116   1.499   0.471   5.500
 1051TIP3    H1 3117   1.483   0.405   5.432
 1051TIP3    H2 3118   1.586   0.505   5.481
 1052TIP3   OH2 3119   5.079   3.933   4.029
 1052TIP3    H1 3120   5.108   3.886   4.107
 1052TIP3    H2 3121   4.989   3.959   4.049
 1053TIP3   OH2 3122   5.840   1.420   4.848
 1053TIP3    H1 3123   5.859   1.460   4.933
 1053TIP3    H2 3124   5.782   1.347   4.869
 1054TIP3   OH2 3125   5.440   5.464   0.378
 1054TIP3    H1 3126   5.361   5.482   0.429
 1054TIP3    H2 3127   5.441   5.532   0.310
 1055TIP3   OH2 3128   1.947   2.384   5.511
 1055TIP3    H1 3129   1.987   2.298   5.525
 1055TIP3    H2 3130   1.929   2.387   5.417
 1056TIP3   OH2 3131   3.556   0.861   3.620
 1056TIP3    H1 3132   3.639   0.859   3.669
 1056TIP3    H2 3133   3.576   0.818   3.537
 1057TIP3   OH2 3134   3.819   4.841   4.743
 1057TIP3    H1 3135   3.820   4.746   4.754
 1057TIP3    H2 3136   3.898   4.860   4.691
 1058TIP3   OH2 3137   6.259   0.466   1.033
 1058TIP3    H1 3138   6.338   0.413   1.042
 1058TIP3    H2 3139   6.207   0.422   0.966
 1059TIP3   OH2 3140   5.752   6.570   1.782
 1059TIP3    H1 3141   5.763   6.586   1.688
 1059TIP3    H2 3142   5.748   6.475   1.790
 1060TIP3   OH2 3143   3.030   5.474   2.833
 1060TIP3    H1 3144   2.999   5.445   2.747
 1060TIP3    H2 3145   2.955   5.520   2.871
 1061TIP3   OH2 3146   1.210   0.408   2.491
 1061TIP3    H1 3147   1.302   0.397   2.515
 1061TIP3    H2 3148   1.186   0.493   2.526
 1062TIP3   OH2 3149   3.980   3.834   1.002
 1062TIP3    H1 3150   3.943   3.869   0.921
 1062TIP3    H2 3151   4.072   3.819   0.981
 1063TIP3   OH2 3152   1.178   5.188   3.591
 1063TIP3    H1 3153   1.203   5.159   3.503
 1063TIP3    H2 3154   1.260   5.213   3.632
 1064TIP3   OH2 3155   3.155   2.491   0.144
 1064TIP3    H1 3156   3.179   2.424   0.080
 1064TIP3    H2 3157   3.171   2.574   0.099
 1065TIP3   OH2 3158   1.041   2.185   3.983
 1065TIP3    H1 3159   0.954   2.152   3.962
 1065TIP3    H2 3160   1.097   2.152   3.913
 1066TIP3   OH2 3161   2.373   5.833   0.842
 1066TIP3    H1 3162   2.422   5.803   0.919
 1066TIP3    H2 3163   2.284   5.802   0.857
 1067TIP3   OH2 3164   6.910   2.642   0.701
 1067TIP3    H1 3165   6.879   2.722   0.744
 1067TIP3    H2 3166   6.831   2.603   0.663
 1068TIP3   OH2 3167   1.165   4.834   0.727
 1068TIP3    H1 3168   1.097   4.767   0.730
 1068TIP3    H2 3169   1.226   4.804   0.660
 1069TIP3   OH2 3170   3.909   5.435   3.486
 1069TIP3    H1 3171   3.940   5.520   3.457
 1069TIP3    H2 3172   3.866   5.397   3.410
 1070TIP3   OH2 3173   3.486   1.571   0.757
 1070TIP3    H1 3174   3.546   1.537   0.824
 1070TIP3    H2 3175   3.459   1.657   0.789
 1071TIP3   OH2 3176   4.331   6.111   5.908
 1071TIP3    H1 3177   4.388   6.044   5.870
 1071TIP3    H2 3178   4.269   6.133   5.839
 1072TIP3   OH2 3179   5.598   4.432  -0.020
 1072TIP3    H1 3180   5.512   4.394  -0.001
 1072TIP3    H2 3181   5.626   4.470   0.064
 1073TIP3   OH2 3182   1.604   4.818   4.815
 1073TIP3    H1 3183   1.603   4.861   4.730
 1073TIP3    H2 3184   1.667   4.747   4.806
 1074TIP3   OH2 3185   6.186   5.391   1.219
 1074TIP3    H1 3186   6.247   5.394   1.292
 1074TIP3    H2 3187   6.209   5.468   1.166
 1075TIP3   OH2 3188   6.673   3.013   4.888
 1075TIP3    H1 3189   6.600   3.068   4.860
 1075TIP3    H2 3190   6.709   3.057   4.965
 1076TIP3   OH2 3191   5.973   2.445   4.072
 1076TIP3    H1 3192   5.962   2.540   4.066
 1076TIP3    H2 3193   6.045   2.433   4.133
 1077TIP3   OH2 3194   5.127   2.524   5.244
 1077TIP3    H1 3195   5.090   2.441   5.275
 1077TIP3    H2 3196   5.052   2.582   5.234
 1078TIP3   OH2 3197   4.837   5.258   5.786
 1078TIP3    H1 3198   4.917   5.214   5.759
 1078TIP3    H2 3199   4.836   5.340   5.737
 1079TIP3   OH2 3200   5.038   6.316   0.216
 1079TIP3    H1 3201   4.977   6.381   0.182
 1079TIP3    H2 3202   5.103   6.367   0.265
 1080TIP3   OH2 3203   4.998   1.712   1.451
 1080TIP3    H1 3204   4.902   1.710   1.449
 1080TIP3    H2 3205   5.022   1.785   1.394
 1081TIP3   OH2 3206   0.090   6.078   1.781
 1081TIP3    H1 3207   0.111   6.170   1.796
 1081TIP3    H2 3208   0.151   6.050   1.713
 1082TIP3   OH2 3209   1.204   6.660   0.816
 1082TIP3    H1 3210   1.233   6.581   0.861
 1082TIP3    H2 3211   1.242   6.654   0.729
 1083TIP3   OH2 3212   3.503   1.786   1.900
 1083TIP3    H1 3213   3.557   1.734   1.841
 1083TIP3    H2 3214   3.545   1.872   1.901
 1084TIP3   OH2 3215   4.105   3.024   0.431
 1084TIP3    H1 3216   4.021   3.045   0.391
 1084TIP3    H2 3217   4.097   3.056   0.521
 1085TIP3   OH2 3218   2.326   2.236   3.726
 1085TIP3    H1 3219   2.285   2.159   3.687
 1085TIP3    H2 3220   2.256   2.302   3.729
 1086TIP3   OH2 3221   6.604   6.468   3.021
 1086TIP3    H1 3222   6.661   6.393   3.039
 1086TIP3    H2 3223   6.624   6.531   3.091
 1087TIP3   OH2 3224   7.121   2.249   1.177
 1087TIP3    H1 3225   7.062   2.175   1.194
 1087TIP3    H2 3226   7.137   2.245   1.082
 1088TIP3   OH2 3227   1.368   6.380   0.721
 1088TIP3    H1 3228   1.285   6.365   0.676
 1088TIP3    H2 3229   1.407   6.293   0.729
 1089TIP3   OH2 3230   1.754   1.205   0.341
 1089TIP3    H1 3231   1.763   1.111   0.351
 1089TIP3    H2 3232   1.832   1.231   0.291
 1090TIP3   OH2 3233   6.811   5.190   5.170
 1090TIP3    H1 3234   6.769   5.163   5.252
 1090TIP3    H2 3235   6.776   5.278   5.154
 1091TIP3   OH2 3236   0.340   2.822   0.873
 1091TIP3    H1 3237   0.292   2.741   0.890
 1091TIP3    H2 3238   0.284   2.870   0.812
 1092TIP3   OH2 3239   1.947   1.767   4.759
 1092TIP3    H1 3240   2.007   1.705   4.800
 1092TIP3    H2 3241   1.879   1.781   4.824
 1093TIP3   OH2 3242   4.050   3.691   3.261
 1093TIP3    H1 3243   4.054   3.679   3.166
 1093TIP3    H2 3244   3.975   3.638   3.288
 1094TIP3   OH2 3245   0.487   4.703   4.580
 1094TIP3    H1 3246   0.582   4.696   4.592
 1094TIP3    H2 3247   0.458   4.614   4.563
 1095TIP3   OH2 3248   4.137   1.024   1.058
 1095TIP3    H1 3249   4.094   1.108   1.042
 1095TIP3    H2 3250   4.211   1.024   0.998
 1096TIP3   OH2 3251   5.770   4.094   1.159
 1096TIP3    H1 3252   5.749   4.098   1.066
 1096TIP3    H2 3253   5.698   4.044   1.198
 1097TIP3   OH2 3254   4.762   5.135   0.013
 1097TIP3    H1 3255   4.800   5.198  -0.048
 1097TIP3    H2 3256   4.828   5.066   0.020
 1098TIP3   OH2 3257   1.979   0.633   0.826
 1098TIP3    H1 3258   1.991   0.565   0.760
 1098TIP3    H2 3259   1.993   0.587   0.909
 1099TIP3   OH2 3260   4.649   1.666   2.316
 1099TIP3    H1 3261   4.599   1.601   2.366
 1099TIP3    H2 3262   4.714   1.614   2.269
 1100TIP3   OH2 3263   6.948   4.430   0.358
 1100TIP3    H1 3264   6.981   4.443   0.269
 1100TIP3    H2 3265   7.027   4.417   0.411
 1101TIP3   OH2 3266   5.889   1.505   3.491
 1101TIP3    H1 3267   5.910   1.423   3.448
 1101TIP3    H2 3268   5.857   1.479   3.578
 1102TIP3   OH2 3269   0.593   4.895   2.983
 1102TIP3    H1 3270   0.638   4.816   2.953
 1102TIP3    H2 3271   0.557   4.872   3.069
 1103TIP3   OH2 3272   3.762   3.593   1.656
 1103TIP3    H1 3273   3.677   3.549   1.652
 1103TIP3    H2 3274   3.809   3.561   1.579
 1104TIP3   OH2 3275   2.232   4.312   3.009
 1104TIP3    H1 3276   2.196   4.223   2.998
 1104TIP3    H2 3277   2.201   4.360   2.932
 1105TIP3   OH2 3278   3.811   4.900   3.799
 1105TIP3    H1 3279   3.807   4.834   3.868
 1105TIP3    H2 3280   3.720   4.916   3.775
 1106TIP3   OH2 3281   3.797   5.664   5.569
 1106TIP3    H1 3282   3.829   5.751   5.546
 1106TIP3    H2 3283   3.850   5.604   5.516
 1107TIP3   OH2 3284   6.923   4.949   1.638
 1107TIP3    H1 3285   6.868   4.873   1.618
 1107TIP3    H2 3286   6.985   4.953   1.565
 1108TIP3   OH2 3287   1.622   0.881   1.771
 1108TIP3    H1 3288   1.592   0.907   1.859
 1108TIP3    H2 3289   1.548   0.902   1.714
 1109TIP3   OH2 3290   0.589   1.368   4.911
 1109TIP3    H1 3291   0.672   1.320   4.910
 1109TIP3    H2 3292   0.580   1.403   4.822
 1110TIP3   OH2 3293   5.602   2.183   0.392
 1110TIP3    H1 3294   5.673   2.192   0.329
 1110TIP3    H2 3295   5.554   2.105   0.364
 1111TIP3   OH2 3296   2.740   6.121   1.678
 1111TIP3    H1 3297   2.774   6.042   1.718
 1111TIP3    H2 3298   2.646   6.108   1.674
 1112TIP3   OH2 3299   5.627   0.317   4.008
 1112TIP3    H1 3300   5.625   0.221   4.010
 1112TIP3    H2 3301   5.536   0.343   4.019
 1113TIP3   OH2 3302   1.014   1.524   4.902
 1113TIP3    H1 3303   1.082   1.469   4.864
 1113TIP3    H2 3304   0.937   1.468   4.907
 1114TIP3   OH2 3305   3.897   6.437   1.076
 1114TIP3    H1 3306   3.812   6.450   1.118
 1114TIP3    H2 3307   3.958   6.489   1.129
 1115TIP3   OH2 3308   4.369   4.088   1.914
 1115TIP3    H1 3309   4.285   4.060   1.951
 1115TIP3    H2 3310   4.353   4.177   1.883
 1116TIP3   OH2 3311   7.006   4.720   0.526
 1116TIP3    H1 3312   6.912   4.710   0.511
 1116TIP3    H2 3313   7.045   4.721   0.438
 1117TIP3   OH2 3314   1.473   4.971   3.303
 1117TIP3    H1 3315   1.523   4.977   3.385
 1117TIP3    H2 3316   1.457   4.877   3.292
 1118TIP3   OH2 3317   3.680   3.028   4.403
 1118TIP3    H1 3318   3.761   3.046   4.356
 1118TIP3    H2 3319   3.656   2.940   4.376
 1119TIP3   OH2 3320   5.431   4.606   0.756
 1119TIP3    H1 3321   5.349   4.565   0.784
 1119TIP3    H2 3322   5.468   4.544   0.692
 1120TIP3   OH2 3323   2.501   3.513   0.227
 1120TIP3    H1 3324   2.568   3.463   0.181
 1120TIP3    H2 3325   2.475   3.582   0.166
 1121TIP3   OH2 3326   0.542   5.275   4.203
 1121TIP3    H1 3327   0.482   5.323   4.145
 1121TIP3    H2 3328   0.486   5.241   4.273
 1122TIP3   OH2 3329   2.588   5.114   0.005
 1122TIP3    H1 3330   2.547   5.194   0.037
 1122TIP3    H2 3331   2.682   5.127   0.020
 1123TIP3   OH2 3332   2.062   5.561   1.507
 1123TIP3    H1 3333   2.038   5.633   1.449
 1123TIP3    H2 3334   2.085   5.603   1.590
 1124TIP3   OH2 3335   3.274   0.717   0.201
 1124TIP3    H1 3336   3.237   0.805   0.194
 1124TIP3    H2 3337   3.329   0.707   0.123
 1125TIP3   OH2 3338   2.848   5.854   1.741
 1125TIP3    H1 3339   2.792   5.805   1.801
 1125TIP3    H2 3340   2.936   5.846   1.777
 1126TIP3   OH2 3341   2.580   6.069   5.822
 1126TIP3    H1 3342   2.632   6.147   5.840
 1126TIP3    H2 3343   2.551   6.079   5.732
 1127TIP3   OH2 3344   5.969   1.587   2.154
 1127TIP3    H1 3345   5.942   1.497   2.168
 1127TIP3    H2 3346   6.044   1.581   2.094
 1128TIP3   OH2 3347   3.514   4.880   0.712
 1128TIP3    H1 3348   3.603   4.879   0.677
 1128TIP3    H2 3349   3.491   4.788   0.724
 1129TIP3   OH2 3350   5.421   5.642   0.177
 1129TIP3    H1 3351   5.361   5.711   0.149
 1129TIP3    H2 3352   5.479   5.629   0.102
 1130TIP3   OH2 3353   0.117   3.049   2.977
 1130TIP3    H1 3354   0.095   3.133   2.936
 1130TIP3    H2 3355   0.035   3.018   3.015
 1131TIP3   OH2 3356   0.167   0.368   2.579
 1131TIP3    H1 3357   0.134   0.282   2.606
 1131TIP3    H2 3358   0.090   0.415   2.548
 1132TIP3   OH2 3359   4.124   0.464   1.009
 1132TIP3    H1 3360   4.137   0.394   0.946
 1132TIP3    H2 3361   4.211   0.481   1.044
 1133TIP3   OH2 3362   3.102   3.090   5.311
 1133TIP3    H1 3363   3.157   3.149   5.363
 1133TIP3    H2 3364   3.161   3.019   5.286
 1134TIP3   OH2 3365   4.012   6.482   0.466
 1134TIP3    H1 3366   4.007   6.491   0.371
 1134TIP3    H2 3367   3.937   6.428   0.489
 1135TIP3   OH2 3368   6.629   0.497   4.094
 1135TIP3    H1 3369   6.706   0.554   4.101
 1135TIP3    H2 3370   6.556   0.552   4.122
 1136TIP3   OH2 3371   5.798   2.530   0.516
 1136TIP3    H1 3372   5.719   2.533   0.462
 1136TIP3    H2 3373   5.802   2.439   0.547
 1137TIP3   OH2 3374   0.746   5.132   1.910
 1137TIP3    H1 3375   0.733   5.189   1.835
 1137TIP3    H2 3376   0.668   5.147   1.965
 1138TIP3   OH2 3377   0.611   1.864   2.803
 1138TIP3    H1 3378   0.555   1.805   2.752
 1138TIP3    H2 3379   0.605   1.948   2.757
 1139TIP3   OH2 3380   6.580   2.290   1.155
 1139TIP3    H1 3381   6.661   2.267   1.200
 1139TIP3    H2 3382   6.511   2.272   1.218
 1140TIP3   OH2 3383   1.057   1.368   0.940
 1140TIP3    H1 3384   0.982   1.401   0.990
 1140TIP3    H2 3385   1.027   1.285   0.904
 1141TIP3   OH2 3386   7.105   3.714   3.131
 1141TIP3    H1 3387   7.022   3.667   3.121
 1141TIP3    H2 3388   7.132   3.697   3.221
 1142TIP3   OH2 3389   3.841   5.330   3.048
 1142TIP3    H1 3390   3.899   5.255   3.033
 1142TIP3    H2 3391   3.898   5.399   3.082
 1143TIP3   OH2 3392   4.645   0.120   0.331
 1143TIP3    H1 3393   4.560   0.122   0.373
 1143TIP3    H2 3394   4.670   0.028   0.331
 1144TIP3   OH2 3395   0.339   4.423   3.702
 1144TIP3    H1 3396   0.292   4.478   3.765
 1144TIP3    H2 3397   0.272   4.365   3.666
 1145TIP3   OH2 3398   2.482   6.143   2.075
 1145TIP3    H1 3399   2.430   6.097   2.009
 1145TIP3    H2 3400   2.423   6.149   2.151
 1146TIP3   OH2 3401   2.416   5.039   1.508
 1146TIP3    H1 3402   2.409   5.127   1.471
 1146TIP3    H2 3403   2.371   5.045   1.592
 1147TIP3   OH2 3404   0.119   1.859   1.685
 1147TIP3    H1 3405   0.094   1.819   1.768
 1147TIP3    H2 3406   0.130   1.952   1.706
 1148TIP3   OH2 3407   2.439   3.750   4.770
 1148TIP3    H1 3408   2.353   3.735   4.731
 1148TIP3    H2 3409   2.425   3.740   4.864
 1149TIP3   OH2 3410   5.149   4.260   3.736
 1149TIP3    H1 3411   5.140   4.271   3.830
 1149TIP3    H2 3412   5.155   4.165   3.723
 1150TIP3   OH2 3413   2.643   2.591   5.007
 1150TIP3    H1 3414   2.592   2.665   4.974
 1150TIP3    H2 3415   2.592   2.514   4.980
 1151TIP3   OH2 3416   4.225   1.481   2.424
 1151TIP3    H1 3417   4.239   1.405   2.481
 1151TIP3    H2 3418   4.258   1.453   2.339
 1152TIP3   OH2 3419   1.863   4.325   2.575
 1152TIP3    H1 3420   1.811   4.366   2.505
 1152TIP3    H2 3421   1.950   4.315   2.537
 1153TIP3   OH2 3422   3.633   6.317   3.994
 1153TIP3    H1 3423   3.636   6.336   4.088
 1153TIP3    H2 3424   3.547   6.277   3.980
 1154TIP3   OH2 3425   5.318   0.637   3.874
 1154TIP3    H1 3426   5.406   0.624   3.839
 1154TIP3    H2 3427   5.263   0.576   3.825
 1155TIP3   OH2 3428   3.205   1.305   0.402
 1155TIP3    H1 3429   3.221   1.381   0.458
 1155TIP3    H2 3430   3.125   1.266   0.435
 1156TIP3   OH2 3431   3.922   0.472   3.272
 1156TIP3    H1 3432   3.999   0.422   3.300
 1156TIP3    H2 3433   3.890   0.425   3.195
 1157TIP3   OH2 3434   1.119   2.808   0.620
 1157TIP3    H1 3435   1.073   2.868   0.679
 1157TIP3    H2 3436   1.090   2.833   0.533
 1158TIP3   OH2 3437   3.484   0.020   2.877
 1158TIP3    H1 3438   3.395   0.029   2.845
 1158TIP3    H2 3439   3.474  -0.007   2.968
 1159TIP3   OH2 3440   4.661   2.881   4.881
 1159TIP3    H1 3441   4.694   2.955   4.932
 1159TIP3    H2 3442   4.651   2.810   4.945
 1160TIP3   OH2 3443   6.834   0.685   4.186
 1160TIP3    H1 3444   6.829   0.779   4.199
 1160TIP3    H2 3445   6.920   0.669   4.149
 1161TIP3   OH2 3446   5.341   4.908   0.434
 1161TIP3    H1 3447   5.310   4.903   0.525
 1161TIP3    H2 3448   5.288   4.977   0.394
 1162TIP3   OH2 3449   1.866   3.224   4.409
 1162TIP3    H1 3450   1.958   3.230   4.383
 1162TIP3    H2 3451   1.839   3.136   4.384
 1163TIP3   OH2 3452   2.777   6.044   5.465
 1163TIP3    H1 3453   2.832   5.994   5.526
 1163TIP3    H2 3454   2.691   6.046   5.507
 1164TIP3   OH2 3455   5.944   2.665   1.498
 1164TIP3    H1 3456   5.850   2.655   1.511
 1164TIP3    H2 3457   5.959   2.759   1.497
 1165TIP3   OH2 3458   5.987   0.640   1.155
 1165TIP3    H1 3459   6.073   0.602   1.138
 1165TIP3    H2 3460   5.930   0.605   1.086
 1166TIP3   OH2 3461   1.418   5.376   5.511
 1166TIP3    H1 3462   1.362   5.315   5.464
 1166TIP3    H2 3463   1.402   5.357   5.604
 1167TIP3   OH2 3464   0.422   5.868   2.212
 1167TIP3    H1 3465   0.497   5.927   2.225
 1167TIP3    H2 3466   0.459   5.780   2.214
 1168TIP3   OH2 3467   5.769   3.728   0.023
 1168TIP3    H1 3468   5.793   3.752   0.112
 1168TIP3    H2 3469   5.785   3.807  -0.029
 1169TIP3   OH2 3470   7.108   4.446   1.072
 1169TIP3    H1 3471   7.123   4.539   1.089
 1169TIP3    H2 3472   7.091   4.442   0.978
 1170TIP3   OH2 3473   3.970   1.512   1.822
 1170TIP3    H1 3474   4.021   1.591   1.839
 1170TIP3    H2 3475   3.957   1.473   1.909
 1171TIP3   OH2 3476   1.799   1.025   1.155
 1171TIP3    H1 3477   1.705   1.010   1.146
 1171TIP3    H2 3478   1.829   0.954   1.213
 1172TIP3   OH2 3479   5.619   5.625   2.554
 1172TIP3    H1 3480   5.601   5.701   2.609
 1172TIP3    H2 3481   5.554   5.560   2.580
 1173TIP3   OH2 3482   6.603   5.223   4.255
 1173TIP3    H1 3483   6.528   5.164   4.249
 1173TIP3    H2 3484   6.677   5.172   4.222
 1174TIP3   OH2 3485   6.137   4.333   2.962
 1174TIP3    H1 3486   6.231   4.318   2.963
 1174TIP3    H2 3487   6.113   4.341   3.055
 1175TIP3   OH2 3488   2.391   5.349   5.364
 1175TIP3    H1 3489   2.388   5.292   5.441
 1175TIP3    H2 3490   2.316   5.322   5.311
 1176TIP3   OH2 3491   6.261   2.390   0.335
 1176TIP3    H1 3492   6.337   2.445   0.315
 1176TIP3    H2 3493   6.234   2.418   0.422
 1177TIP3   OH2 3494   1.189   3.372   1.750
 1177TIP3    H1 3495   1.136   3.452   1.749
 1177TIP3    H2 3496   1.203   3.351   1.657
 1178TIP3   OH2 3497   4.582   5.431   5.713
 1178TIP3    H1 3498   4.582   5.464   5.802
 1178TIP3    H2 3499   4.642   5.490   5.666
 1179TIP3   OH2 3500   4.130   3.012   3.533
 1179TIP3    H1 3501   4.119   3.075   3.605
 1179TIP3    H2 3502   4.127   3.066   3.454
 1180TIP3   OH2 3503   0.148   5.786   3.254
 1180TIP3    H1 3504   0.066   5.811   3.211
 1180TIP3    H2 3505   0.139   5.692   3.269
 1181TIP3   OH2 3506   4.382   3.864   4.374
 1181TIP3    H1 3507   4.432   3.793   4.414
 1181TIP3    H2 3508   4.431   3.943   4.397
 1182TIP3   OH2 3509   0.769   1.972   0.084
 1182TIP3    H1 3510   0.860   1.948   0.067
 1182TIP3    H2 3511   0.770   2.067   0.093
 1183TIP3   OH2 3512   5.789   3.170   2.930
 1183TIP3    H1 3513   5.811   3.172   2.837
 1183TIP3    H2 3514   5.798   3.260   2.959
 1184TIP3   OH2 3515   5.242   3.599   4.462
 1184TIP3    H1 3516   5.297   3.595   4.540
 1184TIP3    H2 3517   5.160   3.559   4.489
 1185TIP3   OH2 3518   0.558   5.105   2.789
 1185TIP3    H1 3519   0.501   5.174   2.822
 1185TIP3    H2 3520   0.569   5.044   2.862
 1186TIP3   OH2 3521   2.641   5.706   5.209
 1186TIP3    H1 3522   2.642   5.619   5.168
 1186TIP3    H2 3523   2.710   5.702   5.275
 1187TIP3   OH2 3524   2.928   4.344   2.603
 1187TIP3    H1 3525   2.842   4.380   2.624
 1187TIP3    H2 3526   2.975   4.345   2.687
 1188TIP3   OH2 3527   1.610   4.555   2.143
 1188TIP3    H1 3528   1.704   4.559   2.130
 1188TIP3    H2 3529   1.577   4.639   2.109
 1189TIP3   OH2 3530   1.866   1.369   1.026
 1189TIP3    H1 3531   1.797   1.423   1.063
 1189TIP3    H2 3532   1.834   1.346   0.938
 1190TIP3   OH2 3533   5.444   3.068   2.264
 1190TIP3    H1 3534   5.504   3.132   2.303
 1190TIP3    H2 3535   5.471   2.984   2.301
 1191TIP3   OH2 3536   3.084   3.150   2.838
 1191TIP3    H1 3537   3.100   3.244   2.838
 1191TIP3    H2 3538   3.155   3.113   2.785
 1192TIP3   OH2 3539   4.209   1.671   1.884
 1192TIP3    H1 3540   4.237   1.761   1.866
 1192TIP3    H2 3541   4.251   1.619   1.816
 1193TIP3   OH2 3542   2.565   6.471   5.715
 1193TIP3    H1 3543   2.571   6.441   5.806
 1193TIP3    H2 3544   2.544   6.564   5.722
 1194TIP3   OH2 3545   2.424   0.056   0.481
 1194TIP3    H1 3546   2.507   0.041   0.527
 1194TIP3    H2 3547   2.446   0.048   0.388
 1195TIP3   OH2 3548   6.778   0.784   0.176
 1195TIP3    H1 3549   6.821   0.698   0.181
 1195TIP3    H2 3550   6.819   0.828   0.102
 1196TIP3   OH2 3551   6.380   1.573   1.245
 1196TIP3    H1 3552   6.419   1.640   1.302
 1196TIP3    H2 3553   6.286   1.582   1.259
 1197TIP3   OH2 3554   4.315   3.930   5.613
 1197TIP3    H1 3555   4.313   3.919   5.518
 1197TIP3    H2 3556   4.380   3.999   5.628
 1198TIP3   OH2 3557   7.210   1.314   0.625
 1198TIP3    H1 3558   7.203   1.318   0.720
 1198TIP3    H2 3559   7.142   1.373   0.593
 1199TIP3   OH2 3560   6.284   0.846   5.624
 1199TIP3    H1 3561   6.356   0.805   5.576
 1199TIP3    H2 3562   6.209   0.839   5.565
 1200TIP3   OH2 3563   0.359   5.322   0.719
 1200TIP3    H1 3564   0.290   5.379   0.685
 1200TIP3    H2 3565   0.312   5.259   0.775
 1201TIP3   OH2 3566   1.573   2.804   2.618
 1201TIP3    H1 3567   1.640   2.736   2.608
 1201TIP3    H2 3568   1.490   2.758   2.605
 1202TIP3   OH2 3569   3.958   6.115   5.706
 1202TIP3    H1 3570   3.977   6.073   5.790
 1202TIP3    H2 3571   4.038   6.165   5.686
 1203TIP3   OH2 3572   1.654   6.704   2.312
 1203TIP3    H1 3573   1.745   6.725   2.332
 1203TIP3    H2 3574   1.659   6.629   2.252
 1204TIP3   OH2 3575   2.058   1.055   3.251
 1204TIP3    H1 3576   1.965   1.076   3.263
 1204TIP3    H2 3577   2.084   1.108   3.176
 1205TIP3   OH2 3578   5.388   2.533   1.250
 1205TIP3    H1 3579   5.304   2.576   1.231
 1205TIP3    H2 3580   5.374   2.442   1.224
 1206TIP3   OH2 3581   2.315   0.805   3.220
 1206TIP3    H1 3582   2.309   0.899   3.237
 1206TIP3    H2 3583   2.361   0.770   3.296
 1207TIP3   OH2 3584   2.984   1.835   1.828
 1207TIP3    H1 3585   2.930   1.768   1.786
 1207TIP3    H2 3586   3.069   1.793   1.839
 1208TIP3   OH2 3587   0.636   3.829   3.114
 1208TIP3    H1 3588   0.707   3.828   3.178
 1208TIP3    H2 3589   0.579   3.758   3.140
 1209TIP3   OH2 3590   5.522   5.376   4.776
 1209TIP3    H1 3591   5.580   5.311   4.738
 1209TIP3    H2 3592   5.556   5.391   4.864
 1210TIP3   OH2 3593   1.314   1.418   1.021
 1210TIP3    H1 3594   1.219   1.413   1.010
 1210TIP3    H2 3595   1.342   1.327   1.029
 1211TIP3   OH2 3596   6.112   5.608   0.711
 1211TIP3    H1 3597   6.143   5.555   0.638
 1211TIP3    H2 3598   6.163   5.689   0.704
 1212TIP3   OH2 3599   3.399   0.662   3.721
 1212TIP3    H1 3600   3.448   0.584   3.693
 1212TIP3    H2 3601   3.445   0.735   3.680
 1213TIP3   OH2 3602   4.007   5.611   1.649
 1213TIP3    H1 3603   3.944   5.574   1.588
 1213TIP3    H2 3604   3.974   5.587   1.736
 1214TIP3   OH2 3605   1.187   2.032   5.255
 1214TIP3    H1 3606   1.228   2.113   5.225
 1214TIP3    H2 3607   1.173   1.981   5.175
 1215TIP3   OH2 3608   4.164   6.317   2.912
 1215TIP3    H1 3609   4.105   6.277   2.848
 1215TIP3    H2 3610   4.191   6.245   2.968
 1216TIP3   OH2 3611   1.787   5.684   1.333
 1216TIP3    H1 3612   1.787   5.656   1.425
 1216TIP3    H2 3613   1.840   5.763   1.332
 1217TIP3   OH2 3614   1.059   0.144   0.946
 1217TIP3    H1 3615   1.086   0.212   0.883
 1217TIP3    H2 3616   1.046   0.191   1.028
 1218TIP3   OH2 3617   2.296   4.374   1.525
 1218TIP3    H1 3618   2.255   4.455   1.495
 1218TIP3    H2 3619   2.233   4.335   1.585
 1219TIP3   OH2 3620   3.862   0.127   4.795
 1219TIP3    H1 3621   3.867   0.163   4.884
 1219TIP3    H2 3622   3.915   0.048   4.798
 1220TIP3   OH2 3623   7.119   3.493   1.893
 1220TIP3    H1 3624   7.100   3.558   1.961
 1220TIP3    H2 3625   7.174   3.540   1.830
 1221TIP3   OH2 3626   5.224   0.716   3.376
 1221TIP3    H1 3627   5.244   0.630   3.413
 1221TIP3    H2 3628   5.246   0.708   3.283
 1222TIP3   OH2 3629   3.006   1.050   0.817
 1222TIP3    H1 3630   3.054   1.061   0.734
 1222TIP3    H2 3631   2.928   1.105   0.807
 1223TIP3   OH2 3632   3.272   6.416   5.493
 1223TIP3    H1 3633   3.184   6.416   5.456
 1223TIP3    H2 3634   3.285   6.327   5.525
 1224TIP3   OH2 3635   0.175   5.898   0.796
 1224TIP3    H1 3636   0.252   5.904   0.853
 1224TIP3    H2 3637   0.177   5.809   0.762
 1225TIP3   OH2 3638   6.132   4.359   0.651
 1225TIP3    H1 3639   6.217   4.330   0.620
 1225TIP3    H2 3640   6.112   4.300   0.724
 1226TIP3   OH2 3641   6.317   2.096   1.997
 1226TIP3    H1 3642   6.349   2.036   1.929
 1226TIP3    H2 3643   6.222   2.084   1.996
 1227TIP3   OH2 3644   2.478   1.447   4.627
 1227TIP3    H1 3645   2.497   1.421   4.536
 1227TIP3    H2 3646   2.385   1.467   4.627
 1228TIP3   OH2 3647   0.142   6.450   3.912
 1228TIP3    H1 3648   0.084   6.407   3.850
 1228TIP3    H2 3649   0.107   6.539   3.920
 1229TIP3   OH2 3650   3.648   0.238   0.953
 1229TIP3    H1 3651   3.611   0.259   1.039
 1229TIP3    H2 3652   3.601   0.296   0.893
 1230TIP3   OH2 3653   5.142   2.146   3.578
 1230TIP3    H1 3654   5.135   2.051   3.588
 1230TIP3    H2 3655   5.071   2.170   3.519
 1231TIP3   OH2 3656   6.425   1.194   2.301
 1231TIP3    H1 3657   6.356   1.128   2.290
 1231TIP3    H2 3658   6.488   1.174   2.232
 1232TIP3   OH2 3659   3.948   2.498   0.477
 1232TIP3    H1 3660   3.943   2.421   0.420
 1232TIP3    H2 3661   3.987   2.566   0.423
 1233TIP3   OH2 3662   2.642   4.885   4.132
 1233TIP3    H1 3663   2.609   4.833   4.205
 1233TIP3    H2 3664   2.565   4.930   4.097
 1234TIP3   OH2 3665   5.135   5.327   1.156
 1234TIP3    H1 3666   5.150   5.397   1.220
 1234TIP3    H2 3667   5.090   5.370   1.084
 1235TIP3   OH2 3668   1.740   6.172   2.304
 1235TIP3    H1 3669   1.701   6.085   2.315
 1235TIP3    H2 3670   1.714   6.199   2.216
 1236TIP3   OH2 3671   0.727   4.989   1.570
 1236TIP3    H1 3672   0.788   4.967   1.640
 1236TIP3    H2 3673   0.745   4.924   1.501
 1237TIP3   OH2 3674   4.260   3.451   2.004
 1237TIP3    H1 3675   4.192   3.518   2.008
 1237TIP3    H2 3676   4.262   3.424   1.912
 1238TIP3   OH2 3677   0.362   0.521   2.126
 1238TIP3    H1 3678   0.389   0.516   2.034
 1238TIP3    H2 3679   0.403   0.446   2.168
 1239TIP3   OH2 3680   1.647   2.287   3.568
 1239TIP3    H1 3681   1.700   2.213   3.538
 1239TIP3    H2 3682   1.579   2.297   3.501
 1240TIP3   OH2 3683   2.485   6.071   1.627
 1240TIP3    H1 3684   2.416   6.073   1.561
 1240TIP3    H2 3685   2.473   6.152   1.677
 1241TIP3   OH2 3686   4.503   4.992   5.580
 1241TIP3    H1 3687   4.558   4.989   5.502
 1241TIP3    H2 3688   4.457   5.076   5.575
 1242TIP3   OH2 3689   1.978   4.595   0.265
 1242TIP3    H1 3690   1.982   4.581   0.170
 1242TIP3    H2 3691   2.047   4.659   0.282
 1243TIP3   OH2 3692   5.820   3.167   3.861
 1243TIP3    H1 3693   5.766   3.171   3.782
 1243TIP3    H2 3694   5.766   3.119   3.925
 1244TIP3   OH2 3695   2.076   3.581   2.411
 1244TIP3    H1 3696   2.019   3.557   2.484
 1244TIP3    H2 3697   2.018   3.584   2.335
 1245TIP3   OH2 3698   1.829   0.062   4.825
 1245TIP3    H1 3699   1.823   0.158   4.830
 1245TIP3    H2 3700   1.742   0.032   4.852
 1246TIP3   OH2 3701   6.773   6.375   4.502
 1246TIP3    H1 3702   6.710   6.441   4.530
 1246TIP3    H2 3703   6.738   6.293   4.538
 1247TIP3   OH2 3704   0.212   1.338   2.210
 1247TIP3    H1 3705   0.206   1.257   2.158
 1247TIP3    H2 3706   0.200   1.308   2.300
 1248TIP3   OH2 3707   2.546   3.428   4.764
 1248TIP3    H1 3708   2.629   3.476   4.761
 1248TIP3    H2 3709   2.493   3.468   4.695
 1249TIP3   OH2 3710   5.038   0.714   0.491
 1249TIP3    H1 3711   5.088   0.711   0.409
 1249TIP3    H2 3712   5.075   0.644   0.544
 1250TIP3   OH2 3713   1.220   1.023   1.869
 1250TIP3    H1 3714   1.127   1.005   1.882
 1250TIP3    H2 3715   1.234   1.108   1.913
 1251TIP3   OH2 3716   4.975   4.954   0.055
 1251TIP3    H1 3717   5.000   4.887  -0.008
 1251TIP3    H2 3718   5.045   4.953   0.121
 1252TIP3   OH2 3719   2.675   1.758   2.326
 1252TIP3    H1 3720   2.703   1.676   2.368
 1252TIP3    H2 3721   2.618   1.730   2.255
 1253TIP3   OH2 3722   6.195   2.153   0.666
 1253TIP3    H1 3723   6.170   2.092   0.598
 1253TIP3    H2 3724   6.237   2.099   0.733
 1254TIP3   OH2 3725   2.143   4.020   1.483
 1254TIP3    H1 3726   2.094   3.961   1.425
 1254TIP3    H2 3727   2.185   4.082   1.424
 1255TIP3   OH2 3728   3.354   5.646   2.821
 1255TIP3    H1 3729   3.308   5.674   2.742
 1255TIP3    H2 3730   3.381   5.728   2.863
 1256TIP3   OH2 3731   0.531   0.406   4.651
 1256TIP3    H1 3732   0.582   0.475   4.609
 1256TIP3    H2 3733   0.521   0.339   4.583
 1257TIP3   OH2 3734   4.646   1.214   0.679
 1257TIP3    H1 3735   4.716   1.278   0.695
 1257TIP3    H2 3736   4.600   1.248   0.603
 1258TIP3   OH2 3737   2.138   1.735   0.587
 1258TIP3    H1 3738   2.160   1.656   0.635
 1258TIP3    H2 3739   2.092   1.704   0.509
 1259TIP3   OH2 3740   3.342   3.850   4.194
 1259TIP3    H1 3741   3.426   3.864   4.238
 1259TIP3    H2 3742   3.314   3.938   4.169
 1260TIP3   OH2 3743   0.318   3.831   3.951
 1260TIP3    H1 3744   0.401   3.877   3.961
 1260TIP3    H2 3745   0.331   3.775   3.875
 1261TIP3   OH2 3746   4.448   2.781   2.491
 1261TIP3    H1 3747   4.375   2.780   2.553
 1261TIP3    H2 3748   4.507   2.848   2.525
 1262TIP3   OH2 3749   3.441   2.633   1.902
 1262TIP3    H1 3750   3.521   2.682   1.921
 1262TIP3    H2 3751   3.417   2.661   1.814
 1263TIP3   OH2 3752   7.234   4.511   1.970
 1263TIP3    H1 3753   7.229   4.533   1.877
 1263TIP3    H2 3754   7.260   4.593   2.013
 1264TIP3   OH2 3755   6.322   6.445   5.396
 1264TIP3    H1 3756   6.409   6.413   5.371
 1264TIP3    H2 3757   6.323   6.538   5.373
 1265TIP3   OH2 3758   6.564   5.221   4.926
 1265TIP3    H1 3759   6.502   5.224   4.999
 1265TIP3    H2 3760   6.597   5.131   4.926
 1266TIP3   OH2 3761   6.085   2.643   5.527
 1266TIP3    H1 3762   6.134   2.564   5.506
 1266TIP3    H2 3763   6.042   2.623   5.611
 1267TIP3   OH2 3764   4.918   0.254   2.946
 1267TIP3    H1 3765   4.997   0.239   2.895
 1267TIP3    H2 3766   4.917   0.349   2.963
 1268TIP3   OH2 3767   6.656   3.866   3.950
 1268TIP3    H1 3768   6.747   3.865   3.921
 1268TIP3    H2 3769   6.658   3.827   4.038
 1269TIP3   OH2 3770   2.903   1.899   4.557
 1269TIP3    H1 3771   2.847   1.832   4.518
 1269TIP3    H2 3772   2.931   1.953   4.483
 1270TIP3   OH2 3773   2.180   5.285   5.604
 1270TIP3    H1 3774   2.149   5.352   5.542
 1270TIP3    H2 3775   2.272   5.307   5.617
 1271TIP3   OH2 3776   0.961   2.791   5.375
 1271TIP3    H1 3777   0.890   2.818   5.432
 1271TIP3    H2 3778   1.001   2.873   5.346
 1272TIP3   OH2 3779   4.314   5.888   4.542
 1272TIP3    H1 3780   4.352   5.975   4.530
 1272TIP3    H2 3781   4.376   5.829   4.500
 1273TIP3   OH2 3782   2.785   5.599   3.387
 1273TIP3    H1 3783   2.864   5.546   3.403
 1273TIP3    H2 3784   2.753   5.621   3.475
 1274TIP3   OH2 3785   7.081   3.210   3.531
 1274TIP3    H1 3786   6.996   3.176   3.503
 1274TIP3    H2 3787   7.133   3.214   3.451
 1275TIP3   OH2 3788   4.420   0.074   1.871
 1275TIP3    H1 3789   4.346   0.097   1.927
 1275TIP3    H2 3790   4.410  -0.020   1.854
 1276TIP3   OH2 3791   3.723   3.419   5.816
 1276TIP3    H1 3792   3.683   3.466   5.890
 1276TIP3    H2 3793   3.651   3.408   5.754
 1277TIP3   OH2 3794   0.429   6.293   2.438
 1277TIP3    H1 3795   0.339   6.275   2.465
 1277TIP3    H2 3796   0.482   6.273   2.515
 1278TIP3   OH2 3797   6.799   5.961   5.489
 1278TIP3    H1 3798   6.773   5.873   5.517
 1278TIP3    H2 3799   6.719   6.000   5.454
 1279TIP3   OH2 3800   2.866   0.266   4.297
 1279TIP3    H1 3801   2.875   0.190   4.239
 1279TIP3    H2 3802   2.948   0.314   4.287
 1280TIP3   OH2 3803   0.356   4.690   3.028
 1280TIP3    H1 3804   0.288   4.745   2.989
 1280TIP3    H2 3805   0.438   4.728   2.998
 1281TIP3   OH2 3806   7.176   6.139   5.253
 1281TIP3    H1 3807   7.156   6.073   5.320
 1281TIP3    H2 3808   7.230   6.093   5.189
 1282TIP3   OH2 3809   1.612   3.222   0.108
 1282TIP3    H1 3810   1.579   3.304   0.146
 1282TIP3    H2 3811   1.533   3.174   0.082
 1283TIP3   OH2 3812   0.589   1.907   0.975
 1283TIP3    H1 3813   0.647   1.834   0.956
 1283TIP3    H2 3814   0.608   1.929   1.066
 1284TIP3   OH2 3815   3.605   3.021   3.124
 1284TIP3    H1 3816   3.610   2.954   3.056
 1284TIP3    H2 3817   3.516   3.055   3.117
 1285TIP3   OH2 3818   5.882   1.789   0.703
 1285TIP3    H1 3819   5.923   1.722   0.648
 1285TIP3    H2 3820   5.903   1.763   0.793
 1286TIP3   OH2 3821   1.598   5.722   0.280
 1286TIP3    H1 3822   1.611   5.632   0.251
 1286TIP3    H2 3823   1.659   5.774   0.228
 1287TIP3   OH2 3824   1.073   6.765   5.630
 1287TIP3    H1 3825   1.112   6.851   5.647
 1287TIP3    H2 3826   1.130   6.725   5.565
 1288TIP3   OH2 3827   4.902   4.065   3.069
 1288TIP3    H1 3828   4.891   4.122   3.145
 1288TIP3    H2 3829   4.936   4.122   3.001
 1289TIP3   OH2 3830   2.286   2.832   1.543
 1289TIP3    H1 3831   2.239   2.802   1.621
 1289TIP3    H2 3832   2.238   2.909   1.514
 1290TIP3   OH2 3833   6.586   6.578   4.539
 1290TIP3    H1 3834   6.662   6.612   4.586
 1290TIP3    H2 3835   6.522   6.557   4.607
 1291TIP3   OH2 3836   7.024   2.932   0.119
 1291TIP3    H1 3837   6.948   2.875   0.112
 1291TIP3    H2 3838   7.036   2.944   0.213
 1292TIP3   OH2 3839   1.545   5.961   2.066
 1292TIP3    H1 3840   1.581   6.050   2.058
 1292TIP3    H2 3841   1.578   5.930   2.150
 1293TIP3   OH2 3842   4.028   0.356   1.491
 1293TIP3    H1 3843   4.061   0.270   1.517
 1293TIP3    H2 3844   4.017   0.349   1.397
 1294TIP3   OH2 3845   3.385   2.492   0.412
 1294TIP3    H1 3846   3.471   2.478   0.372
 1294TIP3    H2 3847   3.354   2.575   0.375
 1295TIP3   OH2 3848   0.636   4.659   5.091
 1295TIP3    H1 3849   0.679   4.744   5.102
 1295TIP3    H2 3850   0.551   4.679   5.052
 1296TIP3   OH2 3851   6.862   4.189   3.993
 1296TIP3    H1 3852   6.847   4.253   3.923
 1296TIP3    H2 3853   6.902   4.240   4.064
 1297TIP3   OH2 3854   2.144   1.574   5.860
 1297TIP3    H1 3855   2.069   1.627   5.833
 1297TIP3    H2 3856   2.210   1.638   5.886
 1298TIP3   OH2 3857   4.618   0.952   0.716
 1298TIP3    H1 3858   4.653   1.041   0.719
 1298TIP3    H2 3859   4.566   0.950   0.635
 1299TIP3   OH2 3860   0.264   4.043   5.199
 1299TIP3    H1 3861   0.174   4.058   5.172
 1299TIP3    H2 3862   0.283   4.114   5.260
 1300TIP3   OH2 3863   6.785   4.500   3.541
 1300TIP3    H1 3864   6.875   4.534   3.532
 1300TIP3    H2 3865   6.730   4.571   3.508
 1301TIP3   OH2 3866   0.933   3.813   4.005
 1301TIP3    H1 3867   0.999   3.881   4.023
 1301TIP3    H2 3868   0.849   3.856   4.021
 1302TIP3   OH2 3869   4.737   5.515   4.955
 1302TIP3    H1 3870   4.819   5.501   5.004
 1302TIP3    H2 3871   4.675   5.454   4.996
 1303TIP3   OH2 3872   5.847   2.593   2.929
 1303TIP3    H1 3873   5.816   2.512   2.888
 1303TIP3    H2 3874   5.811   2.663   2.873
 1304TIP3   OH2 3875   7.074   4.976   0.580
 1304TIP3    H1 3876   7.097   4.989   0.672
 1304TIP3    H2 3877   7.085   4.882   0.566
 1305TIP3   OH2 3878   0.639   2.867   4.538
 1305TIP3    H1 3879   0.553   2.845   4.504
 1305TIP3    H2 3880   0.675   2.931   4.477
 1306TIP3   OH2 3881   5.634   2.347   0.852
 1306TIP3    H1 3882   5.650   2.336   0.759
 1306TIP3    H2 3883   5.575   2.275   0.876
 1307TIP3   OH2 3884   1.241   6.264   3.555
 1307TIP3    H1 3885   1.201   6.186   3.593
 1307TIP3    H2 3886   1.167   6.316   3.522
 1308TIP3   OH2 3887   4.177   2.611   1.948
 1308TIP3    H1 3888   4.149   2.542   2.008
 1308TIP3    H2 3889   4.116   2.606   1.875
 1309TIP3   OH2 3890   1.132   3.417   3.671
 1309TIP3    H1 3891   1.114   3.491   3.729
 1309TIP3    H2 3892   1.048   3.372   3.663
 1310TIP3   OH2 3893   2.192   3.331   0.738
 1310TIP3    H1 3894   2.112   3.343   0.789
 1310TIP3    H2 3895   2.258   3.306   0.803
 1311TIP3   OH2 3896   3.952   4.448   5.113
 1311TIP3    H1 3897   3.954   4.389   5.188
 1311TIP3    H2 3898   4.043   4.453   5.084
 1312TIP3   OH2 3899   5.984   2.901  -0.005
 1312TIP3    H1 3900   5.947   2.980   0.035
 1312TIP3    H2 3901   6.025   2.855   0.068
 1313TIP3   OH2 3902   2.278   3.620   3.159
 1313TIP3    H1 3903   2.236   3.567   3.226
 1313TIP3    H2 3904   2.208   3.672   3.121
 1314TIP3   OH2 3905   1.787   2.660   1.831
 1314TIP3    H1 3906   1.818   2.624   1.914
 1314TIP3    H2 3907   1.723   2.595   1.800
 1315TIP3   OH2 3908   2.174   6.383   1.172
 1315TIP3    H1 3909   2.096   6.414   1.219
 1315TIP3    H2 3910   2.208   6.313   1.227
 1316TIP3   OH2 3911   5.405   5.402   5.188
 1316TIP3    H1 3912   5.328   5.387   5.134
 1316TIP3    H2 3913   5.391   5.350   5.267
 1317TIP3   OH2 3914   1.117   2.932   2.987
 1317TIP3    H1 3915   1.201   2.944   2.943
 1317TIP3    H2 3916   1.090   2.844   2.963
 1318TIP3   OH2 3917   4.797   1.538   5.524
 1318TIP3    H1 3918   4.858   1.516   5.453
 1318TIP3    H2 3919   4.714   1.553   5.480
 1319TIP3   OH2 3920   7.134   1.953   2.346
 1319TIP3    H1 3921   7.070   2.025   2.340
 1319TIP3    H2 3922   7.084   1.875   2.324
 1320TIP3   OH2 3923   1.555   2.236   2.649
 1320TIP3    H1 3924   1.627   2.174   2.636
 1320TIP3    H2 3925   1.541   2.275   2.563
 1321TIP3   OH2 3926   0.562   6.453   0.489
 1321TIP3    H1 3927   0.647   6.409   0.487
 1321TIP3    H2 3928   0.580   6.543   0.462
 1322TIP3   OH2 3929   2.544   6.062   3.863
 1322TIP3    H1 3930   2.589   5.983   3.833
 1322TIP3    H2 3931   2.457   6.031   3.889
 1323TIP3   OH2 3932   4.636   2.663   2.330
 1323TIP3    H1 3933   4.680   2.729   2.276
 1323TIP3    H2 3934   4.564   2.711   2.371
 1324TIP3   OH2 3935   2.518   5.598   1.558
 1324TIP3    H1 3936   2.557   5.635   1.638
 1324TIP3    H2 3937   2.593   5.576   1.503
 1325TIP3   OH2 3938   5.571   5.821   3.979
 1325TIP3    H1 3939   5.501   5.842   4.041
 1325TIP3    H2 3940   5.613   5.905   3.960
 1326TIP3   OH2 3941   3.777   6.708   0.617
 1326TIP3    H1 3942   3.821   6.669   0.692
 1326TIP3    H2 3943   3.846   6.757   0.571
 1327TIP3   OH2 3944   7.061   0.219   4.957
 1327TIP3    H1 3945   7.016   0.291   4.913
 1327TIP3    H2 3946   6.994   0.177   5.010
 1328TIP3   OH2 3947   0.744   1.965   3.085
 1328TIP3    H1 3948   0.828   1.921   3.072
 1328TIP3    H2 3949   0.697   1.910   3.147
 1329TIP3   OH2 3950   2.708   0.188   5.694
 1329TIP3    H1 3951   2.691   0.257   5.629
 1329TIP3    H2 3952   2.656   0.214   5.770
 1330TIP3   OH2 3953   3.034   4.766   2.413
 1330TIP3    H1 3954   3.047   4.716   2.494
 1330TIP3    H2 3955   2.987   4.705   2.355
 1331TIP3   OH2 3956   4.353   0.100   5.146
 1331TIP3    H1 3957   4.348   0.042   5.070
 1331TIP3    H2 3958   4.262   0.122   5.166
 1332TIP3   OH2 3959   4.612   6.402   2.266
 1332TIP3    H1 3960   4.610   6.497   2.260
 1332TIP3    H2 3961   4.613   6.373   2.174
 1333TIP3   OH2 3962   1.430   0.604   1.047
 1333TIP3    H1 3963   1.359   0.553   1.086
 1333TIP3    H2 3964   1.500   0.540   1.034
 1334TIP3   OH2 3965   2.135   4.783   5.177
 1334TIP3    H1 3966   2.128   4.875   5.199
 1334TIP3    H2 3967   2.228   4.770   5.155
 1335TIP3   OH2 3968   7.011   3.080   4.436
 1335TIP3    H1 3969   6.933   3.036   4.469
 1335TIP3    H2 3970   7.047   3.126   4.512
 1336TIP3   OH2 3971   2.603   3.833   1.629
 1336TIP3    H1 3972   2.615   3.916   1.583
 1336TIP3    H2 3973   2.670   3.834   1.698
 1337TIP3   OH2 3974   7.006   1.514   0.551
 1337TIP3    H1 3975   6.980   1.501   0.459
 1337TIP3    H2 3976   6.931   1.484   0.602
 1338TIP3   OH2 3977   2.228   4.494   3.196
 1338TIP3    H1 3978   2.290   4.464   3.262
 1338TIP3    H2 3979   2.247   4.440   3.119
 1339TIP3   OH2 3980   2.728   3.860   3.602
 1339TIP3    H1 3981   2.747   3.809   3.681
 1339TIP3    H2 3982   2.699   3.945   3.635
 1340TIP3   OH2 3983   0.978   2.214   3.467
 1340TIP3    H1 3984   1.068   2.233   3.492
 1340TIP3    H2 3985   0.983   2.131   3.419
 1341TIP3   OH2 3986   2.777   2.380   1.108
 1341TIP3    H1 3987   2.762   2.466   1.069
 1341TIP3    H2 3988   2.831   2.398   1.185
 1342TIP3   OH2 3989   3.781   0.789   1.535
 1342TIP3    H1 3990   3.791   0.723   1.604
 1342TIP3    H2 3991   3.719   0.852   1.571
 1343TIP3   OH2 3992   6.135   0.453   1.840
 1343TIP3    H1 3993   6.140   0.548   1.852
 1343TIP3    H2 3994   6.076   0.423   1.909
 1344TIP3   OH2 3995   5.175   4.898   4.981
 1344TIP3    H1 3996   5.235   4.971   4.993
 1344TIP3    H2 3997   5.148   4.874   5.069
 1345TIP3   OH2 3998   5.801   4.124   4.688
 1345TIP3    H1 3999   5.750   4.205   4.688
 1345TIP3    H2 4000   5.857   4.131   4.610
 1346TIP3   OH2 4001   0.466   1.564   5.560
 1346TIP3    H1 4002   0.422   1.543   5.643
 1346TIP3    H2 4003   0.470   1.660   5.560
 1347TIP3   OH2 4004   3.834   0.438   0.991
 1347TIP3    H1 4005   3.929   0.445   0.997
 1347TIP3    H2 4006   3.818   0.345   0.974
 1348TIP3   OH2 4007   2.549   1.463   1.239
 1348TIP3    H1 4008   2.572   1.508   1.158
 1348TIP3    H2 4009   2.460   1.491   1.257
 1349TIP3   OH2 4010   4.670   4.910   3.102
 1349TIP3    H1 4011   4.597   4.936   3.158
 1349TIP3    H2 4012   4.693   4.822   3.131
 1350TIP3   OH2 4013   4.296   0.396   3.620
 1350TIP3    H1 4014   4.298   0.324   3.684
 1350TIP3    H2 4015   4.366   0.373   3.558
 1351TIP3   OH2 4016   0.335   4.289   5.814
 1351TIP3    H1 4017   0.411   4.343   5.797
 1351TIP3    H2 4018   0.370   4.202   5.830
 1352TIP3   OH2 4019   1.167   6.041   3.054
 1352TIP3    H1 4020   1.225   6.105   3.013
 1352TIP3    H2 4021   1.184   5.959   3.007
 1353TIP3   OH2 4022   1.448   5.458   3.743
 1353TIP3    H1 4023   1.526   5.507   3.718
 1353TIP3    H2 4024   1.413   5.505   3.819
 1354TIP3   OH2 4025   3.654   1.179   3.152
 1354TIP3    H1 4026   3.624   1.103   3.103
 1354TIP3    H2 4027   3.650   1.152   3.244
 1355TIP3   OH2 4028   5.796   2.040   1.370
 1355TIP3    H1 4029   5.889   2.044   1.346
 1355TIP3    H2 4030   5.756   2.113   1.323
 1356TIP3   OH2 4031   5.386   3.670   3.953
 1356TIP3    H1 4032   5.309   3.613   3.950
 1356TIP3    H2 4033   5.386   3.715   3.868
 1357TIP3   OH2 4034   2.765   5.503   0.062
 1357TIP3    H1 4035   2.794   5.414   0.083
 1357TIP3    H2 4036   2.845   5.556   0.062
 1358TIP3   OH2 4037   2.121   5.046   2.208
 1358TIP3    H1 4038   2.152   4.956   2.200
 1358TIP3    H2 4039   2.196   5.099   2.180
 1359TIP3   OH2 4040   1.267   3.189   2.543
 1359TIP3    H1 4041   1.244   3.104   2.506
 1359TIP3    H2 4042   1.348   3.173   2.592
 1360TIP3   OH2 4043   4.870   1.569   2.880
 1360TIP3    H1 4044   4.807   1.498   2.896
 1360TIP3    H2 4045   4.930   1.532   2.816
 1361TIP3   OH2 4046   5.960   2.193   2.562
 1361TIP3    H1 4047   5.981   2.123   2.501
 1361TIP3    H2 4048   5.875   2.226   2.533
 1362TIP3   OH2 4049   3.036   3.243   4.337
 1362TIP3    H1 4050   3.073   3.161   4.370
 1362TIP3    H2 4051   3.088   3.312   4.377
 1363TIP3   OH2 4052   0.437   1.315   3.770
 1363TIP3    H1 4053   0.527   1.332   3.743
 1363TIP3    H2 4054   0.394   1.283   3.690
 1364TIP3   OH2 4055   6.266   5.442   4.439
 1364TIP3    H1 4056   6.245   5.349   4.430
 1364TIP3    H2 4057   6.181   5.485   4.452
 1365TIP3   OH2 4058   0.929   3.145   1.699
 1365TIP3    H1 4059   0.938   3.206   1.773
 1365TIP3    H2 4060   1.003   3.086   1.708
 1366TIP3   OH2 4061   3.957   3.477   0.685
 1366TIP3    H1 4062   3.926   3.393   0.651
 1366TIP3    H2 4063   3.885   3.538   0.668
 1367TIP3   OH2 4064   1.107   6.752   2.205
 1367TIP3    H1 4065   1.198   6.751   2.235
 1367TIP3    H2 4066   1.061   6.808   2.268
 1368TIP3   OH2 4067   0.353   6.548   1.702
 1368TIP3    H1 4068   0.378   6.539   1.794
 1368TIP3    H2 4069   0.302   6.469   1.683
 1369TIP3   OH2 4070   4.568   5.559   1.597
 1369TIP3    H1 4071   4.486   5.569   1.646
 1369TIP3    H2 4072   4.576   5.640   1.547
 1370TIP3   OH2 4073   3.831   2.832   4.208
 1370TIP3    H1 4074   3.876   2.816   4.125
 1370TIP3    H2 4075   3.870   2.769   4.269
 1371TIP3   OH2 4076   3.211   4.489   0.017
 1371TIP3    H1 4077   3.221   4.584   0.013
 1371TIP3    H2 4078   3.274   4.461   0.083
 1372TIP3   OH2 4079   4.884   5.514   0.402
 1372TIP3    H1 4080   4.846   5.532   0.316
 1372TIP3    H2 4081   4.864   5.422   0.418
 1373TIP3   OH2 4082   7.068   0.304   4.522
 1373TIP3    H1 4083   7.106   0.361   4.455
 1373TIP3    H2 4084   7.104   0.217   4.503
 1374TIP3   OH2 4085   6.766   4.604   5.573
 1374TIP3    H1 4086   6.784   4.683   5.522
 1374TIP3    H2 4087   6.814   4.617   5.655
 1375TIP3   OH2 4088   3.526   0.221   5.708
 1375TIP3    H1 4089   3.470   0.262   5.774
 1375TIP3    H2 4090   3.514   0.275   5.630
 1376TIP3   OH2 4091   0.919   5.135   2.984
 1376TIP3    H1 4092   0.894   5.078   2.911
 1376TIP3    H2 4093   0.962   5.077   3.047
 1377TIP3   OH2 4094   5.408   0.625   2.595
 1377TIP3    H1 4095   5.399   0.711   2.555
 1377TIP3    H2 4096   5.343   0.571   2.550
 1378TIP3   OH2 4097   1.512   0.681   1.549
 1378TIP3    H1 4098   1.603   0.708   1.564
 1378TIP3    H2 4099   1.460   0.743   1.599
 1379TIP3   OH2 4100   4.017   4.310   1.266
 1379TIP3    H1 4101   4.101   4.273   1.239
 1379TIP3    H2 4102   3.952   4.247   1.234
 1380TIP3   OH2 4103   4.808   3.425   4.790
 1380TIP3    H1 4104   4.725   3.464   4.817
 1380TIP3    H2 4105   4.833   3.368   4.863
 1381TIP3   OH2 4106   5.415   2.229   1.801
 1381TIP3    H1 4107   5.475   2.303   1.800
 1381TIP3    H2 4108   5.407   2.203   1.709
 1382TIP3   OH2 4109   5.094   0.891   1.456
 1382TIP3    H1 4110   5.051   0.865   1.374
 1382TIP3    H2 4111   5.172   0.940   1.428
 1383TIP3   OH2 4112   4.745   0.154   1.322
 1383TIP3    H1 4113   4.718   0.124   1.235
 1383TIP3    H2 4114   4.696   0.235   1.336
 1384TIP3   OH2 4115   6.257   6.139   5.291
 1384TIP3    H1 4116   6.204   6.064   5.318
 1384TIP3    H2 4117   6.209   6.215   5.326
 1385TIP3   OH2 4118   1.772   4.746   3.145
 1385TIP3    H1 4119   1.728   4.741   3.230
 1385TIP3    H2 4120   1.804   4.657   3.130
 1386TIP3   OH2 4121   4.545   2.065   0.928
 1386TIP3    H1 4122   4.452   2.080   0.948
 1386TIP3    H2 4123   4.591   2.136   0.973
 1387TIP3   OH2 4124   1.004   3.048   0.818
 1387TIP3    H1 4125   0.932   3.027   0.877
 1387TIP3    H2 4126   1.048   3.123   0.859
 1388TIP3   OH2 4127   7.163   0.747   4.453
 1388TIP3    H1 4128   7.143   0.789   4.370
 1388TIP3    H2 4129   7.235   0.799   4.490
 1389TIP3   OH2 4130   3.272   2.763   0.294
 1389TIP3    H1 4131   3.218   2.768   0.216
 1389TIP3    H2 4132   3.354   2.807   0.270
 1390TIP3   OH2 4133   3.368   3.382   2.624
 1390TIP3    H1 4134   3.407   3.445   2.564
 1390TIP3    H2 4135   3.338   3.311   2.567
 1391TIP3   OH2 4136   3.080   2.086   2.767
 1391TIP3    H1 4137   3.111   2.012   2.715
 1391TIP3    H2 4138   3.025   2.137   2.708
 1392TIP3   OH2 4139   6.553   1.378   3.713
 1392TIP3    H1 4140   6.582   1.469   3.707
 1392TIP3    H2 4141   6.515   1.359   3.628
 1393TIP3   OH2 4142   3.066   3.669   3.765
 1393TIP3    H1 4143   3.003   3.601   3.790
 1393TIP3    H2 4144   3.132   3.623   3.714
 1394TIP3   OH2 4145   6.902   2.922   1.845
 1394TIP3    H1 4146   6.980   2.977   1.848
 1394TIP3    H2 4147   6.829   2.985   1.846
 1395TIP3   OH2 4148   0.884   1.522   1.997
 1395TIP3    H1 4149   0.851   1.595   1.946
 1395TIP3    H2 4150   0.827   1.517   2.074
 1396TIP3   OH2 4151   2.262   6.565   0.128
 1396TIP3    H1 4152   2.167   6.567   0.137
 1396TIP3    H2 4153   2.295   6.565   0.218
 1397TIP3   OH2 4154   6.628   1.842   1.791
 1397TIP3    H1 4155   6.665   1.853   1.879
 1397TIP3    H2 4156   6.538   1.814   1.806
 1398TIP3   OH2 4157   6.409   2.463   2.397
 1398TIP3    H1 4158   6.477   2.444   2.333
 1398TIP3    H2 4159   6.403   2.384   2.450
 1399TIP3   OH2 4160   1.387   2.941   1.584
 1399TIP3    H1 4161   1.432   2.951   1.501
 1399TIP3    H2 4162   1.445   2.886   1.637
 1400TIP3   OH2 4163   2.823   4.974   3.741
 1400TIP3    H1 4164   2.905   4.992   3.787
 1400TIP3    H2 4165   2.832   4.883   3.711
 1401TIP3   OH2 4166   5.010   0.731   3.976
 1401TIP3    H1 4167   5.066   0.772   3.910
 1401TIP3    H2 4168   5.063   0.729   4.055
 1402TIP3   OH2 4169   6.161   4.490   4.218
 1402TIP3    H1 4170   6.167   4.397   4.240
 1402TIP3    H2 4171   6.219   4.533   4.280
 1403TIP3   OH2 4172   6.870   1.253   0.423
 1403TIP3    H1 4173   6.912   1.295   0.348
 1403TIP3    H2 4174   6.929   1.181   0.446
 1404TIP3   OH2 4175   5.395   0.440   5.541
 1404TIP3    H1 4176   5.452   0.370   5.512
 1404TIP3    H2 4177   5.384   0.426   5.635
 1405TIP3   OH2 4178   6.307   6.505   0.934
 1405TIP3    H1 4179   6.323   6.569   0.865
 1405TIP3    H2 4180   6.393   6.484   0.968
 1406TIP3   OH2 4181   0.480   0.671   2.461
 1406TIP3    H1 4182   0.520   0.677   2.374
 1406TIP3    H2 4183   0.454   0.760   2.481
 1407TIP3   OH2 4184   1.322   2.686   2.627
 1407TIP3    H1 4185   1.231   2.708   2.644
 1407TIP3    H2 4186   1.320   2.592   2.607
 1408TIP3   OH2 4187   4.320   2.176   3.896
 1408TIP3    H1 4188   4.396   2.231   3.915
 1408TIP3    H2 4189   4.288   2.149   3.982
 1409TIP3   OH2 4190   1.797   5.770   2.145
 1409TIP3    H1 4191   1.799   5.706   2.216
 1409TIP3    H2 4192   1.766   5.721   2.069
 1410TIP3   OH2 4193   4.718   5.571   1.868
 1410TIP3    H1 4194   4.731   5.658   1.829
 1410TIP3    H2 4195   4.701   5.514   1.793
 1411TIP3   OH2 4196   0.152   0.986   1.386
 1411TIP3    H1 4197   0.134   0.946   1.471
 1411TIP3    H2 4198   0.067   1.021   1.359
 1412TIP3   OH2 4199   0.134   5.863   2.840
 1412TIP3    H1 4200   0.081   5.931   2.882
 1412TIP3    H2 4201   0.144   5.894   2.750
 1413TIP3   OH2 4202   0.766   5.396   1.172
 1413TIP3    H1 4203   0.825   5.325   1.145
 1413TIP3    H2 4204   0.759   5.387   1.266
 1414TIP3   OH2 4205   3.025   1.481   2.842
 1414TIP3    H1 4206   3.089   1.421   2.803
 1414TIP3    H2 4207   2.990   1.531   2.768
 1415TIP3   OH2 4208   1.597   2.438   1.793
 1415TIP3    H1 4209   1.527   2.438   1.859
 1415TIP3    H2 4210   1.623   2.346   1.786
 1416TIP3   OH2 4211   1.557   1.775   3.577
 1416TIP3    H1 4212   1.638   1.819   3.605
 1416TIP3    H2 4213   1.488   1.817   3.629
 1417TIP3   OH2 4214   4.387   1.598   0.361
 1417TIP3    H1 4215   4.412   1.519   0.314
 1417TIP3    H2 4216   4.294   1.609   0.343
 1418TIP3   OH2 4217   2.896   4.726   3.715
 1418TIP3    H1 4218   2.926   4.693   3.631
 1418TIP3    H2 4219   2.976   4.744   3.764
 1419TIP3   OH2 4220   2.739   3.986   4.378
 1419TIP3    H1 4221   2.701   4.056   4.326
 1419TIP3    H2 4222   2.664   3.947   4.423
 1420TIP3   OH2 4223   0.705   0.176   5.780
 1420TIP3    H1 4224   0.706   0.173   5.876
 1420TIP3    H2 4225   0.634   0.116   5.756
 1421TIP3   OH2 4226   5.157   4.303   5.585
 1421TIP3    H1 4227   5.160   4.359   5.663
 1421TIP3    H2 4228   5.065   4.304   5.559
 1422TIP3   OH2 4229   5.118   6.671   3.835
 1422TIP3    H1 4230   5.140   6.585   3.800
 1422TIP3    H2 4231   5.169   6.732   3.781
 1423TIP3   OH2 4232   5.228   3.391   0.060
 1423TIP3    H1 4233   5.203   3.300   0.046
 1423TIP3    H2 4234   5.230   3.400   0.155
 1424TIP3   OH2 4235   1.841   6.122   5.438
 1424TIP3    H1 4236   1.926   6.126   5.395
 1424TIP3    H2 4237   1.790   6.060   5.386
 1425TIP3   OH2 4238   2.012   5.435   2.473
 1425TIP3    H1 4239   2.023   5.443   2.568
 1425TIP3    H2 4240   1.923   5.401   2.462
 1426TIP3   OH2 4241   5.160   2.035   0.092
 1426TIP3    H1 4242   5.089   2.079   0.044
 1426TIP3    H2 4243   5.173   2.089   0.170
 1427TIP3   OH2 4244   2.180   6.746   4.223
 1427TIP3    H1 4245   2.247   6.703   4.170
 1427TIP3    H2 4246   2.098   6.727   4.178
 1428TIP3   OH2 4247   6.799   1.806   2.995
 1428TIP3    H1 4248   6.819   1.714   2.981
 1428TIP3    H2 4249   6.708   1.806   3.026
 1429TIP3   OH2 4250   6.262   5.000   3.899
 1429TIP3    H1 4251   6.283   5.074   3.956
 1429TIP3    H2 4252   6.176   4.970   3.930
 1430TIP3   OH2 4253   0.859   2.793   1.533
 1430TIP3    H1 4254   0.885   2.844   1.610
 1430TIP3    H2 4255   0.806   2.722   1.569
 1431TIP3   OH2 4256   7.064   2.064   0.826
 1431TIP3    H1 4257   7.150   2.096   0.853
 1431TIP3    H2 4258   7.002   2.115   0.878
 1432TIP3   OH2 4259   6.637   2.583   4.897
 1432TIP3    H1 4260   6.597   2.662   4.859
 1432TIP3    H2 4261   6.692   2.616   4.967
 1433TIP3   OH2 4262   4.952   0.529   2.929
 1433TIP3    H1 4263   5.031   0.579   2.907
 1433TIP3    H2 4264   4.881   0.577   2.886
 1434TIP3   OH2 4265   3.942   2.197   3.979
 1434TIP3    H1 4266   4.009   2.265   3.982
 1434TIP3    H2 4267   3.867   2.240   3.936
 1435TIP3   OH2 4268   2.312   3.404   3.437
 1435TIP3    H1 4269   2.378   3.364   3.381
 1435TIP3    H2 4270   2.357   3.476   3.481
 1436TIP3   OH2 4271   3.711   4.282   3.010
 1436TIP3    H1 4272   3.724   4.251   2.921
 1436TIP3    H2 4273   3.759   4.364   3.015
 1437TIP3   OH2 4274   4.734   2.518   3.929
 1437TIP3    H1 4275   4.819   2.490   3.898
 1437TIP3    H2 4276   4.727   2.609   3.901
 1438TIP3   OH2 4277   2.616   4.997   5.084
 1438TIP3    H1 4278   2.615   4.916   5.135
 1438TIP3    H2 4279   2.613   4.968   4.993
 1439TIP3   OH2 4280   1.792   0.813   4.926
 1439TIP3    H1 4281   1.787   0.830   5.021
 1439TIP3    H2 4282   1.824   0.895   4.889
 1440TIP3   OH2 4283   2.295   4.693   1.930
 1440TIP3    H1 4284   2.338   4.607   1.933
 1440TIP3    H2 4285   2.272   4.705   1.838
 1441TIP3   OH2 4286   2.220   6.364   5.098
 1441TIP3    H1 4287   2.211   6.283   5.148
 1441TIP3    H2 4288   2.141   6.367   5.043
 1442TIP3   OH2 4289   3.614   4.647   1.861
 1442TIP3    H1 4290   3.699   4.663   1.821
 1442TIP3    H2 4291   3.568   4.730   1.854
 1443TIP3   OH2 4292   0.758   6.426   3.539
 1443TIP3    H1 4293   0.711   6.467   3.466
 1443TIP3    H2 4294   0.727   6.473   3.616
 1444TIP3   OH2 4295   6.662   0.843   3.980
 1444TIP3    H1 4296   6.641   0.871   4.069
 1444TIP3    H2 4297   6.753   0.814   3.985
 1445TIP3   OH2 4298   6.701   2.540   5.727
 1445TIP3    H1 4299   6.740   2.501   5.648
 1445TIP3    H2 4300   6.776   2.575   5.775
 1446TIP3   OH2 4301   4.586   1.768   4.947
 1446TIP3    H1 4302   4.662   1.714   4.972
 1446TIP3    H2 4303   4.552   1.800   5.030
 1447TIP3   OH2 4304   2.003   6.770   4.894
 1447TIP3    H1 4305   2.093   6.746   4.873
 1447TIP3    H2 4306   1.954   6.688   4.882
 1448TIP3   OH2 4307   5.894   1.747   0.032
 1448TIP3    H1 4308   5.967   1.798  -0.002
 1448TIP3    H2 4309   5.822   1.765  -0.028
 1449TIP3   OH2 4310   4.912   1.792   5.535
 1449TIP3    H1 4311   4.881   1.702   5.546
 1449TIP3    H2 4312   4.915   1.828   5.624
 1450TIP3   OH2 4313   3.757   5.917   0.008
 1450TIP3    H1 4314   3.676   5.873  -0.017
 1450TIP3    H2 4315   3.791   5.865   0.081
 1451TIP3   OH2 4316   2.698   1.079   4.419
 1451TIP3    H1 4317   2.616   1.119   4.391
 1451TIP3    H2 4318   2.716   1.013   4.351
 1452TIP3   OH2 4319   7.070   2.266   4.118
 1452TIP3    H1 4320   7.151   2.318   4.118
 1452TIP3    H2 4321   7.093   2.187   4.069
 1453TIP3   OH2 4322   2.481   4.288   3.155
 1453TIP3    H1 4323   2.425   4.211   3.171
 1453TIP3    H2 4324   2.437   4.335   3.084
 1454TIP3   OH2 4325   7.127   2.897   3.393
 1454TIP3    H1 4326   7.079   2.827   3.437
 1454TIP3    H2 4327   7.189   2.929   3.459
 1455TIP3   OH2 4328   1.319   0.121   3.181
 1455TIP3    H1 4329   1.312   0.216   3.166
 1455TIP3    H2 4330   1.274   0.082   3.106
 1456TIP3   OH2 4331   3.258   5.901   5.205
 1456TIP3    H1 4332   3.253   5.968   5.273
 1456TIP3    H2 4333   3.196   5.834   5.233
 1457TIP3   OH2 4334   2.037   3.135   2.393
 1457TIP3    H1 4335   2.113   3.186   2.421
 1457TIP3    H2 4336   1.962   3.183   2.429
 1458TIP3   OH2 4337   3.601   5.802   0.353
 1458TIP3    H1 4338   3.637   5.774   0.436
 1458TIP3    H2 4339   3.548   5.728   0.323
 1459TIP3   OH2 4340   3.996   6.605   4.449
 1459TIP3    H1 4341   4.081   6.570   4.423
 1459TIP3    H2 4342   3.985   6.575   4.539
 1460TIP3   OH2 4343   5.621   4.229   3.949
 1460TIP3    H1 4344   5.665   4.145   3.961
 1460TIP3    H2 4345   5.660   4.287   4.015
 1461TIP3   OH2 4346   0.174   2.125   1.731
 1461TIP3    H1 4347   0.144   2.214   1.750
 1461TIP3    H2 4348   0.259   2.119   1.775
 1462TIP3   OH2 4349   1.871   5.806   5.368
 1462TIP3    H1 4350   1.835   5.856   5.295
 1462TIP3    H2 4351   1.862   5.715   5.342
 1463TIP3   OH2 4352   0.063   3.280   4.143
 1463TIP3    H1 4353   0.112   3.318   4.216
 1463TIP3    H2 4354   0.045   3.190   4.170
 1464TIP3   OH2 4355   0.946   5.390   0.536
 1464TIP3    H1 4356   0.894   5.470   0.523
 1464TIP3    H2 4357   0.973   5.365   0.448
 1465TIP3   OH2 4358   0.404   1.682   1.521
 1465TIP3    H1 4359   0.393   1.591   1.492
 1465TIP3    H2 4360   0.414   1.732   1.439
 1466TIP3   OH2 4361   3.987   1.148   1.417
 1466TIP3    H1 4362   3.939   1.111   1.491
 1466TIP3    H2 4363   4.055   1.084   1.398
 1467TIP3   OH2 4364   2.355   3.278   5.572
 1467TIP3    H1 4365   2.353   3.327   5.654
 1467TIP3    H2 4366   2.271   3.232   5.570
 1468TIP3   OH2 4367   1.091   3.980   1.120
 1468TIP3    H1 4368   1.108   3.887   1.106
 1468TIP3    H2 4369   1.177   4.020   1.121
 1469TIP3   OH2 4370   5.520   2.139   4.473
 1469TIP3    H1 4371   5.545   2.172   4.387
 1469TIP3    H2 4372   5.584   2.178   4.533
 1470TIP3   OH2 4373   2.499   0.928   2.271
 1470TIP3    H1 4374   2.465   0.849   2.313
 1470TIP3    H2 4375   2.505   0.992   2.341
 1471TIP3   OH2 4376   7.133   4.240   3.859
 1471TIP3    H1 4377   7.166   4.313   3.806
 1471TIP3    H2 4378   7.105   4.175   3.794
 1472TIP3   OH2 4379   3.645   4.260   0.449
 1472TIP3    H1 4380   3.576   4.220   0.396
 1472TIP3    H2 4381   3.603   4.337   0.488
 1473TIP3   OH2 4382   1.403   2.178   5.865
 1473TIP3    H1 4383   1.444   2.235   5.930
 1473TIP3    H2 4384   1.313   2.168   5.896
 1474TIP3   OH2 4385   7.015   6.272   0.650
 1474TIP3    H1 4386   6.972   6.230   0.724
 1474TIP3    H2 4387   7.043   6.199   0.594
 1475TIP3   OH2 4388   1.499   0.218   5.381
 1475TIP3    H1 4389   1.533   0.137   5.342
 1475TIP3    H2 4390   1.405   0.216   5.363
 1476TIP3   OH2 4391   7.037   1.603   2.038
 1476TIP3    H1 4392   7.120   1.573   2.075
 1476TIP3    H2 4393   7.052   1.605   1.944
 1477TIP3   OH2 4394   6.359   4.538   3.458
 1477TIP3    H1 4395   6.292   4.607   3.464
 1477TIP3    H2 4396   6.439   4.585   3.437
 1478TIP3   OH2 4397   7.106   5.011   2.504
 1478TIP3    H1 4398   7.148   4.982   2.423
 1478TIP3    H2 4399   7.050   5.084   2.477
 1479TIP3   OH2 4400   0.374   0.019   4.117
 1479TIP3    H1 4401   0.352  -0.003   4.026
 1479TIP3    H2 4402   0.314   0.089   4.140
 1480TIP3   OH2 4403   7.133   1.372   1.538
 1480TIP3    H1 4404   7.103   1.364   1.628
 1480TIP3    H2 4405   7.215   1.422   1.544
 1481TIP3   OH2 4406   0.211   3.954   2.893
 1481TIP3    H1 4407   0.176   4.008   2.964
 1481TIP3    H2 4408   0.192   4.003   2.814
 1482TIP3   OH2 4409   4.772   1.843   5.201
 1482TIP3    H1 4410   4.857   1.876   5.173
 1482TIP3    H2 4411   4.759   1.763   5.150
 1483TIP3   OH2 4412   3.455   0.125   4.908
 1483TIP3    H1 4413   3.495   0.211   4.897
 1483TIP3    H2 4414   3.467   0.105   5.001
 1484TIP3   OH2 4415   2.093   6.238   2.357
 1484TIP3    H1 4416   2.156   6.309   2.371
 1484TIP3    H2 4417   2.043   6.265   2.280
 1485TIP3   OH2 4418   6.249   0.359   3.774
 1485TIP3    H1 4419   6.199   0.438   3.796
 1485TIP3    H2 4420   6.310   0.349   3.848
 1486TIP3   OH2 4421   2.831   4.669   2.224
 1486TIP3    H1 4422   2.780   4.594   2.256
 1486TIP3    H2 4423   2.917   4.632   2.203
 1487TIP3   OH2 4424   3.316   3.327   4.181
 1487TIP3    H1 4425   3.248   3.384   4.145
 1487TIP3    H2 4426   3.324   3.256   4.117
 1488TIP3   OH2 4427   6.958   0.948   1.966
 1488TIP3    H1 4428   6.990   0.939   1.877
 1488TIP3    H2 4429   6.867   0.919   1.962
 1489TIP3   OH2 4430   4.556   1.974   1.346
 1489TIP3    H1 4431   4.471   2.018   1.348
 1489TIP3    H2 4432   4.572   1.956   1.253
 1490TIP3   OH2 4433   6.654   1.759   3.385
 1490TIP3    H1 4434   6.586   1.756   3.452
 1490TIP3    H2 4435   6.701   1.840   3.402
 1491TIP3   OH2 4436   0.270   4.189   1.165
 1491TIP3    H1 4437   0.338   4.207   1.229
 1491TIP3    H2 4438   0.280   4.096   1.145
 1492TIP3   OH2 4439   1.471   3.089   5.451
 1492TIP3    H1 4440   1.516   3.052   5.527
 1492TIP3    H2 4441   1.389   3.123   5.486
 1493TIP3   OH2 4442   2.841   1.247   3.388
 1493TIP3    H1 4443   2.830   1.310   3.317
 1493TIP3    H2 4444   2.885   1.172   3.348
 1494TIP3   OH2 4445   5.297   3.678   2.905
 1494TIP3    H1 4446   5.238   3.617   2.861
 1494TIP3    H2 4447   5.251   3.763   2.900
 1495TIP3   OH2 4448   6.304   2.673   1.388
 1495TIP3    H1 4449   6.378   2.733   1.383
 1495TIP3    H2 4450   6.283   2.653   1.297
 1496TIP3   OH2 4451   2.065   0.499   2.046
 1496TIP3    H1 4452   1.973   0.520   2.056
 1496TIP3    H2 4453   2.105   0.578   2.011
 1497TIP3   OH2 4454   4.299   2.784   5.539
 1497TIP3    H1 4455   4.260   2.754   5.457
 1497TIP3    H2 4456   4.323   2.875   5.523
 1498TIP3   OH2 4457   1.320   3.395   4.450
 1498TIP3    H1 4458   1.292   3.469   4.397
 1498TIP3    H2 4459   1.412   3.383   4.428
 1499TIP3   OH2 4460   5.120   6.302   3.519
 1499TIP3    H1 4461   5.034   6.281   3.556
 1499TIP3    H2 4462   5.146   6.224   3.471
 1500TIP3   OH2 4463   0.408   5.113   3.183
 1500TIP3    H1 4464   0.492   5.083   3.147
 1500TIP3    H2 4465   0.361   5.149   3.108
 1501TIP3   OH2 4466   0.991   6.575   2.025
 1501TIP3    H1 4467   0.903   6.605   2.001
 1501TIP3    H2 4468   1.021   6.640   2.088
 1502TIP3   OH2 4469   3.895   1.709   2.098
 1502TIP3    H1 4470   3.925   1.718   2.188
 1502TIP3    H2 4471   3.893   1.614   2.083
 1503TIP3   OH2 4472   4.673   4.325   1.508
 1503TIP3    H1 4473   4.749   4.295   1.558
 1503TIP3    H2 4474   4.622   4.376   1.571
 1504TIP3   OH2 4475   6.738   4.700   3.102
 1504TIP3    H1 4476   6.829   4.721   3.124
 1504TIP3    H2 4477   6.725   4.741   3.016
 1505TIP3   OH2 4478   5.904   5.453   5.074
 1505TIP3    H1 4479   5.808   5.446   5.073
 1505TIP3    H2 4480   5.930   5.434   4.984
 1506TIP3   OH2 4481   2.568   3.539   2.837
 1506TIP3    H1 4482   2.492   3.483   2.828
 1506TIP3    H2 4483   2.540   3.624   2.804
 1507TIP3   OH2 4484   1.800   5.407   1.676
 1507TIP3    H1 4485   1.802   5.495   1.640
 1507TIP3    H2 4486   1.854   5.355   1.616
 1508TIP3   OH2 4487   2.472   4.358   1.147
 1508TIP3    H1 4488   2.559   4.398   1.149
 1508TIP3    H2 4489   2.412   4.431   1.167
 1509TIP3   OH2 4490   0.561   6.168   3.374
 1509TIP3    H1 4491   0.621   6.116   3.428
 1509TIP3    H2 4492   0.522   6.104   3.314
 1510TIP3   OH2 4493   2.711   2.830   2.381
 1510TIP3    H1 4494   2.672   2.743   2.387
 1510TIP3    H2 4495   2.643   2.890   2.411
 1511TIP3   OH2 4496   0.399   3.433   3.596
 1511TIP3    H1 4497   0.330   3.374   3.625
 1511TIP3    H2 4498   0.476   3.378   3.587
 1512TIP3   OH2 4499   6.869   3.598   4.335
 1512TIP3    H1 4500   6.947   3.555   4.301
 1512TIP3    H2 4501   6.841   3.543   4.408
 1513TIP3   OH2 4502   1.008   5.394   3.596
 1513TIP3    H1 4503   1.036   5.304   3.581
 1513TIP3    H2 4504   1.055   5.420   3.676
 1514TIP3   OH2 4505   2.714   0.772   4.475
 1514TIP3    H1 4506   2.765   0.808   4.403
 1514TIP3    H2 4507   2.777   0.760   4.546
 1515TIP3   OH2 4508   5.683   0.119   3.127
 1515TIP3    H1 4509   5.756   0.177   3.102
 1515TIP3    H2 4510   5.721   0.059   3.191
 1516TIP3   OH2 4511   0.672   2.906   0.624
 1516TIP3    H1 4512   0.680   2.941   0.535
 1516TIP3    H2 4513   0.643   2.981   0.676
 1517TIP3   OH2 4514   5.456   1.778   3.825
 1517TIP3    H1 4515   5.489   1.825   3.748
 1517TIP3    H2 4516   5.400   1.710   3.789
 1518TIP3   OH2 4517   1.291   5.487   3.483
 1518TIP3    H1 4518   1.334   5.496   3.568
 1518TIP3    H2 4519   1.206   5.449   3.502
 1519TIP3   OH2 4520   2.920   4.058   4.748
 1519TIP3    H1 4521   2.983   4.107   4.695
 1519TIP3    H2 4522   2.904   3.978   4.698
 1520TIP3   OH2 4523   5.338   0.674   1.712
 1520TIP3    H1 4524   5.266   0.619   1.679
 1520TIP3    H2 4525   5.296   0.733   1.774
 1521TIP3   OH2 4526   0.333   0.594   5.634
 1521TIP3    H1 4527   0.374   0.620   5.551
 1521TIP3    H2 4528   0.402   0.606   5.700
 1522TIP3   OH2 4529   4.894   1.844   2.395
 1522TIP3    H1 4530   4.953   1.785   2.442
 1522TIP3    H2 4531   4.831   1.786   2.352
 1523TIP3   OH2 4532   1.098   1.966   4.154
 1523TIP3    H1 4533   1.066   2.043   4.107
 1523TIP3    H2 4534   1.087   1.988   4.247
 1524TIP3   OH2 4535   2.658   3.151   5.495
 1524TIP3    H1 4536   2.603   3.203   5.438
 1524TIP3    H2 4537   2.596   3.101   5.549
 1525TIP3   OH2 4538   0.799   0.146   2.744
 1525TIP3    H1 4539   0.833   0.229   2.711
 1525TIP3    H2 4540   0.812   0.085   2.672
 1526TIP3   OH2 4541   1.644   3.617   1.497
 1526TIP3    H1 4542   1.642   3.693   1.555
 1526TIP3    H2 4543   1.691   3.550   1.547
 1527TIP3   OH2 4544   7.156   6.574   4.982
 1527TIP3    H1 4545   7.118   6.632   5.048
 1527TIP3    H2 4546   7.141   6.486   5.014
 1528TIP3   OH2 4547   3.164   1.669   0.301
 1528TIP3    H1 4548   3.259   1.663   0.294
 1528TIP3    H2 4549   3.146   1.669   0.395
 1529TIP3   OH2 4550   6.185   0.405   5.681
 1529TIP3    H1 4551   6.135   0.337   5.726
 1529TIP3    H2 4552   6.237   0.357   5.616
 1530TIP3   OH2 4553   2.818   2.632   2.745
 1530TIP3    H1 4554   2.897   2.627   2.692
 1530TIP3    H2 4555   2.775   2.547   2.733
 1531TIP3   OH2 4556   5.983   2.837   2.009
 1531TIP3    H1 4557   6.070   2.850   1.972
 1531TIP3    H2 4558   5.936   2.918   1.989
 1532TIP3   OH2 4559   1.272   4.636   3.963
 1532TIP3    H1 4560   1.234   4.575   3.900
 1532TIP3    H2 4561   1.222   4.717   3.952
 1533TIP3   OH2 4562   1.437   2.116   1.946
 1533TIP3    H1 4563   1.367   2.069   1.901
 1533TIP3    H2 4564   1.394   2.160   2.019
 1534TIP3   OH2 4565   1.761   0.438   3.543
 1534TIP3    H1 4566   1.757   0.526   3.579
 1534TIP3    H2 4567   1.791   0.450   3.453
 1535TIP3   OH2 4568   2.098   6.171   5.328
 1535TIP3    H1 4569   2.131   6.138   5.244
 1535TIP3    H2 4570   2.156   6.131   5.393
 1536TIP3   OH2 4571   6.070   3.955   1.836
 1536TIP3    H1 4572   6.017   4.034   1.835
 1536TIP3    H2 4573   6.007   3.884   1.822
 1537TIP3   OH2 4574   1.784   0.293   5.500
 1537TIP3    H1 4575   1.748   0.307   5.587
 1537TIP3    H2 4576   1.708   0.296   5.441
 1538TIP3   OH2 4577   5.657   0.333   2.243
 1538TIP3    H1 4578   5.687   0.424   2.244
 1538TIP3    H2 4579   5.727   0.284   2.287
 1539TIP3   OH2 4580   3.596   2.603   3.226
 1539TIP3    H1 4581   3.607   2.509   3.241
 1539TIP3    H2 4582   3.548   2.609   3.143
 1540TIP3   OH2 4583   1.300   4.166   2.635
 1540TIP3    H1 4584   1.342   4.252   2.632
 1540TIP3    H2 4585   1.210   4.184   2.663
 1541TIP3   OH2 4586   2.671   2.624   3.501
 1541TIP3    H1 4587   2.766   2.638   3.507
 1541TIP3    H2 4588   2.642   2.685   3.433
 1542TIP3   OH2 4589   3.237   5.401   3.046
 1542TIP3    H1 4590   3.179   5.325   3.053
 1542TIP3    H2 4591   3.212   5.443   2.964
 1543TIP3   OH2 4592  -0.006   6.352   0.936
 1543TIP3    H1 4593   0.082   6.372   0.967
 1543TIP3    H2 4594  -0.008   6.384   0.846
 1544TIP3   OH2 4595   1.896   3.126   0.165
 1544TIP3    H1 4596   1.808   3.139   0.200
 1544TIP3    H2 4597   1.882   3.113   0.071
 1545TIP3   OH2 4598   0.949   3.744   4.539
 1545TIP3    H1 4599   1.006   3.815   4.511
 1545TIP3    H2 4600   0.878   3.788   4.587
 1546TIP3   OH2 4601   3.877   2.017   4.164
 1546TIP3    H1 4602   3.868   2.076   4.238
 1546TIP3    H2 4603   3.879   2.074   4.087
 1547TIP3   OH2 4604   5.945   3.374   4.516
 1547TIP3    H1 4605   5.873   3.339   4.568
 1547TIP3    H2 4606   5.991   3.433   4.575
 1548TIP3   OH2 4607   5.393   0.193   0.691
 1548TIP3    H1 4608   5.476   0.240   0.685
 1548TIP3    H2 4609   5.415   0.102   0.672
 1549TIP3   OH2 4610   2.937   6.085   1.466
 1549TIP3    H1 4611   3.015   6.084   1.521
 1549TIP3    H2 4612   2.865   6.065   1.525
 1550TIP3   OH2 4613   6.610   2.484   2.924
 1550TIP3    H1 4614   6.694   2.520   2.895
 1550TIP3    H2 4615   6.583   2.426   2.853
 1551TIP3   OH2 4616   4.400   6.335   3.364
 1551TIP3    H1 4617   4.479   6.283   3.364
 1551TIP3    H2 4618   4.379   6.348   3.456
 1552TIP3   OH2 4619   5.314   3.041   4.862
 1552TIP3    H1 4620   5.384   3.089   4.907
 1552TIP3    H2 4621   5.280   3.104   4.798
 1553TIP3   OH2 4622   0.291   6.513   2.658
 1553TIP3    H1 4623   0.328   6.434   2.697
 1553TIP3    H2 4624   0.351   6.536   2.587
 1554TIP3   OH2 4625   2.948   5.044   2.356
 1554TIP3    H1 4626   2.991   4.958   2.363
 1554TIP3    H2 4627   2.916   5.061   2.445
 1555TIP3   OH2 4628   1.601   4.363   2.695
 1555TIP3    H1 4629   1.597   4.337   2.787
 1555TIP3    H2 4630   1.692   4.344   2.670
 1556TIP3   OH2 4631   4.882   6.573   0.392
 1556TIP3    H1 4632   4.942   6.591   0.464
 1556TIP3    H2 4633   4.808   6.633   0.406
 1557TIP3   OH2 4634   5.746   4.546   5.532
 1557TIP3    H1 4635   5.827   4.578   5.494
 1557TIP3    H2 4636   5.773   4.500   5.611
 1558TIP3   OH2 4637   2.688   4.626   0.565
 1558TIP3    H1 4638   2.680   4.674   0.483
 1558TIP3    H2 4639   2.745   4.680   0.620
 1559TIP3   OH2 4640   4.676   0.352   2.806
 1559TIP3    H1 4641   4.766   0.380   2.792
 1559TIP3    H2 4642   4.682   0.258   2.820
 1560TIP3   OH2 4643   0.663   0.720   4.084
 1560TIP3    H1 4644   0.713   0.765   4.153
 1560TIP3    H2 4645   0.664   0.782   4.011
 1561TIP3   OH2 4646   4.233   1.905   4.954
 1561TIP3    H1 4647   4.149   1.918   4.909
 1561TIP3    H2 4648   4.234   1.973   5.022
 1562TIP3   OH2 4649   1.625   3.537   2.206
 1562TIP3    H1 4650   1.593   3.526   2.116
 1562TIP3    H2 4651   1.549   3.566   2.255
 1563TIP3   OH2 4652   5.781   6.295   1.784
 1563TIP3    H1 4653   5.761   6.283   1.691
 1563TIP3    H2 4654   5.860   6.243   1.798
 1564TIP3   OH2 4655   2.992   4.737   5.881
 1564TIP3    H1 4656   3.074   4.775   5.850
 1564TIP3    H2 4657   2.936   4.812   5.900
 1565TIP3   OH2 4658   2.321   4.994   4.577
 1565TIP3    H1 4659   2.263   4.918   4.576
 1565TIP3    H2 4660   2.347   5.003   4.669
 1566TIP3   OH2 4661   5.530   5.306   2.517
 1566TIP3    H1 4662   5.609   5.251   2.518
 1566TIP3    H2 4663   5.520   5.332   2.426
 1567TIP3   OH2 4664   3.026   3.267   2.145
 1567TIP3    H1 4665   3.044   3.179   2.112
 1567TIP3    H2 4666   3.043   3.325   2.071
 1568TIP3   OH2 4667   3.406   5.379   2.708
 1568TIP3    H1 4668   3.429   5.401   2.618
 1568TIP3    H2 4669   3.393   5.464   2.751
 1569TIP3   OH2 4670   3.547   0.181   4.591
 1569TIP3    H1 4671   3.628   0.162   4.638
 1569TIP3    H2 4672   3.575   0.212   4.505
 1570TIP3   OH2 4673   0.573   1.949   5.329
 1570TIP3    H1 4674   0.647   2.009   5.336
 1570TIP3    H2 4675   0.553   1.947   5.235
 1571TIP3   OH2 4676   6.574   5.502   1.547
 1571TIP3    H1 4677   6.617   5.573   1.595
 1571TIP3    H2 4678   6.646   5.457   1.503
 1572TIP3   OH2 4679   2.517   1.637   1.027
 1572TIP3    H1 4680   2.569   1.702   1.074
 1572TIP3    H2 4681   2.468   1.687   0.962
 1573TIP3   OH2 4682   1.342   6.589   5.669
 1573TIP3    H1 4683   1.327   6.604   5.762
 1573TIP3    H2 4684   1.267   6.537   5.640
 1574TIP3   OH2 4685   6.884   3.226   2.046
 1574TIP3    H1 4686   6.845   3.284   2.111
 1574TIP3    H2 4687   6.946   3.172   2.095
 1575TIP3   OH2 4688   4.424   3.982   5.913
 1575TIP3    H1 4689   4.352   3.923   5.892
 1575TIP3    H2 4690   4.417   4.052   5.848
 1576TIP3   OH2 4691   4.670   1.394   2.885
 1576TIP3    H1 4692   4.637   1.427   2.969
 1576TIP3    H2 4693   4.631   1.307   2.877
 1577TIP3   OH2 4694   4.886   5.356   4.466
 1577TIP3    H1 4695   4.854   5.303   4.392
 1577TIP3    H2 4696   4.941   5.423   4.425
 1578TIP3   OH2 4697   4.766   1.253   5.233
 1578TIP3    H1 4698   4.719   1.335   5.246
 1578TIP3    H2 4699   4.820   1.269   5.155
 1579TIP3   OH2 4700   0.731   4.412   0.722
 1579TIP3    H1 4701   0.635   4.418   0.716
 1579TIP3    H2 4702   0.747   4.323   0.751
 1580TIP3   OH2 4703   2.306   4.548   3.710
 1580TIP3    H1 4704   2.252   4.609   3.660
 1580TIP3    H2 4705   2.277   4.461   3.681
 1581TIP3   OH2 4706   0.757   2.384   3.328
 1581TIP3    H1 4707   0.743   2.348   3.241
 1581TIP3    H2 4708   0.805   2.315   3.374
 1582TIP3   OH2 4709   6.977   6.648   0.058
 1582TIP3    H1 4710   7.031   6.656   0.137
 1582TIP3    H2 4711   7.024   6.698  -0.008
 1583TIP3   OH2 4712   2.910   5.680   0.954
 1583TIP3    H1 4713   2.858   5.639   1.024
 1583TIP3    H2 4714   2.956   5.608   0.912
 1584TIP3   OH2 4715   5.261   5.669   3.301
 1584TIP3    H1 4716   5.341   5.669   3.248
 1584TIP3    H2 4717   5.293   5.675   3.391
 1585TIP3   OH2 4718   3.266   5.218   0.737
 1585TIP3    H1 4719   3.316   5.184   0.663
 1585TIP3    H2 4720   3.312   5.298   0.763
 1586TIP3   OH2 4721   4.508   6.069   1.409
 1586TIP3    H1 4722   4.443   6.138   1.398
 1586TIP3    H2 4723   4.535   6.076   1.501
 1587TIP3   OH2 4724   2.461   1.598   3.514
 1587TIP3    H1 4725   2.464   1.670   3.578
 1587TIP3    H2 4726   2.477   1.640   3.430
 1588TIP3   OH2 4727   4.934   5.255   5.309
 1588TIP3    H1 4728   4.994   5.323   5.341
 1588TIP3    H2 4729   4.848   5.283   5.339
 1589TIP3   OH2 4730   1.485   3.499   4.969
 1589TIP3    H1 4731   1.406   3.453   4.939
 1589TIP3    H2 4732   1.542   3.501   4.893
 1590TIP3   OH2 4733   0.385   0.683   4.738
 1590TIP3    H1 4734   0.459   0.646   4.688
 1590TIP3    H2 4735   0.401   0.777   4.738
 1591TIP3   OH2 4736   3.010   0.863   2.527
 1591TIP3    H1 4737   3.091   0.843   2.573
 1591TIP3    H2 4738   2.941   0.842   2.590
 1592TIP3   OH2 4739   4.957   2.875   0.430
 1592TIP3    H1 4740   4.871   2.907   0.405
 1592TIP3    H2 4741   4.947   2.847   0.521
 1593TIP3   OH2 4742   3.785   2.001   2.367
 1593TIP3    H1 4743   3.738   1.994   2.451
 1593TIP3    H2 4744   3.852   2.067   2.383
 1594TIP3   OH2 4745   3.902   6.648   5.102
 1594TIP3    H1 4746   3.955   6.715   5.060
 1594TIP3    H2 4747   3.951   6.625   5.181
 1595TIP3   OH2 4748   2.379   2.348   3.997
 1595TIP3    H1 4749   2.362   2.296   3.918
 1595TIP3    H2 4750   2.424   2.426   3.964
 1596TIP3   OH2 4751   0.354   2.836   3.439
 1596TIP3    H1 4752   0.303   2.838   3.358
 1596TIP3    H2 4753   0.356   2.927   3.468
 1597TIP3   OH2 4754   3.502   1.464   5.246
 1597TIP3    H1 4755   3.514   1.556   5.269
 1597TIP3    H2 4756   3.587   1.437   5.210
 1598TIP3   OH2 4757   6.593   3.942   5.717
 1598TIP3    H1 4758   6.556   4.030   5.722
 1598TIP3    H2 4759   6.594   3.912   5.808
 1599TIP3   OH2 4760   0.084   4.845   2.360
 1599TIP3    H1 4761   0.091   4.797   2.278
 1599TIP3    H2 4762   0.169   4.886   2.372
 1600TIP3   OH2 4763   2.515   0.698   5.394
 1600TIP3    H1 4764   2.569   0.758   5.446
 1600TIP3    H2 4765   2.479   0.753   5.324
 1601TIP3   OH2 4766   4.860   1.300   3.559
 1601TIP3    H1 4767   4.836   1.207   3.558
 1601TIP3    H2 4768   4.796   1.341   3.501
 1602TIP3   OH2 4769   0.566   0.867   1.043
 1602TIP3    H1 4770   0.611   0.951   1.051
 1602TIP3    H2 4771   0.476   0.890   1.021
 1603TIP3   OH2 4772   3.162   6.226   1.572
 1603TIP3    H1 4773   3.148   6.262   1.484
 1603TIP3    H2 4774   3.175   6.303   1.628
 1604TIP3   OH2 4775   3.276   1.631   0.031
 1604TIP3    H1 4776   3.219   1.617   0.106
 1604TIP3    H2 4777   3.347   1.567   0.041
 1605TIP3   OH2 4778   4.312   2.872   4.157
 1605TIP3    H1 4779   4.339   2.807   4.222
 1605TIP3    H2 4780   4.359   2.848   4.078
 1606TIP3   OH2 4781   0.914   2.231   0.109
 1606TIP3    H1 4782   0.956   2.280   0.038
 1606TIP3    H2 4783   0.977   2.161   0.130
 1607TIP3   OH2 4784   6.355   1.777   3.879
 1607TIP3    H1 4785   6.450   1.770   3.867
 1607TIP3    H2 4786   6.324   1.687   3.875
 1608TIP3   OH2 4787   5.515   1.738   4.109
 1608TIP3    H1 4788   5.507   1.739   4.014
 1608TIP3    H2 4789   5.545   1.826   4.131
 1609TIP3   OH2 4790   3.913   3.589   1.153
 1609TIP3    H1 4791   3.934   3.669   1.105
 1609TIP3    H2 4792   3.998   3.550   1.173
 1610TIP3   OH2 4793   1.780   4.710   4.526
 1610TIP3    H1 4794   1.824   4.697   4.442
 1610TIP3    H2 4795   1.838   4.668   4.590
 1611TIP3   OH2 4796   5.383   1.315   3.910
 1611TIP3    H1 4797   5.288   1.308   3.906
 1611TIP3    H2 4798   5.410   1.332   3.820
 1612TIP3   OH2 4799   2.009   6.451   1.383
 1612TIP3    H1 4800   2.001   6.426   1.475
 1612TIP3    H2 4801   1.919   6.470   1.356
 1613TIP3   OH2 4802   1.764   3.506   2.444
 1613TIP3    H1 4803   1.725   3.430   2.487
 1613TIP3    H2 4804   1.747   3.492   2.351
 1614TIP3   OH2 4805   2.371   4.809   2.907
 1614TIP3    H1 4806   2.428   4.849   2.842
 1614TIP3    H2 4807   2.283   4.838   2.882
 1615TIP3   OH2 4808   3.674   1.308   1.648
 1615TIP3    H1 4809   3.675   1.268   1.734
 1615TIP3    H2 4810   3.597   1.365   1.649
 1616TIP3   OH2 4811   6.098   5.348   1.833
 1616TIP3    H1 4812   6.134   5.313   1.752
 1616TIP3    H2 4813   6.031   5.284   1.858
 1617TIP3   OH2 4814   2.403   1.375   2.926
 1617TIP3    H1 4815   2.456   1.357   3.003
 1617TIP3    H2 4816   2.446   1.449   2.883
 1618TIP3   OH2 4817   2.025   3.792   3.110
 1618TIP3    H1 4818   2.050   3.875   3.070
 1618TIP3    H2 4819   1.930   3.789   3.101
 1619TIP3   OH2 4820   5.220   1.776   3.366
 1619TIP3    H1 4821   5.207   1.761   3.272
 1619TIP3    H2 4822   5.168   1.709   3.409
 1620TIP3   OH2 4823   5.209   6.164   5.529
 1620TIP3    H1 4824   5.131   6.119   5.563
 1620TIP3    H2 4825   5.178   6.252   5.508
 1621TIP3   OH2 4826   1.239   3.779   3.102
 1621TIP3    H1 4827   1.165   3.772   3.041
 1621TIP3    H2 4828   1.217   3.719   3.173
 1622TIP3   OH2 4829   7.085   5.616   0.662
 1622TIP3    H1 4830   7.084   5.633   0.756
 1622TIP3    H2 4831   7.110   5.524   0.654
 1623TIP3   OH2 4832   6.381   2.387   1.735
 1623TIP3    H1 4833   6.421   2.449   1.674
 1623TIP3    H2 4834   6.299   2.428   1.760
 1624TIP3   OH2 4835   3.272   6.198   2.937
 1624TIP3    H1 4836   3.339   6.265   2.950
 1624TIP3    H2 4837   3.223   6.227   2.859
 1625TIP3   OH2 4838   0.216   5.634   4.738
 1625TIP3    H1 4839   0.122   5.626   4.720
 1625TIP3    H2 4840   0.225   5.617   4.831
 1626TIP3   OH2 4841   3.262   1.726   3.499
 1626TIP3    H1 4842   3.271   1.653   3.560
 1626TIP3    H2 4843   3.191   1.701   3.441
 1627TIP3   OH2 4844   1.851   1.619   1.726
 1627TIP3    H1 4845   1.804   1.643   1.805
 1627TIP3    H2 4846   1.816   1.677   1.658
 1628TIP3   OH2 4847   5.481   2.478   3.060
 1628TIP3    H1 4848   5.532   2.501   3.137
 1628TIP3    H2 4849   5.487   2.382   3.054
 1629TIP3   OH2 4850   0.415   6.056   2.637
 1629TIP3    H1 4851   0.427   5.963   2.619
 1629TIP3    H2 4852   0.336   6.081   2.589
 1630TIP3   OH2 4853   2.486   0.170   0.808
 1630TIP3    H1 4854   2.416   0.113   0.774
 1630TIP3    H2 4855   2.562   0.112   0.816
 1631TIP3   OH2 4856   4.926   5.827   1.932
 1631TIP3    H1 4857   4.838   5.865   1.936
 1631TIP3    H2 4858   4.965   5.849   2.016
 1632TIP3   OH2 4859   3.594   3.612   5.019
 1632TIP3    H1 4860   3.511   3.657   5.005
 1632TIP3    H2 4861   3.647   3.674   5.070
 1633TIP3   OH2 4862   0.345   2.143   0.042
 1633TIP3    H1 4863   0.251   2.128   0.057
 1633TIP3    H2 4864   0.388   2.099   0.115
 1634TIP3   OH2 4865   1.297   5.073   3.898
 1634TIP3    H1 4866   1.368   5.134   3.883
 1634TIP3    H2 4867   1.271   5.088   3.989
 1635TIP3   OH2 4868   0.095   5.420   0.674
 1635TIP3    H1 4869   0.040   5.401   0.598
 1635TIP3    H2 4870   0.098   5.339   0.723
 1636TIP3   OH2 4871   6.685   5.330   2.335
 1636TIP3    H1 4872   6.732   5.263   2.286
 1636TIP3    H2 4873   6.677   5.403   2.274
 1637TIP3   OH2 4874   0.914   2.710   2.193
 1637TIP3    H1 4875   0.905   2.636   2.132
 1637TIP3    H2 4876   0.827   2.720   2.231
 1638TIP3   OH2 4877   1.466   1.333   0.598
 1638TIP3    H1 4878   1.450   1.423   0.570
 1638TIP3    H2 4879   1.470   1.282   0.517
 1639TIP3   OH2 4880   2.518   3.582   4.989
 1639TIP3    H1 4881   2.539   3.516   4.923
 1639TIP3    H2 4882   2.575   3.562   5.063
 1640TIP3   OH2 4883   3.633   6.177   1.429
 1640TIP3    H1 4884   3.644   6.098   1.482
 1640TIP3    H2 4885   3.713   6.227   1.444
 1641TIP3   OH2 4886   6.221   0.964   4.533
 1641TIP3    H1 4887   6.179   0.950   4.618
 1641TIP3    H2 4888   6.172   1.037   4.494
 1642TIP3   OH2 4889   0.033   2.732   5.847
 1642TIP3    H1 4890  -0.024   2.718   5.771
 1642TIP3    H2 4891   0.083   2.651   5.855
 1643TIP3   OH2 4892   3.332   3.837   4.696
 1643TIP3    H1 4893   3.288   3.791   4.625
 1643TIP3    H2 4894   3.395   3.774   4.730
 1644TIP3   OH2 4895   6.684   6.067   4.202
 1644TIP3    H1 4896   6.741   6.039   4.274
 1644TIP3    H2 4897   6.595   6.048   4.232
 1645TIP3   OH2 4898   1.466   3.522   1.104
 1645TIP3    H1 4899   1.426   3.553   1.184
 1645TIP3    H2 4900   1.552   3.488   1.131
 1646TIP3   OH2 4901   2.448   2.760   5.631
 1646TIP3    H1 4902   2.489   2.792   5.552
 1646TIP3    H2 4903   2.439   2.665   5.618
 1647TIP3   OH2 4904   2.390   6.211   0.408
 1647TIP3    H1 4905   2.433   6.126   0.398
 1647TIP3    H2 4906   2.373   6.218   0.502
 1648TIP3   OH2 4907   6.003   4.697   2.200
 1648TIP3    H1 4908   6.076   4.752   2.230
 1648TIP3    H2 4909   6.008   4.619   2.256
 1649TIP3   OH2 4910   6.230   5.545   2.911
 1649TIP3    H1 4911   6.142   5.582   2.904
 1649TIP3    H2 4912   6.260   5.571   2.998
 1650TIP3   OH2 4913   5.788   5.658   1.529
 1650TIP3    H1 4914   5.788   5.631   1.437
 1650TIP3    H2 4915   5.730   5.596   1.572
 1651TIP3   OH2 4916   3.936   3.043   2.996
 1651TIP3    H1 4917   4.005   2.977   3.001
 1651TIP3    H2 4918   3.867   3.002   2.944
 1652TIP3   OH2 4919   1.449   4.180   0.038
 1652TIP3    H1 4920   1.462   4.263   0.084
 1652TIP3    H2 4921   1.452   4.203  -0.055
 1653TIP3   OH2 4922   4.025   2.631   2.355
 1653TIP3    H1 4923   3.953   2.663   2.301
 1653TIP3    H2 4924   4.102   2.638   2.300
 1654TIP3   OH2 4925   6.332   2.250   1.291
 1654TIP3    H1 4926   6.368   2.161   1.295
 1654TIP3    H2 4927   6.253   2.247   1.344
 1655TIP3   OH2 4928   1.598   2.111   5.503
 1655TIP3    H1 4929   1.628   2.165   5.576
 1655TIP3    H2 4930   1.587   2.173   5.431
 1656TIP3   OH2 4931   6.759   6.472   1.612
 1656TIP3    H1 4932   6.835   6.454   1.556
 1656TIP3    H2 4933   6.727   6.557   1.581
 1657TIP3   OH2 4934   6.039   2.415   3.815
 1657TIP3    H1 4935   6.014   2.401   3.907
 1657TIP3    H2 4936   6.133   2.397   3.813
 1658TIP3   OH2 4937   3.656   2.546   4.792
 1658TIP3    H1 4938   3.620   2.510   4.872
 1658TIP3    H2 4939   3.744   2.576   4.816
 1659TIP3   OH2 4940   4.667   2.622   0.798
 1659TIP3    H1 4941   4.659   2.682   0.872
 1659TIP3    H2 4942   4.684   2.678   0.722
 1660TIP3   OH2 4943   1.350   0.502   2.774
 1660TIP3    H1 4944   1.418   0.499   2.706
 1660TIP3    H2 4945   1.356   0.416   2.817
 1661TIP3   OH2 4946   1.776   3.818   1.875
 1661TIP3    H1 4947   1.710   3.748   1.867
 1661TIP3    H2 4948   1.827   3.811   1.794
 1662TIP3   OH2 4949   5.311   5.764   4.410
 1662TIP3    H1 4950   5.347   5.682   4.442
 1662TIP3    H2 4951   5.253   5.794   4.480
 1663TIP3   OH2 4952   3.071   0.056   4.507
 1663TIP3    H1 4953   3.119   0.081   4.586
 1663TIP3    H2 4954   3.117   0.102   4.437
 1664TIP3   OH2 4955   3.650   6.058   3.909
 1664TIP3    H1 4956   3.635   6.150   3.934
 1664TIP3    H2 4957   3.719   6.063   3.842
 1665TIP3   OH2 4958   6.937   0.475   2.378
 1665TIP3    H1 4959   6.909   0.384   2.390
 1665TIP3    H2 4960   6.881   0.525   2.437
 1666TIP3   OH2 4961   0.039   4.283   1.259
 1666TIP3    H1 4962  -0.001   4.335   1.190
 1666TIP3    H2 4963   0.117   4.245   1.217
 1667TIP3   OH2 4964   2.024   1.867   5.341
 1667TIP3    H1 4965   2.064   1.796   5.292
 1667TIP3    H2 4966   1.948   1.893   5.290
 1668TIP3   OH2 4967   3.137   0.187   2.520
 1668TIP3    H1 4968   3.087   0.225   2.592
 1668TIP3    H2 4969   3.102   0.230   2.441
 1669TIP3   OH2 4970   1.356   0.904   1.662
 1669TIP3    H1 4971   1.289   0.927   1.726
 1669TIP3    H2 4972   1.318   0.929   1.578
 1670TIP3   OH2 4973   3.088   4.082   0.066
 1670TIP3    H1 4974   3.127   4.088  -0.021
 1670TIP3    H2 4975   3.058   4.171   0.085
 1671TIP3   OH2 4976   6.827   1.335   4.583
 1671TIP3    H1 4977   6.795   1.249   4.555
 1671TIP3    H2 4978   6.855   1.377   4.501
 1672TIP3   OH2 4979   6.530   5.777   1.375
 1672TIP3    H1 4980   6.601   5.739   1.426
 1672TIP3    H2 4981   6.522   5.867   1.407
 1673TIP3   OH2 4982   2.732   1.110   0.753
 1673TIP3    H1 4983   2.683   1.178   0.798
 1673TIP3    H2 4984   2.726   1.034   0.811
 1674TIP3   OH2 4985   0.491   2.644   2.469
 1674TIP3    H1 4986   0.404   2.666   2.434
 1674TIP3    H2 4987   0.522   2.574   2.412
 1675TIP3   OH2 4988   2.659   1.119   4.044
 1675TIP3    H1 4989   2.599   1.062   4.093
 1675TIP3    H2 4990   2.615   1.204   4.042
 1676TIP3   OH2 4991   4.260   6.163   0.337
 1676TIP3    H1 4992   4.337   6.157   0.395
 1676TIP3    H2 4993   4.274   6.093   0.273
 1677TIP3   OH2 4994   3.351   2.231   1.077
 1677TIP3    H1 4995   3.282   2.190   1.130
 1677TIP3    H2 4996   3.432   2.209   1.123
 1678TIP3   OH2 4997   2.413   3.894   1.299
 1678TIP3    H1 4998   2.344   3.868   1.238
 1678TIP3    H2 4999   2.418   3.822   1.362
 1679TIP3   OH2 5000   2.034   4.832   0.463
 1679TIP3    H1 5001   2.063   4.750   0.501
 1679TIP3    H2 5002   2.025   4.814   0.369
 1680TIP3   OH2 5003   6.076   5.780   4.816
 1680TIP3    H1 5004   5.992   5.820   4.838
 1680TIP3    H2 5005   6.112   5.749   4.899
 1681TIP3   OH2 5006   6.309   0.423   5.059
 1681TIP3    H1 5007   6.242   0.483   5.093
 1681TIP3    H2 5008   6.392   0.469   5.075
 1682TIP3   OH2 5009   1.743   0.152   3.215
 1682TIP3    H1 5010   1.820   0.179   3.164
 1682TIP3    H2 5011   1.668   0.181   3.163
 1683TIP3   OH2 5012   0.387   2.504   3.958
 1683TIP3    H1 5013   0.378   2.587   3.910
 1683TIP3    H2 5014   0.471   2.469   3.929
 1684TIP3   OH2 5015   2.292   0.128   5.820
 1684TIP3    H1 5016   2.380   0.165   5.823
 1684TIP3    H2 5017   2.234   0.203   5.829
 1685TIP3   OH2 5018   1.160   2.931   5.106
 1685TIP3    H1 5019   1.125   2.843   5.116
 1685TIP3    H2 5020   1.254   2.922   5.125
 1686TIP3   OH2 5021   0.445   1.531   2.226
 1686TIP3    H1 5022   0.394   1.512   2.147
 1686TIP3    H2 5023   0.382   1.571   2.286
 1687TIP3   OH2 5024   0.038   3.907   2.574
 1687TIP3    H1 5025  -0.020   3.893   2.649
 1687TIP3    H2 5026   0.126   3.911   2.612
 1688TIP3   OH2 5027   1.516   3.660   3.757
 1688TIP3    H1 5028   1.483   3.659   3.668
 1688TIP3    H2 5029   1.597   3.710   3.752
 1689TIP3   OH2 5030   1.619   2.762   1.196
 1689TIP3    H1 5031   1.603   2.717   1.113
 1689TIP3    H2 5032   1.552   2.830   1.200
 1690TIP3   OH2 5033   1.955   4.321   1.203
 1690TIP3    H1 5034   1.937   4.233   1.237
 1690TIP3    H2 5035   1.952   4.378   1.280
 1691TIP3   OH2 5036   0.586   2.126   2.418
 1691TIP3    H1 5037   0.580   2.120   2.513
 1691TIP3    H2 5038   0.647   2.198   2.402
 1692TIP3   OH2 5039   4.909   2.095   4.163
 1692TIP3    H1 5040   4.864   2.084   4.080
 1692TIP3    H2 5041   4.849   2.149   4.215
 1693TIP3   OH2 5042   2.012   0.021   1.603
 1693TIP3    H1 5043   2.011   0.017   1.507
 1693TIP3    H2 5044   1.920   0.017   1.628
 1694TIP3   OH2 5045   1.468   4.767   2.529
 1694TIP3    H1 5046   1.514   4.835   2.478
 1694TIP3    H2 5047   1.537   4.722   2.576
 1695TIP3   OH2 5048   0.608   2.731   2.888
 1695TIP3    H1 5049   0.625   2.650   2.839
 1695TIP3    H2 5050   0.533   2.710   2.943
 1696TIP3   OH2 5051   4.491   6.146   0.625
 1696TIP3    H1 5052   4.404   6.184   0.630
 1696TIP3    H2 5053   4.525   6.153   0.714
 1697TIP3   OH2 5054   3.700   5.995   2.058
 1697TIP3    H1 5055   3.782   6.040   2.076
 1697TIP3    H2 5056   3.724   5.927   1.994
 1698TIP3   OH2 5057   6.878   1.232   3.898
 1698TIP3    H1 5058   6.808   1.193   3.846
 1698TIP3    H2 5059   6.924   1.290   3.837
 1699TIP3   OH2 5060   0.730  -0.009   2.958
 1699TIP3    H1 5061   0.755   0.064   2.900
 1699TIP3    H2 5062   0.797  -0.009   3.027
 1700TIP3   OH2 5063   2.848   0.313   1.214
 1700TIP3    H1 5064   2.755   0.294   1.227
 1700TIP3    H2 5065   2.850   0.405   1.187
 1701TIP3   OH2 5066   5.505   5.019   1.199
 1701TIP3    H1 5067   5.454   5.064   1.132
 1701TIP3    H2 5068   5.453   4.944   1.224
 1702TIP3   OH2 5069   3.282   0.296   1.856
 1702TIP3    H1 5070   3.321   0.343   1.782
 1702TIP3    H2 5071   3.356   0.273   1.911
 1703TIP3   OH2 5072   4.836   6.479   0.126
 1703TIP3    H1 5073   4.851   6.497   0.218
 1703TIP3    H2 5074   4.741   6.489   0.114
 1704TIP3   OH2 5075   2.807   6.735   4.086
 1704TIP3    H1 5076   2.861   6.662   4.118
 1704TIP3    H2 5077   2.775   6.706   4.001
 1705TIP3   OH2 5078   0.496   0.599   1.375
 1705TIP3    H1 5079   0.470   0.602   1.284
 1705TIP3    H2 5080   0.420   0.632   1.424
 1706TIP3   OH2 5081   7.084   0.648   1.026
 1706TIP3    H1 5082   7.099   0.632   0.933
 1706TIP3    H2 5083   6.992   0.674   1.032
 1707TIP3   OH2 5084   0.961   1.126   4.319
 1707TIP3    H1 5085   1.041   1.172   4.342
 1707TIP3    H2 5086   0.894   1.194   4.316
 1708TIP3   OH2 5087   0.099   4.331   2.472
 1708TIP3    H1 5088   0.150   4.310   2.393
 1708TIP3    H2 5089   0.084   4.426   2.466
 1709TIP3   OH2 5090   2.380   5.266   1.377
 1709TIP3    H1 5091   2.449   5.298   1.318
 1709TIP3    H2 5092   2.299   5.301   1.340
 1710TIP3   OH2 5093   1.342   5.280   5.782
 1710TIP3    H1 5094   1.433   5.278   5.811
 1710TIP3    H2 5095   1.315   5.371   5.791
 1711TIP3   OH2 5096   1.173   5.436   1.081
 1711TIP3    H1 5097   1.138   5.391   1.158
 1711TIP3    H2 5098   1.176   5.369   1.013
 1712TIP3   OH2 5099   4.785   0.644   1.089
 1712TIP3    H1 5100   4.756   0.661   0.999
 1712TIP3    H2 5101   4.761   0.552   1.105
 1713TIP3   OH2 5102   1.685   2.552   3.651
 1713TIP3    H1 5103   1.704   2.572   3.559
 1713TIP3    H2 5104   1.655   2.461   3.650
 1714TIP3   OH2 5105   5.443   6.526   5.810
 1714TIP3    H1 5106   5.437   6.468   5.885
 1714TIP3    H2 5107   5.528   6.507   5.771
 1715TIP3   OH2 5108   6.299   2.719   3.220
 1715TIP3    H1 5109   6.228   2.750   3.277
 1715TIP3    H2 5110   6.262   2.643   3.176
 1716TIP3   OH2 5111   4.416   6.678   0.220
 1716TIP3    H1 5112   4.429   6.624   0.142
 1716TIP3    H2 5113   4.361   6.751   0.191
 1717TIP3   OH2 5114   2.730   4.596   1.472
 1717TIP3    H1 5115   2.648   4.646   1.469
 1717TIP3    H2 5116   2.799   4.662   1.463
 1718TIP3   OH2 5117   5.550   4.303   1.815
 1718TIP3    H1 5118   5.491   4.228   1.821
 1718TIP3    H2 5119   5.611   4.290   1.888
 1719TIP3   OH2 5120   6.461   2.825   0.337
 1719TIP3    H1 5121   6.417   2.886   0.278
 1719TIP3    H2 5122   6.395   2.804   0.403
 1720TIP3   OH2 5123   2.464   0.246   4.627
 1720TIP3    H1 5124   2.490   0.185   4.697
 1720TIP3    H2 5125   2.547   0.274   4.587
 1721TIP3   OH2 5126   0.032   5.353   0.286
 1721TIP3    H1 5127   0.126   5.359   0.303
 1721TIP3    H2 5128   0.009   5.439   0.249
 1722TIP3   OH2 5129   0.868   6.334   4.384
 1722TIP3    H1 5130   0.792   6.322   4.326
 1722TIP3    H2 5131   0.841   6.403   4.445
 1723TIP3   OH2 5132   1.940   3.432   1.509
 1723TIP3    H1 5133   1.922   3.345   1.473
 1723TIP3    H2 5134   1.905   3.429   1.598
 1724TIP3   OH2 5135   6.932   6.333   0.965
 1724TIP3    H1 5136   7.027   6.337   0.961
 1724TIP3    H2 5137   6.912   6.307   1.055
 1725TIP3   OH2 5138   0.383   3.247   1.827
 1725TIP3    H1 5139   0.399   3.190   1.752
 1725TIP3    H2 5140   0.333   3.320   1.791
 1726TIP3   OH2 5141   0.793   6.293   1.094
 1726TIP3    H1 5142   0.849   6.356   1.141
 1726TIP3    H2 5143   0.781   6.222   1.156
 1727TIP3   OH2 5144   6.049   6.330   1.329
 1727TIP3    H1 5145   6.069   6.408   1.381
 1727TIP3    H2 5146   6.038   6.261   1.394
 1728TIP3   OH2 5147   3.295   3.994   0.617
 1728TIP3    H1 5148   3.254   3.908   0.630
 1728TIP3    H2 5149   3.387   3.981   0.642
 1729TIP3   OH2 5150   7.112   0.688   4.082
 1729TIP3    H1 5151   7.186   0.748   4.083
 1729TIP3    H2 5152   7.145   0.609   4.039
 1730TIP3   OH2 5153   1.501   0.819   2.258
 1730TIP3    H1 5154   1.459   0.734   2.254
 1730TIP3    H2 5155   1.456   0.871   2.190
 1731TIP3   OH2 5156   2.676   2.417   2.675
 1731TIP3    H1 5157   2.642   2.372   2.598
 1731TIP3    H2 5158   2.736   2.354   2.715
 1732TIP3   OH2 5159   6.748   0.206   5.630
 1732TIP3    H1 5160   6.672   0.249   5.670
 1732TIP3    H2 5161   6.790   0.275   5.579
 1733TIP3   OH2 5162   5.850   1.187   4.133
 1733TIP3    H1 5163   5.863   1.197   4.228
 1733TIP3    H2 5164   5.890   1.103   4.113
 1734TIP3   OH2 5165   4.768   6.232   0.750
 1734TIP3    H1 5166   4.766   6.191   0.836
 1734TIP3    H2 5167   4.861   6.249   0.734
 1735TIP3   OH2 5168   1.736   5.580   1.967
 1735TIP3    H1 5169   1.774   5.609   1.885
 1735TIP3    H2 5170   1.781   5.498   1.986
 1736TIP3   OH2 5171   1.598   1.614   0.913
 1736TIP3    H1 5172   1.686   1.642   0.889
 1736TIP3    H2 5173   1.583   1.654   0.999
 1737TIP3   OH2 5174   2.392   1.043   4.472
 1737TIP3    H1 5175   2.324   0.979   4.452
 1737TIP3    H2 5176   2.345   1.120   4.504
 1738TIP3   OH2 5177   2.032   5.066   5.683
 1738TIP3    H1 5178   2.078   5.147   5.662
 1738TIP3    H2 5179   1.959   5.063   5.621
 1739TIP3   OH2 5180   0.610   6.666   2.117
 1739TIP3    H1 5181   0.684   6.691   2.062
 1739TIP3    H2 5182   0.649   6.611   2.186
 1740TIP3   OH2 5183   0.457   1.147   1.815
 1740TIP3    H1 5184   0.524   1.214   1.811
 1740TIP3    H2 5185   0.505   1.065   1.831
 1741TIP3   OH2 5186   3.410   4.734   2.514
 1741TIP3    H1 5187   3.406   4.690   2.599
 1741TIP3    H2 5188   3.401   4.827   2.535
 1742TIP3   OH2 5189   2.168   1.448   2.729
 1742TIP3    H1 5190   2.253   1.430   2.768
 1742TIP3    H2 5191   2.182   1.525   2.675
 1743TIP3   OH2 5192   1.493   1.850   1.618
 1743TIP3    H1 5193   1.586   1.831   1.630
 1743TIP3    H2 5194   1.486   1.945   1.626
 1744TIP3   OH2 5195   5.081   1.529   4.146
 1744TIP3    H1 5196   5.008   1.531   4.208
 1744TIP3    H2 5197   5.152   1.576   4.190
 1745TIP3   OH2 5198   4.788   3.049   2.591
 1745TIP3    H1 5199   4.701   3.015   2.612
 1745TIP3    H2 5200   4.849   2.982   2.623
 1746TIP3   OH2 5201   6.384   5.584   4.869
 1746TIP3    H1 5202   6.478   5.601   4.864
 1746TIP3    H2 5203   6.348   5.659   4.918
 1747TIP3   OH2 5204   1.428   0.206   0.587
 1747TIP3    H1 5205   1.400   0.297   0.575
 1747TIP3    H2 5206   1.397   0.182   0.674
 1748TIP3   OH2 5207   0.235   5.674   1.878
 1748TIP3    H1 5208   0.320   5.657   1.838
 1748TIP3    H2 5209   0.171   5.656   1.809
 1749TIP3   OH2 5210   5.665   6.531   5.569
 1749TIP3    H1 5211   5.741   6.476   5.587
 1749TIP3    H2 5212   5.689   6.617   5.604
 1750TIP3   OH2 5213   4.595   0.201   3.698
 1750TIP3    H1 5214   4.552   0.196   3.613
 1750TIP3    H2 5215   4.600   0.110   3.728
 1751TIP3   OH2 5216   0.774   0.286   4.999
 1751TIP3    H1 5217   0.810   0.317   5.083
 1751TIP3    H2 5218   0.684   0.320   4.998
 1752TIP3   OH2 5219   0.489   4.631   4.134
 1752TIP3    H1 5220   0.542   4.609   4.210
 1752TIP3    H2 5221   0.446   4.549   4.110
 1753TIP3   OH2 5222   6.037   5.642   2.153
 1753TIP3    H1 5223   5.955   5.689   2.140
 1753TIP3    H2 5224   6.013   5.549   2.146
 1754TIP3   OH2 5225   4.230   4.919   4.737
 1754TIP3    H1 5226   4.209   4.838   4.783
 1754TIP3    H2 5227   4.309   4.952   4.780
 1755TIP3   OH2 5228   6.410   5.671   2.237
 1755TIP3    H1 5229   6.422   5.577   2.227
 1755TIP3    H2 5230   6.328   5.680   2.285
 1756TIP3   OH2 5231   4.583   2.693   2.869
 1756TIP3    H1 5232   4.559   2.652   2.953
 1756TIP3    H2 5233   4.602   2.619   2.811
 1757TIP3   OH2 5234   0.145   4.971   3.039
 1757TIP3    H1 5235   0.164   4.967   2.945
 1757TIP3    H2 5236   0.082   5.042   3.048
 1758TIP3   OH2 5237   7.033   3.153   4.914
 1758TIP3    H1 5238   7.048   3.062   4.891
 1758TIP3    H2 5239   7.104   3.175   4.974
 1759TIP3   OH2 5240   2.990   3.097   3.540
 1759TIP3    H1 5241   3.028   3.085   3.453
 1759TIP3    H2 5242   3.064   3.095   3.600
 1760TIP3   OH2 5243   1.023   2.428   4.142
 1760TIP3    H1 5244   1.035   2.345   4.096
 1760TIP3    H2 5245   0.976   2.404   4.222
 1761TIP3   OH2 5246   1.831   6.263   0.806
 1761TIP3    H1 5247   1.886   6.242   0.731
 1761TIP3    H2 5248   1.754   6.305   0.769
 1762TIP3   OH2 5249   0.576   3.285   5.538
 1762TIP3    H1 5250   0.651   3.230   5.517
 1762TIP3    H2 5251   0.500   3.232   5.513
 1763TIP3   OH2 5252   6.053   2.971   4.177
 1763TIP3    H1 5253   5.981   2.915   4.207
 1763TIP3    H2 5254   6.017   3.059   4.176
 1764TIP3   OH2 5255   6.044   1.696   2.723
 1764TIP3    H1 5256   6.044   1.785   2.690
 1764TIP3    H2 5257   5.972   1.694   2.787
 1765TIP3   OH2 5258   5.381   4.528   5.310
 1765TIP3    H1 5259   5.295   4.527   5.267
 1765TIP3    H2 5260   5.360   4.546   5.402
 1766TIP3   OH2 5261   2.331   6.416   4.509
 1766TIP3    H1 5262   2.343   6.469   4.588
 1766TIP3    H2 5263   2.284   6.338   4.539
 1767TIP3   OH2 5264   4.257   2.764   3.522
 1767TIP3    H1 5265   4.327   2.806   3.472
 1767TIP3    H2 5266   4.196   2.835   3.542
 1768TIP3   OH2 5267   5.254   3.432   0.326
 1768TIP3    H1 5268   5.244   3.404   0.417
 1768TIP3    H2 5269   5.321   3.501   0.329
 1769TIP3   OH2 5270   0.118   2.936   2.630
 1769TIP3    H1 5271   0.206   2.912   2.657
 1769TIP3    H2 5272   0.061   2.907   2.701
 1770TIP3   OH2 5273   6.028   3.141   2.016
 1770TIP3    H1 5274   6.119   3.123   2.040
 1770TIP3    H2 5275   6.002   3.212   2.074
 1771TIP3   OH2 5276   5.222   0.319   5.294
 1771TIP3    H1 5277   5.185   0.231   5.298
 1771TIP3    H2 5278   5.278   0.325   5.371
 1772TIP3   OH2 5279   6.646   3.332   5.627
 1772TIP3    H1 5280   6.728   3.371   5.598
 1772TIP3    H2 5281   6.620   3.274   5.555
 1773TIP3   OH2 5282   4.629   2.960   4.070
 1773TIP3    H1 5283   4.579   2.889   4.029
 1773TIP3    H2 5284   4.578   2.983   4.148
 1774TIP3   OH2 5285   7.122   4.361   2.891
 1774TIP3    H1 5286   7.127   4.306   2.969
 1774TIP3    H2 5287   7.059   4.430   2.915
 1775TIP3   OH2 5288   2.572   2.099   3.791
 1775TIP3    H1 5289   2.628   2.052   3.730
 1775TIP3    H2 5290   2.502   2.135   3.736
 1776TIP3   OH2 5291   3.799   4.800   5.830
 1776TIP3    H1 5292   3.803   4.719   5.881
 1776TIP3    H2 5293   3.804   4.870   5.895
 1777TIP3   OH2 5294   1.810   2.941   5.501
 1777TIP3    H1 5295   1.835   2.975   5.587
 1777TIP3    H2 5296   1.765   3.014   5.458
 1778TIP3   OH2 5297   2.852   3.744   5.593
 1778TIP3    H1 5298   2.921   3.740   5.527
 1778TIP3    H2 5299   2.867   3.827   5.639
 1779TIP3   OH2 5300   0.524   1.997   5.073
 1779TIP3    H1 5301   0.518   2.076   5.018
 1779TIP3    H2 5302   0.448   1.945   5.046
 1780TIP3   OH2 5303   2.286   0.252   5.088
 1780TIP3    H1 5304   2.341   0.174   5.080
 1780TIP3    H2 5305   2.288   0.292   5.001
 1781TIP3   OH2 5306   1.926   0.667   4.218
 1781TIP3    H1 5307   1.995   0.723   4.183
 1781TIP3    H2 5308   1.896   0.616   4.143
 1782TIP3   OH2 5309   4.846   3.017   5.793
 1782TIP3    H1 5310   4.752   3.030   5.801
 1782TIP3    H2 5311   4.868   2.958   5.864
 1783TIP3   OH2 5312   2.984   6.516   5.387
 1783TIP3    H1 5313   3.047   6.462   5.340
 1783TIP3    H2 5314   2.977   6.597   5.336
 1784TIP3   OH2 5315   0.420   4.825   2.613
 1784TIP3    H1 5316   0.515   4.821   2.607
 1784TIP3    H2 5317   0.393   4.734   2.625
 1785TIP3   OH2 5318   4.220   5.441   3.042
 1785TIP3    H1 5319   4.253   5.358   3.075
 1785TIP3    H2 5320   4.296   5.500   3.043
 1786TIP3   OH2 5321   2.620   3.970   3.353
 1786TIP3    H1 5322   2.577   3.942   3.434
 1786TIP3    H2 5323   2.672   4.047   3.379
 1787TIP3   OH2 5324   7.072   3.235   0.428
 1787TIP3    H1 5325   7.106   3.216   0.340
 1787TIP3    H2 5326   6.997   3.175   0.438
 1788TIP3   OH2 5327   1.953   5.162   3.442
 1788TIP3    H1 5328   1.981   5.106   3.515
 1788TIP3    H2 5329   1.911   5.103   3.380
 1789TIP3   OH2 5330   4.772   3.420   0.422
 1789TIP3    H1 5331   4.818   3.474   0.486
 1789TIP3    H2 5332   4.828   3.423   0.344
 1790TIP3   OH2 5333   6.902   6.555   3.048
 1790TIP3    H1 5334   6.905   6.465   3.014
 1790TIP3    H2 5335   6.869   6.546   3.137
 1791TIP3   OH2 5336   4.486   0.135   1.552
 1791TIP3    H1 5337   4.568   0.169   1.517
 1791TIP3    H2 5338   4.424   0.208   1.544
 1792TIP3   OH2 5339   4.624   6.604   2.698
 1792TIP3    H1 5340   4.641   6.584   2.790
 1792TIP3    H2 5341   4.698   6.566   2.651
 1793TIP3   OH2 5342   5.752   6.040   0.707
 1793TIP3    H1 5343   5.768   5.950   0.680
 1793TIP3    H2 5344   5.725   6.085   0.627
 1794TIP3   OH2 5345   4.054   4.365   2.160
 1794TIP3    H1 5346   3.992   4.426   2.200
 1794TIP3    H2 5347   4.135   4.415   2.152
 1795TIP3   OH2 5348   5.881   1.770   3.488
 1795TIP3    H1 5349   5.948   1.790   3.554
 1795TIP3    H2 5350   5.879   1.675   3.483
 1796TIP3   OH2 5351   2.981   1.650   4.910
 1796TIP3    H1 5352   2.956   1.601   4.832
 1796TIP3    H2 5353   3.031   1.725   4.876
 1797TIP3   OH2 5354   2.923   0.034   5.496
 1797TIP3    H1 5355   2.917   0.022   5.591
 1797TIP3    H2 5356   2.900   0.126   5.482
 1798TIP3   OH2 5357   4.126   5.344   4.209
 1798TIP3    H1 5358   4.111   5.430   4.247
 1798TIP3    H2 5359   4.189   5.360   4.138
 1799TIP3   OH2 5360   2.079   4.242   5.097
 1799TIP3    H1 5361   1.999   4.218   5.049
 1799TIP3    H2 5362   2.089   4.336   5.081
 1800TIP3   OH2 5363   4.285   0.713   4.175
 1800TIP3    H1 5364   4.358   0.738   4.231
 1800TIP3    H2 5365   4.254   0.796   4.137
 1801TIP3   OH2 5366   6.009   0.703   2.392
 1801TIP3    H1 5367   5.940   0.748   2.344
 1801TIP3    H2 5368   6.083   0.702   2.331
 1802TIP3   OH2 5369   5.162   1.183   1.047
 1802TIP3    H1 5370   5.139   1.264   1.000
 1802TIP3    H2 5371   5.254   1.193   1.070
 1803TIP3   OH2 5372   3.093   4.376   5.341
 1803TIP3    H1 5373   3.186   4.376   5.321
 1803TIP3    H2 5374   3.051   4.351   5.258
 1804TIP3   OH2 5375   0.237   5.365   1.103
 1804TIP3    H1 5376   0.225   5.439   1.043
 1804TIP3    H2 5377   0.311   5.316   1.065
 1805TIP3   OH2 5378   5.001   4.508   3.271
 1805TIP3    H1 5379   5.081   4.539   3.230
 1805TIP3    H2 5380   5.030   4.444   3.336
 1806TIP3   OH2 5381   3.342   1.325   4.572
 1806TIP3    H1 5382   3.340   1.357   4.662
 1806TIP3    H2 5383   3.398   1.247   4.575
 1807TIP3   OH2 5384   4.702   0.078   5.126
 1807TIP3    H1 5385   4.752   0.136   5.182
 1807TIP3    H2 5386   4.667   0.011   5.185
 1808TIP3   OH2 5387   1.756   3.647   0.381
 1808TIP3    H1 5388   1.803   3.564   0.388
 1808TIP3    H2 5389   1.796   3.691   0.306
 1809TIP3   OH2 5390   6.488   4.547   0.372
 1809TIP3    H1 5391   6.452   4.607   0.437
 1809TIP3    H2 5392   6.411   4.509   0.329
 1810TIP3   OH2 5393   2.810   5.802   1.471
 1810TIP3    H1 5394   2.809   5.831   1.562
 1810TIP3    H2 5395   2.899   5.770   1.457
 1811TIP3   OH2 5396   0.977   0.879   1.171
 1811TIP3    H1 5397   1.072   0.868   1.164
 1811TIP3    H2 5398   0.960   0.965   1.133
 1812TIP3   OH2 5399   0.505   5.152   4.764
 1812TIP3    H1 5400   0.498   5.246   4.750
 1812TIP3    H2 5401   0.575   5.123   4.705
 1813TIP3   OH2 5402   1.217   5.476   5.201
 1813TIP3    H1 5403   1.191   5.408   5.139
 1813TIP3    H2 5404   1.311   5.489   5.185
 1814TIP3   OH2 5405   5.861   3.810   2.567
 1814TIP3    H1 5406   5.855   3.906   2.558
 1814TIP3    H2 5407   5.806   3.791   2.644
 1815TIP3   OH2 5408   7.050   5.115   2.801
 1815TIP3    H1 5409   7.085   5.144   2.717
 1815TIP3    H2 5410   7.120   5.135   2.864
 1816TIP3   OH2 5411   2.021   1.470   2.958
 1816TIP3    H1 5412   2.055   1.557   2.978
 1816TIP3    H2 5413   2.055   1.451   2.870
 1817TIP3   OH2 5414   1.814   0.415   0.443
 1817TIP3    H1 5415   1.720   0.406   0.431
 1817TIP3    H2 5416   1.830   0.385   0.532
 1818TIP3   OH2 5417   6.685   5.030   2.716
 1818TIP3    H1 5418   6.673   5.009   2.623
 1818TIP3    H2 5419   6.664   4.948   2.762
 1819TIP3   OH2 5420   0.422   6.309   2.765
 1819TIP3    H1 5421   0.461   6.234   2.719
 1819TIP3    H2 5422   0.477   6.321   2.842
 1820TIP3   OH2 5423   5.092   1.258   2.445
 1820TIP3    H1 5424   5.120   1.341   2.408
 1820TIP3    H2 5425   4.996   1.260   2.438
 1821TIP3   OH2 5426   0.178   6.251   1.168
 1821TIP3    H1 5427   0.243   6.247   1.238
 1821TIP3    H2 5428   0.229   6.277   1.090
 1822TIP3   OH2 5429   3.618   2.113   3.964
 1822TIP3    H1 5430   3.643   2.164   3.887
 1822TIP3    H2 5431   3.549   2.054   3.933
 1823TIP3   OH2 5432   4.296   4.486   1.362
 1823TIP3    H1 5433   4.305   4.537   1.282
 1823TIP3    H2 5434   4.352   4.410   1.348
 1824TIP3   OH2 5435   2.139   2.647   2.373
 1824TIP3    H1 5436   2.205   2.624   2.308
 1824TIP3    H2 5437   2.161   2.736   2.401
 1825TIP3   OH2 5438   3.235   6.629   3.064
 1825TIP3    H1 5439   3.287   6.649   3.141
 1825TIP3    H2 5440   3.240   6.534   3.055
 1826TIP3   OH2 5441   5.128   6.285   4.116
 1826TIP3    H1 5442   5.221   6.293   4.094
 1826TIP3    H2 5443   5.114   6.353   4.182
 1827TIP3   OH2 5444   4.547   3.709   2.438
 1827TIP3    H1 5445   4.563   3.651   2.513
 1827TIP3    H2 5446   4.455   3.697   2.417
 1828TIP3   OH2 5447   0.078   6.632   2.450
 1828TIP3    H1 5448   0.151   6.614   2.390
 1828TIP3    H2 5449   0.009   6.573   2.420
 1829TIP3   OH2 5450   0.885   3.298   4.651
 1829TIP3    H1 5451   0.914   3.350   4.575
 1829TIP3    H2 5452   0.791   3.316   4.657
 1830TIP3   OH2 5453   0.166   1.923   0.718
 1830TIP3    H1 5454   0.261   1.925   0.726
 1830TIP3    H2 5455   0.135   1.927   0.809
 1831TIP3   OH2 5456   2.812   3.463   4.873
 1831TIP3    H1 5457   2.824   3.535   4.936
 1831TIP3    H2 5458   2.789   3.388   4.927
 1832TIP3   OH2 5459   4.146   0.082   1.426
 1832TIP3    H1 5460   4.104   0.097   1.341
 1832TIP3    H2 5461   4.224   0.031   1.405
 1833TIP3   OH2 5462   1.649   1.698   4.836
 1833TIP3    H1 5463   1.686   1.613   4.859
 1833TIP3    H2 5464   1.581   1.714   4.902
 1834TIP3   OH2 5465   4.957   4.542   2.921
 1834TIP3    H1 5466   4.985   4.592   2.998
 1834TIP3    H2 5467   4.889   4.483   2.954
 1835TIP3   OH2 5468   0.555   3.526   3.822
 1835TIP3    H1 5469   0.636   3.568   3.794
 1835TIP3    H2 5470   0.495   3.538   3.748
 1836TIP3   OH2 5471   1.602   4.921   2.959
 1836TIP3    H1 5472   1.655   4.843   2.976
 1836TIP3    H2 5473   1.636   4.986   3.021
 1837TIP3   OH2 5474   5.529   5.079   0.136
 1837TIP3    H1 5475   5.518   5.085   0.231
 1837TIP3    H2 5476   5.552   5.168   0.108
 1838TIP3   OH2 5477   1.208   0.662   0.181
 1838TIP3    H1 5478   1.131   0.631   0.133
 1838TIP3    H2 5479   1.268   0.587   0.181
 1839TIP3   OH2 5480   2.316   5.454   2.467
 1839TIP3    H1 5481   2.225   5.464   2.437
 1839TIP3    H2 5482   2.310   5.449   2.562
 1840TIP3   OH2 5483   0.014   6.477   1.635
 1840TIP3    H1 5484   0.017   6.568   1.665
 1840TIP3    H2 5485   0.038   6.426   1.712
 1841TIP3   OH2 5486   0.663   4.787   0.662
 1841TIP3    H1 5487   0.744   4.802   0.712
 1841TIP3    H2 5488   0.660   4.859   0.600
 1842TIP3   OH2 5489   3.602   4.694   4.577
 1842TIP3    H1 5490   3.643   4.745   4.508
 1842TIP3    H2 5491   3.587   4.608   4.537
 1843TIP3   OH2 5492   4.126   4.867   1.989
 1843TIP3    H1 5493   4.117   4.954   2.027
 1843TIP3    H2 5494   4.040   4.827   2.000
 1844TIP3   OH2 5495   5.126   1.352   4.823
 1844TIP3    H1 5496   5.158   1.419   4.763
 1844TIP3    H2 5497   5.180   1.276   4.805
 1845TIP3   OH2 5498   6.060   2.226   4.316
 1845TIP3    H1 5499   6.130   2.216   4.251
 1845TIP3    H2 5500   5.979   2.215   4.266
 1846TIP3   OH2 5501   6.954   4.010   4.594
 1846TIP3    H1 5502   6.907   3.960   4.528
 1846TIP3    H2 5503   6.921   4.099   4.584
 1847TIP3   OH2 5504   1.011   0.171   1.513
 1847TIP3    H1 5505   1.098   0.175   1.473
 1847TIP3    H2 5506   1.003   0.252   1.563
 1848TIP3   OH2 5507   6.589   6.649   1.755
 1848TIP3    H1 5508   6.649   6.577   1.773
 1848TIP3    H2 5509   6.530   6.651   1.830
 1849TIP3   OH2 5510   3.904   3.889   2.145
 1849TIP3    H1 5511   3.811   3.878   2.168
 1849TIP3    H2 5512   3.907   3.972   2.099
 1850TIP3   OH2 5513   1.864   4.989   1.655
 1850TIP3    H1 5514   1.839   4.979   1.747
 1850TIP3    H2 5515   1.928   5.060   1.655
 1851TIP3   OH2 5516   0.969   4.302   3.307
 1851TIP3    H1 5517   0.993   4.385   3.265
 1851TIP3    H2 5518   1.014   4.235   3.254
 1852TIP3   OH2 5519   3.693   3.679   5.549
 1852TIP3    H1 5520   3.742   3.659   5.629
 1852TIP3    H2 5521   3.741   3.634   5.479
 1853TIP3   OH2 5522   0.724   2.105   2.072
 1853TIP3    H1 5523   0.680   2.023   2.094
 1853TIP3    H2 5524   0.727   2.105   1.976
 1854TIP3   OH2 5525   3.693   6.328   2.448
 1854TIP3    H1 5526   3.656   6.256   2.398
 1854TIP3    H2 5527   3.775   6.350   2.403
 1855TIP3   OH2 5528   4.265   0.675   4.800
 1855TIP3    H1 5529   4.242   0.617   4.727
 1855TIP3    H2 5530   4.190   0.733   4.809
 1856TIP3   OH2 5531   4.238   5.797   2.166
 1856TIP3    H1 5532   4.272   5.814   2.254
 1856TIP3    H2 5533   4.290   5.854   2.109
 1857TIP3   OH2 5534   6.505   0.901   5.138
 1857TIP3    H1 5535   6.545   0.884   5.053
 1857TIP3    H2 5536   6.411   0.892   5.122
 1858TIP3   OH2 5537   1.221   5.648   4.232
 1858TIP3    H1 5538   1.127   5.635   4.237
 1858TIP3    H2 5539   1.254   5.568   4.192
 1859TIP3   OH2 5540   6.149   6.352   3.998
 1859TIP3    H1 5541   6.194   6.402   3.930
 1859TIP3    H2 5542   6.058   6.347   3.967
 1860TIP3   OH2 5543   4.296   1.550   2.104
 1860TIP3    H1 5544   4.385   1.560   2.071
 1860TIP3    H2 5545   4.243   1.607   2.049
 1861TIP3   OH2 5546   3.397   0.137   2.378
 1861TIP3    H1 5547   3.357   0.133   2.465
 1861TIP3    H2 5548   3.331   0.182   2.324
 1862TIP3   OH2 5549   1.054   6.721   4.572
 1862TIP3    H1 5550   1.062   6.700   4.665
 1862TIP3    H2 5551   1.069   6.816   4.568
 1863TIP3   OH2 5552   4.053   4.423   1.499
 1863TIP3    H1 5553   4.019   4.371   1.426
 1863TIP3    H2 5554   4.125   4.473   1.461
 1864TIP3   OH2 5555   3.132   2.730   1.504
 1864TIP3    H1 5556   3.210   2.760   1.552
 1864TIP3    H2 5557   3.152   2.639   1.481
 1865TIP3   OH2 5558   4.178   6.254   2.017
 1865TIP3    H1 5559   4.232   6.225   2.091
 1865TIP3    H2 5560   4.208   6.342   1.999
 1866TIP3   OH2 5561   6.487   4.050   3.685
 1866TIP3    H1 5562   6.477   4.141   3.655
 1866TIP3    H2 5563   6.409   4.034   3.737
 1867TIP3   OH2 5564   1.866   1.534   1.380
 1867TIP3    H1 5565   1.863   1.569   1.291
 1867TIP3    H2 5566   1.777   1.546   1.413
 1868TIP3   OH2 5567   0.777   1.323   4.140
 1868TIP3    H1 5568   0.798   1.283   4.055
 1868TIP3    H2 5569   0.843   1.391   4.151
 1869TIP3   OH2 5570   1.003   6.562   0.362
 1869TIP3    H1 5571   1.090   6.525   0.374
 1869TIP3    H2 5572   0.943   6.488   0.379
 1870TIP3   OH2 5573   5.626   1.586   0.919
 1870TIP3    H1 5574   5.678   1.614   0.994
 1870TIP3    H2 5575   5.686   1.531   0.868
 1871TIP3   OH2 5576   3.837   3.523   2.538
 1871TIP3    H1 5577   3.830   3.612   2.505
 1871TIP3    H2 5578   3.925   3.517   2.575
 1872TIP3   OH2 5579   6.582   6.436   1.003
 1872TIP3    H1 5580   6.607   6.496   1.073
 1872TIP3    H2 5581   6.617   6.352   1.029
 1873TIP3   OH2 5582   6.080   4.584   1.520
 1873TIP3    H1 5583   6.062   4.669   1.561
 1873TIP3    H2 5584   6.087   4.603   1.427
 1874TIP3   OH2 5585   1.307   0.915   2.555
 1874TIP3    H1 5586   1.266   0.997   2.529
 1874TIP3    H2 5587   1.398   0.924   2.528
 1875TIP3   OH2 5588   3.044   0.590   0.798
 1875TIP3    H1 5589   2.999   0.552   0.873
 1875TIP3    H2 5590   2.982   0.655   0.763
 1876TIP3   OH2 5591   1.442   4.669   0.810
 1876TIP3    H1 5592   1.507   4.609   0.848
 1876TIP3    H2 5593   1.387   4.694   0.884
 1877TIP3   OH2 5594   1.863   2.902   4.952
 1877TIP3    H1 5595   1.806   2.968   4.991
 1877TIP3    H2 5596   1.934   2.952   4.913
 1878TIP3   OH2 5597   6.082   3.655   2.623
 1878TIP3    H1 5598   6.013   3.721   2.618
 1878TIP3    H2 5599   6.106   3.651   2.716
 1879TIP3   OH2 5600   1.727   3.827   3.630
 1879TIP3    H1 5601   1.809   3.779   3.627
 1879TIP3    H2 5602   1.688   3.814   3.544
 1880TIP3   OH2 5603   3.513   1.421   5.771
 1880TIP3    H1 5604   3.459   1.485   5.818
 1880TIP3    H2 5605   3.552   1.471   5.699
 1881TIP3   OH2 5606   6.814   5.420   1.435
 1881TIP3    H1 5607   6.904   5.447   1.450
 1881TIP3    H2 5608   6.820   5.327   1.412
 1882TIP3   OH2 5609   0.118   1.136   2.907
 1882TIP3    H1 5610   0.123   1.044   2.884
 1882TIP3    H2 5611   0.033   1.166   2.875
 1883TIP3   OH2 5612   4.828   4.975   0.291
 1883TIP3    H1 5613   4.768   4.911   0.253
 1883TIP3    H2 5614   4.881   5.005   0.218
 1884TIP3   OH2 5615   3.963   4.669   0.640
 1884TIP3    H1 5616   3.912   4.589   0.629
 1884TIP3    H2 5617   3.899   4.740   0.625
 1885TIP3   OH2 5618   3.018   1.905   0.360
 1885TIP3    H1 5619   3.023   1.992   0.319
 1885TIP3    H2 5620   3.094   1.858   0.326
 1886TIP3   OH2 5621   3.713   0.227   2.850
 1886TIP3    H1 5622   3.627   0.203   2.885
 1886TIP3    H2 5623   3.705   0.216   2.756
 1887TIP3   OH2 5624   5.938   5.991   2.368
 1887TIP3    H1 5625   5.912   5.906   2.403
 1887TIP3    H2 5626   5.855   6.038   2.355
 1888TIP3   OH2 5627   3.040   4.888   4.199
 1888TIP3    H1 5628   3.013   4.817   4.258
 1888TIP3    H2 5629   2.975   4.887   4.130
 1889TIP3   OH2 5630   0.020   3.121   5.164
 1889TIP3    H1 5631  -0.036   3.098   5.238
 1889TIP3    H2 5632   0.073   3.043   5.148
 1890TIP3   OH2 5633   2.870   1.000   5.053
 1890TIP3    H1 5634   2.947   0.953   5.084
 1890TIP3    H2 5635   2.811   0.931   5.021
 1891TIP3   OH2 5636   6.023   2.720   4.591
 1891TIP3    H1 5637   6.003   2.632   4.561
 1891TIP3    H2 5638   5.941   2.768   4.580
 1892TIP3   OH2 5639   3.606   1.538   5.537
 1892TIP3    H1 5640   3.699   1.561   5.535
 1892TIP3    H2 5641   3.563   1.605   5.484
 1893TIP3   OH2 5642   3.338   2.308   3.943
 1893TIP3    H1 5643   3.353   2.363   4.020
 1893TIP3    H2 5644   3.319   2.221   3.979
 1894TIP3   OH2 5645   5.054   4.140   4.404
 1894TIP3    H1 5646   5.113   4.155   4.478
 1894TIP3    H2 5647   5.110   4.146   4.327
 1895TIP3   OH2 5648   5.449   1.402   2.246
 1895TIP3    H1 5649   5.503   1.323   2.247
 1895TIP3    H2 5650   5.490   1.458   2.181
 1896TIP3   OH2 5651   3.777   5.260   3.289
 1896TIP3    H1 5652   3.782   5.289   3.198
 1896TIP3    H2 5653   3.683   5.258   3.309
 1897TIP3   OH2 5654   6.266   1.688   1.529
 1897TIP3    H1 5655   6.316   1.681   1.610
 1897TIP3    H2 5656   6.232   1.600   1.513
 1898TIP3   OH2 5657   4.954   4.636   0.147
 1898TIP3    H1 5658   4.968   4.710   0.089
 1898TIP3    H2 5659   5.019   4.647   0.217
 1899TIP3   OH2 5660   2.582   1.134   5.574
 1899TIP3    H1 5661   2.578   1.096   5.661
 1899TIP3    H2 5662   2.518   1.205   5.575
 1900TIP3   OH2 5663   2.036   1.012   2.890
 1900TIP3    H1 5664   2.097   1.056   2.830
 1900TIP3    H2 5665   2.043   1.063   2.971
 1901TIP3   OH2 5666   2.536   5.218   3.598
 1901TIP3    H1 5667   2.591   5.296   3.599
 1901TIP3    H2 5668   2.448   5.251   3.580
 1902TIP3   OH2 5669   1.688   4.480   2.430
 1902TIP3    H1 5670   1.617   4.476   2.495
 1902TIP3    H2 5671   1.644   4.490   2.346
 1903TIP3   OH2 5672   4.494   6.688   1.207
 1903TIP3    H1 5673   4.493   6.693   1.112
 1903TIP3    H2 5674   4.587   6.690   1.231
 1904TIP3   OH2 5675   6.133   4.944   4.262
 1904TIP3    H1 5676   6.216   4.895   4.271
 1904TIP3    H2 5677   6.108   4.932   4.170
 1905TIP3   OH2 5678   5.630   0.858   0.151
 1905TIP3    H1 5679   5.588   0.783   0.194
 1905TIP3    H2 5680   5.614   0.845   0.058
 1906TIP3   OH2 5681   1.908   4.104   1.643
 1906TIP3    H1 5682   1.951   4.189   1.654
 1906TIP3    H2 5683   1.955   4.062   1.572
 1907TIP3   OH2 5684   1.331   2.308   0.682
 1907TIP3    H1 5685   1.271   2.381   0.663
 1907TIP3    H2 5686   1.277   2.230   0.671
 1908TIP3   OH2 5687   1.076   6.221   1.213
 1908TIP3    H1 5688   0.992   6.199   1.253
 1908TIP3    H2 5689   1.123   6.138   1.207
 1909TIP3   OH2 5690   3.729   0.747   1.845
 1909TIP3    H1 5691   3.665   0.818   1.845
 1909TIP3    H2 5692   3.677   0.668   1.859
 1910TIP3   OH2 5693   7.160   3.775   0.743
 1910TIP3    H1 5694   7.250   3.774   0.710
 1910TIP3    H2 5695   7.108   3.805   0.668
 1911TIP3   OH2 5696   4.691   5.617   0.583
 1911TIP3    H1 5697   4.665   5.709   0.578
 1911TIP3    H2 5698   4.755   5.606   0.512
 1912TIP3   OH2 5699   3.612   5.776   2.669
 1912TIP3    H1 5700   3.632   5.811   2.756
 1912TIP3    H2 5701   3.543   5.711   2.685
 1913TIP3   OH2 5702   3.440   5.670   4.137
 1913TIP3    H1 5703   3.450   5.671   4.042
 1913TIP3    H2 5704   3.464   5.759   4.165
 1914TIP3   OH2 5705   0.421   4.091   4.267
 1914TIP3    H1 5706   0.485   4.150   4.227
 1914TIP3    H2 5707   0.473   4.016   4.298
 1915TIP3   OH2 5708   6.554   4.451   1.223
 1915TIP3    H1 5709   6.568   4.374   1.277
 1915TIP3    H2 5710   6.462   4.475   1.237
 1916TIP3   OH2 5711   5.048   3.737   3.622
 1916TIP3    H1 5712   5.120   3.735   3.559
 1916TIP3    H2 5713   4.971   3.711   3.570
 1917TIP3   OH2 5714   0.604   2.255   4.355
 1917TIP3    H1 5715   0.577   2.177   4.307
 1917TIP3    H2 5716   0.537   2.265   4.423
 1918TIP3   OH2 5717   6.468   6.488   0.204
 1918TIP3    H1 5718   6.527   6.435   0.150
 1918TIP3    H2 5719   6.383   6.481   0.159
 1919TIP3   OH2 5720   4.600   5.747   5.803
 1919TIP3    H1 5721   4.636   5.836   5.798
 1919TIP3    H2 5722   4.518   5.757   5.851
 1920TIP3   OH2 5723   1.440   2.911   5.195
 1920TIP3    H1 5724   1.419   2.827   5.236
 1920TIP3    H2 5725   1.451   2.971   5.268
 1921TIP3   OH2 5726   4.748   0.218   0.016
 1921TIP3    H1 5727   4.762   0.264   0.099
 1921TIP3    H2 5728   4.808   0.262  -0.045
 1922TIP3   OH2 5729   4.666   0.443   5.726
 1922TIP3    H1 5730   4.642   0.462   5.636
 1922TIP3    H2 5731   4.645   0.523   5.775
 1923TIP3   OH2 5732   1.483   1.154   5.794
 1923TIP3    H1 5733   1.409   1.094   5.786
 1923TIP3    H2 5734   1.501   1.159   5.888
 1924TIP3   OH2 5735   4.148   1.066   1.942
 1924TIP3    H1 5736   4.071   1.040   1.992
 1924TIP3    H2 5737   4.119   1.141   1.890
 1925TIP3   OH2 5738   2.489   1.142   5.077
 1925TIP3    H1 5739   2.530   1.138   4.991
 1925TIP3    H2 5740   2.558   1.174   5.135
 1926TIP3   OH2 5741   1.525   2.349   4.868
 1926TIP3    H1 5742   1.562   2.437   4.857
 1926TIP3    H2 5743   1.601   2.292   4.880
 1927TIP3   OH2 5744   4.447   6.290   4.540
 1927TIP3    H1 5745   4.363   6.277   4.496
 1927TIP3    H2 5746   4.491   6.357   4.488
 1928TIP3   OH2 5747   5.486   1.280   5.227
 1928TIP3    H1 5748   5.390   1.281   5.223
 1928TIP3    H2 5749   5.507   1.283   5.320
 1929TIP3   OH2 5750   4.397   1.624   4.769
 1929TIP3    H1 5751   4.463   1.658   4.828
 1929TIP3    H2 5752   4.348   1.701   4.740
 1930TIP3   OH2 5753   0.730   2.866   5.498
 1930TIP3    H1 5754   0.750   2.958   5.515
 1930TIP3    H2 5755   0.634   2.863   5.490
 1931TIP3   OH2 5756   4.363   0.692   2.226
 1931TIP3    H1 5757   4.319   0.756   2.282
 1931TIP3    H2 5758   4.357   0.728   2.138
 1932TIP3   OH2 5759   3.237   2.481   1.076
 1932TIP3    H1 5760   3.273   2.395   1.053
 1932TIP3    H2 5761   3.264   2.538   1.004
 1933TIP3   OH2 5762   3.397   3.178   0.380
 1933TIP3    H1 5763   3.361   3.147   0.297
 1933TIP3    H2 5764   3.385   3.104   0.440
 1934TIP3   OH2 5765   2.843   3.391   0.797
 1934TIP3    H1 5766   2.813   3.393   0.706
 1934TIP3    H2 5767   2.796   3.463   0.839
 1935TIP3   OH2 5768   0.319   3.294   2.452
 1935TIP3    H1 5769   0.396   3.302   2.396
 1935TIP3    H2 5770   0.247   3.329   2.399
 1936TIP3   OH2 5771   1.598   5.901   2.327
 1936TIP3    H1 5772   1.585   5.858   2.411
 1936TIP3    H2 5773   1.662   5.845   2.282
 1937TIP3   OH2 5774   3.046   2.114   3.739
 1937TIP3    H1 5775   3.010   2.178   3.677
 1937TIP3    H2 5776   3.055   2.162   3.821
 1938TIP3   OH2 5777   3.342   1.040   1.747
 1938TIP3    H1 5778   3.290   1.113   1.781
 1938TIP3    H2 5779   3.428   1.077   1.730
 1939TIP3   OH2 5780   5.444   2.152   1.532
 1939TIP3    H1 5781   5.534   2.160   1.501
 1939TIP3    H2 5782   5.404   2.088   1.474
 1940TIP3   OH2 5783   4.895   4.192   5.591
 1940TIP3    H1 5784   4.866   4.172   5.503
 1940TIP3    H2 5785   4.830   4.255   5.624
 1941TIP3   OH2 5786   4.469   1.340   3.977
 1941TIP3    H1 5787   4.507   1.297   4.053
 1941TIP3    H2 5788   4.465   1.272   3.910
 1942TIP3   OH2 5789   0.626   0.645   4.562
 1942TIP3    H1 5790   0.589   0.651   4.474
 1942TIP3    H2 5791   0.719   0.666   4.550
 1943TIP3   OH2 5792   1.301   3.869   2.063
 1943TIP3    H1 5793   1.310   3.952   2.109
 1943TIP3    H2 5794   1.377   3.865   2.005
 1944TIP3   OH2 5795   0.296   1.348   5.027
 1944TIP3    H1 5796   0.390   1.366   5.020
 1944TIP3    H2 5797   0.261   1.366   4.939
 1945TIP3   OH2 5798   6.196   6.110   3.804
 1945TIP3    H1 5799   6.274   6.060   3.780
 1945TIP3    H2 5800   6.201   6.190   3.752
 1946TIP3   OH2 5801   0.998   2.489   3.084
 1946TIP3    H1 5802   1.054   2.414   3.104
 1946TIP3    H2 5803   0.947   2.462   3.007
 1947TIP3   OH2 5804   1.962   2.626   1.608
 1947TIP3    H1 5805   1.903   2.642   1.682
 1947TIP3    H2 5806   1.917   2.663   1.532
 1948TIP3   OH2 5807   5.358  -0.015   0.356
 1948TIP3    H1 5808   5.393   0.063   0.313
 1948TIP3    H2 5809   5.286  -0.043   0.299
 1949TIP3   OH2 5810   1.796   6.742   2.875
 1949TIP3    H1 5811   1.768   6.651   2.865
 1949TIP3    H2 5812   1.715   6.792   2.871
 1950TIP3   OH2 5813   4.429   2.402   2.829
 1950TIP3    H1 5814   4.480   2.412   2.910
 1950TIP3    H2 5815   4.485   2.349   2.772
 1951TIP3   OH2 5816   1.785   6.069   3.178
 1951TIP3    H1 5817   1.733   6.138   3.137
 1951TIP3    H2 5818   1.729   5.991   3.175
 1952TIP3   OH2 5819   1.001   2.078   4.387
 1952TIP3    H1 5820   0.968   2.168   4.391
 1952TIP3    H2 5821   1.048   2.066   4.469
 1953TIP3   OH2 5822   1.104   1.240   5.740
 1953TIP3    H1 5823   1.167   1.171   5.721
 1953TIP3    H2 5824   1.049   1.245   5.662
 1954TIP3   OH2 5825   5.700   2.395   5.264
 1954TIP3    H1 5826   5.643   2.463   5.301
 1954TIP3    H2 5827   5.774   2.391   5.325
 1955TIP3   OH2 5828   1.438   1.192   3.382
 1955TIP3    H1 5829   1.444   1.161   3.472
 1955TIP3    H2 5830   1.504   1.142   3.335
 1956TIP3   OH2 5831   5.437   3.885   0.528
 1956TIP3    H1 5832   5.392   3.962   0.494
 1956TIP3    H2 5833   5.464   3.910   0.616
 1957TIP3   OH2 5834   6.383   5.382   0.759
 1957TIP3    H1 5835   6.339   5.420   0.683
 1957TIP3    H2 5836   6.354   5.435   0.833
 1958TIP3   OH2 5837   1.538   5.274   3.402
 1958TIP3    H1 5838   1.607   5.333   3.431
 1958TIP3    H2 5839   1.504   5.236   3.484
 1959TIP3   OH2 5840   4.838   0.551   4.099
 1959TIP3    H1 5841   4.877   0.534   4.185
 1959TIP3    H2 5842   4.867   0.639   4.076
 1960TIP3   OH2 5843   6.144   3.873   3.306
 1960TIP3    H1 5844   6.062   3.825   3.317
 1960TIP3    H2 5845   6.208   3.806   3.282
 1961TIP3   OH2 5846   4.211   5.697   3.805
 1961TIP3    H1 5847   4.212   5.605   3.778
 1961TIP3    H2 5848   4.263   5.699   3.885
 1962TIP3   OH2 5849   0.370   3.737   2.949
 1962TIP3    H1 5850   0.336   3.664   3.001
 1962TIP3    H2 5851   0.292   3.789   2.928
 1963TIP3   OH2 5852   4.421   5.674   5.601
 1963TIP3    H1 5853   4.477   5.655   5.677
 1963TIP3    H2 5854   4.332   5.652   5.631
 1964TIP3   OH2 5855   1.466   3.713   0.472
 1964TIP3    H1 5856   1.423   3.684   0.391
 1964TIP3    H2 5857   1.549   3.666   0.473
 1965TIP3   OH2 5858   6.204   2.961   2.975
 1965TIP3    H1 5859   6.170   2.871   2.968
 1965TIP3    H2 5860   6.224   2.972   3.067
 1966TIP3   OH2 5861   3.328   5.838   5.696
 1966TIP3    H1 5862   3.248   5.789   5.675
 1966TIP3    H2 5863   3.399   5.776   5.677
 1967TIP3   OH2 5864   5.273   6.382   4.362
 1967TIP3    H1 5865   5.314   6.307   4.318
 1967TIP3    H2 5866   5.234   6.345   4.441
 1968TIP3   OH2 5867   5.162   2.073   2.400
 1968TIP3    H1 5868   5.211   2.010   2.348
 1968TIP3    H2 5869   5.083   2.091   2.349
 1969TIP3   OH2 5870   3.282   5.883   4.917
 1969TIP3    H1 5871   3.288   5.892   5.013
 1969TIP3    H2 5872   3.194   5.912   4.896
 1970TIP3   OH2 5873   1.854   1.983   0.892
 1970TIP3    H1 5874   1.813   1.984   0.979
 1970TIP3    H2 5875   1.838   2.071   0.857
 1971TIP3   OH2 5876   5.430   3.438   2.949
 1971TIP3    H1 5877   5.406   3.527   2.977
 1971TIP3    H2 5878   5.523   3.431   2.970
 1972TIP3   OH2 5879   6.339   6.140   0.806
 1972TIP3    H1 5880   6.420   6.182   0.776
 1972TIP3    H2 5881   6.361   6.108   0.893
 1973TIP3   OH2 5882   4.163   2.743   0.951
 1973TIP3    H1 5883   4.200   2.678   0.892
 1973TIP3    H2 5884   4.071   2.751   0.924
 1974TIP3   OH2 5885   1.429   0.495   0.149
 1974TIP3    H1 5886   1.478   0.513   0.069
 1974TIP3    H2 5887   1.497   0.484   0.216
 1975TIP3   OH2 5888   0.821   1.610   2.545
 1975TIP3    H1 5889   0.740   1.623   2.593
 1975TIP3    H2 5890   0.883   1.578   2.611
 1976TIP3   OH2 5891   0.355   1.834   3.711
 1976TIP3    H1 5892   0.412   1.911   3.702
 1976TIP3    H2 5893   0.361   1.811   3.804
 1977TIP3   OH2 5894   6.223   5.849   2.706
 1977TIP3    H1 5895   6.257   5.889   2.626
 1977TIP3    H2 5896   6.156   5.788   2.675
 1978TIP3   OH2 5897   3.209   3.606   4.892
 1978TIP3    H1 5898   3.119   3.636   4.883
 1978TIP3    H2 5899   3.262   3.681   4.867
 1979TIP3   OH2 5900   1.785   2.165   3.801
 1979TIP3    H1 5901   1.829   2.236   3.849
 1979TIP3    H2 5902   1.734   2.211   3.734
 1980TIP3   OH2 5903   3.369   5.104   4.540
 1980TIP3    H1 5904   3.343   5.060   4.459
 1980TIP3    H2 5905   3.461   5.080   4.553
 1981TIP3   OH2 5906   0.238   0.914   3.349
 1981TIP3    H1 5907   0.183   0.838   3.370
 1981TIP3    H2 5908   0.180   0.989   3.358
 1982TIP3   OH2 5909   4.984   0.102   2.281
 1982TIP3    H1 5910   4.944   0.102   2.194
 1982TIP3    H2 5911   5.079   0.106   2.263
 1983TIP3   OH2 5912   1.718   6.497   5.479
 1983TIP3    H1 5913   1.753   6.445   5.551
 1983TIP3    H2 5914   1.699   6.433   5.411
 1984TIP3   OH2 5915   2.856   3.779   3.171
 1984TIP3    H1 5916   2.761   3.776   3.155
 1984TIP3    H2 5917   2.864   3.827   3.254
 1985TIP3   OH2 5918   1.892   4.119   0.570
 1985TIP3    H1 5919   1.836   4.148   0.642
 1985TIP3    H2 5920   1.855   4.035   0.543
 1986TIP3   OH2 5921   4.828   5.897   4.929
 1986TIP3    H1 5922   4.923   5.885   4.939
 1986TIP3    H2 5923   4.819   5.959   4.856
 1987TIP3   OH2 5924   2.756   0.584   0.379
 1987TIP3    H1 5925   2.772   0.556   0.289
 1987TIP3    H2 5926   2.748   0.503   0.428
 1988TIP3   OH2 5927   3.845   4.561   0.232
 1988TIP3    H1 5928   3.750   4.551   0.224
 1988TIP3    H2 5929   3.858   4.655   0.244
 1989TIP3   OH2 5930   4.790   2.249   3.813
 1989TIP3    H1 5931   4.728   2.268   3.883
 1989TIP3    H2 5932   4.856   2.192   3.854
 1990TIP3   OH2 5933   3.282   2.846   4.563
 1990TIP3    H1 5934   3.312   2.832   4.473
 1990TIP3    H2 5935   3.226   2.771   4.582
 1991TIP3   OH2 5936   3.248   4.129   1.532
 1991TIP3    H1 5937   3.311   4.058   1.542
 1991TIP3    H2 5938   3.173   4.090   1.488
 1992TIP3   OH2 5939   6.494   5.124   2.387
 1992TIP3    H1 5940   6.507   5.095   2.296
 1992TIP3    H2 5941   6.542   5.206   2.393
 1993TIP3   OH2 5942   5.311   1.593   5.371
 1993TIP3    H1 5943   5.222   1.626   5.353
 1993TIP3    H2 5944   5.345   1.567   5.286
 1994TIP3   OH2 5945   4.312   4.538   3.903
 1994TIP3    H1 5946   4.234   4.488   3.927
 1994TIP3    H2 5947   4.278   4.620   3.868
 1995TIP3   OH2 5948   4.033   5.909   1.602
 1995TIP3    H1 5949   3.990   5.825   1.590
 1995TIP3    H2 5950   4.054   5.938   1.512
 1996TIP3   OH2 5951   5.572   5.221   0.370
 1996TIP3    H1 5952   5.584   5.198   0.462
 1996TIP3    H2 5953   5.546   5.313   0.372
 1997TIP3   OH2 5954   7.170   6.040   1.192
 1997TIP3    H1 5955   7.258   6.077   1.200
 1997TIP3    H2 5956   7.164   6.014   1.100
 1998TIP3   OH2 5957   6.809   6.482   4.853
 1998TIP3    H1 5958   6.763   6.507   4.933
 1998TIP3    H2 5959   6.775   6.395   4.832
 1999TIP3   OH2 5960   3.752   2.748   1.530
 1999TIP3    H1 5961   3.789   2.712   1.449
 1999TIP3    H2 5962   3.659   2.761   1.510
 2000TIP3   OH2 5963   3.672   2.414   4.027
 2000TIP3    H1 5964   3.747   2.430   4.083
 2000TIP3    H2 5965   3.638   2.329   4.055
 2001TIP3   OH2 5966   1.899   0.561   5.016
 2001TIP3    H1 5967   1.861   0.643   4.984
 2001TIP3    H2 5968   1.993   0.574   5.009
 2002TIP3   OH2 5969   6.395   6.118   5.067
 2002TIP3    H1 5970   6.332   6.097   4.998
 2002TIP3    H2 5971   6.345   6.108   5.148
 2003TIP3   OH2 5972   5.974   5.701   0.189
 2003TIP3    H1 5973   5.979   5.652   0.107
 2003TIP3    H2 5974   5.881   5.713   0.205
 2004TIP3   OH2 5975   3.186   0.430   3.495
 2004TIP3    H1 5976   3.166   0.390   3.411
 2004TIP3    H2 5977   3.167   0.523   3.483
 2005TIP3   OH2 5978   0.191   1.144   0.853
 2005TIP3    H1 5979   0.156   1.109   0.771
 2005TIP3    H2 5980   0.120   1.135   0.916
 2006TIP3   OH2 5981   6.584   5.970   2.781
 2006TIP3    H1 5982   6.669   5.937   2.808
 2006TIP3    H2 5983   6.529   5.891   2.775
 2007TIP3   OH2 5984   1.089   4.966   4.744
 2007TIP3    H1 5985   1.036   4.932   4.671
 2007TIP3    H2 5986   1.179   4.959   4.713
 2008TIP3   OH2 5987   1.513   0.907   4.884
 2008TIP3    H1 5988   1.477   0.924   4.971
 2008TIP3    H2 5989   1.590   0.852   4.900
 2009TIP3   OH2 5990   5.529   3.768   2.644
 2009TIP3    H1 5991   5.606   3.748   2.697
 2009TIP3    H2 5992   5.456   3.762   2.706
 2010TIP3   OH2 5993   0.600   3.759   4.998
 2010TIP3    H1 5994   0.637   3.674   5.023
 2010TIP3    H2 5995   0.598   3.809   5.079
 2011TIP3   OH2 5996   0.585   4.497   4.344
 2011TIP3    H1 5997   0.661   4.526   4.394
 2011TIP3    H2 5998   0.604   4.406   4.321
 2012TIP3   OH2 5999   5.705   6.742   0.214
 2012TIP3    H1 6000   5.746   6.659   0.191
 2012TIP3    H2 6001   5.702   6.742   0.310
 2013TIP3   OH2 6002   4.111   4.657   3.568
 2013TIP3    H1 6003   4.068   4.595   3.627
 2013TIP3    H2 6004   4.168   4.708   3.626
 2014TIP3   OH2 6005   3.782   5.684   2.367
 2014TIP3    H1 6006   3.813   5.691   2.277
 2014TIP3    H2 6007   3.711   5.747   2.373
 2015TIP3   OH2 6008   6.655   1.860   0.111
 2015TIP3    H1 6009   6.703   1.906   0.042
 2015TIP3    H2 6010   6.694   1.891   0.193
 2016TIP3   OH2 6011   4.890   2.667   1.064
 2016TIP3    H1 6012   4.903   2.761   1.055
 2016TIP3    H2 6013   4.849   2.656   1.150
 2017TIP3   OH2 6014   4.909   0.464   4.927
 2017TIP3    H1 6015   4.970   0.421   4.987
 2017TIP3    H2 6016   4.827   0.467   4.976
 2018TIP3   OH2 6017   5.339   4.896   3.658
 2018TIP3    H1 6018   5.297   4.859   3.581
 2018TIP3    H2 6019   5.298   4.851   3.732
 2019TIP3   OH2 6020   4.872   3.861   2.635
 2019TIP3    H1 6021   4.862   3.854   2.540
 2019TIP3    H2 6022   4.793   3.821   2.671
 2020TIP3   OH2 6023   1.443   4.094   1.546
 2020TIP3    H1 6024   1.440   4.009   1.589
 2020TIP3    H2 6025   1.509   4.143   1.595
 2021TIP3   OH2 6026   5.828   4.492   3.146
 2021TIP3    H1 6027   5.866   4.551   3.212
 2021TIP3    H2 6028   5.734   4.504   3.155
 2022TIP3   OH2 6029   3.247   2.069   1.353
 2022TIP3    H1 6030   3.218   1.982   1.326
 2022TIP3    H2 6031   3.171   2.106   1.399
 2023TIP3   OH2 6032   4.714   5.811   4.612
 2023TIP3    H1 6033   4.692   5.903   4.599
 2023TIP3    H2 6034   4.673   5.788   4.695
 2024TIP3   OH2 6035   6.717   3.148   3.161
 2024TIP3    H1 6036   6.680   3.221   3.111
 2024TIP3    H2 6037   6.743   3.085   3.094
 2025TIP3   OH2 6038   4.781   6.191   4.210
 2025TIP3    H1 6039   4.814   6.103   4.228
 2025TIP3    H2 6040   4.838   6.248   4.261
 2026TIP3   OH2 6041   1.808   5.476   3.235
 2026TIP3    H1 6042   1.760   5.469   3.152
 2026TIP3    H2 6043   1.827   5.570   3.244
 2027TIP3   OH2 6044   5.557   5.820   0.892
 2027TIP3    H1 6045   5.547   5.816   0.797
 2027TIP3    H2 6046   5.532   5.733   0.923
 2028TIP3   OH2 6047   3.243   6.037   5.430
 2028TIP3    H1 6048   3.309   6.074   5.488
 2028TIP3    H2 6049   3.191   5.979   5.486
 2029TIP3   OH2 6050   6.955   5.854   1.742
 2029TIP3    H1 6051   7.045   5.841   1.713
 2029TIP3    H2 6052   6.912   5.770   1.724
 2030TIP3   OH2 6053   1.970   3.474   1.809
 2030TIP3    H1 6054   1.915   3.446   1.883
 2030TIP3    H2 6055   2.057   3.437   1.829
 2031TIP3   OH2 6056   4.196   6.751   3.373
 2031TIP3    H1 6057   4.263   6.720   3.434
 2031TIP3    H2 6058   4.172   6.838   3.406
 2032TIP3   OH2 6059   5.097   0.572   1.648
 2032TIP3    H1 6060   5.084   0.579   1.553
 2032TIP3    H2 6061   5.011   0.544   1.681
 2033TIP3   OH2 6062   2.625   4.165   2.085
 2033TIP3    H1 6063   2.659   4.186   2.172
 2033TIP3    H2 6064   2.703   4.139   2.035
 2034TIP3   OH2 6065   0.964   0.428   1.631
 2034TIP3    H1 6066   1.004   0.511   1.657
 2034TIP3    H2 6067   0.895   0.413   1.696
 2035TIP3   OH2 6068   6.438   2.617   4.100
 2035TIP3    H1 6069   6.437   2.577   4.187
 2035TIP3    H2 6070   6.347   2.617   4.072
 2036TIP3   OH2 6071   2.059   6.207   0.622
 2036TIP3    H1 6072   2.099   6.231   0.705
 2036TIP3    H2 6073   2.039   6.113   0.631
 2037TIP3   OH2 6074   2.475   3.322   1.348
 2037TIP3    H1 6075   2.466   3.370   1.265
 2037TIP3    H2 6076   2.386   3.320   1.384
 2038TIP3   OH2 6077   3.907   4.675   4.375
 2038TIP3    H1 6078   3.932   4.697   4.464
 2038TIP3    H2 6079   3.832   4.731   4.356
 2039TIP3   OH2 6080   5.890   6.309   3.857
 2039TIP3    H1 6081   5.875   6.381   3.796
 2039TIP3    H2 6082   5.815   6.313   3.917
 2040TIP3   OH2 6083   6.464   0.564   5.872
 2040TIP3    H1 6084   6.403   0.636   5.883
 2040TIP3    H2 6085   6.434   0.518   5.793
 2041TIP3   OH2 6086   0.801   1.479   5.199
 2041TIP3    H1 6087   0.860   1.412   5.163
 2041TIP3    H2 6088   0.742   1.430   5.255
 2042TIP3   OH2 6089   6.416   5.612   0.330
 2042TIP3    H1 6090   6.505   5.642   0.316
 2042TIP3    H2 6091   6.362   5.689   0.313
 2043TIP3   OH2 6092   0.502   3.186   3.004
 2043TIP3    H1 6093   0.562   3.118   2.976
 2043TIP3    H2 6094   0.544   3.268   2.978
 2044TIP3   OH2 6095   4.902   3.625   0.576
 2044TIP3    H1 6096   4.932   3.561   0.640
 2044TIP3    H2 6097   4.825   3.665   0.617
 2045TIP3   OH2 6098   0.489   5.088   5.297
 2045TIP3    H1 6099   0.526   5.002   5.279
 2045TIP3    H2 6100   0.524   5.144   5.227
 2046TIP3   OH2 6101   5.135   6.096   1.580
 2046TIP3    H1 6102   5.195   6.099   1.654
 2046TIP3    H2 6103   5.137   6.005   1.551
 2047TIP3   OH2 6104   0.993   4.438   4.363
 2047TIP3    H1 6105   1.085   4.426   4.383
 2047TIP3    H2 6106   0.958   4.350   4.352
 2048TIP3   OH2 6107   4.602   5.927   5.092
 2048TIP3    H1 6108   4.682   5.918   5.040
 2048TIP3    H2 6109   4.551   5.994   5.046
 2049TIP3   OH2 6110   1.632   1.318   1.246
 2049TIP3    H1 6111   1.598   1.352   1.329
 2049TIP3    H2 6112   1.719   1.284   1.267
 2050TIP3   OH2 6113   0.479   4.487   1.638
 2050TIP3    H1 6114   0.442   4.474   1.725
 2050TIP3    H2 6115   0.561   4.437   1.639
 2051TIP3   OH2 6116   2.664   0.137   2.781
 2051TIP3    H1 6117   2.585   0.085   2.799
 2051TIP3    H2 6118   2.736   0.075   2.789
 2052TIP3   OH2 6119   1.699   3.778   1.076
 2052TIP3    H1 6120   1.762   3.733   1.020
 2052TIP3    H2 6121   1.713   3.740   1.163
 2053TIP3   OH2 6122   0.923   1.649   4.642
 2053TIP3    H1 6123   0.867   1.658   4.718
 2053TIP3    H2 6124   0.985   1.722   4.649
 2054TIP3   OH2 6125   4.238   3.725   1.022
 2054TIP3    H1 6126   4.332   3.744   1.023
 2054TIP3    H2 6127   4.218   3.706   0.930
 2055TIP3   OH2 6128   0.965   1.430   2.341
 2055TIP3    H1 6129   0.915   1.509   2.363
 2055TIP3    H2 6130   1.018   1.456   2.265
 2056TIP3   OH2 6131   3.240   3.578   5.717
 2056TIP3    H1 6132   3.163   3.622   5.752
 2056TIP3    H2 6133   3.205   3.511   5.658
 2057TIP3   OH2 6134   5.238   1.029   4.586
 2057TIP3    H1 6135   5.197   0.945   4.567
 2057TIP3    H2 6136   5.169   1.082   4.626
 2058TIP3   OH2 6137   3.534   5.448   1.530
 2058TIP3    H1 6138   3.439   5.458   1.519
 2058TIP3    H2 6139   3.548   5.354   1.533
 2059TIP3   OH2 6140   2.671   2.031   2.510
 2059TIP3    H1 6141   2.718   1.950   2.487
 2059TIP3    H2 6142   2.738   2.087   2.548
 2060TIP3   OH2 6143   4.892   2.713   5.238
 2060TIP3    H1 6144   4.797   2.719   5.238
 2060TIP3    H2 6145   4.920   2.767   5.163
 2061TIP3   OH2 6146   6.651   4.949   4.910
 2061TIP3    H1 6147   6.737   4.969   4.947
 2061TIP3    H2 6148   6.661   4.965   4.816
 2062TIP3   OH2 6149   2.732   3.627   0.409
 2062TIP3    H1 6150   2.709   3.556   0.349
 2062TIP3    H2 6151   2.649   3.672   0.426
 2063TIP3   OH2 6152   3.681   4.111   2.344
 2063TIP3    H1 6153   3.625   4.189   2.347
 2063TIP3    H2 6154   3.763   4.140   2.384
 2064TIP3   OH2 6155   2.146   2.306   4.982
 2064TIP3    H1 6156   2.171   2.388   4.940
 2064TIP3    H2 6157   2.215   2.244   4.956
 2065TIP3   OH2 6158   0.389   4.941   2.073
 2065TIP3    H1 6159   0.334   4.936   2.151
 2065TIP3    H2 6160   0.446   5.016   2.088
 2066TIP3   OH2 6161   7.190   4.768   4.708
 2066TIP3    H1 6162   7.224   4.711   4.639
 2066TIP3    H2 6163   7.173   4.709   4.781
 2067TIP3   OH2 6164   5.120   0.264   0.754
 2067TIP3    H1 6165   5.214   0.245   0.747
 2067TIP3    H2 6166   5.104   0.269   0.848
 2068TIP3   OH2 6167   2.575   1.187   1.654
 2068TIP3    H1 6168   2.622   1.248   1.710
 2068TIP3    H2 6169   2.580   1.226   1.566
 2069TIP3   OH2 6170   5.141   5.768   5.491
 2069TIP3    H1 6171   5.067   5.754   5.432
 2069TIP3    H2 6172   5.172   5.856   5.469
 2070TIP3   OH2 6173   0.031   6.522   0.367
 2070TIP3    H1 6174   0.013   6.594   0.305
 2070TIP3    H2 6175   0.125   6.509   0.361
 2071TIP3   OH2 6176   0.750   2.609   2.549
 2071TIP3    H1 6177   0.766   2.534   2.491
 2071TIP3    H2 6178   0.663   2.641   2.523
 2072TIP3   OH2 6179   2.667   2.523   1.382
 2072TIP3    H1 6180   2.620   2.607   1.384
 2072TIP3    H2 6181   2.758   2.546   1.367
 2073TIP3   OH2 6182   6.225   1.792   3.410
 2073TIP3    H1 6183   6.315   1.802   3.439
 2073TIP3    H2 6184   6.172   1.821   3.484
 2074TIP3   OH2 6185   6.648   2.009   5.409
 2074TIP3    H1 6186   6.725   2.061   5.387
 2074TIP3    H2 6187   6.652   1.998   5.504
 2075TIP3   OH2 6188   0.584   3.557   0.026
 2075TIP3    H1 6189   0.587   3.645  -0.012
 2075TIP3    H2 6190   0.533   3.566   0.106
 2076TIP3   OH2 6191   6.008   4.652   4.442
 2076TIP3    H1 6192   6.028   4.611   4.358
 2076TIP3    H2 6193   5.971   4.581   4.495
 2077TIP3   OH2 6194  -0.030   3.348   2.507
 2077TIP3    H1 6195   0.033   3.308   2.447
 2077TIP3    H2 6196   0.006   3.435   2.526
 2078TIP3   OH2 6197   2.886   4.587   5.312
 2078TIP3    H1 6198   2.942   4.655   5.276
 2078TIP3    H2 6199   2.942   4.510   5.318
 2079TIP3   OH2 6200   5.005   2.947   1.039
 2079TIP3    H1 6201   5.100   2.935   1.033
 2079TIP3    H2 6202   4.992   3.000   1.117
 2080TIP3   OH2 6203   6.477   5.735   2.800
 2080TIP3    H1 6204   6.383   5.744   2.782
 2080TIP3    H2 6205   6.481   5.699   2.889
 2081TIP3   OH2 6206   3.879   3.029   2.687
 2081TIP3    H1 6207   3.821   3.091   2.642
 2081TIP3    H2 6208   3.966   3.068   2.681
 2082TIP3   OH2 6209   5.076   1.031   2.015
 2082TIP3    H1 6210   5.085   0.984   1.932
 2082TIP3    H2 6211   5.164   1.063   2.034
 2083TIP3   OH2 6212   0.412   5.411   1.363
 2083TIP3    H1 6213   0.322   5.442   1.365
 2083TIP3    H2 6214   0.450   5.451   1.285
 2084TIP3   OH2 6215   1.940   4.243   5.627
 2084TIP3    H1 6216   1.860   4.281   5.593
 2084TIP3    H2 6217   1.915   4.156   5.657
 2085TIP3   OH2 6218   4.319   0.501   3.216
 2085TIP3    H1 6219   4.366   0.581   3.240
 2085TIP3    H2 6220   4.384   0.447   3.172
 2086TIP3   OH2 6221   1.430   5.285   1.617
 2086TIP3    H1 6222   1.489   5.290   1.692
 2086TIP3    H2 6223   1.426   5.192   1.595
 2087TIP3   OH2 6224   7.105   1.660   1.756
 2087TIP3    H1 6225   7.103   1.747   1.716
 2087TIP3    H2 6226   7.170   1.612   1.705
 2088TIP3   OH2 6227   4.714   6.523   2.942
 2088TIP3    H1 6228   4.693   6.587   3.009
 2088TIP3    H2 6229   4.739   6.445   2.990
 2089TIP3   OH2 6230   6.124   0.510   3.323
 2089TIP3    H1 6231   6.109   0.589   3.376
 2089TIP3    H2 6232   6.037   0.471   3.313
 2090TIP3   OH2 6233   5.424   4.692   3.893
 2090TIP3    H1 6234   5.438   4.742   3.974
 2090TIP3    H2 6235   5.330   4.676   3.890
 2091TIP3   OH2 6236   4.540   1.399   0.923
 2091TIP3    H1 6237   4.547   1.358   0.837
 2091TIP3    H2 6238   4.577   1.334   0.983
 2092TIP3   OH2 6239   0.904   6.409   3.897
 2092TIP3    H1 6240   0.911   6.486   3.841
 2092TIP3    H2 6241   0.972   6.422   3.964
 2093TIP3   OH2 6242   6.444   1.907   2.678
 2093TIP3    H1 6243   6.454   1.948   2.764
 2093TIP3    H2 6244   6.530   1.914   2.637
 2094TIP3   OH2 6245   0.799   1.526   5.620
 2094TIP3    H1 6246   0.869   1.587   5.641
 2094TIP3    H2 6247   0.743   1.574   5.558
 2095TIP3   OH2 6248   5.812   4.874   4.917
 2095TIP3    H1 6249   5.861   4.794   4.938
 2095TIP3    H2 6250   5.838   4.894   4.827
 2096TIP3   OH2 6251   1.386   5.393   4.701
 2096TIP3    H1 6252   1.457   5.366   4.642
 2096TIP3    H2 6253   1.373   5.317   4.758
 2097TIP3   OH2 6254   1.308   3.261   5.084
 2097TIP3    H1 6255   1.218   3.294   5.073
 2097TIP3    H2 6256   1.322   3.263   5.178
 2098TIP3   OH2 6257   4.472   2.323   2.371
 2098TIP3    H1 6258   4.433   2.244   2.407
 2098TIP3    H2 6259   4.475   2.384   2.444
 2099TIP3   OH2 6260   7.113   1.619   0.275
 2099TIP3    H1 6261   7.109   1.692   0.337
 2099TIP3    H2 6262   7.111   1.661   0.189
 2100TIP3   OH2 6263   6.164   1.495   2.471
 2100TIP3    H1 6264   6.211   1.419   2.507
 2100TIP3    H2 6265   6.228   1.539   2.415
 2101TIP3   OH2 6266   7.199   5.989   5.757
 2101TIP3    H1 6267   7.190   5.915   5.818
 2101TIP3    H2 6268   7.189   5.949   5.670
 2102TIP3   OH2 6269   5.564   5.812   5.488
 2102TIP3    H1 6270   5.526   5.898   5.471
 2102TIP3    H2 6271   5.577   5.774   5.401
 2103TIP3   OH2 6272   1.996   2.356   3.956
 2103TIP3    H1 6273   2.029   2.445   3.971
 2103TIP3    H2 6274   1.916   2.351   4.009
 2104TIP3   OH2 6275   3.540   0.352   5.445
 2104TIP3    H1 6276   3.464   0.318   5.399
 2104TIP3    H2 6277   3.612   0.296   5.417
 2105TIP3   OH2 6278   0.837   0.706   4.288
 2105TIP3    H1 6279   0.863   0.708   4.380
 2105TIP3    H2 6280   0.835   0.613   4.265
 2106TIP3   OH2 6281   6.167   0.865   3.159
 2106TIP3    H1 6282   6.233   0.817   3.108
 2106TIP3    H2 6283   6.152   0.945   3.108
 2107TIP3   OH2 6284   4.083   5.184   1.243
 2107TIP3    H1 6285   4.112   5.099   1.274
 2107TIP3    H2 6286   4.045   5.226   1.321
 2108TIP3   OH2 6287   6.394   3.386   2.287
 2108TIP3    H1 6288   6.423   3.465   2.241
 2108TIP3    H2 6289   6.471   3.359   2.338
 2109TIP3   OH2 6290   6.530   4.529   3.042
 2109TIP3    H1 6291   6.598   4.594   3.058
 2109TIP3    H2 6292   6.570   4.445   3.065
 2110TIP3   OH2 6293   5.892   0.291   1.615
 2110TIP3    H1 6294   5.880   0.329   1.702
 2110TIP3    H2 6295   5.827   0.220   1.611
 2111TIP3   OH2 6296   0.778   1.688   3.002
 2111TIP3    H1 6297   0.737   1.616   2.955
 2111TIP3    H2 6298   0.734   1.766   2.968
 2112TIP3   OH2 6299   5.082   5.742   1.167
 2112TIP3    H1 6300   5.115   5.657   1.193
 2112TIP3    H2 6301   5.002   5.723   1.117
 2113TIP3   OH2 6302   3.352   5.133   1.641
 2113TIP3    H1 6303   3.446   5.139   1.624
 2113TIP3    H2 6304   3.312   5.120   1.554
 2114TIP3   OH2 6305   0.432   1.249   5.616
 2114TIP3    H1 6306   0.356   1.191   5.628
 2114TIP3    H2 6307   0.415   1.324   5.673
 2115TIP3   OH2 6308   0.957   5.598   4.230
 2115TIP3    H1 6309   0.936   5.692   4.227
 2115TIP3    H2 6310   0.878   5.557   4.264
 2116TIP3   OH2 6311   4.561   5.255   0.608
 2116TIP3    H1 6312   4.654   5.258   0.583
 2116TIP3    H2 6313   4.546   5.340   0.650
 2117TIP3   OH2 6314   3.710   1.064   0.841
 2117TIP3    H1 6315   3.770   1.108   0.902
 2117TIP3    H2 6316   3.645   1.131   0.819
 2118TIP3   OH2 6317   3.865   1.499   3.800
 2118TIP3    H1 6318   3.896   1.588   3.782
 2118TIP3    H2 6319   3.791   1.487   3.741
 2119TIP3   OH2 6320   6.266   3.343   0.918
 2119TIP3    H1 6321   6.332   3.400   0.956
 2119TIP3    H2 6322   6.245   3.281   0.987
 2120TIP3   OH2 6323   0.423   5.130   5.861
 2120TIP3    H1 6324   0.404   5.221   5.836
 2120TIP3    H2 6325   0.469   5.093   5.786
 2121TIP3   OH2 6326   5.420   0.056   3.144
 2121TIP3    H1 6327   5.459  -0.032   3.151
 2121TIP3    H2 6328   5.492   0.116   3.161
 2122TIP3   OH2 6329   5.373   2.653   5.214
 2122TIP3    H1 6330   5.284   2.627   5.236
 2122TIP3    H2 6331   5.384   2.629   5.122
 2123TIP3   OH2 6332   0.667   4.424   2.764
 2123TIP3    H1 6333   0.669   4.373   2.683
 2123TIP3    H2 6334   0.754   4.414   2.801
 2124TIP3   OH2 6335   3.855   0.104   3.671
 2124TIP3    H1 6336   3.797   0.178   3.690
 2124TIP3    H2 6337   3.911   0.135   3.599
 2125TIP3   OH2 6338   1.815   6.532   4.996
 2125TIP3    H1 6339   1.864   6.456   4.963
 2125TIP3    H2 6340   1.873   6.571   5.062
 2126TIP3   OH2 6341   4.536   1.006   0.469
 2126TIP3    H1 6342   4.485   1.086   0.461
 2126TIP3    H2 6343   4.626   1.033   0.448
 2127TIP3   OH2 6344   1.470   5.078   0.595
 2127TIP3    H1 6345   1.524   5.092   0.673
 2127TIP3    H2 6346   1.397   5.139   0.606
 2128TIP3   OH2 6347   1.176   5.706   4.505
 2128TIP3    H1 6348   1.228   5.770   4.457
 2128TIP3    H2 6349   1.185   5.625   4.456
 2129TIP3   OH2 6350   5.268   2.564   4.952
 2129TIP3    H1 6351   5.256   2.648   4.908
 2129TIP3    H2 6352   5.180   2.532   4.968
 2130TIP3   OH2 6353   5.421   0.166   2.350
 2130TIP3    H1 6354   5.454   0.097   2.407
 2130TIP3    H2 6355   5.360   0.215   2.405
 2131TIP3   OH2 6356   0.904   5.173   2.324
 2131TIP3    H1 6357   0.832   5.233   2.306
 2131TIP3    H2 6358   0.939   5.152   2.237
 2132TIP3   OH2 6359   2.312   1.498   3.179
 2132TIP3    H1 6360   2.315   1.409   3.215
 2132TIP3    H2 6361   2.242   1.541   3.228
 2133TIP3   OH2 6362   1.083   4.850   5.383
 2133TIP3    H1 6363   1.116   4.863   5.293
 2133TIP3    H2 6364   1.134   4.911   5.436
 2134TIP3   OH2 6365   4.089   1.840   0.541
 2134TIP3    H1 6366   4.029   1.912   0.519
 2134TIP3    H2 6367   4.088   1.784   0.463
 2135TIP3   OH2 6368   4.689   3.858   1.291
 2135TIP3    H1 6369   4.719   3.790   1.230
 2135TIP3    H2 6370   4.767   3.884   1.339
 2136TIP3   OH2 6371   7.067   3.853   4.157
 2136TIP3    H1 6372   7.023   3.843   4.242
 2136TIP3    H2 6373   7.086   3.763   4.130
 2137TIP3   OH2 6374   1.490   3.567   4.249
 2137TIP3    H1 6375   1.564   3.537   4.302
 2137TIP3    H2 6376   1.494   3.512   4.170
 2138TIP3   OH2 6377   3.339   5.638   4.487
 2138TIP3    H1 6378   3.356   5.719   4.439
 2138TIP3    H2 6379   3.416   5.626   4.542
 2139TIP3   OH2 6380   6.019   6.195   4.643
 2139TIP3    H1 6381   6.023   6.155   4.556
 2139TIP3    H2 6382   5.928   6.185   4.669
 2140TIP3   OH2 6383   2.348   3.587   0.667
 2140TIP3    H1 6384   2.270   3.566   0.616
 2140TIP3    H2 6385   2.389   3.503   0.684
 2141TIP3   OH2 6386   1.926   1.024   1.641
 2141TIP3    H1 6387   1.843   1.030   1.595
 2141TIP3    H2 6388   1.991   1.006   1.572
 2142TIP3   OH2 6389   6.554   1.012   2.124
 2142TIP3    H1 6390   6.528   0.943   2.185
 2142TIP3    H2 6391   6.599   0.965   2.054
 2143TIP3   OH2 6392   4.929   5.580   4.035
 2143TIP3    H1 6393   5.018   5.556   4.060
 2143TIP3    H2 6394   4.890   5.499   4.002
 2144TIP3   OH2 6395   6.637   3.639   1.429
 2144TIP3    H1 6396   6.724   3.680   1.438
 2144TIP3    H2 6397   6.637   3.569   1.494
 2145TIP3   OH2 6398   0.864   6.592   0.597
 2145TIP3    H1 6399   0.884   6.507   0.635
 2145TIP3    H2 6400   0.930   6.605   0.529
 2146TIP3   OH2 6401   3.896   1.958   3.821
 2146TIP3    H1 6402   3.917   2.014   3.895
 2146TIP3    H2 6403   3.810   1.922   3.842
 2147TIP3   OH2 6404   6.846   0.930   5.258
 2147TIP3    H1 6405   6.903   0.990   5.210
 2147TIP3    H2 6406   6.761   0.973   5.260
 2148TIP3   OH2 6407   5.441   6.588   1.745
 2148TIP3    H1 6408   5.444   6.544   1.830
 2148TIP3    H2 6409   5.524   6.566   1.703
 2149TIP3   OH2 6410   6.124   2.505  -0.004
 2149TIP3    H1 6411   6.036   2.514  -0.040
 2149TIP3    H2 6412   6.123   2.420   0.041
 2150TIP3   OH2 6413   1.717   0.131   0.929
 2150TIP3    H1 6414   1.706   0.105   0.838
 2150TIP3    H2 6415   1.639   0.182   0.950
 2151TIP3   OH2 6416   6.912   0.566   3.090
 2151TIP3    H1 6417   6.926   0.488   3.036
 2151TIP3    H2 6418   6.834   0.545   3.143
 2152TIP3   OH2 6419   5.619   0.459   3.300
 2152TIP3    H1 6420   5.549   0.421   3.353
 2152TIP3    H2 6421   5.603   0.553   3.303
 2153TIP3   OH2 6422   6.144   6.744   2.468
 2153TIP3    H1 6423   6.186   6.662   2.444
 2153TIP3    H2 6424   6.051   6.722   2.479
 2154TIP3   OH2 6425   5.519   4.180   2.892
 2154TIP3    H1 6426   5.493   4.132   2.813
 2154TIP3    H2 6427   5.599   4.225   2.868
 2155TIP3   OH2 6428   0.230   6.544   4.935
 2155TIP3    H1 6429   0.234   6.449   4.920
 2155TIP3    H2 6430   0.140   6.568   4.913
 2156TIP3   OH2 6431   6.068   5.939   5.338
 2156TIP3    H1 6432   6.053   5.858   5.289
 2156TIP3    H2 6433   6.045   5.916   5.429
 2157TIP3   OH2 6434   6.510   6.023   5.401
 2157TIP3    H1 6435   6.422   6.053   5.378
 2157TIP3    H2 6436   6.566   6.056   5.332
 2158TIP3   OH2 6437   1.775   5.383   3.493
 2158TIP3    H1 6438   1.786   5.399   3.399
 2158TIP3    H2 6439   1.842   5.317   3.513
 2159TIP3   OH2 6440   3.053   0.530   2.813
 2159TIP3    H1 6441   3.078   0.569   2.897
 2159TIP3    H2 6442   2.981   0.585   2.783
 2160TIP3   OH2 6443   2.607   2.568   2.367
 2160TIP3    H1 6444   2.610   2.491   2.424
 2160TIP3    H2 6445   2.646   2.538   2.284
 2161TIP3   OH2 6446   4.197   4.112   3.582
 2161TIP3    H1 6447   4.169   4.024   3.558
 2161TIP3    H2 6448   4.287   4.119   3.549
 2162TIP3   OH2 6449   5.228   2.124   0.823
 2162TIP3    H1 6450   5.270   2.146   0.740
 2162TIP3    H2 6451   5.135   2.113   0.800
 2163TIP3   OH2 6452   1.796   2.771   2.878
 2163TIP3    H1 6453   1.880   2.762   2.832
 2163TIP3    H2 6454   1.785   2.866   2.887
 2164TIP3   OH2 6455   0.139   1.595   1.582
 2164TIP3    H1 6456   0.214   1.546   1.550
 2164TIP3    H2 6457   0.171   1.684   1.593
 2165TIP3   OH2 6458   6.848   1.120   4.964
 2165TIP3    H1 6459   6.930   1.132   5.013
 2165TIP3    H2 6460   6.837   1.201   4.915
 2166TIP3   OH2 6461   3.932   1.620   5.509
 2166TIP3    H1 6462   3.910   1.713   5.501
 2166TIP3    H2 6463   4.027   1.617   5.497
 2167TIP3   OH2 6464   1.286   5.097   1.770
 2167TIP3    H1 6465   1.348   5.044   1.720
 2167TIP3    H2 6466   1.312   5.086   1.861
 2168TIP3   OH2 6467   2.777   2.238   0.465
 2168TIP3    H1 6468   2.758   2.196   0.549
 2168TIP3    H2 6469   2.869   2.263   0.470
 2169TIP3   OH2 6470   6.446   0.321   4.243
 2169TIP3    H1 6471   6.434   0.375   4.321
 2169TIP3    H2 6472   6.429   0.232   4.273
 2170TIP3   OH2 6473   3.370   4.540   1.247
 2170TIP3    H1 6474   3.413   4.530   1.332
 2170TIP3    H2 6475   3.413   4.615   1.207
 2171TIP3   OH2 6476   3.115   5.703   5.620
 2171TIP3    H1 6477   3.150   5.661   5.542
 2171TIP3    H2 6478   3.047   5.643   5.651
 2172TIP3   OH2 6479   6.769   1.742   4.201
 2172TIP3    H1 6480   6.817   1.660   4.185
 2172TIP3    H2 6481   6.683   1.727   4.161
 2173TIP3   OH2 6482   1.897   5.563   0.683
 2173TIP3    H1 6483   1.817   5.510   0.676
 2173TIP3    H2 6484   1.866   5.653   0.692
 2174TIP3   OH2 6485   5.461   2.935   2.945
 2174TIP3    H1 6486   5.403   2.970   3.013
 2174TIP3    H2 6487   5.416   2.956   2.862
 2175TIP3   OH2 6488   5.129   3.619   5.155
 2175TIP3    H1 6489   5.217   3.628   5.192
 2175TIP3    H2 6490   5.139   3.643   5.063
 2176TIP3   OH2 6491   0.153   0.019   1.142
 2176TIP3    H1 6492   0.229  -0.038   1.156
 2176TIP3    H2 6493   0.190   0.108   1.144
 2177TIP3   OH2 6494   2.242   5.196   3.590
 2177TIP3    H1 6495   2.280   5.201   3.678
 2177TIP3    H2 6496   2.149   5.176   3.606
 2178TIP3   OH2 6497   1.978   0.199   0.843
 2178TIP3    H1 6498   2.057   0.156   0.874
 2178TIP3    H2 6499   1.910   0.171   0.904
 2179TIP3   OH2 6500   3.926   1.633   0.640
 2179TIP3    H1 6501   3.856   1.690   0.609
 2179TIP3    H2 6502   4.005   1.688   0.636
 2180TIP3   OH2 6503   5.711   4.983   0.547
 2180TIP3    H1 6504   5.705   4.919   0.477
 2180TIP3    H2 6505   5.716   4.931   0.627
 2181TIP3   OH2 6506   0.346   4.208   1.948
 2181TIP3    H1 6507   0.256   4.192   1.976
 2181TIP3    H2 6508   0.400   4.186   2.024
 2182TIP3   OH2 6509   6.828   5.985   4.439
 2182TIP3    H1 6510   6.821   5.890   4.430
 2182TIP3    H2 6511   6.920   6.000   4.457
 2183TIP3   OH2 6512   4.391   2.159   5.842
 2183TIP3    H1 6513   4.401   2.081   5.787
 2183TIP3    H2 6514   4.481   2.186   5.862
 2184TIP3   OH2 6515   5.677   2.769   1.457
 2184TIP3    H1 6516   5.680   2.843   1.396
 2184TIP3    H2 6517   5.656   2.808   1.542
 2185TIP3   OH2 6518   6.363   4.004   1.066
 2185TIP3    H1 6519   6.387   4.080   1.012
 2185TIP3    H2 6520   6.287   4.034   1.116
 2186TIP3   OH2 6521  -0.001   0.620   4.769
 2186TIP3    H1 6522   0.042   0.706   4.768
 2186TIP3    H2 6523   0.070   0.557   4.759
 2187TIP3   OH2 6524   5.237   6.348   5.041
 2187TIP3    H1 6525   5.281   6.324   4.959
 2187TIP3    H2 6526   5.303   6.396   5.091
 2188TIP3   OH2 6527   4.965   1.610   3.356
 2188TIP3    H1 6528   4.962   1.563   3.273
 2188TIP3    H2 6529   4.886   1.581   3.402
 2189TIP3   OH2 6530   1.884   3.172   1.402
 2189TIP3    H1 6531   1.819   3.117   1.446
 2189TIP3    H2 6532   1.936   3.112   1.350
 2190TIP3   OH2 6533   0.302   5.340   0.423
 2190TIP3    H1 6534   0.375   5.281   0.439
 2190TIP3    H2 6535   0.326   5.421   0.467
 2191TIP3   OH2 6536   0.328   1.319   4.257
 2191TIP3    H1 6537   0.321   1.407   4.293
 2191TIP3    H2 6538   0.360   1.332   4.168
 2192TIP3   OH2 6539   6.622   4.187   2.809
 2192TIP3    H1 6540   6.685   4.131   2.854
 2192TIP3    H2 6541   6.626   4.158   2.718
 2193TIP3   OH2 6542   2.566   1.911   4.563
 2193TIP3    H1 6543   2.470   1.912   4.560
 2193TIP3    H2 6544   2.590   1.992   4.607
 2194TIP3   OH2 6545   2.036   0.397   2.310
 2194TIP3    H1 6546   2.069   0.308   2.324
 2194TIP3    H2 6547   2.061   0.418   2.220
 2195TIP3   OH2 6548   6.151   6.336   1.927
 2195TIP3    H1 6549   6.131   6.379   2.009
 2195TIP3    H2 6550   6.141   6.404   1.860
 2196TIP3   OH2 6551   5.481   5.942   0.410
 2196TIP3    H1 6552   5.394   5.916   0.437
 2196TIP3    H2 6553   5.472   6.033   0.382
 2197TIP3   OH2 6554   0.677   2.486   1.386
 2197TIP3    H1 6555   0.721   2.433   1.452
 2197TIP3    H2 6556   0.749   2.531   1.340
 2198TIP3   OH2 6557   3.624   6.557   0.451
 2198TIP3    H1 6558   3.674   6.609   0.515
 2198TIP3    H2 6559   3.674   6.476   0.441
 2199TIP3   OH2 6560   6.816   6.696   2.534
 2199TIP3    H1 6561   6.804   6.766   2.470
 2199TIP3    H2 6562   6.732   6.692   2.581
 2200TIP3   OH2 6563   1.284   5.207   2.877
 2200TIP3    H1 6564   1.336   5.212   2.957
 2200TIP3    H2 6565   1.235   5.125   2.886
 2201TIP3   OH2 6566   1.894   2.563   2.049
 2201TIP3    H1 6567   1.988   2.581   2.051
 2201TIP3    H2 6568   1.863   2.587   2.136
 2202TIP3   OH2 6569   5.791   5.746   2.140
 2202TIP3    H1 6570   5.750   5.762   2.055
 2202TIP3    H2 6571   5.732   5.684   2.184
 2203TIP3   OH2 6572   3.209   4.968   4.743
 2203TIP3    H1 6573   3.171   4.901   4.686
 2203TIP3    H2 6574   3.239   5.037   4.683
 2204TIP3   OH2 6575   1.680   0.666   2.891
 2204TIP3    H1 6576   1.657   0.757   2.912
 2204TIP3    H2 6577   1.664   0.659   2.797
 2205TIP3   OH2 6578   1.393   6.248   5.650
 2205TIP3    H1 6579   1.463   6.249   5.715
 2205TIP3    H2 6580   1.313   6.262   5.701
 2206TIP3   OH2 6581   3.625   5.095   1.278
 2206TIP3    H1 6582   3.691   5.028   1.260
 2206TIP3    H2 6583   3.611   5.139   1.195
 2207TIP3   OH2 6584   2.197   5.505   2.949
 2207TIP3    H1 6585   2.118   5.558   2.945
 2207TIP3    H2 6586   2.235   5.512   2.861
 2208TIP3   OH2 6587   2.442   4.825   3.908
 2208TIP3    H1 6588   2.453   4.738   3.871
 2208TIP3    H2 6589   2.473   4.885   3.839
 2209TIP3   OH2 6590   0.244   4.510   4.837
 2209TIP3    H1 6591   0.173   4.550   4.887
 2209TIP3    H2 6592   0.272   4.436   4.891
 2210TIP3   OH2 6593   3.320   2.926   0.536
 2210TIP3    H1 6594   3.402   2.878   0.545
 2210TIP3    H2 6595   3.260   2.865   0.495
 2211TIP3   OH2 6596   6.658   0.128   0.330
 2211TIP3    H1 6597   6.701   0.144   0.414
 2211TIP3    H2 6598   6.576   0.084   0.352
 2212TIP3   OH2 6599   0.614   2.595   0.818
 2212TIP3    H1 6600   0.618   2.652   0.741
 2212TIP3    H2 6601   0.568   2.517   0.787
 2213TIP3   OH2 6602   6.716   2.170   0.342
 2213TIP3    H1 6603   6.689   2.100   0.402
 2213TIP3    H2 6604   6.790   2.133   0.294
 2214TIP3   OH2 6605   6.076   0.646   5.677
 2214TIP3    H1 6606   6.126   0.567   5.697
 2214TIP3    H2 6607   6.129   0.718   5.711
 2215TIP3   OH2 6608   0.227   1.540   2.426
 2215TIP3    H1 6609   0.266   1.489   2.496
 2215TIP3    H2 6610   0.145   1.495   2.405
 2216TIP3   OH2 6611   0.632   0.001   0.188
 2216TIP3    H1 6612   0.606   0.078   0.138
 2216TIP3    H2 6613   0.728   0.003   0.187
 2217TIP3   OH2 6614   3.807   6.773   5.705
 2217TIP3    H1 6615   3.832   6.683   5.683
 2217TIP3    H2 6616   3.729   6.790   5.651
 2218TIP3   OH2 6617   5.579   3.446   2.257
 2218TIP3    H1 6618   5.492   3.438   2.217
 2218TIP3    H2 6619   5.561   3.463   2.349
 2219TIP3   OH2 6620   6.655   6.141   4.594
 2219TIP3    H1 6621   6.719   6.100   4.536
 2219TIP3    H2 6622   6.641   6.077   4.664
 2220TIP3   OH2 6623   1.899   1.881   2.143
 2220TIP3    H1 6624   1.871   1.841   2.226
 2220TIP3    H2 6625   1.976   1.830   2.117
 2221TIP3   OH2 6626   3.760   0.160   5.820
 2221TIP3    H1 6627   3.678   0.187   5.778
 2221TIP3    H2 6628   3.828   0.183   5.757
 2222TIP3   OH2 6629   4.558   2.229   1.511
 2222TIP3    H1 6630   4.593   2.142   1.529
 2222TIP3    H2 6631   4.480   2.213   1.457
 2223TIP3   OH2 6632   4.761   5.800   1.408
 2223TIP3    H1 6633   4.819   5.869   1.378
 2223TIP3    H2 6634   4.674   5.827   1.379
 2224TIP3   OH2 6635   4.544   1.632   5.388
 2224TIP3    H1 6636   4.525   1.545   5.353
 2224TIP3    H2 6637   4.533   1.691   5.313
 2225TIP3   OH2 6638   0.429   1.550   5.261
 2225TIP3    H1 6639   0.426   1.523   5.353
 2225TIP3    H2 6640   0.371   1.488   5.216
 2226TIP3   OH2 6641   1.224   5.799   0.553
 2226TIP3    H1 6642   1.304   5.790   0.604
 2226TIP3    H2 6643   1.155   5.811   0.618
 2227TIP3   OH2 6644   3.718   2.945   1.003
 2227TIP3    H1 6645   3.747   3.016   0.946
 2227TIP3    H2 6646   3.653   2.897   0.951
 2228TIP3   OH2 6647   1.255   0.834   2.813
 2228TIP3    H1 6648   1.252   0.846   2.718
 2228TIP3    H2 6649   1.295   0.915   2.845
 2229TIP3   OH2 6650   5.447   6.495   5.204
 2229TIP3    H1 6651   5.429   6.546   5.283
 2229TIP3    H2 6652   5.513   6.546   5.157
 2230TIP3   OH2 6653   5.223   6.507   5.550
 2230TIP3    H1 6654   5.204   6.455   5.628
 2230TIP3    H2 6655   5.153   6.572   5.547
 2231TIP3   OH2 6656   2.065   4.523   3.904
 2231TIP3    H1 6657   2.142   4.518   3.961
 2231TIP3    H2 6658   2.086   4.465   3.831
 2232TIP3   OH2 6659   0.684   2.695   3.651
 2232TIP3    H1 6660   0.713   2.740   3.730
 2232TIP3    H2 6661   0.760   2.643   3.624
 2233TIP3   OH2 6662   0.147   5.951   0.150
 2233TIP3    H1 6663   0.135   5.863   0.115
 2233TIP3    H2 6664   0.109   6.009   0.084
 2234TIP3   OH2 6665   0.645   3.302   1.060
 2234TIP3    H1 6666   0.631   3.283   0.968
 2234TIP3    H2 6667   0.557   3.312   1.096
 2235TIP3   OH2 6668   1.833   5.553   5.348
 2235TIP3    H1 6669   1.799   5.486   5.290
 2235TIP3    H2 6670   1.770   5.556   5.420
 2236TIP3   OH2 6671   4.920   6.443   5.472
 2236TIP3    H1 6672   4.888   6.390   5.545
 2236TIP3    H2 6673   4.930   6.531   5.509
 2237TIP3   OH2 6674   6.315   0.258   5.500
 2237TIP3    H1 6675   6.377   0.186   5.508
 2237TIP3    H2 6676   6.266   0.239   5.420
 2238TIP3   OH2 6677   1.704   3.791   2.477
 2238TIP3    H1 6678   1.730   3.792   2.569
 2238TIP3    H2 6679   1.744   3.712   2.442
 2239TIP3   OH2 6680   2.454   5.659   5.905
 2239TIP3    H1 6681   2.383   5.696   5.851
 2239TIP3    H2 6682   2.476   5.729   5.967
 2240TIP3   OH2 6683   5.271   4.151   1.221
 2240TIP3    H1 6684   5.187   4.187   1.190
 2240TIP3    H2 6685   5.284   4.072   1.168
 2241TIP3   OH2 6686   2.688   1.924   0.253
 2241TIP3    H1 6687   2.617   1.862   0.243
 2241TIP3    H2 6688   2.752   1.879   0.308
 2242TIP3   OH2 6689   4.672   2.548   2.594
 2242TIP3    H1 6690   4.638   2.600   2.521
 2242TIP3    H2 6691   4.746   2.499   2.557
 2243TIP3   OH2 6692   2.867   5.549   2.138
 2243TIP3    H1 6693   2.950   5.590   2.162
 2243TIP3    H2 6694   2.816   5.619   2.098
 2244TIP3   OH2 6695   5.512   1.592   0.254
 2244TIP3    H1 6696   5.442   1.653   0.233
 2244TIP3    H2 6697   5.502   1.520   0.192
 2245TIP3   OH2 6698   6.055   6.064   2.909
 2245TIP3    H1 6699   6.125   6.056   2.845
 2245TIP3    H2 6700   5.989   6.000   2.882
 2246TIP3   OH2 6701   3.913   5.621   4.800
 2246TIP3    H1 6702   3.914   5.533   4.762
 2246TIP3    H2 6703   3.847   5.668   4.749
 2247TIP3   OH2 6704   0.203   1.590   3.637
 2247TIP3    H1 6705   0.126   1.596   3.694
 2247TIP3    H2 6706   0.251   1.671   3.653
 2248TIP3   OH2 6707   7.029   3.474   0.530
 2248TIP3    H1 6708   7.033   3.385   0.494
 2248TIP3    H2 6709   7.050   3.531   0.456
 2249TIP3   OH2 6710   6.812   5.105   4.081
 2249TIP3    H1 6711   6.875   5.058   4.026
 2249TIP3    H2 6712   6.751   5.144   4.018
 2250TIP3   OH2 6713   2.013   4.121   2.199
 2250TIP3    H1 6714   2.027   4.049   2.137
 2250TIP3    H2 6715   2.016   4.080   2.285
 2251TIP3   OH2 6716   2.784   3.278   4.412
 2251TIP3    H1 6717   2.875   3.266   4.386
 2251TIP3    H2 6718   2.744   3.325   4.338
 2252TIP3   OH2 6719   4.702   0.362   4.569
 2252TIP3    H1 6720   4.766   0.327   4.631
 2252TIP3    H2 6721   4.692   0.294   4.502
 2253TIP3   OH2 6722   6.691   1.608   4.508
 2253TIP3    H1 6723   6.656   1.528   4.470
 2253TIP3    H2 6724   6.633   1.677   4.475
 2254TIP3   OH2 6725   5.113   6.405   1.088
 2254TIP3    H1 6726   5.133   6.414   0.995
 2254TIP3    H2 6727   5.150   6.483   1.129
 2255TIP3   OH2 6728   1.123   2.312   4.968
 2255TIP3    H1 6729   1.195   2.292   5.028
 2255TIP3    H2 6730   1.161   2.306   4.881
 2256TIP3   OH2 6731   2.459   1.605   2.781
 2256TIP3    H1 6732   2.452   1.568   2.693
 2256TIP3    H2 6733   2.541   1.654   2.780
 2257TIP3   OH2 6734   2.167   0.248   3.249
 2257TIP3    H1 6735   2.249   0.261   3.202
 2257TIP3    H2 6736   2.155   0.153   3.252
 2258TIP3   OH2 6737   3.438   0.996   0.113
 2258TIP3    H1 6738   3.343   0.988   0.110
 2258TIP3    H2 6739   3.459   1.006   0.206
 2259TIP3   OH2 6740   6.597   4.094   4.078
 2259TIP3    H1 6741   6.580   4.006   4.046
 2259TIP3    H2 6742   6.677   4.122   4.033
 2260TIP3   OH2 6743   4.801   0.370   2.320
 2260TIP3    H1 6744   4.869   0.330   2.266
 2260TIP3    H2 6745   4.727   0.381   2.261
 2261TIP3   OH2 6746   3.617   2.019   2.582
 2261TIP3    H1 6747   3.573   2.093   2.624
 2261TIP3    H2 6748   3.680   1.988   2.647
 2262TIP3   OH2 6749   0.126   6.099   3.784
 2262TIP3    H1 6750   0.163   6.021   3.745
 2262TIP3    H2 6751   0.201   6.154   3.805
 2263TIP3   OH2 6752   0.567   2.061   3.465
 2263TIP3    H1 6753   0.643   2.105   3.502
 2263TIP3    H2 6754   0.600   2.013   3.390
 2264TIP3   OH2 6755   6.290   6.290   4.608
 2264TIP3    H1 6756   6.197   6.269   4.604
 2264TIP3    H2 6757   6.332   6.224   4.553
 2265TIP3   OH2 6758   3.677   2.788   1.949
 2265TIP3    H1 6759   3.770   2.769   1.952
 2265TIP3    H2 6760   3.668   2.854   1.881
 2266TIP3   OH2 6761   3.326   3.104   4.034
 2266TIP3    H1 6762   3.310   3.075   3.944
 2266TIP3    H2 6763   3.402   3.054   4.063
 2267TIP3   OH2 6764   6.891   5.516   2.530
 2267TIP3    H1 6765   6.814   5.567   2.553
 2267TIP3    H2 6766   6.898   5.524   2.435
 2268TIP3   OH2 6767   2.525   5.463   3.370
 2268TIP3    H1 6768   2.473   5.484   3.448
 2268TIP3    H2 6769   2.597   5.526   3.372
 2269TIP3   OH2 6770   7.171   3.437   1.475
 2269TIP3    H1 6771   7.228   3.484   1.414
 2269TIP3    H2 6772   7.094   3.412   1.424
 2270TIP3   OH2 6773   3.917   5.309   4.984
 2270TIP3    H1 6774   3.905   5.287   5.076
 2270TIP3    H2 6775   3.851   5.258   4.938
 2271TIP3   OH2 6776   0.116   6.421   0.667
 2271TIP3    H1 6777   0.182   6.387   0.606
 2271TIP3    H2 6778   0.050   6.461   0.610
 2272TIP3   OH2 6779   6.330   3.660   2.419
 2272TIP3    H1 6780   6.382   3.731   2.382
 2272TIP3    H2 6781   6.241   3.677   2.390
 2273TIP3   OH2 6782   2.538   3.892   2.143
 2273TIP3    H1 6783   2.450   3.923   2.125
 2273TIP3    H2 6784   2.594   3.968   2.131
 2274TIP3   OH2 6785   5.272   3.290   3.117
 2274TIP3    H1 6786   5.223   3.226   3.066
 2274TIP3    H2 6787   5.331   3.331   3.053
 2275TIP3   OH2 6788   2.236   5.849   5.251
 2275TIP3    H1 6789   2.160   5.833   5.307
 2275TIP3    H2 6790   2.312   5.836   5.309
 2276TIP3   OH2 6791   0.298   0.272   0.441
 2276TIP3    H1 6792   0.371   0.234   0.490
 2276TIP3    H2 6793   0.302   0.230   0.355
 2277TIP3   OH2 6794   0.263   4.063   3.411
 2277TIP3    H1 6795   0.264   4.136   3.474
 2277TIP3    H2 6796   0.336   4.007   3.439
 2278TIP3   OH2 6797   3.841   1.544   4.162
 2278TIP3    H1 6798   3.817   1.482   4.231
 2278TIP3    H2 6799   3.866   1.624   4.208
 2279TIP3   OH2 6800   4.516   0.498   2.949
 2279TIP3    H1 6801   4.552   0.586   2.943
 2279TIP3    H2 6802   4.579   0.443   2.902
 2280TIP3   OH2 6803   2.253   6.143   4.625
 2280TIP3    H1 6804   2.306   6.081   4.675
 2280TIP3    H2 6805   2.266   6.116   4.533
 2281TIP3   OH2 6806   1.120   4.347   1.571
 2281TIP3    H1 6807   1.113   4.253   1.586
 2281TIP3    H2 6808   1.206   4.371   1.605
 2282TIP3   OH2 6809   0.823   0.411   2.104
 2282TIP3    H1 6810   0.890   0.373   2.161
 2282TIP3    H2 6811   0.741   0.399   2.152
 2283TIP3   OH2 6812   2.110   6.274   3.671
 2283TIP3    H1 6813   2.101   6.190   3.628
 2283TIP3    H2 6814   2.039   6.327   3.636
 2284TIP3   OH2 6815   3.260   2.092   3.005
 2284TIP3    H1 6816   3.245   2.026   2.937
 2284TIP3    H2 6817   3.329   2.054   3.060
 2285TIP3   OH2 6818   0.957   2.062   4.937
 2285TIP3    H1 6819   0.984   2.133   4.995
 2285TIP3    H2 6820   0.920   1.996   4.995
 2286TIP3   OH2 6821   1.343   1.832   4.474
 2286TIP3    H1 6822   1.299   1.750   4.498
 2286TIP3    H2 6823   1.435   1.815   4.489
 2287TIP3   OH2 6824   5.363   2.547   4.572
 2287TIP3    H1 6825   5.293   2.583   4.518
 2287TIP3    H2 6826   5.434   2.611   4.565
 2288TIP3   OH2 6827   0.031   2.054   0.511
 2288TIP3    H1 6828   0.063   2.025   0.597
 2288TIP3    H2 6829  -0.047   2.106   0.532
 2289TIP3   OH2 6830   6.960   3.632   3.981
 2289TIP3    H1 6831   7.012   3.638   4.061
 2289TIP3    H2 6832   6.878   3.591   4.009
 2290TIP3   OH2 6833   5.326   0.123   1.263
 2290TIP3    H1 6834   5.297   0.149   1.350
 2290TIP3    H2 6835   5.383   0.195   1.234
 2291TIP3   OH2 6836   3.111   6.449   4.331
 2291TIP3    H1 6837   3.034   6.423   4.382
 2291TIP3    H2 6838   3.179   6.465   4.397
 2292TIP3   OH2 6839   6.585   4.538   2.472
 2292TIP3    H1 6840   6.554   4.628   2.474
 2292TIP3    H2 6841   6.625   4.525   2.558
 2293TIP3   OH2 6842   1.184   3.781   1.550
 2293TIP3    H1 6843   1.146   3.852   1.499
 2293TIP3    H2 6844   1.187   3.706   1.491
 2294TIP3   OH2 6845   4.424   3.481   0.109
 2294TIP3    H1 6846   4.457   3.396   0.081
 2294TIP3    H2 6847   4.477   3.503   0.187
 2295TIP3   OH2 6848   1.297   2.069   4.560
 2295TIP3    H1 6849   1.235   2.042   4.628
 2295TIP3    H2 6850   1.307   1.992   4.504
 2296TIP3   OH2 6851   5.468   3.248   0.164
 2296TIP3    H1 6852   5.486   3.226   0.072
 2296TIP3    H2 6853   5.374   3.235   0.173
 2297TIP3   OH2 6854   5.414   5.365   3.921
 2297TIP3    H1 6855   5.383   5.310   3.850
 2297TIP3    H2 6856   5.509   5.369   3.908
 2298TIP3   OH2 6857   6.650   1.370   3.427
 2298TIP3    H1 6858   6.595   1.401   3.355
 2298TIP3    H2 6859   6.625   1.279   3.438
 2299TIP3   OH2 6860   3.020   2.101   1.504
 2299TIP3    H1 6861   2.997   2.009   1.492
 2299TIP3    H2 6862   2.965   2.148   1.442
 2300TIP3   OH2 6863   1.962   0.686   2.652
 2300TIP3    H1 6864   1.951   0.704   2.746
 2300TIP3    H2 6865   1.965   0.773   2.612
 2301TIP3   OH2 6866   6.663   4.642   4.969
 2301TIP3    H1 6867   6.739   4.618   5.023
 2301TIP3    H2 6868   6.645   4.733   4.991
 2302TIP3   OH2 6869   5.944   2.618   3.617
 2302TIP3    H1 6870   5.893   2.635   3.696
 2302TIP3    H2 6871   5.974   2.528   3.627
 2303TIP3   OH2 6872   3.072   4.659   2.108
 2303TIP3    H1 6873   3.086   4.753   2.115
 2303TIP3    H2 6874   3.123   4.633   2.031
 2304TIP3   OH2 6875   1.161   5.779   4.815
 2304TIP3    H1 6876   1.160   5.683   4.810
 2304TIP3    H2 6877   1.170   5.807   4.724
 2305TIP3   OH2 6878   4.193   2.398   3.727
 2305TIP3    H1 6879   4.118   2.424   3.781
 2305TIP3    H2 6880   4.206   2.306   3.747
 2306TIP3   OH2 6881   3.686   6.255   2.969
 2306TIP3    H1 6882   3.709   6.216   2.884
 2306TIP3    H2 6883   3.756   6.317   2.987
 2307TIP3   OH2 6884   1.455   0.848   5.510
 2307TIP3    H1 6885   1.541   0.819   5.539
 2307TIP3    H2 6886   1.466   0.941   5.489
 2308TIP3   OH2 6887   3.909   4.715   5.151
 2308TIP3    H1 6888   3.910   4.621   5.134
 2308TIP3    H2 6889   3.998   4.735   5.178
 2309TIP3   OH2 6890   3.394   0.652   0.479
 2309TIP3    H1 6891   3.329   0.638   0.548
 2309TIP3    H2 6892   3.343   0.686   0.405
 2310TIP3   OH2 6893   2.199   3.828   2.453
 2310TIP3    H1 6894   2.291   3.813   2.432
 2310TIP3    H2 6895   2.165   3.741   2.477
 2311TIP3   OH2 6896   6.733   5.434   2.858
 2311TIP3    H1 6897   6.809   5.461   2.808
 2311TIP3    H2 6898   6.665   5.418   2.792
 2312TIP3   OH2 6899   1.804   6.095   1.054
 2312TIP3    H1 6900   1.783   6.002   1.068
 2312TIP3    H2 6901   1.844   6.097   0.967
 2313TIP3   OH2 6902   0.651   6.343   5.061
 2313TIP3    H1 6903   0.596   6.268   5.084
 2313TIP3    H2 6904   0.653   6.397   5.140
 2314TIP3   OH2 6905   4.000   1.101   3.088
 2314TIP3    H1 6906   3.962   1.013   3.078
 2314TIP3    H2 6907   4.082   1.086   3.135
 2315TIP3   OH2 6908   5.947   6.715   1.101
 2315TIP3    H1 6909   5.878   6.696   1.165
 2315TIP3    H2 6910   5.918   6.794   1.057
 2316TIP3   OH2 6911   5.959   4.690   0.992
 2316TIP3    H1 6912   5.917   4.776   0.983
 2316TIP3    H2 6913   6.052   4.710   1.004
 2317TIP3   OH2 6914   3.081   3.385   1.835
 2317TIP3    H1 6915   2.998   3.431   1.823
 2317TIP3    H2 6916   3.099   3.344   1.751
 2318TIP3   OH2 6917   3.915   1.470  -0.017
 2318TIP3    H1 6918   3.892   1.381   0.010
 2318TIP3    H2 6919   3.984   1.496   0.043
 2319TIP3   OH2 6920   4.647   1.384   0.245
 2319TIP3    H1 6921   4.682   1.467   0.211
 2319TIP3    H2 6922   4.724   1.335   0.274
 2320TIP3   OH2 6923   2.986   0.424   0.518
 2320TIP3    H1 6924   2.965   0.517   0.510
 2320TIP3    H2 6925   3.074   0.422   0.557
 2321TIP3   OH2 6926   4.292   1.822   3.255
 2321TIP3    H1 6927   4.223   1.867   3.304
 2321TIP3    H2 6928   4.373   1.843   3.302
 2322TIP3   OH2 6929   0.938   3.564   2.550
 2322TIP3    H1 6930   0.864   3.612   2.512
 2322TIP3    H2 6931   0.930   3.578   2.644
 2323TIP3   OH2 6932   4.262   1.163   4.308
 2323TIP3    H1 6933   4.217   1.241   4.276
 2323TIP3    H2 6934   4.268   1.106   4.231
 2324TIP3   OH2 6935   5.892   0.454   0.577
 2324TIP3    H1 6936   5.949   0.392   0.532
 2324TIP3    H2 6937   5.951   0.511   0.627
 2325TIP3   OH2 6938   5.219   3.329   0.974
 2325TIP3    H1 6939   5.249   3.286   1.054
 2325TIP3    H2 6940   5.194   3.257   0.916
 2326TIP3   OH2 6941   5.536   6.506   1.277
 2326TIP3    H1 6942   5.522   6.436   1.213
 2326TIP3    H2 6943   5.467   6.570   1.258
 2327TIP3   OH2 6944   0.294   3.136   3.394
 2327TIP3    H1 6945   0.324   3.144   3.485
 2327TIP3    H2 6946   0.225   3.202   3.386
 2328TIP3   OH2 6947   0.971   2.524   5.351
 2328TIP3    H1 6948   1.038   2.460   5.376
 2328TIP3    H2 6949   1.012   2.609   5.367
 2329TIP3   OH2 6950   3.648   1.288   0.152
 2329TIP3    H1 6951   3.637   1.237   0.072
 2329TIP3    H2 6952   3.559   1.304   0.183
 2330TIP3   OH2 6953   6.810   6.640   1.981
 2330TIP3    H1 6954   6.780   6.720   2.023
 2330TIP3    H2 6955   6.878   6.606   2.039
 2331TIP3   OH2 6956   2.518   6.345   5.483
 2331TIP3    H1 6957   2.499   6.388   5.566
 2331TIP3    H2 6958   2.613   6.351   5.474
 2332TIP3   OH2 6959   6.646   5.764   1.641
 2332TIP3    H1 6960   6.631   5.848   1.684
 2332TIP3    H2 6961   6.700   5.714   1.703
 2333TIP3   OH2 6962   0.425   4.674   3.592
 2333TIP3    H1 6963   0.473   4.734   3.649
 2333TIP3    H2 6964   0.428   4.590   3.638
 2334TIP3   OH2 6965   4.187  -0.036   1.015
 2334TIP3    H1 6966   4.244  -0.114   1.015
 2334TIP3    H2 6967   4.244   0.035   1.043
 2335TIP3   OH2 6968   6.308   3.744   1.086
 2335TIP3    H1 6969   6.335   3.707   1.002
 2335TIP3    H2 6970   6.336   3.836   1.082
 2336TIP3   OH2 6971   5.702   5.701   4.207
 2336TIP3    H1 6972   5.660   5.784   4.230
 2336TIP3    H2 6973   5.733   5.714   4.118
 2337TIP3   OH2 6974   3.118   3.033   1.982
 2337TIP3    H1 6975   3.148   2.976   2.053
 2337TIP3    H2 6976   3.179   3.018   1.911
 2338TIP3   OH2 6977   2.990   1.403   0.717
 2338TIP3    H1 6978   2.951   1.449   0.643
 2338TIP3    H2 6979   2.952   1.444   0.795
 2339TIP3   OH2 6980   1.437   1.605   0.575
 2339TIP3    H1 6981   1.365   1.591   0.637
 2339TIP3    H2 6982   1.410   1.682   0.525
 2340TIP3   OH2 6983   2.468   3.424   4.464
 2340TIP3    H1 6984   2.564   3.418   4.470
 2340TIP3    H2 6985   2.443   3.349   4.410
 2341TIP3   OH2 6986   6.482   2.541   3.372
 2341TIP3    H1 6987   6.421   2.487   3.423
 2341TIP3    H2 6988   6.568   2.499   3.385
 2342TIP3   OH2 6989   2.656   4.225   2.403
 2342TIP3    H1 6990   2.630   4.200   2.492
 2342TIP3    H2 6991   2.709   4.152   2.372
 2343TIP3   OH2 6992   2.567   4.138   3.960
 2343TIP3    H1 6993   2.478   4.107   3.975
 2343TIP3    H2 6994   2.570   4.223   4.005
 2344TIP3   OH2 6995   3.272   1.509   0.549
 2344TIP3    H1 6996   3.216   1.569   0.598
 2344TIP3    H2 6997   3.358   1.517   0.591
 2345TIP3   OH2 6998   1.657   3.967   5.919
 2345TIP3    H1 6999   1.707   3.941   5.842
 2345TIP3    H2 7000   1.588   4.024   5.885
 2346TIP3   OH2 7001   3.538   1.786   5.068
 2346TIP3    H1 7002   3.443   1.795   5.080
 2346TIP3    H2 7003   3.549   1.774   4.974
 2347TIP3   OH2 7004   5.478   0.627   0.190
 2347TIP3    H1 7005   5.542   0.564   0.156
 2347TIP3    H2 7006   5.413   0.573   0.235
 2348TIP3   OH2 7007   6.579   6.377   5.366
 2348TIP3    H1 7008   6.608   6.436   5.435
 2348TIP3    H2 7009   6.659   6.351   5.321
 2349TIP3   OH2 7010   5.501   5.583   5.643
 2349TIP3    H1 7011   5.542   5.668   5.630
 2349TIP3    H2 7012   5.440   5.573   5.570
 2350TIP3   OH2 7013   2.290   0.444   5.663
 2350TIP3    H1 7014   2.239   0.472   5.588
 2350TIP3    H2 7015   2.225   0.423   5.730
 2351TIP3   OH2 7016   3.813   1.955   1.386
 2351TIP3    H1 7017   3.855   1.952   1.472
 2351TIP3    H2 7018   3.720   1.967   1.406
 2352TIP3   OH2 7019   2.186   4.282   5.765
 2352TIP3    H1 7020   2.101   4.271   5.722
 2352TIP3    H2 7021   2.181   4.370   5.803
 2353TIP3   OH2 7022   5.776   5.872   3.117
 2353TIP3    H1 7023   5.831   5.902   3.044
 2353TIP3    H2 7024   5.701   5.831   3.075
 2354TIP3   OH2 7025   2.244   1.747   1.643
 2354TIP3    H1 7026   2.199   1.754   1.559
 2354TIP3    H2 7027   2.289   1.663   1.641
 2355TIP3   OH2 7028   0.436   3.691   2.428
 2355TIP3    H1 7029   0.388   3.696   2.346
 2355TIP3    H2 7030   0.509   3.632   2.410
 2356TIP3   OH2 7031   5.701   0.572  -0.001
 2356TIP3    H1 7032   5.778   0.525   0.033
 2356TIP3    H2 7033   5.735   0.658  -0.026
 2357TIP3   OH2 7034   0.792   2.539   1.653
 2357TIP3    H1 7035   0.811   2.451   1.687
 2357TIP3    H2 7036   0.878   2.579   1.640
 2358TIP3   OH2 7037   1.196   2.196   1.074
 2358TIP3    H1 7038   1.137   2.251   1.126
 2358TIP3    H2 7039   1.141   2.163   1.003
 2359TIP3   OH2 7040   3.091   5.574   0.757
 2359TIP3    H1 7041   3.053   5.593   0.671
 2359TIP3    H2 7042   3.184   5.596   0.748
 2360TIP3   OH2 7043   6.223   6.403   0.092
 2360TIP3    H1 7044   6.169   6.448   0.158
 2360TIP3    H2 7045   6.204   6.310   0.106
 2361TIP3   OH2 7046   0.862   6.004   4.001
 2361TIP3    H1 7047   0.812   6.068   3.949
 2361TIP3    H2 7048   0.801   5.932   4.015
 2362TIP3   OH2 7049   7.192   5.562   2.673
 2362TIP3    H1 7050   7.101   5.541   2.651
 2362TIP3    H2 7051   7.225   5.483   2.716
 2363TIP3   OH2 7052   2.312   5.630   5.124
 2363TIP3    H1 7053   2.298   5.713   5.171
 2363TIP3    H2 7054   2.280   5.648   5.035
 2364TIP3   OH2 7055   2.664   0.674   2.381
 2364TIP3    H1 7056   2.682   0.768   2.380
 2364TIP3    H2 7057   2.748   0.634   2.405
 2365TIP3   OH2 7058   4.266   5.087   3.631
 2365TIP3    H1 7059   4.187   5.127   3.594
 2365TIP3    H2 7060   4.238   5.051   3.715
 2366TIP3   OH2 7061   6.243   6.701   2.729
 2366TIP3    H1 7062   6.333   6.731   2.712
 2366TIP3    H2 7063   6.198   6.712   2.645
 2367TIP3   OH2 7064   0.696   4.839   2.230
 2367TIP3    H1 7065   0.683   4.854   2.324
 2367TIP3    H2 7066   0.642   4.905   2.188
 2368TIP3   OH2 7067   5.240   4.095   0.895
 2368TIP3    H1 7068   5.166   4.122   0.842
 2368TIP3    H2 7069   5.212   4.014   0.937
 2369TIP3   OH2 7070   6.747   0.462   3.320
 2369TIP3    H1 7071   6.703   0.394   3.371
 2369TIP3    H2 7072   6.740   0.541   3.375
 2370TIP3   OH2 7073   0.577   6.429   3.305
 2370TIP3    H1 7074   0.521   6.464   3.375
 2370TIP3    H2 7075   0.584   6.336   3.324
 2371TIP3   OH2 7076   1.143   5.319   2.385
 2371TIP3    H1 7077   1.144   5.302   2.290
 2371TIP3    H2 7078   1.062   5.279   2.415
 2372TIP3   OH2 7079   1.378   4.384   2.122
 2372TIP3    H1 7080   1.378   4.303   2.070
 2372TIP3    H2 7081   1.470   4.409   2.125
 2373TIP3   OH2 7082   3.182   1.684   0.803
 2373TIP3    H1 7083   3.193   1.778   0.818
 2373TIP3    H2 7084   3.174   1.647   0.891
 2374TIP3   OH2 7085   6.376   1.370   4.800
 2374TIP3    H1 7086   6.405   1.303   4.738
 2374TIP3    H2 7087   6.310   1.326   4.854
 2375TIP3   OH2 7088   4.451   5.678   3.988
 2375TIP3    H1 7089   4.512   5.727   3.932
 2375TIP3    H2 7090   4.507   5.630   4.049
 2376TIP3   OH2 7091   5.197   2.042   5.472
 2376TIP3    H1 7092   5.118   2.094   5.485
 2376TIP3    H2 7093   5.223   2.058   5.382
 2377TIP3   OH2 7094   3.648   4.150   4.688
 2377TIP3    H1 7095   3.662   4.064   4.729
 2377TIP3    H2 7096   3.579   4.134   4.624
 2378TIP3   OH2 7097   3.697   5.146   2.389
 2378TIP3    H1 7098   3.608   5.136   2.353
 2378TIP3    H2 7099   3.683   5.169   2.481
 2379TIP3   OH2 7100   3.875   4.347   4.083
 2379TIP3    H1 7101   3.887   4.261   4.042
 2379TIP3    H2 7102   3.796   4.382   4.042
 2380TIP3   OH2 7103   1.849   1.791   2.399
 2380TIP3    H1 7104   1.856   1.717   2.458
 2380TIP3    H2 7105   1.836   1.867   2.456
 2381TIP3   OH2 7106   6.023   1.178   3.709
 2381TIP3    H1 7107   6.017   1.181   3.614
 2381TIP3    H2 7108   5.938   1.208   3.740
 2382TIP3   OH2 7109   4.764   4.675   3.217
 2382TIP3    H1 7110   4.834   4.614   3.241
 2382TIP3    H2 7111   4.689   4.645   3.269
 2383TIP3   OH2 7112   6.327   1.989   5.194
 2383TIP3    H1 7113   6.418   1.991   5.165
 2383TIP3    H2 7114   6.282   2.052   5.137
 2384TIP3   OH2 7115   1.303   4.777   2.307
 2384TIP3    H1 7116   1.213   4.793   2.334
 2384TIP3    H2 7117   1.346   4.745   2.386
 2385TIP3   OH2 7118   7.001   3.735   4.729
 2385TIP3    H1 7119   6.999   3.828   4.753
 2385TIP3    H2 7120   7.057   3.695   4.795
 2386TIP3   OH2 7121   6.332   2.643   2.869
 2386TIP3    H1 7122   6.413   2.627   2.918
 2386TIP3    H2 7123   6.280   2.564   2.882
 2387TIP3   OH2 7124   1.971   0.311   0.196
 2387TIP3    H1 7125   1.951   0.370   0.269
 2387TIP3    H2 7126   1.901   0.328   0.133
 2388TIP3   OH2 7127   5.339   4.113   0.437
 2388TIP3    H1 7128   5.302   4.117   0.349
 2388TIP3    H2 7129   5.367   4.203   0.456
 2389TIP3   OH2 7130   3.008   0.728   5.121
 2389TIP3    H1 7131   3.012   0.739   5.216
 2389TIP3    H2 7132   3.085   0.676   5.099
 2390TIP3   OH2 7133   5.391   2.195   0.618
 2390TIP3    H1 7134   5.463   2.154   0.570
 2390TIP3    H2 7135   5.365   2.269   0.562
 2391TIP3   OH2 7136   2.771   6.413   1.625
 2391TIP3    H1 7137   2.688   6.402   1.578
 2391TIP3    H2 7138   2.805   6.324   1.636
 2392TIP3   OH2 7139   3.918   5.002   0.260
 2392TIP3    H1 7140   3.967   5.068   0.212
 2392TIP3    H2 7141   3.927   5.027   0.352
 2393TIP3   OH2 7142   6.907   1.279   1.039
 2393TIP3    H1 7143   6.815   1.295   1.018
 2393TIP3    H2 7144   6.906   1.248   1.130
 2394TIP3   OH2 7145   4.488   1.214   5.580
 2394TIP3    H1 7146   4.401   1.238   5.612
 2394TIP3    H2 7147   4.478   1.125   5.546
 2395TIP3   OH2 7148   4.603   4.438   5.350
 2395TIP3    H1 7149   4.529   4.499   5.347
 2395TIP3    H2 7150   4.678   4.493   5.377
 2396TIP3   OH2 7151   3.257   1.899   4.598
 2396TIP3    H1 7152   3.167   1.931   4.597
 2396TIP3    H2 7153   3.262   1.843   4.675
 2397TIP3   OH2 7154   1.400   4.339   3.377
 2397TIP3    H1 7155   1.360   4.388   3.448
 2397TIP3    H2 7156   1.460   4.278   3.420
 2398TIP3   OH2 7157   4.325   4.127   4.700
 2398TIP3    H1 7158   4.241   4.081   4.699
 2398TIP3    H2 7159   4.388   4.061   4.670
 2399TIP3   OH2 7160   5.795   6.333   1.221
 2399TIP3    H1 7161   5.811   6.341   1.127
 2399TIP3    H2 7162   5.880   6.354   1.261
 2400TIP3   OH2 7163   2.060   2.760   1.373
 2400TIP3    H1 7164   2.122   2.688   1.363
 2400TIP3    H2 7165   2.114   2.839   1.372
 2401TIP3   OH2 7166   2.964   1.564   0.126
 2401TIP3    H1 7167   3.026   1.593   0.193
 2401TIP3    H2 7168   2.897   1.516   0.175
 2402TIP3   OH2 7169   1.750   5.893   0.112
 2402TIP3    H1 7170   1.709   5.975   0.086
 2402TIP3    H2 7171   1.810   5.872   0.041
 2403TIP3   OH2 7172   7.106   6.700   2.221
 2403TIP3    H1 7173   7.155   6.683   2.302
 2403TIP3    H2 7174   7.047   6.772   2.244
 2404TIP3   OH2 7175   4.901   1.158   1.447
 2404TIP3    H1 7176   4.977   1.145   1.504
 2404TIP3    H2 7177   4.882   1.252   1.454
 2405TIP3   OH2 7178   4.730   1.955   3.572
 2405TIP3    H1 7179   4.783   1.926   3.498
 2405TIP3    H2 7180   4.760   2.044   3.590
 2406TIP3   OH2 7181   1.050   0.027   1.764
 2406TIP3    H1 7182   1.058   0.031   1.669
 2406TIP3    H2 7183   1.010  -0.057   1.782
 2407TIP3   OH2 7184   1.173   3.748   4.977
 2407TIP3    H1 7185   1.129   3.668   4.951
 2407TIP3    H2 7186   1.105   3.802   5.016
 2408TIP3   OH2 7187   2.199   1.298   4.892
 2408TIP3    H1 7188   2.291   1.293   4.917
 2408TIP3    H2 7189   2.179   1.391   4.891
 2409TIP3   OH2 7190   4.428   3.913   5.075
 2409TIP3    H1 7191   4.380   3.866   5.007
 2409TIP3    H2 7192   4.403   3.870   5.156
 2410TIP3   OH2 7193   4.683   1.017   4.704
 2410TIP3    H1 7194   4.638   1.099   4.686
 2410TIP3    H2 7195   4.617   0.950   4.689
 2411TIP3   OH2 7196   5.380   4.800   4.532
 2411TIP3    H1 7197   5.297   4.774   4.493
 2411TIP3    H2 7198   5.382   4.896   4.524
 2412TIP3   OH2 7199   5.252   3.695   3.456
 2412TIP3    H1 7200   5.256   3.741   3.372
 2412TIP3    H2 7201   5.252   3.602   3.432
 2413TIP3   OH2 7202   0.849   6.475   0.051
 2413TIP3    H1 7203   0.798   6.556   0.051
 2413TIP3    H2 7204   0.916   6.489  -0.015
 2414TIP3   OH2 7205   1.040   1.209   0.378
 2414TIP3    H1 7206   0.972   1.147   0.401
 2414TIP3    H2 7207   1.004   1.294   0.404
 2415TIP3   OH2 7208   4.245   3.507   4.464
 2415TIP3    H1 7209   4.323   3.479   4.513
 2415TIP3    H2 7210   4.243   3.450   4.387
 2416TIP3   OH2 7211   3.436   4.858   1.804
 2416TIP3    H1 7212   3.383   4.831   1.729
 2416TIP3    H2 7213   3.379   4.914   1.856
 2417TIP3   OH2 7214   7.085   4.733   5.250
 2417TIP3    H1 7215   7.104   4.654   5.199
 2417TIP3    H2 7216   7.171   4.772   5.265
 2418TIP3   OH2 7217   5.941   1.321   0.158
 2418TIP3    H1 7218   5.927   1.368   0.076
 2418TIP3    H2 7219   5.873   1.254   0.159
 2419TIP3   OH2 7220   0.834   4.868   0.844
 2419TIP3    H1 7221   0.886   4.948   0.829
 2419TIP3    H2 7222   0.882   4.821   0.911
 2420TIP3   OH2 7223   3.699   5.761   2.969
 2420TIP3    H1 7224   3.688   5.850   3.002
 2420TIP3    H2 7225   3.639   5.708   3.021
 2421TIP3   OH2 7226   6.710   4.227   5.500
 2421TIP3    H1 7227   6.773   4.279   5.550
 2421TIP3    H2 7228   6.624   4.259   5.529
 2422TIP3   OH2 7229   1.744   3.388   3.912
 2422TIP3    H1 7230   1.743   3.381   3.816
 2422TIP3    H2 7231   1.657   3.357   3.938
 2423TIP3   OH2 7232   7.153   0.568   5.034
 2423TIP3    H1 7233   7.092   0.635   5.065
 2423TIP3    H2 7234   7.165   0.588   4.941
 2424TIP3   OH2 7235   5.453   6.386   2.768
 2424TIP3    H1 7236   5.506   6.392   2.847
 2424TIP3    H2 7237   5.425   6.476   2.751
 2425TIP3   OH2 7238   4.867   1.734   2.062
 2425TIP3    H1 7239   4.829   1.648   2.046
 2425TIP3    H2 7240   4.949   1.716   2.107
 2426TIP3   OH2 7241   2.294   1.905   3.903
 2426TIP3    H1 7242   2.233   1.969   3.866
 2426TIP3    H2 7243   2.329   1.949   3.981
 2427TIP3   OH2 7244   1.821   5.225   2.781
 2427TIP3    H1 7245   1.853   5.155   2.838
 2427TIP3    H2 7246   1.746   5.186   2.735
 2428TIP3   OH2 7247   0.987   4.848   2.490
 2428TIP3    H1 7248   1.002   4.940   2.471
 2428TIP3    H2 7249   1.069   4.818   2.529
 2429TIP3   OH2 7250   3.497   4.976   5.352
 2429TIP3    H1 7251   3.522   5.058   5.308
 2429TIP3    H2 7252   3.580   4.929   5.363
 2430TIP3   OH2 7253   3.911   2.494   2.722
 2430TIP3    H1 7254   3.861   2.534   2.651
 2430TIP3    H2 7255   3.994   2.468   2.682
 2431TIP3   OH2 7256   6.485   3.960   1.464
 2431TIP3    H1 7257   6.557   3.971   1.527
 2431TIP3    H2 7258   6.524   3.911   1.391
 2432TIP3   OH2 7259   0.511   0.289   3.539
 2432TIP3    H1 7260   0.437   0.314   3.483
 2432TIP3    H2 7261   0.582   0.348   3.512
 2433TIP3   OH2 7262   4.963   0.906   2.531
 2433TIP3    H1 7263   4.990   0.866   2.448
 2433TIP3    H2 7264   4.898   0.845   2.566
 2434TIP3   OH2 7265   4.356   4.746   3.107
 2434TIP3    H1 7266   4.317   4.832   3.098
 2434TIP3    H2 7267   4.313   4.707   3.183
 2435TIP3   OH2 7268   1.676   2.561   2.537
 2435TIP3    H1 7269   1.752   2.544   2.593
 2435TIP3    H2 7270   1.666   2.480   2.486
 2436TIP3   OH2 7271   0.328   1.462   5.772
 2436TIP3    H1 7272   0.242   1.422   5.782
 2436TIP3    H2 7273   0.327   1.539   5.829
 2437TIP3   OH2 7274   1.312   5.995   2.765
 2437TIP3    H1 7275   1.303   5.943   2.685
 2437TIP3    H2 7276   1.317   6.086   2.734
 2438TIP3   OH2 7277   4.224   6.111   4.386
 2438TIP3    H1 7278   4.291   6.069   4.331
 2438TIP3    H2 7279   4.141   6.092   4.341
 2439TIP3   OH2 7280   1.845   4.721   4.248
 2439TIP3    H1 7281   1.872   4.659   4.181
 2439TIP3    H2 7282   1.756   4.746   4.223
 2440TIP3   OH2 7283   4.770   1.922   4.780
 2440TIP3    H1 7284   4.729   1.852   4.831
 2440TIP3    H2 7285   4.710   1.996   4.789
 2441TIP3   OH2 7286   2.761   4.815   4.446
 2441TIP3    H1 7287   2.819   4.813   4.370
 2441TIP3    H2 7288   2.815   4.780   4.517
 2442TIP3   OH2 7289   1.703   5.494   0.492
 2442TIP3    H1 7290   1.610   5.500   0.472
 2442TIP3    H2 7291   1.731   5.412   0.450
 2443TIP3   OH2 7292   7.142   4.321   4.128
 2443TIP3    H1 7293   7.170   4.240   4.170
 2443TIP3    H2 7294   7.150   4.305   4.034
 2444TIP3   OH2 7295   6.949   0.833   4.649
 2444TIP3    H1 7296   6.914   0.801   4.566
 2444TIP3    H2 7297   7.040   0.855   4.629
 2445TIP3   OH2 7298   3.449   0.459   0.288
 2445TIP3    H1 7299   3.451   0.538   0.342
 2445TIP3    H2 7300   3.480   0.488   0.202
 2446TIP3   OH2 7301   6.034   1.180   4.450
 2446TIP3    H1 7302   6.043   1.273   4.431
 2446TIP3    H2 7303   5.940   1.166   4.456
 2447TIP3   OH2 7304   2.299   4.679   5.494
 2447TIP3    H1 7305   2.264   4.757   5.453
 2447TIP3    H2 7306   2.284   4.609   5.430
 2448TIP3   OH2 7307   5.894   4.219   3.370
 2448TIP3    H1 7308   5.819   4.167   3.399
 2448TIP3    H2 7309   5.882   4.304   3.413
 2449TIP3   OH2 7310   0.809   5.637   1.742
 2449TIP3    H1 7311   0.809   5.543   1.725
 2449TIP3    H2 7312   0.799   5.677   1.655
 2450TIP3   OH2 7313   2.445   4.257   2.588
 2450TIP3    H1 7314   2.429   4.265   2.494
 2450TIP3    H2 7315   2.374   4.307   2.628
 2451TIP3   OH2 7316   7.051   5.780   3.895
 2451TIP3    H1 7317   7.057   5.755   3.987
 2451TIP3    H2 7318   7.142   5.784   3.866
 2452TIP3   OH2 7319   5.204   3.181   1.207
 2452TIP3    H1 7320   5.296   3.189   1.232
 2452TIP3    H2 7321   5.179   3.092   1.230
 2453TIP3   OH2 7322   0.263   2.463   2.958
 2453TIP3    H1 7323   0.224   2.398   3.016
 2453TIP3    H2 7324   0.292   2.533   3.017
 2454TIP3   OH2 7325   5.375   1.497   5.055
 2454TIP3    H1 7326   5.439   1.426   5.053
 2454TIP3    H2 7327   5.404   1.557   4.986
 2455TIP3   OH2 7328   3.624   1.274   0.597
 2455TIP3    H1 7329   3.574   1.258   0.677
 2455TIP3    H2 7330   3.709   1.307   0.628
 2456TIP3   OH2 7331   0.817   0.169   3.429
 2456TIP3    H1 7332   0.807   0.214   3.513
 2456TIP3    H2 7333   0.740   0.195   3.378
 2457TIP3   OH2 7334   1.159   6.618   3.410
 2457TIP3    H1 7335   1.092   6.549   3.409
 2457TIP3    H2 7336   1.138   6.669   3.488
 2458TIP3   OH2 7337   3.992   0.838   5.644
 2458TIP3    H1 7338   4.047   0.910   5.675
 2458TIP3    H2 7339   3.925   0.829   5.711
 2459TIP3   OH2 7340   5.636   1.003   3.764
 2459TIP3    H1 7341   5.561   0.976   3.817
 2459TIP3    H2 7342   5.704   0.938   3.784
 2460TIP3   OH2 7343   6.670   2.883   3.743
 2460TIP3    H1 7344   6.764   2.895   3.748
 2460TIP3    H2 7345   6.644   2.855   3.831
 2461TIP3   OH2 7346   3.290   0.273   1.438
 2461TIP3    H1 7347   3.288   0.324   1.357
 2461TIP3    H2 7348   3.382   0.251   1.451
 2462TIP3   OH2 7349   1.634   3.558   4.743
 2462TIP3    H1 7350   1.562   3.607   4.703
 2462TIP3    H2 7351   1.637   3.475   4.695
 2463TIP3   OH2 7352   4.121   4.914   5.496
 2463TIP3    H1 7353   4.081   4.859   5.563
 2463TIP3    H2 7354   4.049   4.934   5.435
 2464TIP3   OH2 7355   2.052   5.356   3.306
 2464TIP3    H1 7356   1.963   5.380   3.283
 2464TIP3    H2 7357   2.044   5.271   3.349
 2465TIP3   OH2 7358   0.002   5.202   3.007
 2465TIP3    H1 7359   0.005   5.226   3.100
 2465TIP3    H2 7360   0.032   5.281   2.961
 2466TIP3   OH2 7361   6.452   3.016   3.635
 2466TIP3    H1 7362   6.535   2.994   3.677
 2466TIP3    H2 7363   6.388   3.016   3.706
 2467TIP3   OH2 7364   1.640   4.203   1.675
 2467TIP3    H1 7365   1.615   4.253   1.752
 2467TIP3    H2 7366   1.736   4.207   1.674
 2468TIP3   OH2 7367   4.120   4.071   2.082
 2468TIP3    H1 7368   4.035   4.115   2.076
 2468TIP3    H2 7369   4.161   4.106   2.161
 2469TIP3   OH2 7370   2.982   3.290   4.078
 2469TIP3    H1 7371   3.005   3.302   4.170
 2469TIP3    H2 7372   2.969   3.196   4.068
 2470TIP3   OH2 7373   0.559   6.440   5.303
 2470TIP3    H1 7374   0.584   6.386   5.378
 2470TIP3    H2 7375   0.464   6.446   5.309
 2471TIP3   OH2 7376   6.706   2.201   2.548
 2471TIP3    H1 7377   6.746   2.158   2.623
 2471TIP3    H2 7378   6.775   2.255   2.511
 2472TIP3   OH2 7379   5.144   4.004   2.041
 2472TIP3    H1 7380   5.161   3.915   2.074
 2472TIP3    H2 7381   5.071   4.035   2.095
 2473TIP3   OH2 7382   5.569   3.142   3.491
 2473TIP3    H1 7383   5.599   3.055   3.516
 2473TIP3    H2 7384   5.506   3.166   3.559
 2474TIP3   OH2 7385   3.291   6.622   1.047
 2474TIP3    H1 7386   3.321   6.682   1.115
 2474TIP3    H2 7387   3.243   6.553   1.094
 2475TIP3   OH2 7388   6.587   3.255   2.945
 2475TIP3    H1 7389   6.629   3.339   2.924
 2475TIP3    H2 7390   6.544   3.228   2.864
 2476TIP3   OH2 7391   0.602   0.557   0.030
 2476TIP3    H1 7392   0.604   0.564  -0.065
 2476TIP3    H2 7393   0.616   0.647   0.061
 2477TIP3   OH2 7394   2.106   3.735   0.219
 2477TIP3    H1 7395   2.104   3.640   0.207
 2477TIP3    H2 7396   2.019   3.765   0.193
 2478TIP3   OH2 7397   3.154   1.242   1.007
 2478TIP3    H1 7398   3.096   1.302   1.053
 2478TIP3    H2 7399   3.097   1.172   0.976
 2479TIP3   OH2 7400   0.263   3.887   1.153
 2479TIP3    H1 7401   0.246   3.860   1.063
 2479TIP3    H2 7402   0.177   3.885   1.195
 2480TIP3   OH2 7403   1.615   1.539   0.113
 2480TIP3    H1 7404   1.649   1.538   0.202
 2480TIP3    H2 7405   1.679   1.488   0.062
 2481TIP3   OH2 7406   2.635   5.099   3.353
 2481TIP3    H1 7407   2.563   5.116   3.293
 2481TIP3    H2 7408   2.607   5.136   3.436
 2482TIP3   OH2 7409   6.383   1.668   4.725
 2482TIP3    H1 7410   6.334   1.677   4.643
 2482TIP3    H2 7411   6.374   1.754   4.767
 2483TIP3   OH2 7412   0.815   6.027   5.076
 2483TIP3    H1 7413   0.782   5.972   5.006
 2483TIP3    H2 7414   0.794   6.116   5.048
 2484TIP3   OH2 7415   1.627   3.017   4.010
 2484TIP3    H1 7416   1.546   2.966   4.011
 2484TIP3    H2 7417   1.608   3.092   3.953
 2485TIP3   OH2 7418   6.923   1.973   0.610
 2485TIP3    H1 7419   6.889   2.063   0.606
 2485TIP3    H2 7420   6.997   1.978   0.671
 2486TIP3   OH2 7421   2.130   5.562   1.972
 2486TIP3    H1 7422   2.211   5.574   1.922
 2486TIP3    H2 7423   2.148   5.603   2.057
 2487TIP3   OH2 7424   6.492   3.211   2.684
 2487TIP3    H1 7425   6.409   3.170   2.709
 2487TIP3    H2 7426   6.469   3.301   2.661
 2488TIP3   OH2 7427   5.505   2.792   5.571
 2488TIP3    H1 7428   5.439   2.848   5.612
 2488TIP3    H2 7429   5.497   2.811   5.477
 2489TIP3   OH2 7430   6.194   5.214   2.980
 2489TIP3    H1 7431   6.234   5.154   2.918
 2489TIP3    H2 7432   6.206   5.301   2.941
 2490TIP3   OH2 7433   5.716   5.433   3.951
 2490TIP3    H1 7434   5.704   5.343   3.980
 2490TIP3    H2 7435   5.797   5.462   3.993
 2491TIP3   OH2 7436   5.835   6.220   0.343
 2491TIP3    H1 7437   5.836   6.247   0.251
 2491TIP3    H2 7438   5.917   6.171   0.354
 2492TIP3   OH2 7439   6.973   6.246   0.219
 2492TIP3    H1 7440   6.984   6.207   0.306
 2492TIP3    H2 7441   6.889   6.292   0.224
 2493TIP3   OH2 7442   0.949   3.827   5.505
 2493TIP3    H1 7443   1.000   3.899   5.543
 2493TIP3    H2 7444   1.015   3.768   5.468
 2494TIP3   OH2 7445   4.220   0.953   3.293
 2494TIP3    H1 7446   4.165   0.946   3.371
 2494TIP3    H2 7447   4.262   0.867   3.285
 2495TIP3   OH2 7448   0.772   4.404   0.184
 2495TIP3    H1 7449   0.865   4.404   0.159
 2495TIP3    H2 7450   0.754   4.494   0.210
 2496TIP3   OH2 7451   4.981   3.732   0.342
 2496TIP3    H1 7452   5.076   3.732   0.354
 2496TIP3    H2 7453   4.946   3.705   0.427
 2497TIP3   OH2 7454   0.781   6.234   0.111
 2497TIP3    H1 7455   0.685   6.243   0.110
 2497TIP3    H2 7456   0.813   6.322   0.091
 2498TIP3   OH2 7457   6.262   4.140   4.543
 2498TIP3    H1 7458   6.321   4.095   4.482
 2498TIP3    H2 7459   6.292   4.232   4.541
 2499TIP3   OH2 7460   0.134   0.375   2.944
 2499TIP3    H1 7461   0.209   0.347   2.997
 2499TIP3    H2 7462   0.148   0.333   2.859
 2500TIP3   OH2 7463   2.597   6.306   3.286
 2500TIP3    H1 7464   2.640   6.388   3.312
 2500TIP3    H2 7465   2.504   6.329   3.282
 2501TIP3   OH2 7466   7.207   5.038   4.638
 2501TIP3    H1 7467   7.202   5.047   4.543
 2501TIP3    H2 7468   7.192   4.945   4.654
 2502TIP3   OH2 7469   6.902   6.212   1.199
 2502TIP3    H1 7470   6.875   6.123   1.175
 2502TIP3    H2 7471   6.941   6.203   1.285
 2503TIP3   OH2 7472   2.091   1.230   5.581
 2503TIP3    H1 7473   2.054   1.294   5.641
 2503TIP3    H2 7474   2.093   1.148   5.632
 2504TIP3   OH2 7475   5.261   5.672   5.030
 2504TIP3    H1 7476   5.220   5.753   4.998
 2504TIP3    H2 7477   5.292   5.629   4.950
 2505TIP3   OH2 7478   6.961   4.932   3.895
 2505TIP3    H1 7479   6.912   4.853   3.872
 2505TIP3    H2 7480   7.040   4.899   3.938
 2506TIP3   OH2 7481   5.550   0.602   2.831
 2506TIP3    H1 7482   5.596   0.684   2.812
 2506TIP3    H2 7483   5.513   0.575   2.746
 2507TIP3   OH2 7484   6.156   2.737   2.235
 2507TIP3    H1 7485   6.092   2.741   2.164
 2507TIP3    H2 7486   6.196   2.824   2.236
 2508TIP3   OH2 7487   0.377   3.204   1.090
 2508TIP3    H1 7488   0.316   3.141   1.130
 2508TIP3    H2 7489   0.327   3.286   1.085
 2509TIP3   OH2 7490   4.246   4.672   4.843
 2509TIP3    H1 7491   4.226   4.644   4.932
 2509TIP3    H2 7492   4.276   4.592   4.799
 2510TIP3   OH2 7493   5.677   6.618   5.033
 2510TIP3    H1 7494   5.717   6.633   4.947
 2510TIP3    H2 7495   5.749   6.593   5.090
 2511TIP3   OH2 7496   2.989   5.579   2.484
 2511TIP3    H1 7497   2.899   5.594   2.514
 2511TIP3    H2 7498   2.991   5.616   2.396
 2512TIP3   OH2 7499   6.109   0.910   1.579
 2512TIP3    H1 7500   6.101   0.817   1.558
 2512TIP3    H2 7501   6.057   0.921   1.659
 2513TIP3   OH2 7502   0.589   1.128   4.226
 2513TIP3    H1 7503   0.665   1.180   4.199
 2513TIP3    H2 7504   0.529   1.133   4.152
 2514TIP3   OH2 7505   4.910   1.504   0.942
 2514TIP3    H1 7506   4.852   1.580   0.946
 2514TIP3    H2 7507   4.896   1.459   1.025
 2515TIP3   OH2 7508   6.865   0.248   2.637
 2515TIP3    H1 7509   6.855   0.238   2.542
 2515TIP3    H2 7510   6.780   0.220   2.673
 2516TIP3   OH2 7511   2.012   1.199   0.139
 2516TIP3    H1 7512   2.049   1.210   0.227
 2516TIP3    H2 7513   2.085   1.166   0.087
 2517TIP3   OH2 7514   3.891   0.234   4.072
 2517TIP3    H1 7515   3.970   0.271   4.032
 2517TIP3    H2 7516   3.903   0.140   4.065
 2518TIP3   OH2 7517   7.176   1.568   5.037
 2518TIP3    H1 7518   7.174   1.651   5.084
 2518TIP3    H2 7519   7.210   1.505   5.101
 2519TIP3   OH2 7520   4.261   2.286   1.846
 2519TIP3    H1 7521   4.349   2.270   1.880
 2519TIP3    H2 7522   4.266   2.372   1.805
 2520TIP3   OH2 7523   6.707   0.815   2.260
 2520TIP3    H1 7524   6.722   0.868   2.339
 2520TIP3    H2 7525   6.791   0.816   2.215
 2521TIP3   OH2 7526   3.417   4.159   2.252
 2521TIP3    H1 7527   3.393   4.073   2.285
 2521TIP3    H2 7528   3.334   4.205   2.242
 2522TIP3   OH2 7529   2.142   2.082   0.111
 2522TIP3    H1 7530   2.219   2.046   0.155
 2522TIP3    H2 7531   2.122   2.163   0.158
 2523TIP3   OH2 7532   2.815   1.790   0.496
 2523TIP3    H1 7533   2.886   1.836   0.451
 2523TIP3    H2 7534   2.742   1.852   0.496
 2524TIP3   OH2 7535   6.348   4.737   1.555
 2524TIP3    H1 7536   6.264   4.773   1.526
 2524TIP3    H2 7537   6.405   4.744   1.479
 2525TIP3   OH2 7538   1.809   5.423   4.860
 2525TIP3    H1 7539   1.877   5.460   4.803
 2525TIP3    H2 7540   1.799   5.333   4.830
 2526TIP3   OH2 7541   0.656   3.229   3.845
 2526TIP3    H1 7542   0.642   3.282   3.766
 2526TIP3    H2 7543   0.739   3.261   3.881
 2527TIP3   OH2 7544   5.031   1.704   0.360
 2527TIP3    H1 7545   5.025   1.718   0.454
 2527TIP3    H2 7546   5.007   1.613   0.347
 2528TIP3   OH2 7547   0.245   6.237   3.140
 2528TIP3    H1 7548   0.226   6.161   3.195
 2528TIP3    H2 7549   0.340   6.235   3.128
 2529TIP3   OH2 7550   3.034   5.963   2.817
 2529TIP3    H1 7551   3.058   5.873   2.839
 2529TIP3    H2 7552   3.000   5.957   2.727
 2530TIP3   OH2 7553   7.136   3.595   4.205
 2530TIP3    H1 7554   7.182   3.511   4.213
 2530TIP3    H2 7555   7.146   3.636   4.291
 2531TIP3   OH2 7556   4.704   0.717   0.826
 2531TIP3    H1 7557   4.664   0.797   0.792
 2531TIP3    H2 7558   4.740   0.674   0.749
 2532TIP3   OH2 7559   7.025   3.472   3.331
 2532TIP3    H1 7560   6.974   3.455   3.410
 2532TIP3    H2 7561   6.964   3.457   3.259
 2533TIP3   OH2 7562   1.525   1.122   5.406
 2533TIP3    H1 7563   1.611   1.135   5.445
 2533TIP3    H2 7564   1.492   1.211   5.391
 2534TIP3   OH2 7565   5.448   4.401   4.103
 2534TIP3    H1 7566   5.401   4.373   4.182
 2534TIP3    H2 7567   5.463   4.321   4.054
 2535TIP3   OH2 7568   6.216   5.370   2.673
 2535TIP3    H1 7569   6.236   5.355   2.580
 2535TIP3    H2 7570   6.269   5.446   2.696
 2536TIP3   OH2 7571   0.992   5.990   5.318
 2536TIP3    H1 7572   1.035   5.910   5.289
 2536TIP3    H2 7573   0.956   6.028   5.238
 2537TIP3   OH2 7574   3.838   3.499   3.258
 2537TIP3    H1 7575   3.820   3.430   3.194
 2537TIP3    H2 7576   3.751   3.523   3.291
 2538TIP3   OH2 7577   3.245   6.731   4.866
 2538TIP3    H1 7578   3.264   6.642   4.835
 2538TIP3    H2 7579   3.329   6.762   4.902
 2539TIP3   OH2 7580   0.046   4.221   5.409
 2539TIP3    H1 7581   0.044   4.127   5.392
 2539TIP3    H2 7582   0.061   4.227   5.504
 2540TIP3   OH2 7583   2.362   2.143   4.834
 2540TIP3    H1 7584   2.337   2.065   4.883
 2540TIP3    H2 7585   2.366   2.115   4.743
 2541TIP3   OH2 7586   2.779   2.412   3.332
 2541TIP3    H1 7587   2.709   2.371   3.281
 2541TIP3    H2 7588   2.745   2.498   3.355
 2542TIP3   OH2 7589   3.007   2.152   0.244
 2542TIP3    H1 7590   2.920   2.183   0.216
 2542TIP3    H2 7591   3.046   2.228   0.287
 2543TIP3   OH2 7592   2.648   4.076   1.507
 2543TIP3    H1 7593   2.627   4.065   1.415
 2543TIP3    H2 7594   2.632   4.169   1.525
 2544TIP3   OH2 7595   2.657   0.010   0.964
 2544TIP3    H1 7596   2.676  -0.074   1.006
 2544TIP3    H2 7597   2.611   0.060   1.031
 2545TIP3   OH2 7598   1.081   4.924   1.951
 2545TIP3    H1 7599   1.160   4.888   1.911
 2545TIP3    H2 7600   1.035   4.848   1.987
 2546TIP3   OH2 7601   6.206   6.817   1.117
 2546TIP3    H1 7602   6.256   6.746   1.159
 2546TIP3    H2 7603   6.115   6.789   1.123
 2547TIP3   OH2 7604   4.251   4.729   2.207
 2547TIP3    H1 7605   4.217   4.780   2.134
 2547TIP3    H2 7606   4.185   4.661   2.221
 2548TIP3   OH2 7607   6.524   2.903   1.065
 2548TIP3    H1 7608   6.460   2.959   1.021
 2548TIP3    H2 7609   6.523   2.822   1.013
 2549TIP3   OH2 7610   5.086   2.727   5.727
 2549TIP3    H1 7611   5.142   2.676   5.667
 2549TIP3    H2 7612   5.145   2.754   5.797
 2550TIP3   OH2 7613   6.368   2.726   4.414
 2550TIP3    H1 7614   6.462   2.716   4.403
 2550TIP3    H2 7615   6.355   2.727   4.509
 2551TIP3   OH2 7616   6.404   6.111   0.002
 2551TIP3    H1 7617   6.431   6.033   0.050
 2551TIP3    H2 7618   6.324   6.139   0.045
 2552TIP3   OH2 7619   2.783   0.461   3.428
 2552TIP3    H1 7620   2.735   0.382   3.401
 2552TIP3    H2 7621   2.742   0.532   3.379
 2553TIP3   OH2 7622   2.662   3.214   0.920
 2553TIP3    H1 7623   2.718   3.267   0.864
 2553TIP3    H2 7624   2.658   3.129   0.875
 2554TIP3   OH2 7625   5.300   5.003   0.699
 2554TIP3    H1 7626   5.377   4.949   0.718
 2554TIP3    H2 7627   5.334   5.092   0.694
 2555TIP3   OH2 7628   4.739   0.770   3.883
 2555TIP3    H1 7629   4.786   0.812   3.955
 2555TIP3    H2 7630   4.806   0.717   3.839
 2556TIP3   OH2 7631   1.444   3.901   1.013
 2556TIP3    H1 7632   1.502   3.834   1.049
 2556TIP3    H2 7633   1.443   3.970   1.080
 2557TIP3   OH2 7634   4.447   5.387   5.012
 2557TIP3    H1 7635   4.435   5.298   5.047
 2557TIP3    H2 7636   4.364   5.408   4.969
 2558TIP3   OH2 7637   4.262   5.043   1.594
 2558TIP3    H1 7638   4.333   4.993   1.553
 2558TIP3    H2 7639   4.292   5.134   1.590
 2559TIP3   OH2 7640   7.092   6.219   3.623
 2559TIP3    H1 7641   7.031   6.164   3.573
 2559TIP3    H2 7642   7.153   6.156   3.662
 2560TIP3   OH2 7643   4.497   1.049   5.188
 2560TIP3    H1 7644   4.544   1.005   5.259
 2560TIP3    H2 7645   4.561   1.057   5.118
 2561TIP3   OH2 7646   1.668   4.728   5.485
 2561TIP3    H1 7647   1.734   4.746   5.418
 2561TIP3    H2 7648   1.584   4.743   5.441
 2562TIP3   OH2 7649   1.304   2.772   4.812
 2562TIP3    H1 7650   1.365   2.803   4.878
 2562TIP3    H2 7651   1.300   2.843   4.748
 2563TIP3   OH2 7652   1.223   3.694   1.021
 2563TIP3    H1 7653   1.302   3.747   1.033
 2563TIP3    H2 7654   1.214   3.686   0.926
 2564TIP3   OH2 7655   6.891   3.817   5.802
 2564TIP3    H1 7656   6.868   3.891   5.746
 2564TIP3    H2 7657   6.916   3.857   5.886
 2565TIP3   OH2 7658   2.411   4.515   2.190
 2565TIP3    H1 7659   2.404   4.505   2.095
 2565TIP3    H2 7660   2.503   4.532   2.206
 2566TIP3   OH2 7661   6.651   3.340   2.444
 2566TIP3    H1 7662   6.741   3.332   2.476
 2566TIP3    H2 7663   6.620   3.422   2.483
 2567TIP3   OH2 7664   3.232   6.373   1.179
 2567TIP3    H1 7665   3.141   6.380   1.150
 2567TIP3    H2 7666   3.226   6.376   1.275
 2568TIP3   OH2 7667   4.386   4.995   0.469
 2568TIP3    H1 7668   4.408   5.000   0.376
 2568TIP3    H2 7669   4.303   5.044   0.477
 2569TIP3   OH2 7670   0.298   3.811   2.220
 2569TIP3    H1 7671   0.261   3.894   2.189
 2569TIP3    H2 7672   0.387   3.811   2.187
 2570TIP3   OH2 7673   5.768   4.201   0.884
 2570TIP3    H1 7674   5.695   4.246   0.925
 2570TIP3    H2 7675   5.783   4.248   0.802
 2571TIP3   OH2 7676   1.697   0.592   4.743
 2571TIP3    H1 7677   1.742   0.600   4.660
 2571TIP3    H2 7678   1.730   0.665   4.796
 2572TIP3   OH2 7679   5.781   4.254   3.626
 2572TIP3    H1 7680   5.811   4.343   3.645
 2572TIP3    H2 7681   5.689   4.254   3.653
 2573TIP3   OH2 7682   2.273   1.619   3.943
 2573TIP3    H1 7683   2.178   1.602   3.945
 2573TIP3    H2 7684   2.282   1.708   3.976
 2574TIP3   OH2 7685   4.346   5.693   0.363
 2574TIP3    H1 7686   4.360   5.771   0.418
 2574TIP3    H2 7687   4.381   5.621   0.415
 2575TIP3   OH2 7688   6.327   4.032   1.792
 2575TIP3    H1 7689   6.240   3.996   1.809
 2575TIP3    H2 7690   6.386   3.975   1.841
 2576TIP3   OH2 7691   2.096   2.973   0.553
 2576TIP3    H1 7692   2.002   2.983   0.564
 2576TIP3    H2 7693   2.111   2.985   0.459
 2577TIP3   OH2 7694   1.537   4.302   3.725
 2577TIP3    H1 7695   1.608   4.323   3.785
 2577TIP3    H2 7696   1.503   4.386   3.697
 2578TIP3   OH2 7697   1.577   6.084   4.470
 2578TIP3    H1 7698   1.517   6.128   4.531
 2578TIP3    H2 7699   1.529   6.082   4.387
 2579TIP3   OH2 7700   3.239   3.410   2.235
 2579TIP3    H1 7701   3.293   3.357   2.176
 2579TIP3    H2 7702   3.151   3.373   2.226
 2580TIP3   OH2 7703   6.993   3.931   1.064
 2580TIP3    H1 7704   6.973   4.012   1.111
 2580TIP3    H2 7705   7.082   3.944   1.032
 2581TIP3   OH2 7706   2.533   1.363   4.082
 2581TIP3    H1 7707   2.467   1.384   4.015
 2581TIP3    H2 7708   2.547   1.445   4.129
 2582TIP3   OH2 7709   4.004   3.444   5.111
 2582TIP3    H1 7710   3.934   3.474   5.169
 2582TIP3    H2 7711   3.959   3.409   5.034
 2583TIP3   OH2 7712   0.622   6.106   0.449
 2583TIP3    H1 7713   0.595   6.128   0.359
 2583TIP3    H2 7714   0.685   6.174   0.473
 2584TIP3   OH2 7715   2.899   6.692   2.257
 2584TIP3    H1 7716   2.873   6.782   2.236
 2584TIP3    H2 7717   2.992   6.698   2.276
 2585TIP3   OH2 7718   2.459   6.301   1.750
 2585TIP3    H1 7719   2.453   6.374   1.812
 2585TIP3    H2 7720   2.481   6.342   1.666
 2586TIP3   OH2 7721   3.347   1.859   5.458
 2586TIP3    H1 7722   3.368   1.859   5.551
 2586TIP3    H2 7723   3.425   1.897   5.416
 2587TIP3   OH2 7724   4.040   1.967   2.954
 2587TIP3    H1 7725   4.093   2.026   3.008
 2587TIP3    H2 7726   4.101   1.899   2.925
 2588TIP3   OH2 7727   0.788   1.918   4.440
 2588TIP3    H1 7728   0.830   2.004   4.435
 2588TIP3    H2 7729   0.840   1.870   4.505
 2589TIP3   OH2 7730   0.300   6.404   0.910
 2589TIP3    H1 7731   0.247   6.440   0.839
 2589TIP3    H2 7732   0.359   6.342   0.867
 2590TIP3   OH2 7733   4.665   5.313   5.330
 2590TIP3    H1 7734   4.639   5.403   5.311
 2590TIP3    H2 7735   4.609   5.288   5.404
 2591TIP3   OH2 7736   6.977   2.165   2.669
 2591TIP3    H1 7737   6.984   2.075   2.636
 2591TIP3    H2 7738   6.929   2.156   2.751
 2592TIP3   OH2 7739   6.323   4.405   4.568
 2592TIP3    H1 7740   6.288   4.490   4.597
 2592TIP3    H2 7741   6.412   4.425   4.538
 2593TIP3   OH2 7742   0.273   3.832   0.882
 2593TIP3    H1 7743   0.257   3.821   0.788
 2593TIP3    H2 7744   0.359   3.791   0.897
 2594TIP3   OH2 7745   6.814   1.123   5.857
 2594TIP3    H1 7746   6.845   1.070   5.784
 2594TIP3    H2 7747   6.851   1.210   5.841
 2595TIP3   OH2 7748   6.859   3.646   0.690
 2595TIP3    H1 7749   6.790   3.671   0.628
 2595TIP3    H2 7750   6.924   3.601   0.638
 2596TIP3   OH2 7751   3.567   1.462   3.925
 2596TIP3    H1 7752   3.639   1.498   3.977
 2596TIP3    H2 7753   3.568   1.368   3.946
 2597TIP3   OH2 7754   3.007   2.769   4.362
 2597TIP3    H1 7755   3.026   2.858   4.331
 2597TIP3    H2 7756   2.946   2.782   4.435
 2598TIP3   OH2 7757   5.565   5.532   1.652
 2598TIP3    H1 7758   5.562   5.440   1.680
 2598TIP3    H2 7759   5.589   5.580   1.732
 2599TIP3   OH2 7760   4.781   4.654   1.279
 2599TIP3    H1 7761   4.725   4.717   1.326
 2599TIP3    H2 7762   4.767   4.674   1.187
 2600TIP3   OH2 7763   3.577   3.296   2.863
 2600TIP3    H1 7764   3.514   3.239   2.907
 2600TIP3    H2 7765   3.578   3.265   2.772
 2601TIP3   OH2 7766   2.838   6.045   2.108
 2601TIP3    H1 7767   2.746   6.046   2.082
 2601TIP3    H2 7768   2.861   6.138   2.115
 2602TIP3   OH2 7769   2.618   0.596   2.930
 2602TIP3    H1 7770   2.555   0.668   2.926
 2602TIP3    H2 7771   2.564   0.519   2.946
 2603TIP3   OH2 7772   4.070   6.828   5.502
 2603TIP3    H1 7773   4.099   6.789   5.584
 2603TIP3    H2 7774   4.091   6.764   5.435
 2604TIP3   OH2 7775   0.790   0.804   3.013
 2604TIP3    H1 7776   0.724   0.829   3.077
 2604TIP3    H2 7777   0.872   0.839   3.049
 2605TIP3   OH2 7778   7.006   6.407   3.293
 2605TIP3    H1 7779   7.090   6.405   3.246
 2605TIP3    H2 7780   7.021   6.350   3.369
 2606TIP3   OH2 7781   5.977   5.558   1.759
 2606TIP3    H1 7782   6.022   5.480   1.791
 2606TIP3    H2 7783   5.924   5.526   1.686
 2607TIP3   OH2 7784   6.365   3.579   0.335
 2607TIP3    H1 7785   6.389   3.647   0.397
 2607TIP3    H2 7786   6.381   3.497   0.382
 2608TIP3   OH2 7787   6.823   4.604   2.157
 2608TIP3    H1 7788   6.901   4.606   2.102
 2608TIP3    H2 7789   6.857   4.605   2.247
 2609TIP3   OH2 7790   1.234   4.482   2.898
 2609TIP3    H1 7791   1.262   4.520   2.815
 2609TIP3    H2 7792   1.246   4.388   2.886
 2610TIP3   OH2 7793   4.279   1.003   4.068
 2610TIP3    H1 7794   4.240   1.002   3.980
 2610TIP3    H2 7795   4.373   0.999   4.052
 2611TIP3   OH2 7796   3.413   1.770   0.220
 2611TIP3    H1 7797   3.414   1.860   0.253
 2611TIP3    H2 7798   3.371   1.775   0.135
 2612TIP3   OH2 7799   0.342   2.433   2.330
 2612TIP3    H1 7800   0.274   2.416   2.264
 2612TIP3    H2 7801   0.293   2.450   2.411
 2613TIP3   OH2 7802   4.983   4.953   4.181
 2613TIP3    H1 7803   5.004   4.964   4.274
 2613TIP3    H2 7804   4.991   5.040   4.144
 2614TIP3   OH2 7805   2.610   0.287   5.258
 2614TIP3    H1 7806   2.637   0.249   5.175
 2614TIP3    H2 7807   2.643   0.376   5.256
 2615TIP3   OH2 7808   6.138   1.422   1.534
 2615TIP3    H1 7809   6.053   1.431   1.578
 2615TIP3    H2 7810   6.183   1.354   1.583
 2616TIP3   OH2 7811   4.522   4.345   0.467
 2616TIP3    H1 7812   4.562   4.422   0.509
 2616TIP3    H2 7813   4.594   4.282   0.459
 2617TIP3   OH2 7814   7.113   0.174   3.782
 2617TIP3    H1 7815   7.189   0.206   3.831
 2617TIP3    H2 7816   7.116   0.079   3.791
 2618TIP3   OH2 7817   6.235   5.701   5.798
 2618TIP3    H1 7818   6.206   5.704   5.889
 2618TIP3    H2 7819   6.154   5.709   5.747
 2619TIP3   OH2 7820   2.960   0.718   4.556
 2619TIP3    H1 7821   2.966   0.625   4.577
 2619TIP3    H2 7822   2.995   0.763   4.633
 2620TIP3   OH2 7823   6.261   1.965   1.423
 2620TIP3    H1 7824   6.250   1.872   1.442
 2620TIP3    H2 7825   6.278   2.005   1.509
 2621TIP3   OH2 7826   4.187   1.157   0.262
 2621TIP3    H1 7827   4.201   1.069   0.228
 2621TIP3    H2 7828   4.171   1.144   0.356
 2622TIP3   OH2 7829   0.253   3.302   2.766
 2622TIP3    H1 7830   0.159   3.289   2.759
 2622TIP3    H2 7831   0.264   3.353   2.846
 2623TIP3   OH2 7832   2.238   4.248   0.171
 2623TIP3    H1 7833   2.259   4.160   0.142
 2623TIP3    H2 7834   2.193   4.236   0.254
 2624TIP3   OH2 7835   4.213   5.964   2.409
 2624TIP3    H1 7836   4.262   5.883   2.424
 2624TIP3    H2 7837   4.122   5.941   2.427
 2625TIP3   OH2 7838   6.811   2.345   2.284
 2625TIP3    H1 7839   6.901   2.327   2.311
 2625TIP3    H2 7840   6.777   2.402   2.353
 2626TIP3   OH2 7841   1.246   2.438   2.604
 2626TIP3    H1 7842   1.275   2.347   2.602
 2626TIP3    H2 7843   1.151   2.433   2.599
 2627TIP3   OH2 7844   1.780   3.496   4.231
 2627TIP3    H1 7845   1.837   3.420   4.229
 2627TIP3    H2 7846   1.837   3.569   4.207
 2628TIP3   OH2 7847   0.935   6.107   0.308
 2628TIP3    H1 7848   1.024   6.132   0.282
 2628TIP3    H2 7849   0.881   6.135   0.234
 2629TIP3   OH2 7850   0.573   3.300   0.786
 2629TIP3    H1 7851   0.606   3.255   0.708
 2629TIP3    H2 7852   0.492   3.254   0.807
 2630TIP3   OH2 7853   5.470   2.877   5.326
 2630TIP3    H1 7854   5.414   2.807   5.291
 2630TIP3    H2 7855   5.433   2.958   5.290
 2631TIP3   OH2 7856   3.152   0.657   5.696
 2631TIP3    H1 7857   3.186   0.742   5.669
 2631TIP3    H2 7858   3.193   0.641   5.781
 2632TIP3   OH2 7859   4.947   1.165   3.311
 2632TIP3    H1 7860   4.860   1.203   3.328
 2632TIP3    H2 7861   4.934   1.071   3.322
 2633TIP3   OH2 7862   6.186   1.022   2.572
 2633TIP3    H1 7863   6.239   1.093   2.609
 2633TIP3    H2 7864   6.208   0.946   2.625
 2634TIP3   OH2 7865   3.050   3.407   5.590
 2634TIP3    H1 7866   2.964   3.449   5.588
 2634TIP3    H2 7867   3.031   3.316   5.614
 2635TIP3   OH2 7868   3.323   5.574   0.527
 2635TIP3    H1 7869   3.360   5.549   0.442
 2635TIP3    H2 7870   3.289   5.662   0.512
 2636TIP3   OH2 7871   0.349   2.906   2.950
 2636TIP3    H1 7872   0.259   2.939   2.941
 2636TIP3    H2 7873   0.394   2.973   3.000
 2637TIP3   OH2 7874   0.417   6.046   4.665
 2637TIP3    H1 7875   0.337   6.080   4.625
 2637TIP3    H2 7876   0.456   6.122   4.708
 2638TIP3   OH2 7877   4.873   4.729   0.931
 2638TIP3    H1 7878   4.865   4.808   0.985
 2638TIP3    H2 7879   4.947   4.747   0.873
 2639TIP3   OH2 7880   6.406   0.068   0.904
 2639TIP3    H1 7881   6.433   0.118   0.827
 2639TIP3    H2 7882   6.386  -0.019   0.870
 2640TIP3   OH2 7883   5.968   1.788   5.277
 2640TIP3    H1 7884   5.926   1.754   5.356
 2640TIP3    H2 7885   6.061   1.789   5.299
 2641TIP3   OH2 7886   2.945   0.932   5.603
 2641TIP3    H1 7887   3.026   0.888   5.578
 2641TIP3    H2 7888   2.972   1.021   5.625
 2642TIP3   OH2 7889   3.022   5.623   4.728
 2642TIP3    H1 7890   2.946   5.565   4.727
 2642TIP3    H2 7891   3.083   5.583   4.665
 2643TIP3   OH2 7892   3.942   3.289   2.088
 2643TIP3    H1 7893   3.942   3.349   2.014
 2643TIP3    H2 7894   3.905   3.340   2.160
 2644TIP3   OH2 7895   6.065   1.451   5.462
 2644TIP3    H1 7896   6.154   1.453   5.427
 2644TIP3    H2 7897   6.072   1.399   5.542
 2645TIP3   OH2 7898   4.900   5.136   1.430
 2645TIP3    H1 7899   4.933   5.071   1.492
 2645TIP3    H2 7900   4.886   5.215   1.482
 2646TIP3   OH2 7901   4.596   1.467   3.172
 2646TIP3    H1 7902   4.505   1.468   3.143
 2646TIP3    H2 7903   4.605   1.547   3.224
 2647TIP3   OH2 7904   2.252   6.025   1.969
 2647TIP3    H1 7905   2.179   6.003   2.028
 2647TIP3    H2 7906   2.212   6.026   1.882
 2648TIP3   OH2 7907   2.689   1.554   5.276
 2648TIP3    H1 7908   2.670   1.461   5.286
 2648TIP3    H2 7909   2.633   1.583   5.204
 2649TIP3   OH2 7910   4.555   5.802   2.712
 2649TIP3    H1 7911   4.512   5.887   2.698
 2649TIP3    H2 7912   4.592   5.780   2.626
 2650TIP3   OH2 7913   1.098   2.297   5.426
 2650TIP3    H1 7914   1.099   2.228   5.492
 2650TIP3    H2 7915   1.147   2.261   5.352
 2651TIP3   OH2 7916   5.963   1.291   2.197
 2651TIP3    H1 7917   5.991   1.228   2.131
 2651TIP3    H2 7918   5.953   1.239   2.277
 2652TIP3   OH2 7919   5.960   4.562   0.628
 2652TIP3    H1 7920   5.886   4.522   0.673
 2652TIP3    H2 7921   6.031   4.498   0.635
 2653TIP3   OH2 7922   3.417   2.511   2.148
 2653TIP3    H1 7923   3.429   2.568   2.072
 2653TIP3    H2 7924   3.323   2.517   2.167
 2654TIP3   OH2 7925   4.212   2.312   4.827
 2654TIP3    H1 7926   4.143   2.263   4.871
 2654TIP3    H2 7927   4.217   2.272   4.740
 2655TIP3   OH2 7928   4.867   0.702   0.169
 2655TIP3    H1 7929   4.847   0.654   0.250
 2655TIP3    H2 7930   4.808   0.663   0.104
 2656TIP3   OH2 7931   0.360   1.868   2.007
 2656TIP3    H1 7932   0.325   1.860   2.096
 2656TIP3    H2 7933   0.287   1.846   1.951
 2657TIP3   OH2 7934   2.462   6.491   4.285
 2657TIP3    H1 7935   2.439   6.584   4.283
 2657TIP3    H2 7936   2.417   6.457   4.362
 2658TIP3   OH2 7937   5.674   5.887   3.593
 2658TIP3    H1 7938   5.652   5.818   3.655
 2658TIP3    H2 7939   5.736   5.943   3.641
 2659TIP3   OH2 7940   6.333   3.361   1.361
 2659TIP3    H1 7941   6.288   3.374   1.444
 2659TIP3    H2 7942   6.277   3.405   1.296
 2660TIP3   OH2 7943   4.571   2.222   2.681
 2660TIP3    H1 7944   4.636   2.227   2.611
 2660TIP3    H2 7945   4.588   2.138   2.724
 2661TIP3   OH2 7946   0.407   5.382   5.650
 2661TIP3    H1 7947   0.483   5.425   5.690
 2661TIP3    H2 7948   0.332   5.434   5.678
 2662TIP3   OH2 7949   5.729   1.925   1.798
 2662TIP3    H1 7950   5.762   1.937   1.709
 2662TIP3    H2 7951   5.747   1.834   1.819
 2663TIP3   OH2 7952   3.290   6.160   3.709
 2663TIP3    H1 7953   3.197   6.143   3.723
 2663TIP3    H2 7954   3.294   6.251   3.679
 2664TIP3   OH2 7955   4.538   2.633   0.380
 2664TIP3    H1 7956   4.629   2.622   0.351
 2664TIP3    H2 7957   4.538   2.715   0.428
 2665TIP3   OH2 7958   1.006   6.163   4.156
 2665TIP3    H1 7959   1.045   6.196   4.076
 2665TIP3    H2 7960   0.923   6.123   4.129
 2666TIP3   OH2 7961   6.399   0.953   4.815
 2666TIP3    H1 7962   6.494   0.955   4.810
 2666TIP3    H2 7963   6.378   0.865   4.848
 2667TIP3   OH2 7964   5.166   0.294   4.565
 2667TIP3    H1 7965   5.202   0.217   4.609
 2667TIP3    H2 7966   5.083   0.310   4.610
 2668TIP3   OH2 7967   5.084   3.036   4.596
 2668TIP3    H1 7968   5.081   2.963   4.533
 2668TIP3    H2 7969   5.030   3.006   4.669
 2669TIP3   OH2 7970   1.831   0.906   0.660
 2669TIP3    H1 7971   1.757   0.961   0.685
 2669TIP3    H2 7972   1.893   0.915   0.731
 2670TIP3   OH2 7973   1.503   6.453   1.222
 2670TIP3    H1 7974   1.434   6.432   1.158
 2670TIP3    H2 7975   1.510   6.375   1.276
 2671TIP3   OH2 7976   2.595   4.336   1.560
 2671TIP3    H1 7977   2.625   4.414   1.513
 2671TIP3    H2 7978   2.500   4.348   1.569
 2672TIP3   OH2 7979   3.509   0.410   4.911
 2672TIP3    H1 7980   3.443   0.402   4.843
 2672TIP3    H2 7981   3.565   0.482   4.882
 2673TIP3   OH2 7982   4.964   3.194   2.798
 2673TIP3    H1 7983   4.906   3.162   2.728
 2673TIP3    H2 7984   5.047   3.148   2.783
 2674TIP3   OH2 7985   5.423   1.151   4.406
 2674TIP3    H1 7986   5.363   1.101   4.461
 2674TIP3    H2 7987   5.446   1.091   4.335
 2675TIP3   OH2 7988   5.087   1.310   5.620
 2675TIP3    H1 7989   5.046   1.266   5.694
 2675TIP3    H2 7990   5.056   1.401   5.625
 2676TIP3   OH2 7991   2.645   1.065   5.845
 2676TIP3    H1 7992   2.741   1.066   5.849
 2676TIP3    H2 7993   2.618   1.109   5.926
 2677TIP3   OH2 7994   1.871   2.258   4.227
 2677TIP3    H1 7995   1.776   2.254   4.211
 2677TIP3    H2 7996   1.886   2.191   4.294
 2678TIP3   OH2 7997   6.090   2.609   1.117
 2678TIP3    H1 7998   6.048   2.693   1.099
 2678TIP3    H2 7999   6.033   2.544   1.076
 2679TIP3   OH2 8000   2.362   3.264   0.925
 2679TIP3    H1 8001   2.420   3.254   0.850
 2679TIP3    H2 8002   2.327   3.176   0.940
 2680TIP3   OH2 8003   5.822   5.381   1.575
 2680TIP3    H1 8004   5.890   5.352   1.514
 2680TIP3    H2 8005   5.743   5.334   1.549
 2681TIP3   OH2 8006   6.114   1.221   0.685
 2681TIP3    H1 8007   6.052   1.198   0.616
 2681TIP3    H2 8008   6.096   1.159   0.755
 2682TIP3   OH2 8009   0.341   4.498   1.905
 2682TIP3    H1 8010   0.369   4.548   1.981
 2682TIP3    H2 8011   0.342   4.407   1.935
 2683TIP3   OH2 8012   1.527   0.444   4.585
 2683TIP3    H1 8013   1.535   0.512   4.518
 2683TIP3    H2 8014   1.578   0.477   4.659
 2684TIP3   OH2 8015   0.556   1.426   4.633
 2684TIP3    H1 8016   0.517   1.376   4.562
 2684TIP3    H2 8017   0.606   1.495   4.588
 2685TIP3   OH2 8018   6.349   1.093   1.919
 2685TIP3    H1 8019   6.351   1.016   1.862
 2685TIP3    H2 8020   6.425   1.083   1.976
 2686TIP3   OH2 8021   4.479   0.451   4.281
 2686TIP3    H1 8022   4.428   0.416   4.354
 2686TIP3    H2 8023   4.534   0.518   4.320
 2687TIP3   OH2 8024   3.437   0.307   2.668
 2687TIP3    H1 8025   3.408   0.356   2.745
 2687TIP3    H2 8026   3.394   0.222   2.676
 2688TIP3   OH2 8027   6.156   0.570   2.199
 2688TIP3    H1 8028   6.237   0.547   2.153
 2688TIP3    H2 8029   6.157   0.515   2.277
 2689TIP3   OH2 8030   2.367   6.663   1.461
 2689TIP3    H1 8031   2.312   6.689   1.535
 2689TIP3    H2 8032   2.429   6.735   1.451
 2690TIP3   OH2 8033   4.157   4.212   5.308
 2690TIP3    H1 8034   4.138   4.123   5.278
 2690TIP3    H2 8035   4.073   4.246   5.339
 2691TIP3   OH2 8036   0.126   0.974   5.521
 2691TIP3    H1 8037   0.064   0.916   5.478
 2691TIP3    H2 8038   0.077   1.008   5.597
 2692TIP3   OH2 8039   5.611   1.848   1.461
 2692TIP3    H1 8040   5.689   1.903   1.452
 2692TIP3    H2 8041   5.634   1.785   1.529
 2693TIP3   OH2 8042   2.964   0.621   1.550
 2693TIP3    H1 8043   3.011   0.546   1.584
 2693TIP3    H2 8044   3.027   0.666   1.494
 2694TIP3   OH2 8045   3.861   5.628   5.092
 2694TIP3    H1 8046   3.783   5.610   5.145
 2694TIP3    H2 8047   3.835   5.608   5.003
 2695TIP3   OH2 8048   1.907   1.268   4.575
 2695TIP3    H1 8049   1.888   1.245   4.665
 2695TIP3    H2 8050   1.880   1.359   4.566
 2696TIP3   OH2 8051   4.953   6.052   4.541
 2696TIP3    H1 8052   4.899   6.000   4.480
 2696TIP3    H2 8053   5.033   6.071   4.491
 2697TIP3   OH2 8054   4.294   5.257   1.973
 2697TIP3    H1 8055   4.270   5.203   2.049
 2697TIP3    H2 8056   4.265   5.345   1.997
 2698TIP3   OH2 8057   2.269   0.946   2.546
 2698TIP3    H1 8058   2.229   1.011   2.604
 2698TIP3    H2 8059   2.205   0.932   2.476
 2699TIP3   OH2 8060   3.708   6.569   1.899
 2699TIP3    H1 8061   3.654   6.632   1.947
 2699TIP3    H2 8062   3.746   6.514   1.967
 2700TIP3   OH2 8063   2.246   4.522   1.155
 2700TIP3    H1 8064   2.227   4.602   1.106
 2700TIP3    H2 8065   2.195   4.530   1.236
 2701TIP3   OH2 8066   0.726   4.234   3.576
 2701TIP3    H1 8067   0.790   4.167   3.602
 2701TIP3    H2 8068   0.649   4.184   3.549
 2702TIP3   OH2 8069   3.599   0.886   0.407
 2702TIP3    H1 8070   3.588   0.860   0.499
 2702TIP3    H2 8071   3.548   0.967   0.399
 2703TIP3   OH2 8072   3.197   1.152   1.403
 2703TIP3    H1 8073   3.241   1.189   1.479
 2703TIP3    H2 8074   3.232   1.201   1.328
 2704TIP3   OH2 8075   4.674   4.986   5.388
 2704TIP3    H1 8076   4.759   4.976   5.430
 2704TIP3    H2 8077   4.694   5.026   5.303
 2705TIP3   OH2 8078   6.315   2.771   4.694
 2705TIP3    H1 8079   6.252   2.835   4.663
 2705TIP3    H2 8080   6.262   2.702   4.733
 2706TIP3   OH2 8081   1.665   1.229   5.630
 2706TIP3    H1 8082   1.608   1.183   5.692
 2706TIP3    H2 8083   1.740   1.171   5.618
 2707TIP3   OH2 8084   3.036   5.906   4.765
 2707TIP3    H1 8085   3.020   5.945   4.679
 2707TIP3    H2 8086   3.024   5.812   4.751
 2708TIP3   OH2 8087   4.594   0.368   1.396
 2708TIP3    H1 8088   4.630   0.444   1.441
 2708TIP3    H2 8089   4.499   0.377   1.407
 2709TIP3   OH2 8090   6.877   0.210   2.364
 2709TIP3    H1 8091   6.917   0.132   2.403
 2709TIP3    H2 8092   6.861   0.187   2.273
 2710TIP3   OH2 8093   4.844   0.288   5.261
 2710TIP3    H1 8094   4.809   0.357   5.318
 2710TIP3    H2 8095   4.923   0.258   5.305
 2711TIP3   OH2 8096   4.230   0.545   5.188
 2711TIP3    H1 8097   4.289   0.599   5.136
 2711TIP3    H2 8098   4.145   0.555   5.145
 2712TIP3   OH2 8099   3.950   1.770   3.635
 2712TIP3    H1 8100   3.909   1.833   3.694
 2712TIP3    H2 8101   3.889   1.764   3.561
 2713TIP3   OH2 8102   0.987   6.498   1.167
 2713TIP3    H1 8103   1.043   6.420   1.173
 2713TIP3    H2 8104   1.016   6.554   1.239
 2714TIP3   OH2 8105   6.287   0.272   2.102
 2714TIP3    H1 8106   6.374   0.235   2.113
 2714TIP3    H2 8107   6.301   0.367   2.098
 2715TIP3   OH2 8108   5.063   2.776   3.666
 2715TIP3    H1 8109   5.026   2.832   3.599
 2715TIP3    H2 8110   5.127   2.722   3.620
 2716TIP3   OH2 8111   6.776   1.412   5.111
 2716TIP3    H1 8112   6.800   1.328   5.151
 2716TIP3    H2 8113   6.834   1.419   5.035
 2717TIP3   OH2 8114   5.669   5.507   1.968
 2717TIP3    H1 8115   5.739   5.453   1.931
 2717TIP3    H2 8116   5.591   5.451   1.965
 2718TIP3   OH2 8117   2.244   5.807   2.993
 2718TIP3    H1 8118   2.150   5.819   3.007
 2718TIP3    H2 8119   2.266   5.874   2.927
 2719TIP3   OH2 8120   6.549   5.998   4.791
 2719TIP3    H1 8121   6.457   5.972   4.802
 2719TIP3    H2 8122   6.561   6.069   4.855
 2720TIP3   OH2 8123   0.021   2.697   5.219
 2720TIP3    H1 8124   0.070   2.617   5.237
 2720TIP3    H2 8125   0.028   2.749   5.299
 2721TIP3   OH2 8126   1.599   6.144   4.029
 2721TIP3    H1 8127   1.536   6.209   3.997
 2721TIP3    H2 8128   1.557   6.060   4.012
 2722TIP3   OH2 8129   2.106   2.997   3.074
 2722TIP3    H1 8130   2.018   2.973   3.044
 2722TIP3    H2 8131   2.144   3.045   3.001
 2723TIP3   OH2 8132   3.077   2.985   4.136
 2723TIP3    H1 8133   3.163   3.020   4.114
 2723TIP3    H2 8134   3.089   2.890   4.134
 2724TIP3   OH2 8135   0.672   0.940   4.450
 2724TIP3    H1 8136   0.635   0.978   4.370
 2724TIP3    H2 8137   0.695   0.850   4.426
 2725TIP3   OH2 8138   0.742   3.526   1.858
 2725TIP3    H1 8139   0.770   3.615   1.879
 2725TIP3    H2 8140   0.803   3.497   1.790
 2726TIP3   OH2 8141   4.065   3.064   3.866
 2726TIP3    H1 8142   4.130   3.118   3.821
 2726TIP3    H2 8143   3.981   3.093   3.830
 2727TIP3   OH2 8144   1.498   3.753   4.616
 2727TIP3    H1 8145   1.514   3.806   4.538
 2727TIP3    H2 8146   1.405   3.763   4.634
 2728TIP3   OH2 8147   5.948   2.523   4.418
 2728TIP3    H1 8148   6.019   2.459   4.407
 2728TIP3    H2 8149   5.969   2.593   4.357
 2729TIP3   OH2 8150   3.897   0.495   5.850
 2729TIP3    H1 8151   3.843   0.436   5.903
 2729TIP3    H2 8152   3.932   0.438   5.781
 2730TIP3   OH2 8153   5.802   4.890   2.202
 2730TIP3    H1 8154   5.752   4.825   2.251
 2730TIP3    H2 8155   5.890   4.853   2.193
 2731TIP3   OH2 8156   5.988   2.663   5.776
 2731TIP3    H1 8157   6.021   2.606   5.846
 2731TIP3    H2 8158   5.898   2.682   5.802
 2732TIP3   OH2 8159   7.004   1.887   2.697
 2732TIP3    H1 8160   6.911   1.888   2.674
 2732TIP3    H2 8161   7.039   1.812   2.649
 2733TIP3   OH2 8162   1.261   5.908   2.213
 2733TIP3    H1 8163   1.355   5.920   2.197
 2733TIP3    H2 8164   1.220   5.982   2.169
 2734TIP3   OH2 8165   0.938   5.237   5.448
 2734TIP3    H1 8166   0.902   5.305   5.391
 2734TIP3    H2 8167   0.878   5.234   5.523
 2735TIP3   OH2 8168   3.547   1.493   1.438
 2735TIP3    H1 8169   3.569   1.563   1.498
 2735TIP3    H2 8170   3.574   1.524   1.352
 2736TIP3   OH2 8171   3.470   4.100   3.057
 2736TIP3    H1 8172   3.520   4.021   3.074
 2736TIP3    H2 8173   3.380   4.069   3.046
 2737TIP3   OH2 8174   3.616   2.182   5.799
 2737TIP3    H1 8175   3.626   2.262   5.747
 2737TIP3    H2 8176   3.566   2.123   5.744
 2738TIP3   OH2 8177   6.095   0.058   2.777
 2738TIP3    H1 8178   6.092  -0.037   2.776
 2738TIP3    H2 8179   6.148   0.080   2.853
 2739TIP3   OH2 8180   0.102   0.686   3.488
 2739TIP3    H1 8181   0.069   0.620   3.548
 2739TIP3    H2 8182   0.025   0.738   3.465
 2740TIP3   OH2 8183   1.645   4.064   2.667
 2740TIP3    H1 8184   1.567   4.034   2.621
 2740TIP3    H2 8185   1.617   4.080   2.757
 2741TIP3   OH2 8186   4.468   3.246   2.766
 2741TIP3    H1 8187   4.534   3.239   2.836
 2741TIP3    H2 8188   4.501   3.317   2.710
 2742TIP3   OH2 8189   1.163   5.933   1.402
 2742TIP3    H1 8190   1.258   5.935   1.414
 2742TIP3    H2 8191   1.151   5.919   1.308
 2743TIP3   OH2 8192   2.456   3.971   0.112
 2743TIP3    H1 8193   2.437   4.031   0.040
 2743TIP3    H2 8194   2.534   3.922   0.083
 2744TIP3   OH2 8195   2.465   1.106   2.464
 2744TIP3    H1 8196   2.390   1.049   2.483
 2744TIP3    H2 8197   2.482   1.151   2.547
 2745TIP3   OH2 8198   0.289   4.439   4.082
 2745TIP3    H1 8199   0.269   4.346   4.079
 2745TIP3    H2 8200   0.282   4.468   3.991
 2746TIP3   OH2 8201   6.051   1.530   4.684
 2746TIP3    H1 8202   5.983   1.490   4.737
 2746TIP3    H2 8203   6.105   1.578   4.746
 2747TIP3   OH2 8204   3.986   0.459   4.748
 2747TIP3    H1 8205   3.918   0.520   4.775
 2747TIP3    H2 8206   4.024   0.428   4.830
 2748TIP3   OH2 8207   0.051   5.041   2.071
 2748TIP3    H1 8208   0.052   5.078   1.983
 2748TIP3    H2 8209  -0.039   5.010   2.084
 2749TIP3   OH2 8210   2.196   3.958   5.536
 2749TIP3    H1 8211   2.236   3.911   5.610
 2749TIP3    H2 8212   2.111   3.986   5.570
 2750TIP3   OH2 8213   4.117   1.267   0.803
 2750TIP3    H1 8214   4.175   1.193   0.820
 2750TIP3    H2 8215   4.166   1.343   0.831
 2751TIP3   OH2 8216   0.395   0.722   3.526
 2751TIP3    H1 8217   0.409   0.808   3.487
 2751TIP3    H2 8218   0.312   0.692   3.488
 2752TIP3   OH2 8219   5.693   1.387   4.604
 2752TIP3    H1 8220   5.734   1.428   4.680
 2752TIP3    H2 8221   5.644   1.314   4.640
 2753TIP3   OH2 8222   1.534   1.176   1.547
 2753TIP3    H1 8223   1.461   1.115   1.550
 2753TIP3    H2 8224   1.534   1.220   1.632
 2754TIP3   OH2 8225   4.854   5.497   5.648
 2754TIP3    H1 8226   4.901   5.555   5.707
 2754TIP3    H2 8227   4.855   5.542   5.564
 2755TIP3   OH2 8228   5.336   4.761   2.740
 2755TIP3    H1 8229   5.335   4.857   2.736
 2755TIP3    H2 8230   5.269   4.734   2.678
 2756TIP3   OH2 8231   3.870   4.722   3.995
 2756TIP3    H1 8232   3.811   4.647   3.999
 2756TIP3    H2 8233   3.857   4.768   4.078
 2757TIP3   OH2 8234   2.948   3.972   3.832
 2757TIP3    H1 8235   2.962   3.991   3.739
 2757TIP3    H2 8236   2.874   3.910   3.832
 2758TIP3   OH2 8237   1.199   2.726   4.405
 2758TIP3    H1 8238   1.209   2.663   4.334
 2758TIP3    H2 8239   1.255   2.692   4.475
 2759TIP3   OH2 8240   2.207   6.825   2.469
 2759TIP3    H1 8241   2.228   6.775   2.547
 2759TIP3    H2 8242   2.279   6.806   2.408
 2760TIP3   OH2 8243   0.176   2.691   2.087
 2760TIP3    H1 8244   0.176   2.692   2.183
 2760TIP3    H2 8245   0.088   2.721   2.063
 2761TIP3   OH2 8246   0.722   2.403   2.375
 2761TIP3    H1 8247   0.759   2.328   2.327
 2761TIP3    H2 8248   0.685   2.458   2.307
 2762TIP3   OH2 8249   1.712   6.303   5.251
 2762TIP3    H1 8250   1.658   6.228   5.276
 2762TIP3    H2 8251   1.801   6.268   5.245
 2763TIP3   OH2 8252   1.963   3.888   0.929
 2763TIP3    H1 8253   1.962   3.800   0.968
 2763TIP3    H2 8254   2.052   3.919   0.943
 2764TIP3   OH2 8255   5.835   4.231   3.060
 2764TIP3    H1 8256   5.777   4.258   2.988
 2764TIP3    H2 8257   5.857   4.313   3.105
 2765TIP3   OH2 8258   3.141   2.060   2.408
 2765TIP3    H1 8259   3.163   1.987   2.350
 2765TIP3    H2 8260   3.212   2.122   2.397
 2766TIP3   OH2 8261   1.697   1.899   3.260
 2766TIP3    H1 8262   1.652   1.927   3.180
 2766TIP3    H2 8263   1.790   1.910   3.239
 2767TIP3   OH2 8264   1.496   5.326   2.711
 2767TIP3    H1 8265   1.513   5.233   2.727
 2767TIP3    H2 8266   1.441   5.353   2.784
 2768TIP3   OH2 8267   1.945   2.517   4.294
 2768TIP3    H1 8268   2.038   2.538   4.291
 2768TIP3    H2 8269   1.940   2.426   4.264
 2769TIP3   OH2 8270   2.763   3.605   4.479
 2769TIP3    H1 8271   2.817   3.538   4.523
 2769TIP3    H2 8272   2.812   3.627   4.400
 2770TIP3   OH2 8273   5.322   5.545   3.590
 2770TIP3    H1 8274   5.388   5.491   3.546
 2770TIP3    H2 8275   5.293   5.491   3.664
 2771TIP3   OH2 8276   0.212   5.296   1.792
 2771TIP3    H1 8277   0.285   5.338   1.747
 2771TIP3    H2 8278   0.235   5.300   1.885
 2772TIP3   OH2 8279   5.908   3.800   4.118
 2772TIP3    H1 8280   5.883   3.739   4.188
 2772TIP3    H2 8281   5.935   3.744   4.046
 2773TIP3   OH2 8282   6.493   4.822   1.294
 2773TIP3    H1 8283   6.535   4.747   1.251
 2773TIP3    H2 8284   6.488   4.888   1.225
 2774TIP3   OH2 8285   4.661   4.830   2.721
 2774TIP3    H1 8286   4.609   4.787   2.789
 2774TIP3    H2 8287   4.627   4.919   2.717
 2775TIP3   OH2 8288   6.454   4.892   0.322
 2775TIP3    H1 8289   6.477   4.973   0.276
 2775TIP3    H2 8290   6.373   4.912   0.367
 2776TIP3   OH2 8291   5.247   0.254   2.537
 2776TIP3    H1 8292   5.165   0.207   2.553
 2776TIP3    H2 8293   5.281   0.273   2.625
 2777TIP3   OH2 8294   5.897   2.919   2.561
 2777TIP3    H1 8295   5.847   2.895   2.482
 2777TIP3    H2 8296   5.988   2.920   2.532
 2778TIP3   OH2 8297   6.451   0.636   4.230
 2778TIP3    H1 8298   6.519   0.598   4.286
 2778TIP3    H2 8299   6.371   0.590   4.254
 2779TIP3   OH2 8300   4.504   5.620   3.391
 2779TIP3    H1 8301   4.507   5.712   3.414
 2779TIP3    H2 8302   4.584   5.605   3.340
 2780TIP3   OH2 8303   2.087   1.125   1.934
 2780TIP3    H1 8304   2.022   1.180   1.890
 2780TIP3    H2 8305   2.158   1.115   1.870
 2781TIP3   OH2 8306   6.756   5.629   4.660
 2781TIP3    H1 8307   6.716   5.622   4.573
 2781TIP3    H2 8308   6.711   5.563   4.712
 2782TIP3   OH2 8309   0.517   2.034   3.734
 2782TIP3    H1 8310   0.518   2.115   3.683
 2782TIP3    H2 8311   0.484   2.060   3.820
 2783TIP3   OH2 8312   5.291   6.687   3.001
 2783TIP3    H1 8313   5.281   6.623   3.072
 2783TIP3    H2 8314   5.382   6.716   3.008
 2784TIP3   OH2 8315   1.830   2.639   2.325
 2784TIP3    H1 8316   1.772   2.619   2.398
 2784TIP3    H2 8317   1.918   2.633   2.362
 2785TIP3   OH2 8318   1.621   2.821   1.540
 2785TIP3    H1 8319   1.683   2.824   1.467
 2785TIP3    H2 8320   1.625   2.909   1.577
 2786TIP3   OH2 8321   1.460   2.818   0.159
 2786TIP3    H1 8322   1.511   2.742   0.128
 2786TIP3    H2 8323   1.383   2.819   0.102
 2787TIP3   OH2 8324   6.617   4.024   1.694
 2787TIP3    H1 8325   6.584   4.098   1.744
 2787TIP3    H2 8326   6.616   3.951   1.756
 2788TIP3   OH2 8327   6.693   3.695   0.499
 2788TIP3    H1 8328   6.618   3.748   0.523
 2788TIP3    H2 8329   6.690   3.690   0.404
 2789TIP3   OH2 8330   0.725   5.004   4.276
 2789TIP3    H1 8331   0.635   4.970   4.279
 2789TIP3    H2 8332   0.734   5.038   4.187
 2790TIP3   OH2 8333   2.010   5.794   3.633
 2790TIP3    H1 8334   2.071   5.743   3.579
 2790TIP3    H2 8335   2.006   5.747   3.716
 2791TIP3   OH2 8336   0.790   3.476   3.159
 2791TIP3    H1 8337   0.780   3.467   3.254
 2791TIP3    H2 8338   0.873   3.522   3.149
 2792TIP3   OH2 8339   5.018   0.850   2.853
 2792TIP3    H1 8340   5.090   0.828   2.794
 2792TIP3    H2 8341   4.979   0.929   2.817
 2793TIP3   OH2 8342   5.756   2.637   3.836
 2793TIP3    H1 8343   5.833   2.663   3.886
 2793TIP3    H2 8344   5.704   2.585   3.897
 2794TIP3   OH2 8345   0.321   6.025   3.574
 2794TIP3    H1 8346   0.245   5.970   3.556
 2794TIP3    H2 8347   0.382   5.967   3.621
 2795TIP3   OH2 8348   6.128   4.284   5.676
 2795TIP3    H1 8349   6.096   4.282   5.586
 2795TIP3    H2 8350   6.216   4.248   5.671
 2796TIP3   OH2 8351   6.808   1.886   0.324
 2796TIP3    H1 8352   6.768   1.843   0.399
 2796TIP3    H2 8353   6.895   1.913   0.355
 2797TIP3   OH2 8354   2.263   6.301   3.891
 2797TIP3    H1 8355   2.208   6.297   3.813
 2797TIP3    H2 8356   2.231   6.230   3.946
 2798TIP3   OH2 8357   2.570   5.386   2.790
 2798TIP3    H1 8358   2.614   5.421   2.867
 2798TIP3    H2 8359   2.639   5.342   2.741
 2799TIP3   OH2 8360   5.874   3.490   0.142
 2799TIP3    H1 8361   5.864   3.584   0.134
 2799TIP3    H2 8362   5.786   3.458   0.163
 2800TIP3   OH2 8363   0.077   0.251   0.635
 2800TIP3    H1 8364   0.159   0.234   0.588
 2800TIP3    H2 8365   0.084   0.342   0.663
 2801TIP3   OH2 8366   0.600   3.024   4.783
 2801TIP3    H1 8367   0.643   2.962   4.723
 2801TIP3    H2 8368   0.522   2.977   4.814
 2802TIP3   OH2 8369   4.167   2.169   2.686
 2802TIP3    H1 8370   4.245   2.151   2.634
 2802TIP3    H2 8371   4.147   2.261   2.668
 2803TIP3   OH2 8372   5.466   4.439   3.798
 2803TIP3    H1 8373   5.507   4.385   3.865
 2803TIP3    H2 8374   5.452   4.524   3.842
 2804TIP3   OH2 8375   4.438   2.145   3.212
 2804TIP3    H1 8376   4.382   2.114   3.140
 2804TIP3    H2 8377   4.377   2.181   3.276
 2805TIP3   OH2 8378   6.645   5.327   2.620
 2805TIP3    H1 8379   6.656   5.326   2.525
 2805TIP3    H2 8380   6.632   5.235   2.643
 2806TIP3   OH2 8381   2.658   3.595   5.653
 2806TIP3    H1 8382   2.738   3.637   5.621
 2806TIP3    H2 8383   2.681   3.503   5.662
 2807TIP3   OH2 8384   4.494   4.991   1.946
 2807TIP3    H1 8385   4.527   5.000   2.035
 2807TIP3    H2 8386   4.444   4.909   1.947
 2808TIP3   OH2 8387   3.799   1.142   2.131
 2808TIP3    H1 8388   3.782   1.187   2.214
 2808TIP3    H2 8389   3.777   1.051   2.149
 2809TIP3   OH2 8390   1.507   1.757   4.214
 2809TIP3    H1 8391   1.496   1.684   4.274
 2809TIP3    H2 8392   1.417   1.780   4.188
 2810TIP3   OH2 8393   6.262   1.567   0.080
 2810TIP3    H1 8394   6.238   1.529  -0.005
 2810TIP3    H2 8395   6.345   1.611   0.064
 2811TIP3   OH2 8396   1.409   3.915   2.635
 2811TIP3    H1 8397   1.441   3.905   2.725
 2811TIP3    H2 8398   1.357   3.996   2.636
 2812TIP3   OH2 8399   0.548   3.474   1.286
 2812TIP3    H1 8400   0.502   3.392   1.308
 2812TIP3    H2 8401   0.627   3.473   1.341
 2813TIP3   OH2 8402   2.671   4.685   5.174
 2813TIP3    H1 8403   2.686   4.627   5.100
 2813TIP3    H2 8404   2.747   4.672   5.231
 2814TIP3   OH2 8405   3.599   2.174   4.223
 2814TIP3    H1 8406   3.597   2.127   4.140
 2814TIP3    H2 8407   3.513   2.157   4.263
 2815TIP3   OH2 8408   3.307   1.707   4.787
 2815TIP3    H1 8409   3.250   1.630   4.789
 2815TIP3    H2 8410   3.376   1.687   4.850
 2816TIP3   OH2 8411   6.799   2.002   3.194
 2816TIP3    H1 8412   6.708   2.029   3.208
 2816TIP3    H2 8413   6.793   1.922   3.143
 2817TIP3   OH2 8414   0.307   1.444   1.409
 2817TIP3    H1 8415   0.328   1.351   1.417
 2817TIP3    H2 8416   0.312   1.462   1.316
 2818TIP3   OH2 8417   6.052   5.112   3.183
 2818TIP3    H1 8418   6.094   5.143   3.103
 2818TIP3    H2 8419   6.003   5.034   3.156
 2819TIP3   OH2 8420   4.238   4.183   2.602
 2819TIP3    H1 8421   4.198   4.258   2.558
 2819TIP3    H2 8422   4.168   4.148   2.658
 2820TIP3   OH2 8423   6.563   6.252   0.709
 2820TIP3    H1 8424   6.616   6.327   0.682
 2820TIP3    H2 8425   6.626   6.183   0.728
 2821TIP3   OH2 8426   4.427   2.488   5.292
 2821TIP3    H1 8427   4.445   2.415   5.232
 2821TIP3    H2 8428   4.391   2.446   5.370
 2822TIP3   OH2 8429   2.093   6.238   3.077
 2822TIP3    H1 8430   2.159   6.295   3.117
 2822TIP3    H2 8431   2.077   6.277   2.991
 2823TIP3   OH2 8432   3.077   5.466   0.359
 2823TIP3    H1 8433   3.080   5.551   0.404
 2823TIP3    H2 8434   3.086   5.402   0.429
 2824TIP3   OH2 8435   0.842   3.417   0.061
 2824TIP3    H1 8436   0.753   3.424   0.028
 2824TIP3    H2 8437   0.880   3.504   0.048
 2825TIP3   OH2 8438   6.288   4.640   0.536
 2825TIP3    H1 8439   6.349   4.617   0.607
 2825TIP3    H2 8440   6.213   4.680   0.581
 2826TIP3   OH2 8441   1.618   0.655   2.573
 2826TIP3    H1 8442   1.610   0.750   2.569
 2826TIP3    H2 8443   1.698   0.635   2.525
 2827TIP3   OH2 8444   3.846   3.074   1.537
 2827TIP3    H1 8445   3.839   3.089   1.632
 2827TIP3    H2 8446   3.791   2.998   1.521
 2828TIP3   OH2 8447   5.197   1.581   1.226
 2828TIP3    H1 8448   5.133   1.652   1.229
 2828TIP3    H2 8449   5.251   1.600   1.150
 2829TIP3   OH2 8450   1.330   4.877   0.515
 2829TIP3    H1 8451   1.387   4.950   0.538
 2829TIP3    H2 8452   1.260   4.918   0.464
 2830TIP3   OH2 8453   7.116   1.056   1.208
 2830TIP3    H1 8454   7.109   1.152   1.214
 2830TIP3    H2 8455   7.141   1.040   1.117
 2831TIP3   OH2 8456   4.077   1.178   5.405
 2831TIP3    H1 8457   4.128   1.116   5.353
 2831TIP3    H2 8458   4.006   1.126   5.442
 2832TIP3   OH2 8459   2.194   2.426   0.940
 2832TIP3    H1 8460   2.175   2.361   1.008
 2832TIP3    H2 8461   2.114   2.431   0.889
 2833TIP3   OH2 8462   5.104   0.049   3.636
 2833TIP3    H1 8463   5.066  -0.027   3.593
 2833TIP3    H2 8464   5.074   0.044   3.726
 2834TIP3   OH2 8465   4.038   1.955   2.558
 2834TIP3    H1 8466   4.126   1.918   2.545
 2834TIP3    H2 8467   4.052   2.050   2.556
 2835TIP3   OH2 8468   0.886   5.668   5.807
 2835TIP3    H1 8469   0.934   5.595   5.845
 2835TIP3    H2 8470   0.948   5.710   5.747
 2836TIP3   OH2 8471   2.999   6.537   2.867
 2836TIP3    H1 8472   2.966   6.613   2.915
 2836TIP3    H2 8473   3.080   6.568   2.825
 2837TIP3   OH2 8474   0.990   5.366   4.084
 2837TIP3    H1 8475   0.916   5.365   4.023
 2837TIP3    H2 8476   0.973   5.442   4.140
 2838TIP3   OH2 8477   4.322   6.234   1.299
 2838TIP3    H1 8478   4.293   6.322   1.323
 2838TIP3    H2 8479   4.241   6.181   1.298
 2839TIP3   OH2 8480   5.117   6.333   4.573
 2839TIP3    H1 8481   5.085   6.405   4.627
 2839TIP3    H2 8482   5.039   6.285   4.547
 2840TIP3   OH2 8483   4.036   0.218   1.222
 2840TIP3    H1 8484   4.126   0.249   1.208
 2840TIP3    H2 8485   4.010   0.184   1.136
 2841TIP3   OH2 8486   5.087   3.563   2.771
 2841TIP3    H1 8487   5.015   3.541   2.831
 2841TIP3    H2 8488   5.054   3.538   2.685
 2842TIP3   OH2 8489   2.648   2.205   4.656
 2842TIP3    H1 8490   2.716   2.266   4.628
 2842TIP3    H2 8491   2.566   2.249   4.633
 2843TIP3   OH2 8492   7.081   3.883   0.199
 2843TIP3    H1 8493   7.116   3.970   0.179
 2843TIP3    H2 8494   6.989   3.887   0.172
 2844TIP3   OH2 8495   3.420   3.157   1.054
 2844TIP3    H1 8496   3.454   3.165   0.964
 2844TIP3    H2 8497   3.338   3.110   1.045
 2845TIP3   OH2 8498   0.808   4.142   0.805
 2845TIP3    H1 8499   0.774   4.148   0.894
 2845TIP3    H2 8500   0.871   4.070   0.807
 2846TIP3   OH2 8501   6.482   3.478   5.127
 2846TIP3    H1 8502   6.510   3.458   5.216
 2846TIP3    H2 8503   6.516   3.566   5.110
 2847TIP3   OH2 8504   1.849   4.092   4.468
 2847TIP3    H1 8505   1.839   4.040   4.548
 2847TIP3    H2 8506   1.768   4.142   4.461
 2848TIP3   OH2 8507   6.746   6.363   1.911
 2848TIP3    H1 8508   6.754   6.452   1.945
 2848TIP3    H2 8509   6.762   6.372   1.817
 2849TIP3   OH2 8510   3.843   1.195   3.578
 2849TIP3    H1 8511   3.908   1.240   3.632
 2849TIP3    H2 8512   3.864   1.220   3.488
 2850TIP3   OH2 8513   3.283   2.366   3.190
 2850TIP3    H1 8514   3.265   2.445   3.241
 2850TIP3    H2 8515   3.231   2.376   3.111
 2851TIP3   OH2 8516   4.083   0.565   2.119
 2851TIP3    H1 8517   4.170   0.558   2.079
 2851TIP3    H2 8518   4.030   0.501   2.071
 2852TIP3   OH2 8519   0.624   4.997   0.462
 2852TIP3    H1 8520   0.676   4.995   0.382
 2852TIP3    H2 8521   0.629   5.088   0.492
 2853TIP3   OH2 8522   4.940   2.066   2.235
 2853TIP3    H1 8523   4.901   1.980   2.251
 2853TIP3    H2 8524   4.876   2.128   2.269
 2854TIP3   OH2 8525   7.159   4.851   4.091
 2854TIP3    H1 8526   7.185   4.760   4.084
 2854TIP3    H2 8527   7.173   4.873   4.183
 2855TIP3   OH2 8528   1.933   6.617   4.112
 2855TIP3    H1 8529   1.884   6.586   4.188
 2855TIP3    H2 8530   1.952   6.537   4.062
 2856TIP3   OH2 8531   5.569   1.926   5.271
 2856TIP3    H1 8532   5.516   2.006   5.264
 2856TIP3    H2 8533   5.564   1.901   5.363
 2857TIP3   OH2 8534   2.429   5.118   2.548
 2857TIP3    H1 8535   2.370   5.053   2.510
 2857TIP3    H2 8536   2.381   5.200   2.542
 2858TIP3   OH2 8537   1.643   0.171   3.486
 2858TIP3    H1 8538   1.700   0.153   3.412
 2858TIP3    H2 8539   1.674   0.254   3.521
 2859TIP3   OH2 8540   1.048   3.390   5.642
 2859TIP3    H1 8541   0.982   3.458   5.659
 2859TIP3    H2 8542   1.006   3.308   5.669
 2860TIP3   OH2 8543   2.778   6.541   2.691
 2860TIP3    H1 8544   2.864   6.532   2.734
 2860TIP3    H2 8545   2.792   6.511   2.602
 2861TIP3   OH2 8546   1.634   2.230   4.572
 2861TIP3    H1 8547   1.662   2.206   4.661
 2861TIP3    H2 8548   1.701   2.192   4.515
 2862TIP3   OH2 8549   0.308   2.615   5.101
 2862TIP3    H1 8550   0.258   2.559   5.160
 2862TIP3    H2 8551   0.301   2.573   5.016
 2863TIP3   OH2 8552   5.906   6.150   5.743
 2863TIP3    H1 8553   5.879   6.078   5.686
 2863TIP3    H2 8554   5.946   6.107   5.819
 2864TIP3   OH2 8555   3.037   5.309   0.133
 2864TIP3    H1 8556   3.110   5.262   0.174
 2864TIP3    H2 8557   3.003   5.365   0.202
 2865TIP3   OH2 8558   3.612   3.146   5.278
 2865TIP3    H1 8559   3.595   3.239   5.267
 2865TIP3    H2 8560   3.695   3.131   5.231
 2866TIP3   OH2 8561   0.152   2.460   5.267
 2866TIP3    H1 8562   0.216   2.455   5.338
 2866TIP3    H2 8563   0.159   2.376   5.222
 2867TIP3   OH2 8564   6.711   3.260   0.248
 2867TIP3    H1 8565   6.718   3.211   0.166
 2867TIP3    H2 8566   6.755   3.343   0.229
 2868TIP3   OH2 8567   1.314   4.961   4.578
 2868TIP3    H1 8568   1.321   5.042   4.527
 2868TIP3    H2 8569   1.403   4.927   4.581
 2869TIP3   OH2 8570   6.108   5.663   4.567
 2869TIP3    H1 8571   6.068   5.683   4.651
 2869TIP3    H2 8572   6.196   5.702   4.572
 2870TIP3   OH2 8573   3.369   6.185   0.220
 2870TIP3    H1 8574   3.379   6.120   0.150
 2870TIP3    H2 8575   3.331   6.136   0.293
 2871TIP3   OH2 8576   1.842   2.600   5.631
 2871TIP3    H1 8577   1.876   2.516   5.600
 2871TIP3    H2 8578   1.918   2.659   5.630
 2872TIP3   OH2 8579   5.547   3.738   3.297
 2872TIP3    H1 8580   5.576   3.818   3.342
 2872TIP3    H2 8581   5.463   3.762   3.259
 2873TIP3   OH2 8582   6.601   0.844   1.600
 2873TIP3    H1 8583   6.639   0.826   1.685
 2873TIP3    H2 8584   6.547   0.767   1.581
 2874TIP3   OH2 8585   6.595   6.711   1.084
 2874TIP3    H1 8586   6.561   6.749   1.003
 2874TIP3    H2 8587   6.591   6.783   1.148
 2875TIP3   OH2 8588   4.300   2.100   5.490
 2875TIP3    H1 8589   4.289   2.194   5.503
 2875TIP3    H2 8590   4.367   2.076   5.554
 2876TIP3   OH2 8591   0.679   3.116   1.278
 2876TIP3    H1 8592   0.597   3.118   1.327
 2876TIP3    H2 8593   0.663   3.174   1.203
 2877TIP3   OH2 8594   4.467   4.658   1.539
 2877TIP3    H1 8595   4.508   4.603   1.606
 2877TIP3    H2 8596   4.409   4.598   1.491
 2878TIP3   OH2 8597   6.362   5.276   5.117
 2878TIP3    H1 8598   6.416   5.333   5.172
 2878TIP3    H2 8599   6.310   5.225   5.178
 2879TIP3   OH2 8600   4.560   2.384   5.693
 2879TIP3    H1 8601   4.586   2.315   5.755
 2879TIP3    H2 8602   4.484   2.425   5.733
 2880TIP3   OH2 8603   2.198   1.262   4.143
 2880TIP3    H1 8604   2.114   1.260   4.097
 2880TIP3    H2 8605   2.251   1.196   4.098
 2881TIP3   OH2 8606   5.116   6.744   0.885
 2881TIP3    H1 8607   5.114   6.684   0.960
 2881TIP3    H2 8608   5.186   6.806   0.906
 2882TIP3   OH2 8609   5.812   0.891   4.341
 2882TIP3    H1 8610   5.774   0.893   4.253
 2882TIP3    H2 8611   5.907   0.892   4.326
 2883TIP3   OH2 8612   4.522   4.851   5.846
 2883TIP3    H1 8613   4.521   4.935   5.800
 2883TIP3    H2 8614   4.466   4.794   5.793
 2884TIP3   OH2 8615   6.888   4.984   3.181
 2884TIP3    H1 8616   6.809   5.013   3.226
 2884TIP3    H2 8617   6.903   5.050   3.114
 2885TIP3   OH2 8618   3.530   4.869   3.774
 2885TIP3    H1 8619   3.515   4.830   3.860
 2885TIP3    H2 8620   3.454   4.925   3.760
 2886TIP3   OH2 8621   3.802   3.775   2.456
 2886TIP3    H1 8622   3.744   3.793   2.382
 2886TIP3    H2 8623   3.779   3.840   2.522
 2887TIP3   OH2 8624   5.050   1.334   2.042
 2887TIP3    H1 8625   5.116   1.288   2.094
 2887TIP3    H2 8626   5.088   1.338   1.954
 2888TIP3   OH2 8627   5.680   3.836   0.976
 2888TIP3    H1 8628   5.769   3.857   0.948
 2888TIP3    H2 8629   5.691   3.774   1.047
 2889TIP3   OH2 8630   4.480   3.262   1.640
 2889TIP3    H1 8631   4.547   3.290   1.703
 2889TIP3    H2 8632   4.464   3.171   1.662
 2890TIP3   OH2 8633   0.081   2.183   5.579
 2890TIP3    H1 8634  -0.003   2.172   5.623
 2890TIP3    H2 8635   0.110   2.271   5.603
 2891TIP3   OH2 8636   0.645   1.843   0.289
 2891TIP3    H1 8637   0.669   1.889   0.208
 2891TIP3    H2 8638   0.679   1.754   0.277
 2892TIP3   OH2 8639   0.823   0.635   0.292
 2892TIP3    H1 8640   0.880   0.570   0.252
 2892TIP3    H2 8641   0.766   0.665   0.221
 2893TIP3   OH2 8642   2.190   3.745   1.626
 2893TIP3    H1 8643   2.186   3.837   1.652
 2893TIP3    H2 8644   2.106   3.708   1.653
 2894TIP3   OH2 8645   5.343   5.766   3.779
 2894TIP3    H1 8646   5.431   5.763   3.817
 2894TIP3    H2 8647   5.347   5.708   3.703
 2895TIP3   OH2 8648   5.590   5.896   2.789
 2895TIP3    H1 8649   5.605   5.984   2.757
 2895TIP3    H2 8650   5.571   5.907   2.883
 2896TIP3   OH2 8651   5.674   1.950   2.869
 2896TIP3    H1 8652   5.614   2.024   2.857
 2896TIP3    H2 8653   5.703   1.958   2.960
 2897TIP3   OH2 8654   7.200   5.187   0.047
 2897TIP3    H1 8655   7.132   5.125   0.072
 2897TIP3    H2 8656   7.229   5.225   0.130
 2898TIP3   OH2 8657   2.659   5.568   3.635
 2898TIP3    H1 8658   2.596   5.639   3.647
 2898TIP3    H2 8659   2.670   5.529   3.722
 2899TIP3   OH2 8660   1.489   6.738   1.231
 2899TIP3    H1 8661   1.524   6.749   1.142
 2899TIP3    H2 8662   1.505   6.647   1.252
 2900TIP3   OH2 8663   1.504   0.498   3.805
 2900TIP3    H1 8664   1.410   0.510   3.821
 2900TIP3    H2 8665   1.542   0.586   3.817
 2901TIP3   OH2 8666   3.958   5.314   2.570
 2901TIP3    H1 8667   3.898   5.335   2.641
 2901TIP3    H2 8668   3.997   5.231   2.595
 2902TIP3   OH2 8669   5.977   4.436   2.313
 2902TIP3    H1 8670   6.042   4.385   2.360
 2902TIP3    H2 8671   5.900   4.380   2.309
 2903TIP3   OH2 8672   5.821   2.808   4.228
 2903TIP3    H1 8673   5.743   2.859   4.205
 2903TIP3    H2 8674   5.826   2.815   4.324
 2904TIP3   OH2 8675   3.812   0.748   5.835
 2904TIP3    H1 8676   3.845   0.659   5.826
 2904TIP3    H2 8677   3.827   0.770   5.927
 2905TIP3   OH2 8678   3.268   5.169   0.251
 2905TIP3    H1 8679   3.356   5.162   0.212
 2905TIP3    H2 8680   3.223   5.091   0.220
 2906TIP3   OH2 8681   3.368   4.282   0.654
 2906TIP3    H1 8682   3.287   4.287   0.605
 2906TIP3    H2 8683   3.340   4.271   0.745
 2907TIP3   OH2 8684   3.841   2.384   4.260
 2907TIP3    H1 8685   3.892   2.462   4.281
 2907TIP3    H2 8686   3.765   2.388   4.318
 2908TIP3   OH2 8687   2.247   2.307   1.507
 2908TIP3    H1 8688   2.265   2.213   1.508
 2908TIP3    H2 8689   2.219   2.327   1.596
 2909TIP3   OH2 8690   3.588   2.060   1.917
 2909TIP3    H1 8691   3.661   2.042   1.977
 2909TIP3    H2 8692   3.565   2.152   1.933
 2910TIP3   OH2 8693   6.498   6.477   2.756
 2910TIP3    H1 8694   6.520   6.547   2.695
 2910TIP3    H2 8695   6.541   6.501   2.838
 2911TIP3   OH2 8696   4.911   2.451   2.365
 2911TIP3    H1 8697   4.880   2.399   2.439
 2911TIP3    H2 8698   4.848   2.434   2.295
 2912TIP3   OH2 8699   2.007   1.193   1.201
 2912TIP3    H1 8700   2.011   1.253   1.126
 2912TIP3    H2 8701   1.931   1.138   1.183
 2913TIP3   OH2 8702   1.110   4.835   2.874
 2913TIP3    H1 8703   1.195   4.840   2.918
 2913TIP3    H2 8704   1.132   4.836   2.781
 2914TIP3   OH2 8705   2.466   5.079   0.927
 2914TIP3    H1 8706   2.401   5.139   0.891
 2914TIP3    H2 8707   2.431   5.052   1.011
 2915TIP3   OH2 8708   2.984   5.358   1.882
 2915TIP3    H1 8709   2.995   5.333   1.974
 2915TIP3    H2 8710   2.997   5.276   1.833
 2916TIP3   OH2 8711   4.152   4.667   0.448
 2916TIP3    H1 8712   4.078   4.663   0.509
 2916TIP3    H2 8713   4.229   4.657   0.503
 2917TIP3   OH2 8714   6.820   6.100   3.709
 2917TIP3    H1 8715   6.864   6.127   3.790
 2917TIP3    H2 8716   6.779   6.180   3.677
 2918TIP3   OH2 8717   4.673   5.287   2.869
 2918TIP3    H1 8718   4.654   5.378   2.846
 2918TIP3    H2 8719   4.647   5.280   2.961
 2919TIP3   OH2 8720   6.830   2.857   3.169
 2919TIP3    H1 8721   6.861   2.771   3.198
 2919TIP3    H2 8722   6.801   2.901   3.250
 2920TIP3   OH2 8723   3.743   2.658   2.566
 2920TIP3    H1 8724   3.694   2.649   2.484
 2920TIP3    H2 8725   3.831   2.682   2.540
 2921TIP3   OH2 8726   4.515   0.900   1.192
 2921TIP3    H1 8727   4.596   0.930   1.234
 2921TIP3    H2 8728   4.510   0.950   1.110
 2922TIP3   OH2 8729   3.541   3.644   4.704
 2922TIP3    H1 8730   3.603   3.610   4.768
 2922TIP3    H2 8731   3.541   3.579   4.634
 2923TIP3   OH2 8732   4.271   3.144   5.769
 2923TIP3    H1 8733   4.223   3.098   5.700
 2923TIP3    H2 8734   4.270   3.083   5.843
 2924TIP3   OH2 8735   6.813   4.690   4.346
 2924TIP3    H1 8736   6.836   4.674   4.438
 2924TIP3    H2 8737   6.852   4.617   4.299
 2925TIP3   OH2 8738   2.481   0.337   2.807
 2925TIP3    H1 8739   2.556   0.278   2.796
 2925TIP3    H2 8740   2.434   0.330   2.724
 2926TIP3   OH2 8741   3.356   4.167   5.113
 2926TIP3    H1 8742   3.336   4.197   5.025
 2926TIP3    H2 8743   3.316   4.079   5.118
 2927TIP3   OH2 8744   5.112   2.295   2.751
 2927TIP3    H1 8745   5.121   2.209   2.709
 2927TIP3    H2 8746   5.196   2.310   2.793
 2928TIP3   OH2 8747   0.757   0.160   4.552
 2928TIP3    H1 8748   0.769   0.107   4.631
 2928TIP3    H2 8749   0.774   0.250   4.581
 2929TIP3   OH2 8750   6.209   4.668   4.623
 2929TIP3    H1 8751   6.120   4.688   4.592
 2929TIP3    H2 8752   6.267   4.714   4.562
 2930TIP3   OH2 8753   1.938   1.154   4.296
 2930TIP3    H1 8754   1.967   1.203   4.373
 2930TIP3    H2 8755   1.931   1.064   4.327
 2931TIP3   OH2 8756   1.192   0.657   2.567
 2931TIP3    H1 8757   1.233   0.728   2.519
 2931TIP3    H2 8758   1.235   0.657   2.652
 2932TIP3   OH2 8759   1.843   5.283   0.358
 2932TIP3    H1 8760   1.777   5.214   0.357
 2932TIP3    H2 8761   1.879   5.283   0.269
 2933TIP3   OH2 8762   6.934   2.352   0.091
 2933TIP3    H1 8763   6.953   2.274   0.144
 2933TIP3    H2 8764   6.976   2.334   0.007
 2934TIP3   OH2 8765   0.863   5.322   4.545
 2934TIP3    H1 8766   0.895   5.395   4.598
 2934TIP3    H2 8767   0.834   5.363   4.463
 2935TIP3   OH2 8768   6.255   4.430   0.974
 2935TIP3    H1 8769   6.250   4.519   0.940
 2935TIP3    H2 8770   6.261   4.441   1.069
 2936TIP3   OH2 8771   4.883   0.210   0.602
 2936TIP3    H1 8772   4.917   0.170   0.522
 2936TIP3    H2 8773   4.961   0.227   0.655
 2937TIP3   OH2 8774   6.647   0.991   0.741
 2937TIP3    H1 8775   6.644   1.042   0.661
 2937TIP3    H2 8776   6.708   1.037   0.798
 2938TIP3   OH2 8777   2.208   6.004   0.288
 2938TIP3    H1 8778   2.268   5.958   0.230
 2938TIP3    H2 8779   2.257   6.015   0.369
 2939TIP3   OH2 8780   6.122   3.382   5.451
 2939TIP3    H1 8781   6.081   3.454   5.498
 2939TIP3    H2 8782   6.062   3.308   5.463
 2940TIP3   OH2 8783   3.541   2.990   5.759
 2940TIP3    H1 8784   3.565   3.070   5.712
 2940TIP3    H2 8785   3.624   2.953   5.789
 2941TIP3   OH2 8786   2.958   2.346   4.201
 2941TIP3    H1 8787   3.020   2.401   4.248
 2941TIP3    H2 8788   2.893   2.407   4.167
 2942TIP3   OH2 8789   2.879   1.878   1.452
 2942TIP3    H1 8790   2.832   1.871   1.368
 2942TIP3    H2 8791   2.817   1.845   1.517
 2943TIP3   OH2 8792   2.759   4.584   5.707
 2943TIP3    H1 8793   2.804   4.526   5.646
 2943TIP3    H2 8794   2.829   4.637   5.746
 2944TIP3   OH2 8795   1.127   5.729   0.300
 2944TIP3    H1 8796   1.167   5.759   0.382
 2944TIP3    H2 8797   1.057   5.671   0.328
 2945TIP3   OH2 8798   4.355   6.043   4.993
 2945TIP3    H1 8799   4.262   6.055   5.011
 2945TIP3    H2 8800   4.382   6.124   4.950
 2946TIP3   OH2 8801   2.975   4.936   1.520
 2946TIP3    H1 8802   2.912   4.918   1.589
 2946TIP3    H2 8803   2.955   4.872   1.452
 2947TIP3   OH2 8804   6.471   2.546   0.286
 2947TIP3    H1 8805   6.565   2.560   0.273
 2947TIP3    H2 8806   6.435   2.633   0.303
 2948TIP3   OH2 8807   2.745   4.445   2.783
 2948TIP3    H1 8808   2.657   4.448   2.821
 2948TIP3    H2 8809   2.788   4.523   2.816
 2949TIP3   OH2 8810   6.110   6.312   0.923
 2949TIP3    H1 8811   6.151   6.227   0.939
 2949TIP3    H2 8812   6.179   6.376   0.940
 2950TIP3   OH2 8813   4.303   5.608   2.726
 2950TIP3    H1 8814   4.221   5.649   2.754
 2950TIP3    H2 8815   4.367   5.679   2.726
 2951TIP3   OH2 8816   0.754   6.427   1.353
 2951TIP3    H1 8817   0.755   6.515   1.315
 2951TIP3    H2 8818   0.676   6.425   1.408
 2952TIP3   OH2 8819   5.133   0.912   0.960
 2952TIP3    H1 8820   5.180   0.995   0.952
 2952TIP3    H2 8821   5.041   0.938   0.967
 2953TIP3   OH2 8822   6.489   5.540   1.204
 2953TIP3    H1 8823   6.585   5.532   1.209
 2953TIP3    H2 8824   6.470   5.621   1.250
 2954TIP3   OH2 8825   3.709   5.217   4.755
 2954TIP3    H1 8826   3.739   5.149   4.695
 2954TIP3    H2 8827   3.736   5.299   4.713
 2955TIP3   OH2 8828   5.172   2.878   5.486
 2955TIP3    H1 8829   5.139   2.905   5.401
 2955TIP3    H2 8830   5.123   2.932   5.549
 2956TIP3   OH2 8831   3.685   4.430   2.121
 2956TIP3    H1 8832   3.670   4.468   2.208
 2956TIP3    H2 8833   3.604   4.444   2.074
 2957TIP3   OH2 8834   5.043   4.088   5.803
 2957TIP3    H1 8835   5.129   4.080   5.763
 2957TIP3    H2 8836   4.982   4.091   5.730
 2958TIP3   OH2 8837   2.736   1.079   3.779
 2958TIP3    H1 8838   2.723   1.090   3.873
 2958TIP3    H2 8839   2.767   0.990   3.769
 2959TIP3   OH2 8840   4.301   0.316   4.441
 2959TIP3    H1 8841   4.307   0.277   4.529
 2959TIP3    H2 8842   4.255   0.251   4.389
 2960TIP3   OH2 8843   2.720   6.693   1.738
 2960TIP3    H1 8844   2.707   6.623   1.674
 2960TIP3    H2 8845   2.632   6.709   1.774
 2961TIP3   OH2 8846   3.643   4.538   2.393
 2961TIP3    H1 8847   3.598   4.621   2.408
 2961TIP3    H2 8848   3.588   4.472   2.436
 2962TIP3   OH2 8849   0.237   6.152   2.076
 2962TIP3    H1 8850   0.235   6.104   1.993
 2962TIP3    H2 8851   0.162   6.119   2.125
 2963TIP3   OH2 8852   4.823   3.304   4.048
 2963TIP3    H1 8853   4.871   3.357   3.983
 2963TIP3    H2 8854   4.731   3.314   4.023
 2964TIP3   OH2 8855   2.485   4.705   4.433
 2964TIP3    H1 8856   2.565   4.757   4.439
 2964TIP3    H2 8857   2.470   4.696   4.339
 2965TIP3   OH2 8858   3.415   0.167   3.598
 2965TIP3    H1 8859   3.423   0.167   3.503
 2965TIP3    H2 8860   3.465   0.244   3.626
 2966TIP3   OH2 8861   1.838   1.856   1.290
 2966TIP3    H1 8862   1.858   1.945   1.261
 2966TIP3    H2 8863   1.882   1.799   1.227
 2967TIP3   OH2 8864   2.481   0.348   4.148
 2967TIP3    H1 8865   2.512   0.430   4.185
 2967TIP3    H2 8866   2.421   0.313   4.213
 2968TIP3   OH2 8867   4.205   4.530   5.344
 2968TIP3    H1 8868   4.225   4.473   5.270
 2968TIP3    H2 8869   4.181   4.614   5.303
 2969TIP3   OH2 8870   6.245   3.242   4.488
 2969TIP3    H1 8871   6.291   3.165   4.455
 2969TIP3    H2 8872   6.162   3.243   4.441
 2970TIP3   OH2 8873   0.351   0.309   3.750
 2970TIP3    H1 8874   0.410   0.270   3.686
 2970TIP3    H2 8875   0.402   0.379   3.791
 2971TIP3   OH2 8876   2.677   6.538   4.668
 2971TIP3    H1 8877   2.707   6.555   4.578
 2971TIP3    H2 8878   2.587   6.570   4.670
 2972TIP3   OH2 8879   6.479   5.363   3.418
 2972TIP3    H1 8880   6.512   5.443   3.378
 2972TIP3    H2 8881   6.477   5.299   3.347
 2973TIP3   OH2 8882   4.248   3.049   3.157
 2973TIP3    H1 8883   4.192   2.973   3.142
 2973TIP3    H2 8884   4.334   3.012   3.177
 2974TIP3   OH2 8885   4.592   3.177   2.225
 2974TIP3    H1 8886   4.581   3.129   2.143
 2974TIP3    H2 8887   4.567   3.267   2.203
 2975TIP3   OH2 8888   2.493   3.201   3.968
 2975TIP3    H1 8889   2.496   3.249   3.886
 2975TIP3    H2 8890   2.400   3.177   3.978
 2976TIP3   OH2 8891   3.062   5.449   1.203
 2976TIP3    H1 8892   3.130   5.414   1.261
 2976TIP3    H2 8893   3.095   5.535   1.177
 2977TIP3   OH2 8894   7.039   3.925   1.969
 2977TIP3    H1 8895   6.998   3.919   1.882
 2977TIP3    H2 8896   6.995   3.999   2.011
 2978TIP3   OH2 8897   4.956   2.711   4.210
 2978TIP3    H1 8898   5.035   2.699   4.263
 2978TIP3    H2 8899   4.982   2.681   4.123
 2979TIP3   OH2 8900   6.177   5.032   5.675
 2979TIP3    H1 8901   6.210   5.091   5.607
 2979TIP3    H2 8902   6.252   5.014   5.731
 2980TIP3   OH2 8903   0.947   4.421   4.994
 2980TIP3    H1 8904   0.868   4.381   4.957
 2980TIP3    H2 8905   0.989   4.350   5.042
 2981TIP3   OH2 8906   5.497   3.211   4.343
 2981TIP3    H1 8907   5.408   3.179   4.360
 2981TIP3    H2 8908   5.486   3.304   4.323
 2982TIP3   OH2 8909   1.847   6.157   5.713
 2982TIP3    H1 8910   1.848   6.109   5.631
 2982TIP3    H2 8911   1.776   6.118   5.763
 2983TIP3   OH2 8912   0.033   3.305   2.028
 2983TIP3    H1 8913   0.081   3.366   2.084
 2983TIP3    H2 8914  -0.001   3.359   1.957
 2984TIP3   OH2 8915   0.546   0.274   1.376
 2984TIP3    H1 8916   0.569   0.357   1.335
 2984TIP3    H2 8917   0.591   0.208   1.323
 2985TIP3   OH2 8918   2.353   0.280   2.511
 2985TIP3    H1 8919   2.433   0.234   2.484
 2985TIP3    H2 8920   2.382   0.369   2.529
 2986TIP3   OH2 8921   1.442   0.307   1.091
 2986TIP3    H1 8922   1.425   0.221   1.131
 2986TIP3    H2 8923   1.371   0.362   1.122
 2987TIP3   OH2 8924   0.229   0.659   5.054
 2987TIP3    H1 8925   0.155   0.603   5.077
 2987TIP3    H2 8926   0.190   0.742   5.030
 2988TIP3   OH2 8927   6.139   6.457   3.492
 2988TIP3    H1 8928   6.113   6.547   3.472
 2988TIP3    H2 8929   6.135   6.412   3.408
 2989TIP3   OH2 8930   3.729   2.899   2.894
 2989TIP3    H1 8931   3.772   2.880   2.810
 2989TIP3    H2 8932   3.764   2.833   2.954
 2990TIP3   OH2 8933   4.187   4.655   3.318
 2990TIP3    H1 8934   4.163   4.662   3.411
 2990TIP3    H2 8935   4.128   4.587   3.284
 2991TIP3   OH2 8936   0.956   2.089   1.254
 2991TIP3    H1 8937   1.008   2.030   1.309
 2991TIP3    H2 8938   0.995   2.176   1.269
 2992TIP3   OH2 8939   6.696   2.512   3.880
 2992TIP3    H1 8940   6.787   2.537   3.870
 2992TIP3    H2 8941   6.647   2.594   3.872
 2993TIP3   OH2 8942   1.485   5.468   1.386
 2993TIP3    H1 8943   1.408   5.499   1.432
 2993TIP3    H2 8944   1.531   5.414   1.449
 2994TIP3   OH2 8945   0.721   1.689   4.832
 2994TIP3    H1 8946   0.723   1.673   4.927
 2994TIP3    H2 8947   0.637   1.653   4.804
 2995TIP3   OH2 8948   6.192   2.847   5.808
 2995TIP3    H1 8949   6.144   2.858   5.890
 2995TIP3    H2 8950   6.134   2.794   5.753
 2996TIP3   OH2 8951   6.253   1.525   2.852
 2996TIP3    H1 8952   6.308   1.553   2.778
 2996TIP3    H2 8953   6.165   1.557   2.829
 2997TIP3   OH2 8954   2.717   5.252   0.931
 2997TIP3    H1 8955   2.801   5.210   0.950
 2997TIP3    H2 8956   2.663   5.182   0.895
 2998TIP3   OH2 8957   0.358   2.416   4.207
 2998TIP3    H1 8958   0.369   2.447   4.117
 2998TIP3    H2 8959   0.442   2.376   4.228
 2999TIP3   OH2 8960   3.602   0.474   2.549
 2999TIP3    H1 8961   3.532   0.499   2.489
 2999TIP3    H2 8962   3.560   0.414   2.611
 3000TIP3   OH2 8963   2.890   0.473   3.692
 3000TIP3    H1 8964   2.877   0.487   3.599
 3000TIP3    H2 8965   2.959   0.534   3.717
 3001TIP3   OH2 8966   0.318   1.714   0.243
 3001TIP3    H1 8967   0.387   1.662   0.202
 3001TIP3    H2 8968   0.266   1.746   0.169
 3002TIP3   OH2 8969   6.144   5.863   1.882
 3002TIP3    H1 8970   6.196   5.800   1.832
 3002TIP3    H2 8971   6.201   5.888   1.955
 3003TIP3   OH2 8972   4.062   5.386   0.766
 3003TIP3    H1 8973   4.133   5.327   0.790
 3003TIP3    H2 8974   3.986   5.354   0.815
 3004TIP3   OH2 8975   1.396   3.578   1.381
 3004TIP3    H1 8976   1.402   3.665   1.343
 3004TIP3    H2 8977   1.472   3.571   1.439
 3005TIP3   OH2 8978   3.374   6.307   2.085
 3005TIP3    H1 8979   3.311   6.338   2.020
 3005TIP3    H2 8980   3.447   6.273   2.034
 3006TIP3   OH2 8981   1.149   4.462   3.773
 3006TIP3    H1 8982   1.106   4.438   3.855
 3006TIP3    H2 8983   1.107   4.406   3.707
 3007TIP3   OH2 8984   1.442   6.359   2.160
 3007TIP3    H1 8985   1.461   6.372   2.253
 3007TIP3    H2 8986   1.354   6.323   2.159
 3008TIP3   OH2 8987   5.942   1.674   2.420
 3008TIP3    H1 8988   6.014   1.624   2.459
 3008TIP3    H2 8989   5.955   1.664   2.326
 3009TIP3   OH2 8990   6.239   5.554   1.963
 3009TIP3    H1 8991   6.207   5.465   1.948
 3009TIP3    H2 8992   6.172   5.596   2.015
 3010TIP3   OH2 8993   1.163   0.617   4.408
 3010TIP3    H1 8994   1.207   0.692   4.369
 3010TIP3    H2 8995   1.224   0.544   4.394
 3011TIP3   OH2 8996   1.546   2.652   2.920
 3011TIP3    H1 8997   1.570   2.559   2.916
 3011TIP3    H2 8998   1.630   2.698   2.910
 3012TIP3   OH2 8999   2.046   3.413   3.555
 3012TIP3    H1 9000   2.026   3.385   3.466
 3012TIP3    H2 9001   2.142   3.411   3.559
 3013TIP3   OH2 9002   4.628   5.532   4.600
 3013TIP3    H1 9003   4.657   5.617   4.567
 3013TIP3    H2 9004   4.532   5.539   4.604
 3014TIP3   OH2 9005   1.247   3.184   3.814
 3014TIP3    H1 9006   1.227   3.245   3.743
 3014TIP3    H2 9007   1.223   3.231   3.893
 3015TIP3   OH2 9008   3.210   1.775   1.511
 3015TIP3    H1 9009   3.158   1.695   1.519
 3015TIP3    H2 9010   3.214   1.791   1.417
 3016TIP3   OH2 9011   7.096   4.463   0.132
 3016TIP3    H1 9012   7.101   4.527   0.061
 3016TIP3    H2 9013   7.107   4.378   0.089
 3017TIP3   OH2 9014   0.450   4.029   5.857
 3017TIP3    H1 9015   0.368   3.992   5.889
 3017TIP3    H2 9016   0.508   3.954   5.849
 3018TIP3   OH2 9017   3.136   1.014   5.198
 3018TIP3    H1 9018   3.180   1.092   5.163
 3018TIP3    H2 9019   3.208   0.956   5.222
 3019TIP3   OH2 9020   2.155   1.745   3.598
 3019TIP3    H1 9021   2.251   1.744   3.596
 3019TIP3    H2 9022   2.133   1.836   3.619
 3020TIP3   OH2 9023   6.987   1.818   0.055
 3020TIP3    H1 9024   6.980   1.873   0.133
 3020TIP3    H2 9025   6.917   1.849  -0.002
 3021TIP3   OH2 9026   3.526   2.337   1.980
 3021TIP3    H1 9027   3.604   2.391   1.990
 3021TIP3    H2 9028   3.462   2.377   2.039
 3022TIP3   OH2 9029   3.491   3.963   3.315
 3022TIP3    H1 9030   3.568   3.974   3.259
 3022TIP3    H2 9031   3.428   3.915   3.260
 3023TIP3   OH2 9032   1.236   1.111   5.497
 3023TIP3    H1 9033   1.181   1.087   5.422
 3023TIP3    H2 9034   1.318   1.141   5.457
 3024TIP3   OH2 9035   6.157   4.120   3.402
 3024TIP3    H1 9036   6.152   4.025   3.397
 3024TIP3    H2 9037   6.067   4.150   3.392
 3025TIP3   OH2 9038   5.165   1.540   4.635
 3025TIP3    H1 9039   5.249   1.547   4.589
 3025TIP3    H2 9040   5.127   1.628   4.631
 3026TIP3   OH2 9041   1.633   6.140   0.072
 3026TIP3    H1 9042   1.562   6.166   0.013
 3026TIP3    H2 9043   1.659   6.221   0.116
 3027TIP3   OH2 9044   0.374   3.169   5.410
 3027TIP3    H1 9045   0.309   3.164   5.479
 3027TIP3    H2 9046   0.324   3.195   5.332
 3028TIP3   OH2 9047   5.851   1.660   5.487
 3028TIP3    H1 9048   5.906   1.583   5.474
 3028TIP3    H2 9049   5.762   1.628   5.473
 3029TIP3   OH2 9050   3.267   2.136   1.662
 3029TIP3    H1 9051   3.221   2.202   1.714
 3029TIP3    H2 9052   3.200   2.098   1.606
 3030TIP3   OH2 9053   5.022   2.563   4.637
 3030TIP3    H1 9054   5.060   2.613   4.564
 3030TIP3    H2 9055   5.061   2.602   4.715
 3031TIP3   OH2 9056   6.374   4.158   2.179
 3031TIP3    H1 9057   6.391   4.223   2.248
 3031TIP3    H2 9058   6.282   4.135   2.190
 3032TIP3   OH2 9059   1.994   2.516   4.664
 3032TIP3    H1 9060   1.979   2.536   4.572
 3032TIP3    H2 9061   2.064   2.575   4.691
 3033TIP3   OH2 9062   4.738   0.587   1.462
 3033TIP3    H1 9063   4.762   0.613   1.551
 3033TIP3    H2 9064   4.715   0.669   1.419
 3034TIP3   OH2 9065   0.126   0.283   5.452
 3034TIP3    H1 9066   0.100   0.278   5.360
 3034TIP3    H2 9067   0.073   0.354   5.488
 3035TIP3   OH2 9068   0.770   5.215   5.054
 3035TIP3    H1 9069   0.809   5.184   4.973
 3035TIP3    H2 9070   0.682   5.245   5.029
 3036TIP3   OH2 9071   6.839   2.258   3.067
 3036TIP3    H1 9072   6.843   2.175   3.114
 3036TIP3    H2 9073   6.929   2.291   3.070
 3037TIP3   OH2 9074   6.926   1.055   0.842
 3037TIP3    H1 9075   6.980   1.093   0.772
 3037TIP3    H2 9076   6.931   1.118   0.914
 3038TIP3   OH2 9077   0.331   4.562   2.594
 3038TIP3    H1 9078   0.236   4.565   2.582
 3038TIP3    H2 9079   0.344   4.508   2.671
 3039TIP3   OH2 9080   0.215   0.998   3.805
 3039TIP3    H1 9081   0.295   1.004   3.753
 3039TIP3    H2 9082   0.217   1.077   3.859
 3040TIP3   OH2 9083   6.091   0.615   1.454
 3040TIP3    H1 9084   6.068   0.530   1.418
 3040TIP3    H2 9085   6.154   0.651   1.392
 3041TIP3   OH2 9086   0.705   4.989   3.619
 3041TIP3    H1 9087   0.793   5.014   3.648
 3041TIP3    H2 9088   0.674   4.929   3.687
 3042TIP3   OH2 9089   3.126   1.259   2.674
 3042TIP3    H1 9090   3.043   1.255   2.628
 3042TIP3    H2 9091   3.187   1.210   2.618
 3043TIP3   OH2 9092   1.609   1.408   2.852
 3043TIP3    H1 9093   1.598   1.468   2.779
 3043TIP3    H2 9094   1.593   1.462   2.930
 3044TIP3   OH2 9095   5.495   2.119   0.894
 3044TIP3    H1 9096   5.401   2.130   0.880
 3044TIP3    H2 9097   5.510   2.025   0.882
 3045TIP3   OH2 9098   1.726   5.949   4.861
 3045TIP3    H1 9099   1.804   5.896   4.848
 3045TIP3    H2 9100   1.683   5.949   4.776
 3046TIP3   OH2 9101   4.323   1.266   5.073
 3046TIP3    H1 9102   4.326   1.264   4.977
 3046TIP3    H2 9103   4.339   1.175   5.099
 3047TIP3   OH2 9104   2.996   5.945   3.328
 3047TIP3    H1 9105   2.922   6.005   3.321
 3047TIP3    H2 9106   3.054   5.970   3.256
 3048TIP3   OH2 9107   4.658   0.367   4.101
 3048TIP3    H1 9108   4.729   0.431   4.093
 3048TIP3    H2 9109   4.593   0.411   4.156
 3049TIP3   OH2 9110   4.505   0.481   4.725
 3049TIP3    H1 9111   4.477   0.532   4.649
 3049TIP3    H2 9112   4.564   0.415   4.691
 3050TIP3   OH2 9113   4.503   1.389   5.299
 3050TIP3    H1 9114   4.453   1.371   5.220
 3050TIP3    H2 9115   4.466   1.330   5.365
 3051TIP3   OH2 9116   4.974   2.181   5.623
 3051TIP3    H1 9117   4.944   2.109   5.679
 3051TIP3    H2 9118   4.961   2.260   5.677
 3052TIP3   OH2 9119   4.219   2.195   3.027
 3052TIP3    H1 9120   4.259   2.273   3.066
 3052TIP3    H2 9121   4.232   2.206   2.933
 3053TIP3   OH2 9122   2.470   6.484   5.141
 3053TIP3    H1 9123   2.399   6.446   5.088
 3053TIP3    H2 9124   2.425   6.525   5.215
 3054TIP3   OH2 9125   2.844   0.984   1.730
 3054TIP3    H1 9126   2.891   1.013   1.652
 3054TIP3    H2 9127   2.780   0.921   1.697
 3055TIP3   OH2 9128   4.746   3.001   5.491
 3055TIP3    H1 9129   4.704   3.023   5.575
 3055TIP3    H2 9130   4.784   2.914   5.506
 3056TIP3   OH2 9131   5.980   4.212   2.767
 3056TIP3    H1 9132   5.989   4.303   2.739
 3056TIP3    H2 9133   6.030   4.206   2.848
 3057TIP3   OH2 9134   2.449   3.872   3.531
 3057TIP3    H1 9135   2.478   3.785   3.502
 3057TIP3    H2 9136   2.445   3.866   3.626
 3058TIP3   OH2 9137   5.102   5.830   3.135
 3058TIP3    H1 9138   5.167   5.800   3.198
 3058TIP3    H2 9139   5.117   5.776   3.058
 3059TIP3   OH2 9140   0.200   5.795   1.419
 3059TIP3    H1 9141   0.216   5.821   1.510
 3059TIP3    H2 9142   0.164   5.873   1.378
 3060TIP3   OH2 9143   5.369   0.455   3.471
 3060TIP3    H1 9144   5.290   0.408   3.501
 3060TIP3    H2 9145   5.411   0.484   3.552
 3061TIP3   OH2 9146   1.707   6.794   5.851
 3061TIP3    H1 9147   1.801   6.786   5.833
 3061TIP3    H2 9148   1.679   6.705   5.870
 3062TIP3   OH2 9149   5.181   2.944   2.712
 3062TIP3    H1 9150   5.154   2.859   2.677
 3062TIP3    H2 9151   5.173   3.004   2.638
 3063TIP3   OH2 9152   4.673   0.454   2.076
 3063TIP3    H1 9153   4.591   0.426   2.036
 3063TIP3    H2 9154   4.733   0.381   2.061
 3064TIP3   OH2 9155   4.824   3.473   2.833
 3064TIP3    H1 9156   4.876   3.397   2.809
 3064TIP3    H2 9157   4.755   3.439   2.891
 3065TIP3   OH2 9158   0.416   4.481   2.838
 3065TIP3    H1 9159   0.506   4.469   2.806
 3065TIP3    H2 9160   0.428   4.525   2.923
 3066TIP3   OH2 9161   1.006   1.504   0.490
 3066TIP3    H1 9162   0.927   1.466   0.530
 3066TIP3    H2 9163   1.056   1.538   0.565
 3067TIP3   OH2 9164   6.446   0.772   2.279
 3067TIP3    H1 9165   6.412   0.685   2.256
 3067TIP3    H2 9166   6.539   0.768   2.257
 3068TIP3   OH2 9167   2.285   1.884   2.033
 3068TIP3    H1 9168   2.336   1.923   2.104
 3068TIP3    H2 9169   2.293   1.945   1.960
 3069TIP3   OH2 9170   5.056   3.293   4.460
 3069TIP3    H1 9171   5.086   3.257   4.377
 3069TIP3    H2 9172   5.057   3.220   4.521
 3070TIP3   OH2 9173   3.137   6.470   0.710
 3070TIP3    H1 9174   3.120   6.457   0.617
 3070TIP3    H2 9175   3.074   6.537   0.738
 3071TIP3   OH2 9176   6.204   5.271   1.583
 3071TIP3    H1 9177   6.225   5.199   1.524
 3071TIP3    H2 9178   6.235   5.350   1.539
 3072TIP3   OH2 9179   0.140   0.167   4.174
 3072TIP3    H1 9180   0.187   0.224   4.234
 3072TIP3    H2 9181   0.160   0.201   4.087
 3073TIP3   OH2 9182   6.094   3.869   4.617
 3073TIP3    H1 9183   6.157   3.904   4.554
 3073TIP3    H2 9184   6.100   3.927   4.693
 3074TIP3   OH2 9185   0.341   6.320   0.124
 3074TIP3    H1 9186   0.245   6.320   0.117
 3074TIP3    H2 9187   0.367   6.400   0.079
 3075TIP3   OH2 9188   6.964   2.513   3.754
 3075TIP3    H1 9189   6.976   2.567   3.833
 3075TIP3    H2 9190   6.979   2.423   3.784
 3076TIP3   OH2 9191   4.995   0.129   4.910
 3076TIP3    H1 9192   4.966   0.081   4.987
 3076TIP3    H2 9193   5.043   0.205   4.945
 3077TIP3   OH2 9194   5.950   3.807   1.571
 3077TIP3    H1 9195   5.919   3.876   1.513
 3077TIP3    H2 9196   6.044   3.822   1.578
 3078TIP3   OH2 9197   3.247   2.119   4.878
 3078TIP3    H1 9198   3.293   2.115   4.962
 3078TIP3    H2 9199   3.157   2.139   4.901
 3079TIP3   OH2 9200   2.227   1.562   5.546
 3079TIP3    H1 9201   2.266   1.476   5.527
 3079TIP3    H2 9202   2.225   1.566   5.642
 3080TIP3   OH2 9203   2.828   5.152   5.170
 3080TIP3    H1 9204   2.909   5.129   5.124
 3080TIP3    H2 9205   2.759   5.105   5.123
 3081TIP3   OH2 9206   6.272   1.094   4.063
 3081TIP3    H1 9207   6.305   1.111   3.975
 3081TIP3    H2 9208   6.293   1.002   4.079
 3082TIP3   OH2 9209   4.972   1.430   3.170
 3082TIP3    H1 9210   4.938   1.424   3.080
 3082TIP3    H2 9211   5.010   1.344   3.187
 3083TIP3   OH2 9212   4.623   3.657   2.085
 3083TIP3    H1 9213   4.554   3.720   2.067
 3083TIP3    H2 9214   4.704   3.705   2.064
 3084TIP3   OH2 9215   5.088   5.276   4.638
 3084TIP3    H1 9216   5.045   5.206   4.688
 3084TIP3    H2 9217   5.021   5.307   4.577
 3085TIP3   OH2 9218   4.998   1.545   1.669
 3085TIP3    H1 9219   5.025   1.559   1.760
 3085TIP3    H2 9220   4.976   1.633   1.637
 3086TIP3   OH2 9221   6.202   4.299   4.834
 3086TIP3    H1 9222   6.249   4.321   4.915
 3086TIP3    H2 9223   6.260   4.329   4.764
 3087TIP3   OH2 9224   4.911   5.647   5.361
 3087TIP3    H1 9225   4.925   5.621   5.270
 3087TIP3    H2 9226   4.821   5.679   5.364
 3088TIP3   OH2 9227   3.041   4.853   5.537
 3088TIP3    H1 9228   3.132   4.864   5.510
 3088TIP3    H2 9229   2.992   4.860   5.455
 3089TIP3   OH2 9230   4.614   3.751   2.775
 3089TIP3    H1 9231   4.677   3.767   2.846
 3089TIP3    H2 9232   4.580   3.663   2.793
 3090TIP3   OH2 9233   1.323   4.362   2.383
 3090TIP3    H1 9234   1.231   4.348   2.360
 3090TIP3    H2 9235   1.372   4.330   2.308
 3091TIP3   OH2 9236   4.436   2.992   1.728
 3091TIP3    H1 9237   4.356   2.986   1.781
 3091TIP3    H2 9238   4.460   2.902   1.711
 3092TIP3   OH2 9239   3.498   5.246   3.358
 3092TIP3    H1 9240   3.502   5.227   3.452
 3092TIP3    H2 9241   3.492   5.160   3.316
 3093TIP3   OH2 9242   0.754   1.361   0.305
 3093TIP3    H1 9243   0.740   1.375   0.398
 3093TIP3    H2 9244   0.750   1.448   0.266
 3094TIP3   OH2 9245   0.044   2.417   1.513
 3094TIP3    H1 9246   0.113   2.470   1.474
 3094TIP3    H2 9247   0.084   2.331   1.527
 3095TIP3   OH2 9248   5.962   5.906   1.230
 3095TIP3    H1 9249   5.933   5.845   1.298
 3095TIP3    H2 9250   6.055   5.889   1.220
 3096TIP3   OH2 9251   6.837   5.577   0.490
 3096TIP3    H1 9252   6.766   5.560   0.552
 3096TIP3    H2 9253   6.895   5.638   0.536
 3097TIP3   OH2 9254   0.291   0.443   3.357
 3097TIP3    H1 9255   0.325   0.374   3.301
 3097TIP3    H2 9256   0.209   0.470   3.316
 3098TIP3   OH2 9257   3.619   3.846   3.542
 3098TIP3    H1 9258   3.665   3.911   3.596
 3098TIP3    H2 9259   3.565   3.898   3.483
 3099TIP3   OH2 9260   3.475   6.815   4.960
 3099TIP3    H1 9261   3.525   6.776   4.888
 3099TIP3    H2 9262   3.534   6.809   5.035
 3100TIP3   OH2 9263   0.449   3.240   1.388
 3100TIP3    H1 9264   0.368   3.188   1.386
 3100TIP3    H2 9265   0.464   3.258   1.481
 3101TIP3   OH2 9266   3.946   2.371   3.460
 3101TIP3    H1 9267   3.954   2.320   3.379
 3101TIP3    H2 9268   4.022   2.346   3.512
 3102TIP3   OH2 9269   4.909   2.182   0.508
 3102TIP3    H1 9270   4.937   2.199   0.598
 3102TIP3    H2 9271   4.837   2.119   0.517
 3103TIP3   OH2 9272   2.906   2.627   4.884
 3103TIP3    H1 9273   2.963   2.553   4.908
 3103TIP3    H2 9274   2.866   2.654   4.967
 3104TIP3   OH2 9275   3.216   6.805   2.820
 3104TIP3    H1 9276   3.270   6.727   2.812
 3104TIP3    H2 9277   3.216   6.825   2.914
 3105TIP3   OH2 9278   1.183   6.251   4.372
 3105TIP3    H1 9279   1.267   6.223   4.409
 3105TIP3    H2 9280   1.186   6.347   4.378
 3106TIP3   OH2 9281   3.320   5.644   1.814
 3106TIP3    H1 9282   3.225   5.638   1.802
 3106TIP3    H2 9283   3.345   5.556   1.842
 3107TIP3   OH2 9284   2.841   1.509   0.907
 3107TIP3    H1 9285   2.751   1.490   0.879
 3107TIP3    H2 9286   2.851   1.603   0.893
 3108TIP3   OH2 9287   0.152   3.582   1.325
 3108TIP3    H1 9288   0.218   3.642   1.358
 3108TIP3    H2 9289   0.200   3.522   1.267
 3109TIP3   OH2 9290   1.839   1.728   0.842
 3109TIP3    H1 9291   1.836   1.823   0.832
 3109TIP3    H2 9292   1.932   1.706   0.830
 3110TIP3   OH2 9293   4.982   4.976   2.286
 3110TIP3    H1 9294   5.011   4.908   2.225
 3110TIP3    H2 9295   4.957   4.928   2.365
 3111TIP3   OH2 9296   3.332   2.863   3.156
 3111TIP3    H1 9297   3.320   2.785   3.209
 3111TIP3    H2 9298   3.396   2.915   3.204
 3112TIP3   OH2 9299   1.960   6.031   1.462
 3112TIP3    H1 9300   1.885   6.059   1.409
 3112TIP3    H2 9301   1.922   6.003   1.545
 3113TIP3   OH2 9302   5.721   5.190   4.717
 3113TIP3    H1 9303   5.808   5.189   4.756
 3113TIP3    H2 9304   5.716   5.108   4.667
 3114TIP3   OH2 9305   6.741   2.534   0.164
 3114TIP3    H1 9306   6.814   2.476   0.144
 3114TIP3    H2 9307   6.715   2.571   0.079
 3115TIP3   OH2 9308   7.109   5.249   0.542
 3115TIP3    H1 9309   7.063   5.168   0.562
 3115TIP3    H2 9310   7.123   5.246   0.448
 3116TIP3   OH2 9311   1.724   5.716   3.455
 3116TIP3    H1 9312   1.799   5.730   3.398
 3116TIP3    H2 9313   1.759   5.672   3.532
 3117TIP3   OH2 9314   5.931   3.200   5.543
 3117TIP3    H1 9315   5.849   3.163   5.510
 3117TIP3    H2 9316   5.991   3.125   5.546
 3118TIP3   OH2 9317   4.806   4.017   0.481
 3118TIP3    H1 9318   4.835   4.078   0.413
 3118TIP3    H2 9319   4.813   4.067   0.563
 3119TIP3   OH2 9320   2.093   1.022   1.412
 3119TIP3    H1 9321   2.158   0.959   1.381
 3119TIP3    H2 9322   2.083   1.083   1.339
 3120TIP3   OH2 9323   4.118   2.610   3.306
 3120TIP3    H1 9324   4.181   2.645   3.370
 3120TIP3    H2 9325   4.033   2.626   3.346
 3121TIP3   OH2 9326   5.777   4.653   5.851
 3121TIP3    H1 9327   5.774   4.703   5.933
 3121TIP3    H2 9328   5.807   4.566   5.877
 3122TIP3   OH2 9329   1.123   5.602   2.643
 3122TIP3    H1 9330   1.111   5.511   2.669
 3122TIP3    H2 9331   1.064   5.651   2.700
 3123TIP3   OH2 9332   3.817   6.152   0.731
 3123TIP3    H1 9333   3.819   6.060   0.757
 3123TIP3    H2 9334   3.725   6.170   0.713
 3124TIP3   OH2 9335   5.658   3.625   3.745
 3124TIP3    H1 9336   5.637   3.593   3.832
 3124TIP3    H2 9337   5.574   3.651   3.708
 3125TIP3   OH2 9338   6.967   0.881   2.630
 3125TIP3    H1 9339   6.958   0.795   2.671
 3125TIP3    H2 9340   7.061   0.890   2.612
 3126TIP3   OH2 9341   1.511   6.282   3.597
 3126TIP3    H1 9342   1.517   6.191   3.567
 3126TIP3    H2 9343   1.417   6.296   3.612
 3127TIP3   OH2 9344   0.703   2.757   4.905
 3127TIP3    H1 9345   0.702   2.837   4.957
 3127TIP3    H2 9346   0.729   2.688   4.967
 3128TIP3   OH2 9347   1.051   6.198   4.936
 3128TIP3    H1 9348   1.048   6.109   4.971
 3128TIP3    H2 9349   1.008   6.251   5.003
 3129TIP3   OH2 9350   6.572   1.722   1.386
 3129TIP3    H1 9351   6.600   1.657   1.322
 3129TIP3    H2 9352   6.649   1.736   1.442
 3130TIP3   OH2 9353   5.240   0.834   5.682
 3130TIP3    H1 9354   5.305   0.845   5.751
 3130TIP3    H2 9355   5.291   0.839   5.601
 3131TIP3   OH2 9356   3.190   5.913   1.224
 3131TIP3    H1 9357   3.258   5.881   1.164
 3131TIP3    H2 9358   3.238   5.958   1.293
 3132TIP3   OH2 9359   0.032   1.469   1.092
 3132TIP3    H1 9360  -0.014   1.422   1.161
 3132TIP3    H2 9361   0.122   1.476   1.124
 3133TIP3   OH2 9362   0.958   0.065   5.263
 3133TIP3    H1 9363   1.012   0.051   5.185
 3133TIP3    H2 9364   1.009   0.027   5.335
 3134TIP3   OH2 9365   1.977   2.008   0.367
 3134TIP3    H1 9366   2.039   1.964   0.309
 3134TIP3    H2 9367   2.012   2.096   0.378
 3135TIP3   OH2 9368   6.450   2.963   2.450
 3135TIP3    H1 9369   6.372   2.954   2.506
 3135TIP3    H2 9370   6.507   2.892   2.479
 3136TIP3   OH2 9371   0.731   4.647   2.977
 3136TIP3    H1 9372   0.761   4.686   3.059
 3136TIP3    H2 9373   0.710   4.556   3.001
 3137TIP3   OH2 9374   0.408   4.281   1.401
 3137TIP3    H1 9375   0.478   4.225   1.432
 3137TIP3    H2 9376   0.361   4.307   1.481
 3138TIP3   OH2 9377   6.580   1.017   3.077
 3138TIP3    H1 9378   6.651   1.081   3.088
 3138TIP3    H2 9379   6.609   0.962   3.004
 3139TIP3   OH2 9380   5.140   1.077   0.391
 3139TIP3    H1 9381   5.209   1.138   0.365
 3139TIP3    H2 9382   5.104   1.045   0.309
 3140TIP3   OH2 9383   4.655   6.022   3.359
 3140TIP3    H1 9384   4.622   6.077   3.288
 3140TIP3    H2 9385   4.739   5.990   3.327
 3141TIP3   OH2 9386   2.141   4.067   3.059
 3141TIP3    H1 9387   2.158   4.082   3.152
 3141TIP3    H2 9388   2.048   4.085   3.048
 3142TIP3   OH2 9389   2.884   0.050   1.450
 3142TIP3    H1 9390   2.939   0.072   1.375
 3142TIP3    H2 9391   2.842   0.133   1.475
 3143TIP3   OH2 9392   3.847   1.385   0.691
 3143TIP3    H1 9393   3.916   1.333   0.652
 3143TIP3    H2 9394   3.884   1.473   0.698
 3144TIP3   OH2 9395   5.972   1.428   1.756
 3144TIP3    H1 9396   5.992   1.522   1.748
 3144TIP3    H2 9397   5.896   1.425   1.813
 3145TIP3   OH2 9398   7.116   2.404   3.200
 3145TIP3    H1 9399   7.101   2.366   3.287
 3145TIP3    H2 9400   7.191   2.355   3.166
 3146TIP3   OH2 9401   0.818   3.481   1.426
 3146TIP3    H1 9402   0.781   3.420   1.490
 3146TIP3    H2 9403   0.832   3.428   1.347
 3147TIP3   OH2 9404   0.202   5.245   2.498
 3147TIP3    H1 9405   0.285   5.197   2.490
 3147TIP3    H2 9406   0.170   5.254   2.408
 3148TIP3   OH2 9407   3.276   5.009   4.271
 3148TIP3    H1 9408   3.199   4.973   4.228
 3148TIP3    H2 9409   3.260   5.103   4.274
 3149TIP3   OH2 9410   6.219   3.229   5.096
 3149TIP3    H1 9411   6.279   3.302   5.113
 3149TIP3    H2 9412   6.139   3.271   5.065
 3150TIP3   OH2 9413   1.861   0.315   4.327
 3150TIP3    H1 9414   1.782   0.303   4.379
 3150TIP3    H2 9415   1.930   0.273   4.378
 3151TIP3   OH2 9416   2.844   2.580   5.619
 3151TIP3    H1 9417   2.874   2.562   5.709
 3151TIP3    H2 9418   2.749   2.589   5.627
 3152TIP3   OH2 9419   0.879   5.057   1.207
 3152TIP3    H1 9420   0.963   5.019   1.231
 3152TIP3    H2 9421   0.814   5.002   1.250
 3153TIP3   OH2 9422   7.157   6.021   0.906
 3153TIP3    H1 9423   7.235   5.980   0.867
 3153TIP3    H2 9424   7.155   6.108   0.868
 3154TIP3   OH2 9425   1.324   1.644   0.872
 3154TIP3    H1 9426   1.410   1.633   0.831
 3154TIP3    H2 9427   1.326   1.585   0.947
 3155TIP3   OH2 9428   2.827   0.280   4.801
 3155TIP3    H1 9429   2.826   0.240   4.714
 3155TIP3    H2 9430   2.824   0.374   4.784
 3156TIP3   OH2 9431   1.431   6.148   4.244
 3156TIP3    H1 9432   1.395   6.061   4.225
 3156TIP3    H2 9433   1.506   6.156   4.185
 3157TIP3   OH2 9434   4.671   6.416   5.086
 3157TIP3    H1 9435   4.594   6.427   5.030
 3157TIP3    H2 9436   4.706   6.330   5.062
 3158TIP3   OH2 9437   6.651   3.095   1.637
 3158TIP3    H1 9438   6.619   3.095   1.547
 3158TIP3    H2 9439   6.740   3.058   1.632
 3159TIP3   OH2 9440   0.448   3.425   4.357
 3159TIP3    H1 9441   0.530   3.377   4.366
 3159TIP3    H2 9442   0.442   3.445   4.264
 3160TIP3   OH2 9443   0.612   0.825   2.757
 3160TIP3    H1 9444   0.540   0.772   2.723
 3160TIP3    H2 9445   0.584   0.916   2.743
 3161TIP3   OH2 9446   6.027   5.837   5.606
 3161TIP3    H1 9447   5.950   5.893   5.606
 3161TIP3    H2 9448   6.002   5.760   5.555
 3162TIP3   OH2 9449   6.025   2.390   2.180
 3162TIP3    H1 9450   5.965   2.430   2.117
 3162TIP3    H2 9451   6.007   2.435   2.262
 3163TIP3   OH2 9452   0.866   3.225   4.963
 3163TIP3    H1 9453   0.880   3.184   4.877
 3163TIP3    H2 9454   0.778   3.263   4.958
 3164TIP3   OH2 9455   2.631   2.835   1.154
 3164TIP3    H1 9456   2.659   2.923   1.179
 3164TIP3    H2 9457   2.568   2.809   1.221
 3165TIP3   OH2 9458   6.592   3.735   5.518
 3165TIP3    H1 9459   6.557   3.783   5.443
 3165TIP3    H2 9460   6.599   3.800   5.587
 3166TIP3   OH2 9461   1.290   5.544   2.437
 3166TIP3    H1 9462   1.230   5.579   2.503
 3166TIP3    H2 9463   1.248   5.462   2.408
 3167TIP3   OH2 9464   2.705   0.832   2.123
 3167TIP3    H1 9465   2.624   0.865   2.162
 3167TIP3    H2 9466   2.689   0.738   2.112
 3168TIP3   OH2 9467   3.907   2.763   0.869
 3168TIP3    H1 9468   3.870   2.678   0.846
 3168TIP3    H2 9469   3.836   2.808   0.915
 3169TIP3   OH2 9470   5.075   4.292   0.617
 3169TIP3    H1 9471   5.142   4.328   0.559
 3169TIP3    H2 9472   4.993   4.301   0.567
 3170TIP3   OH2 9473   6.130   2.945   1.550
 3170TIP3    H1 9474   6.141   3.035   1.581
 3170TIP3    H2 9475   6.212   2.901   1.575
 3171TIP3   OH2 9476   1.290   1.742   1.497
 3171TIP3    H1 9477   1.330   1.682   1.435
 3171TIP3    H2 9478   1.362   1.772   1.552
 3172TIP3   OH2 9479   2.292   2.659   4.620
 3172TIP3    H1 9480   2.293   2.601   4.543
 3172TIP3    H2 9481   2.286   2.599   4.694
 3173TIP3   OH2 9482   4.213   2.512   0.797
 3173TIP3    H1 9483   4.117   2.509   0.797
 3173TIP3    H2 9484   4.237   2.527   0.706
 3174TIP3   OH2 9485   3.447   2.195   3.692
 3174TIP3    H1 9486   3.394   2.224   3.766
 3174TIP3    H2 9487   3.394   2.127   3.651
 3175TIP3   OH2 9488   7.069   4.469   2.643
 3175TIP3    H1 9489   7.127   4.433   2.710
 3175TIP3    H2 9490   7.000   4.514   2.691
 3176TIP3   OH2 9491   6.366   0.725   5.366
 3176TIP3    H1 9492   6.299   0.657   5.354
 3176TIP3    H2 9493   6.367   0.773   5.283
 3177TIP3   OH2 9494   1.997   6.759   1.355
 3177TIP3    H1 9495   2.055   6.792   1.423
 3177TIP3    H2 9496   2.007   6.664   1.357
 3178TIP3   OH2 9497   3.724   3.804   0.397
 3178TIP3    H1 9498   3.702   3.743   0.327
 3178TIP3    H2 9499   3.762   3.880   0.352
 3179TIP3   OH2 9500   0.521   3.843   0.683
 3179TIP3    H1 9501   0.597   3.892   0.651
 3179TIP3    H2 9502   0.445   3.891   0.651
 3180TIP3   OH2 9503   2.990   3.896   4.124
 3180TIP3    H1 9504   3.069   3.932   4.085
 3180TIP3    H2 9505   2.923   3.962   4.109
 3181TIP3   OH2 9506   4.736   1.985   3.960
 3181TIP3    H1 9507   4.781   1.907   3.925
 3181TIP3    H2 9508   4.645   1.974   3.934
 3182TIP3   OH2 9509   4.389   5.246   3.116
 3182TIP3    H1 9510   4.483   5.256   3.107
 3182TIP3    H2 9511   4.373   5.245   3.210
 3183TIP3   OH2 9512   3.523   6.028   0.943
 3183TIP3    H1 9513   3.499   6.105   0.996
 3183TIP3    H2 9514   3.536   6.063   0.855
 3184TIP3   OH2 9515   1.897   4.264   0.035
 3184TIP3    H1 9516   1.980   4.220   0.052
 3184TIP3    H2 9517   1.917   4.357   0.041
 3185TIP3   OH2 9518   6.942   5.229   4.307
 3185TIP3    H1 9519   6.899   5.265   4.229
 3185TIP3    H2 9520   6.967   5.306   4.358
 3186TIP3   OH2 9521   2.588   2.910   5.140
 3186TIP3    H1 9522   2.567   2.847   5.071
 3186TIP3    H2 9523   2.544   2.991   5.112
 3187TIP3   OH2 9524   0.212   5.641   2.218
 3187TIP3    H1 9525   0.304   5.628   2.194
 3187TIP3    H2 9526   0.164   5.630   2.136
 3188TIP3   OH2 9527   1.445   1.656   5.720
 3188TIP3    H1 9528   1.448   1.734   5.665
 3188TIP3    H2 9529   1.361   1.615   5.700
 3189TIP3   OH2 9530   0.333   6.282   3.816
 3189TIP3    H1 9531   0.407   6.320   3.769
 3189TIP3    H2 9532   0.285   6.357   3.850
 3190TIP3   OH2 9533   4.832   4.475   5.710
 3190TIP3    H1 9534   4.838   4.533   5.786
 3190TIP3    H2 9535   4.754   4.422   5.727
 3191TIP3   OH2 9536   2.706   0.683   1.404
 3191TIP3    H1 9537   2.791   0.676   1.448
 3191TIP3    H2 9538   2.656   0.744   1.458
 3192TIP3   OH2 9539   3.113   1.582   5.260
 3192TIP3    H1 9540   3.042   1.645   5.273
 3192TIP3    H2 9541   3.115   1.530   5.341
 3193TIP3   OH2 9542   4.110   2.705   4.690
 3193TIP3    H1 9543   4.015   2.707   4.698
 3193TIP3    H2 9544   4.130   2.767   4.620
 3194TIP3   OH2 9545   3.418   2.393   0.683
 3194TIP3    H1 9546   3.473   2.457   0.728
 3194TIP3    H2 9547   3.424   2.417   0.591
 3195TIP3   OH2 9548   4.938   4.950   3.754
 3195TIP3    H1 9549   4.874   4.932   3.823
 3195TIP3    H2 9550   4.898   5.019   3.701
 3196TIP3   OH2 9551   0.120   6.463   3.435
 3196TIP3    H1 9552   0.074   6.540   3.467
 3196TIP3    H2 9553   0.213   6.485   3.443
 3197TIP3   OH2 9554   6.951   1.364   5.391
 3197TIP3    H1 9555   6.878   1.303   5.394
 3197TIP3    H2 9556   6.913   1.448   5.418
 3198TIP3   OH2 9557   5.347   1.139   5.554
 3198TIP3    H1 9558   5.324   1.164   5.465
 3198TIP3    H2 9559   5.271   1.163   5.606
 3199TIP3   OH2 9560   5.660   2.533   4.394
 3199TIP3    H1 9561   5.639   2.475   4.467
 3199TIP3    H2 9562   5.755   2.523   4.381
 3200TIP3   OH2 9563   2.463   2.458   1.774
 3200TIP3    H1 9564   2.380   2.461   1.728
 3200TIP3    H2 9565   2.523   2.413   1.714
 3201TIP3   OH2 9566   5.238   3.135   5.863
 3201TIP3    H1 9567   5.302   3.190   5.909
 3201TIP3    H2 9568   5.192   3.195   5.804
 3202TIP3   OH2 9569   2.653   2.193   5.165
 3202TIP3    H1 9570   2.645   2.134   5.091
 3202TIP3    H2 9571   2.745   2.220   5.165
 3203TIP3   OH2 9572   1.215   2.332   3.559
 3203TIP3    H1 9573   1.302   2.337   3.600
 3203TIP3    H2 9574   1.183   2.422   3.561
 3204TIP3   OH2 9575   1.138   6.527   4.387
 3204TIP3    H1 9576   1.123   6.581   4.310
 3204TIP3    H2 9577   1.101   6.578   4.460
 3205TIP3   OH2 9578   1.249   2.014   1.756
 3205TIP3    H1 9579   1.266   1.932   1.803
 3205TIP3    H2 9580   1.156   2.031   1.769
 3206TIP3   OH2 9581   2.083   2.825   4.710
 3206TIP3    H1 9582   2.073   2.831   4.615
 3206TIP3    H2 9583   2.051   2.908   4.743
 3207TIP3   OH2 9584   0.770   0.737   0.571
 3207TIP3    H1 9585   0.760   0.724   0.476
 3207TIP3    H2 9586   0.708   0.677   0.611
 3208TIP3   OH2 9587   6.100   1.939   5.722
 3208TIP3    H1 9588   6.018   1.963   5.678
 3208TIP3    H2 9589   6.118   1.850   5.691
 3209TIP3   OH2 9590   5.979   0.474   0.195
 3209TIP3    H1 9591   5.917   0.485   0.267
 3209TIP3    H2 9592   6.065   0.474   0.238
 3210TIP3   OH2 9593   2.312   5.978   0.581
 3210TIP3    H1 9594   2.334   5.962   0.673
 3210TIP3    H2 9595   2.389   5.948   0.533
 3211TIP3   OH2 9596   1.336   1.917   5.583
 3211TIP3    H1 9597   1.315   2.010   5.577
 3211TIP3    H2 9598   1.276   1.875   5.521
 3212TIP3   OH2 9599   2.022   5.960   3.124
 3212TIP3    H1 9600   2.062   6.045   3.104
 3212TIP3    H2 9601   1.928   5.976   3.116
 3213TIP3   OH2 9602   2.311   4.857   0.794
 3213TIP3    H1 9603   2.386   4.913   0.813
 3213TIP3    H2 9604   2.251   4.914   0.745
 3214TIP3   OH2 9605   6.523   1.605   4.175
 3214TIP3    H1 9606   6.529   1.559   4.091
 3214TIP3    H2 9607   6.465   1.550   4.228
 3215TIP3   OH2 9608   3.286   5.803   0.794
 3215TIP3    H1 9609   3.263   5.885   0.837
 3215TIP3    H2 9610   3.258   5.813   0.704
 3216TIP3   OH2 9611   6.304   2.154   4.175
 3216TIP3    H1 9612   6.288   2.131   4.084
 3216TIP3    H2 9613   6.397   2.141   4.188
 3217TIP3   OH2 9614   3.511   2.128   1.380
 3217TIP3    H1 9615   3.422   2.105   1.354
 3217TIP3    H2 9616   3.517   2.103   1.472
 3218TIP3   OH2 9617   3.856   3.296   0.537
 3218TIP3    H1 9618   3.906   3.217   0.557
 3218TIP3    H2 9619   3.830   3.287   0.446
 3219TIP3   OH2 9620   1.658   4.943   3.508
 3219TIP3    H1 9621   1.679   4.988   3.589
 3219TIP3    H2 9622   1.728   4.879   3.496
 3220TIP3   OH2 9623   0.610   3.077   4.087
 3220TIP3    H1 9624   0.599   3.132   4.009
 3220TIP3    H2 9625   0.699   3.042   4.080
 3221TIP3   OH2 9626   4.104   5.978   3.876
 3221TIP3    H1 9627   4.162   5.949   3.946
 3221TIP3    H2 9628   4.080   6.067   3.900
 3222TIP3   OH2 9629   5.276   5.907   0.845
 3222TIP3    H1 9630   5.324   5.972   0.795
 3222TIP3    H2 9631   5.328   5.895   0.925
 3223TIP3   OH2 9632   1.995   3.378   2.618
 3223TIP3    H1 9633   1.961   3.288   2.615
 3223TIP3    H2 9634   1.922   3.429   2.654
 3224TIP3   OH2 9635   5.017   5.218   4.105
 3224TIP3    H1 9636   5.036   5.269   4.026
 3224TIP3    H2 9637   5.102   5.201   4.144
 3225TIP3   OH2 9638   0.534   4.845   4.341
 3225TIP3    H1 9639   0.527   4.758   4.302
 3225TIP3    H2 9640   0.512   4.833   4.433
 3226TIP3   OH2 9641   3.772   4.865   0.636
 3226TIP3    H1 9642   3.772   4.868   0.732
 3226TIP3    H2 9643   3.784   4.956   0.609
 3227TIP3   OH2 9644   2.462   2.815   0.518
 3227TIP3    H1 9645   2.519   2.755   0.566
 3227TIP3    H2 9646   2.458   2.779   0.429
 3228TIP3   OH2 9647   5.000   5.545   3.472
 3228TIP3    H1 9648   5.083   5.592   3.462
 3228TIP3    H2 9649   5.025   5.452   3.464
 3229TIP3   OH2 9650   4.326   6.559   1.382
 3229TIP3    H1 9651   4.379   6.587   1.307
 3229TIP3    H2 9652   4.371   6.596   1.458
 3230TIP3   OH2 9653   7.048   4.814   1.355
 3230TIP3    H1 9654   7.027   4.729   1.395
 3230TIP3    H2 9655   7.098   4.792   1.277
 3231TIP3   OH2 9656   4.997   0.710   5.835
 3231TIP3    H1 9657   5.080   0.750   5.809
 3231TIP3    H2 9658   4.969   0.659   5.759
 3232TIP3   OH2 9659   6.393   0.991   0.895
 3232TIP3    H1 9660   6.299   1.004   0.877
 3232TIP3    H2 9661   6.403   0.896   0.903
 3233TIP3   OH2 9662   4.450   6.738   3.984
 3233TIP3    H1 9663   4.428   6.804   3.918
 3233TIP3    H2 9664   4.463   6.788   4.064
 3234TIP3   OH2 9665   3.174   1.216   1.862
 3234TIP3    H1 9666   3.081   1.217   1.885
 3234TIP3    H2 9667   3.200   1.308   1.860
 3235TIP3   OH2 9668   4.175   0.527   4.571
 3235TIP3    H1 9669   4.095   0.506   4.619
 3235TIP3    H2 9670   4.181   0.459   4.503
 3236TIP3   OH2 9671   1.033   3.333   5.145
 3236TIP3    H1 9672   0.953   3.308   5.100
 3236TIP3    H2 9673   1.006   3.398   5.210
 3237TIP3   OH2 9674   3.063   5.106   1.756
 3237TIP3    H1 9675   3.127   5.089   1.825
 3237TIP3    H2 9676   3.097   5.060   1.679
 3238TIP3   OH2 9677   2.866   4.934   5.346
 3238TIP3    H1 9678   2.824   5.009   5.303
 3238TIP3    H2 9679   2.800   4.902   5.407
 3239TIP3   OH2 9680   2.233   2.893   2.483
 3239TIP3    H1 9681   2.191   2.951   2.547
 3239TIP3    H2 9682   2.283   2.952   2.426
 3240TIP3   OH2 9683   3.394   4.088   0.386
 3240TIP3    H1 9684   3.349   4.101   0.469
 3240TIP3    H2 9685   3.406   3.993   0.380
 3241TIP3   OH2 9686   2.715   5.850   5.681
 3241TIP3    H1 9687   2.804   5.874   5.705
 3241TIP3    H2 9688   2.660   5.913   5.727
 3242TIP3   OH2 9689   0.065   4.597   4.163
 3242TIP3    H1 9690   0.001   4.525   4.166
 3242TIP3    H2 9691   0.150   4.553   4.162
 3243TIP3   OH2 9692   0.718   3.644   0.383
 3243TIP3    H1 9693   0.799   3.690   0.400
 3243TIP3    H2 9694   0.660   3.710   0.345
 3244TIP3   OH2 9695   2.444   5.712   0.430
 3244TIP3    H1 9696   2.358   5.700   0.389
 3244TIP3    H2 9697   2.434   5.677   0.518
 3245TIP3   OH2 9698   4.016   5.592   4.303
 3245TIP3    H1 9699   3.931   5.609   4.263
 3245TIP3    H2 9700   4.035   5.670   4.354
 3246TIP3   OH2 9701   3.265   5.381   3.335
 3246TIP3    H1 9702   3.351   5.342   3.344
 3246TIP3    H2 9703   3.253   5.393   3.241
 3247TIP3   OH2 9704   2.146   4.571   1.426
 3247TIP3    H1 9705   2.117   4.663   1.431
 3247TIP3    H2 9706   2.065   4.522   1.413
 3248TIP3   OH2 9707   6.728   1.478   1.783
 3248TIP3    H1 9708   6.810   1.429   1.782
 3248TIP3    H2 9709   6.737   1.541   1.711
 3249TIP3   OH2 9710   4.060   3.722   1.447
 3249TIP3    H1 9711   4.121   3.780   1.493
 3249TIP3    H2 9712   4.111   3.685   1.375
 3250TIP3   OH2 9713   6.945   4.077   3.376
 3250TIP3    H1 9714   7.026   4.025   3.374
 3250TIP3    H2 9715   6.875   4.012   3.379
 3251TIP3   OH2 9716   4.767   5.919   5.543
 3251TIP3    H1 9717   4.755   5.978   5.469
 3251TIP3    H2 9718   4.748   5.832   5.508
 3252TIP3   OH2 9719   5.881   2.058   0.052
 3252TIP3    H1 9720   5.818   1.997   0.014
 3252TIP3    H2 9721   5.852   2.067   0.143
 3253TIP3   OH2 9722   6.594   5.486   4.178
 3253TIP3    H1 9723   6.602   5.396   4.209
 3253TIP3    H2 9724   6.673   5.501   4.126
 3254TIP3   OH2 9725   4.033   5.557   2.430
 3254TIP3    H1 9726   3.968   5.564   2.360
 3254TIP3    H2 9727   3.982   5.532   2.507
 3255TIP3   OH2 9728   4.697   3.183   5.286
 3255TIP3    H1 9729   4.703   3.123   5.360
 3255TIP3    H2 9730   4.732   3.266   5.320
 3256TIP3   OH2 9731   5.695   5.029   2.507
 3256TIP3    H1 9732   5.783   5.048   2.474
 3256TIP3    H2 9733   5.644   5.008   2.428
 3257TIP3   OH2 9734   1.179   6.371   4.753
 3257TIP3    H1 9735   1.101   6.400   4.706
 3257TIP3    H2 9736   1.145   6.310   4.820
 3258TIP3   OH2 9737   3.803   3.812   1.860
 3258TIP3    H1 9738   3.787   3.774   1.947
 3258TIP3    H2 9739   3.780   3.742   1.799
 3259TIP3   OH2 9740   3.900   0.743   3.163
 3259TIP3    H1 9741   3.903   0.784   3.077
 3259TIP3    H2 9742   3.844   0.667   3.152
 3260TIP3   OH2 9743   2.513   0.843   5.743
 3260TIP3    H1 9744   2.526   0.923   5.794
 3260TIP3    H2 9745   2.461   0.786   5.800
 3261TIP3   OH2 9746   5.835   6.179   2.111
 3261TIP3    H1 9747   5.892   6.166   2.036
 3261TIP3    H2 9748   5.814   6.091   2.141
 3262TIP3   OH2 9749   0.253   5.220   5.004
 3262TIP3    H1 9750   0.276   5.141   4.956
 3262TIP3    H2 9751   0.167   5.201   5.041
 3263TIP3   OH2 9752   3.048   0.786   2.206
 3263TIP3    H1 9753   2.999   0.835   2.273
 3263TIP3    H2 9754   3.060   0.699   2.243
 3264TIP3   OH2 9755   3.687   4.489   3.931
 3264TIP3    H1 9756   3.595   4.480   3.904
 3264TIP3    H2 9757   3.736   4.472   3.851
 3265TIP3   OH2 9758   4.727   5.701   4.173
 3265TIP3    H1 9759   4.799   5.676   4.116
 3265TIP3    H2 9760   4.682   5.619   4.192
 3266TIP3   OH2 9761   2.031   1.871   4.040
 3266TIP3    H1 9762   2.071   1.952   4.073
 3266TIP3    H2 9763   2.054   1.870   3.947
 3267TIP3   OH2 9764   2.076   6.571   4.680
 3267TIP3    H1 9765   2.158   6.608   4.713
 3267TIP3    H2 9766   2.061   6.616   4.597
 3268TIP3   OH2 9767   3.969   6.766   1.545
 3268TIP3    H1 9768   3.888   6.813   1.562
 3268TIP3    H2 9769   4.004   6.746   1.632
 3269TIP3   OH2 9770   4.426   3.678   0.603
 3269TIP3    H1 9771   4.333   3.689   0.625
 3269TIP3    H2 9772   4.467   3.649   0.685
 3270TIP3   OH2 9773   0.729   0.799   1.265
 3270TIP3    H1 9774   0.654   0.803   1.207
 3270TIP3    H2 9775   0.803   0.828   1.211
 3271TIP3   OH2 9776   4.944   6.075   2.131
 3271TIP3    H1 9777   4.986   6.107   2.051
 3271TIP3    H2 9778   4.991   5.994   2.152
 3272TIP3   OH2 9779   6.216   0.281   4.502
 3272TIP3    H1 9780   6.218   0.318   4.590
 3272TIP3    H2 9781   6.259   0.196   4.510
 3273TIP3   OH2 9782   6.861   5.452   5.445
 3273TIP3    H1 9783   6.947   5.411   5.434
 3273TIP3    H2 9784   6.854   5.513   5.372
 3274TIP3   OH2 9785   5.776   4.951   0.087
 3274TIP3    H1 9786   5.685   4.979   0.095
 3274TIP3    H2 9787   5.827   5.019   0.131
 3275TIP3   OH2 9788   4.406   3.382   4.653
 3275TIP3    H1 9789   4.342   3.390   4.724
 3275TIP3    H2 9790   4.489   3.368   4.698
 3276TIP3   OH2 9791   5.922   0.776   3.082
 3276TIP3    H1 9792   5.851   0.817   3.131
 3276TIP3    H2 9793   6.001   0.797   3.132
 3277TIP3   OH2 9794   0.838   2.130   0.815
 3277TIP3    H1 9795   0.793   2.179   0.746
 3277TIP3    H2 9796   0.775   2.062   0.841
 3278TIP3   OH2 9797   5.801   4.514   0.197
 3278TIP3    H1 9798   5.842   4.518   0.111
 3278TIP3    H2 9799   5.813   4.601   0.233
 3279TIP3   OH2 9800   1.614   0.948   2.939
 3279TIP3    H1 9801   1.659   1.010   2.882
 3279TIP3    H2 9802   1.525   0.982   2.945
 3280TIP3   OH2 9803   6.110   3.437   0.733
 3280TIP3    H1 9804   6.165   3.391   0.796
 3280TIP3    H2 9805   6.022   3.436   0.772
 3281TIP3   OH2 9806   5.642   5.025   2.799
 3281TIP3    H1 9807   5.554   5.021   2.761
 3281TIP3    H2 9808   5.701   5.005   2.727
 3282TIP3   OH2 9809   1.053   4.350   2.312
 3282TIP3    H1 9810   0.967   4.309   2.309
 3282TIP3    H2 9811   1.041   4.427   2.368
 3283TIP3   OH2 9812   6.236   5.356   4.873
 3283TIP3    H1 9813   6.280   5.322   4.951
 3283TIP3    H2 9814   6.294   5.425   4.841
 3284TIP3   OH2 9815   3.239   4.467   4.205
 3284TIP3    H1 9816   3.202   4.485   4.118
 3284TIP3    H2 9817   3.257   4.553   4.242
 3285TIP3   OH2 9818   2.192   1.924   0.762
 3285TIP3    H1 9819   2.172   1.854   0.701
 3285TIP3    H2 9820   2.146   2.000   0.727
 3286TIP3   OH2 9821   1.740   3.794   3.121
 3286TIP3    H1 9822   1.709   3.875   3.161
 3286TIP3    H2 9823   1.664   3.735   3.126
 3287TIP3   OH2 9824   2.182   0.017   0.987
 3287TIP3    H1 9825   2.239  -0.033   1.045
 3287TIP3    H2 9826   2.226   0.013   0.902
 3288TIP3   OH2 9827   0.291   1.876   0.479
 3288TIP3    H1 9828   0.278   1.825   0.400
 3288TIP3    H2 9829   0.217   1.937   0.481
 3289TIP3   OH2 9830   3.341   4.346   4.568
 3289TIP3    H1 9831   3.402   4.348   4.642
 3289TIP3    H2 9832   3.360   4.263   4.524
 3290TIP3   OH2 9833   0.464   1.372   3.010
 3290TIP3    H1 9834   0.386   1.337   3.052
 3290TIP3    H2 9835   0.531   1.370   3.079
 3291TIP3   OH2 9836   3.006   3.982   5.639
 3291TIP3    H1 9837   2.940   4.005   5.573
 3291TIP3    H2 9838   3.066   4.057   5.639
 3292TIP3   OH2 9839   5.768   1.218   3.867
 3292TIP3    H1 9840   5.718   1.138   3.849
 3292TIP3    H2 9841   5.819   1.197   3.945
 3293TIP3   OH2 9842   6.564   6.195   5.670
 3293TIP3    H1 9843   6.561   6.166   5.578
 3293TIP3    H2 9844   6.516   6.277   5.671
 3294TIP3   OH2 9845   0.984   0.800   3.941
 3294TIP3    H1 9846   0.984   0.845   4.026
 3294TIP3    H2 9847   1.018   0.865   3.880
 3295TIP3   OH2 9848   0.549   3.657   2.751
 3295TIP3    H1 9849   0.607   3.725   2.716
 3295TIP3    H2 9850   0.503   3.699   2.824
 3296TIP3   OH2 9851   4.311   0.708   2.634
 3296TIP3    H1 9852   4.256   0.684   2.559
 3296TIP3    H2 9853   4.354   0.626   2.659
 3297TIP3   OH2 9854   4.258   4.991   2.959
 3297TIP3    H1 9855   4.319   5.057   2.993
 3297TIP3    H2 9856   4.300   4.960   2.879
 3298TIP3   OH2 9857   1.149   2.619   0.227
 3298TIP3    H1 9858   1.089   2.557   0.269
 3298TIP3    H2 9859   1.169   2.580   0.142
 3299TIP3   OH2 9860   1.774   0.747   0.976
 3299TIP3    H1 9861   1.755   0.674   1.035
 3299TIP3    H2 9862   1.834   0.710   0.911
 3300TIP3   OH2 9863   2.649   2.806   5.418
 3300TIP3    H1 9864   2.641   2.765   5.331
 3300TIP3    H2 9865   2.719   2.869   5.408
 3301TIP3   OH2 9866   6.831   1.422   4.309
 3301TIP3    H1 9867   6.892   1.472   4.255
 3301TIP3    H2 9868   6.749   1.422   4.260
 3302TIP3   OH2 9869   3.291   6.522   4.542
 3302TIP3    H1 9870   3.254   6.604   4.574
 3302TIP3    H2 9871   3.276   6.460   4.614
 3303TIP3   OH2 9872   4.256   0.278   1.718
 3303TIP3    H1 9873   4.290   0.189   1.724
 3303TIP3    H2 9874   4.166   0.272   1.749
 3304TIP3   OH2 9875   5.058   6.688   0.090
 3304TIP3    H1 9876   4.994   6.618   0.106
 3304TIP3    H2 9877   5.086   6.714   0.178
 3305TIP3   OH2 9878   4.549   5.490   3.631
 3305TIP3    H1 9879   4.554   5.529   3.544
 3305TIP3    H2 9880   4.500   5.553   3.683
 3306TIP3   OH2 9881   2.185   2.647   0.351
 3306TIP3    H1 9882   2.204   2.699   0.430
 3306TIP3    H2 9883   2.090   2.655   0.341
 3307TIP3   OH2 9884   1.297   4.017   0.820
 3307TIP3    H1 9885   1.346   3.969   0.887
 3307TIP3    H2 9886   1.336   3.989   0.738
 3308TIP3   OH2 9887   7.122   5.441   3.491
 3308TIP3    H1 9888   7.090   5.493   3.417
 3308TIP3    H2 9889   7.217   5.450   3.487
 3309TIP3   OH2 9890   6.791   0.501   1.841
 3309TIP3    H1 9891   6.882   0.503   1.870
 3309TIP3    H2 9892   6.747   0.567   1.895
 3310TIP3   OH2 9893   6.640   4.840   0.565
 3310TIP3    H1 9894   6.700   4.767   0.548
 3310TIP3    H2 9895   6.589   4.847   0.484
 3311TIP3   OH2 9896   6.385   5.694   4.620
 3311TIP3    H1 9897   6.421   5.633   4.556
 3311TIP3    H2 9898   6.393   5.649   4.704
 3312TIP3   OH2 9899   2.327   1.115   3.855
 3312TIP3    H1 9900   2.351   1.026   3.882
 3312TIP3    H2 9901   2.372   1.127   3.771
 3313TIP3   OH2 9902   5.343   0.882   1.139
 3313TIP3    H1 9903   5.268   0.891   1.081
 3313TIP3    H2 9904   5.417   0.863   1.081
 3314TIP3   OH2 9905   5.789   4.494   0.843
 3314TIP3    H1 9906   5.868   4.521   0.889
 3314TIP3    H2 9907   5.718   4.511   0.904
 3315TIP3   OH2 9908   1.154   5.455   0.696
 3315TIP3    H1 9909   1.151   5.550   0.703
 3315TIP3    H2 9910   1.066   5.430   0.667
 3316TIP3   OH2 9911   4.837   4.568   1.546
 3316TIP3    H1 9912   4.816   4.597   1.458
 3316TIP3    H2 9913   4.930   4.542   1.541
 3317TIP3   OH2 9914   1.739   1.307   2.568
 3317TIP3    H1 9915   1.767   1.262   2.488
 3317TIP3    H2 9916   1.790   1.388   2.569
 3318TIP3   OH2 9917   2.381   0.841   1.720
 3318TIP3    H1 9918   2.379   0.936   1.733
 3318TIP3    H2 9919   2.290   0.816   1.705
 3319TIP3   OH2 9920   6.120   0.183   4.895
 3319TIP3    H1 9921   6.092   0.094   4.874
 3319TIP3    H2 9922   6.184   0.205   4.827
 3320TIP3   OH2 9923   6.807   4.200   0.257
 3320TIP3    H1 9924   6.749   4.262   0.213
 3320TIP3    H2 9925   6.861   4.256   0.314
 3321TIP3   OH2 9926   5.784   4.087   2.619
 3321TIP3    H1 9927   5.719   4.146   2.657
 3321TIP3    H2 9928   5.868   4.123   2.647
 3322TIP3   OH2 9929   4.104   0.017   1.818
 3322TIP3    H1 9930   4.102   0.108   1.847
 3322TIP3    H2 9931   4.176  -0.023   1.867
 3323TIP3   OH2 9932   7.170   3.972   5.277
 3323TIP3    H1 9933   7.193   3.895   5.224
 3323TIP3    H2 9934   7.104   4.018   5.225
 3324TIP3   OH2 9935   5.871   2.622   5.119
 3324TIP3    H1 9936   5.840   2.533   5.135
 3324TIP3    H2 9937   5.879   2.629   5.024
 3325TIP3   OH2 9938   5.111   5.114   2.023
 3325TIP3    H1 9939   5.106   5.020   2.005
 3325TIP3    H2 9940   5.203   5.137   2.011
 3326TIP3   OH2 9941   3.479   5.992   4.110
 3326TIP3    H1 9942   3.421   6.057   4.070
 3326TIP3    H2 9943   3.551   5.983   4.048
 3327TIP3   OH2 9944   3.617   2.129   0.621
 3327TIP3    H1 9945   3.555   2.068   0.660
 3327TIP3    H2 9946   3.657   2.175   0.695
 3328TIP3   OH2 9947   6.467   0.075   3.873
 3328TIP3    H1 9948   6.438   0.145   3.932
 3328TIP3    H2 9949   6.405   0.003   3.889
 3329TIP3   OH2 9950   2.915   0.886   3.871
 3329TIP3    H1 9951   2.956   0.925   3.948
 3329TIP3    H2 9952   2.967   0.808   3.853
 3330TIP3   OH2 9953   2.826   2.996   5.018
 3330TIP3    H1 9954   2.755   2.946   5.058
 3330TIP3    H2 9955   2.896   2.932   5.005
 3331TIP3   OH2 9956   5.389   3.574   2.469
 3331TIP3    H1 9957   5.449   3.636   2.510
 3331TIP3    H2 9958   5.310   3.625   2.450
 3332TIP3   OH2 9959   0.350   5.292   3.870
 3332TIP3    H1 9960   0.379   5.332   3.789
 3332TIP3    H2 9961   0.347   5.198   3.852
 3333TIP3   OH2 9962   0.063   4.217   1.786
 3333TIP3    H1 9963   0.030   4.247   1.870
 3333TIP3    H2 9964  -0.014   4.214   1.730
 3334TIP3   OH2 9965   6.170   4.914   5.181
 3334TIP3    H1 9966   6.217   4.839   5.219
 3334TIP3    H2 9967   6.085   4.878   5.155
 3335TIP3   OH2 9968   0.226   3.112   2.008
 3335TIP3    H1 9969   0.282   3.170   1.956
 3335TIP3    H2 9970   0.144   3.160   2.016
 3336TIP3   OH2 9971   3.237   3.349   4.874
 3336TIP3    H1 9972   3.286   3.325   4.952
 3336TIP3    H2 9973   3.244   3.444   4.869
 3337TIP3   OH2 9974   1.702   4.482   5.599
 3337TIP3    H1 9975   1.668   4.547   5.538
 3337TIP3    H2 9976   1.675   4.514   5.685
 3338TIP3   OH2 9977   0.531   5.746   0.298
 3338TIP3    H1 9978   0.458   5.800   0.329
 3338TIP3    H2 9979   0.607   5.803   0.302
 3339TIP3   OH2 9980   2.520   6.331   3.986
 3339TIP3    H1 9981   2.429   6.338   3.959
 3339TIP3    H2 9982   2.549   6.246   3.953
 3340TIP3   OH2 9983   5.207   4.062   5.481
 3340TIP3    H1 9984   5.266   4.090   5.411
 3340TIP3    H2 9985   5.215   4.130   5.548
 3341TIP3   OH2 9986   4.728   3.015   1.048
 3341TIP3    H1 9987   4.729   3.110   1.035
 3341TIP3    H2 9988   4.800   2.998   1.108
 3342TIP3   OH2 9989   0.543   0.852   5.729
 3342TIP3    H1 9990   0.523   0.915   5.660
 3342TIP3    H2 9991   0.629   0.817   5.705
 3343TIP3   OH2 9992   3.284   1.569   3.946
 3343TIP3    H1 9993   3.257   1.480   3.927
 3343TIP3    H2 9994   3.377   1.571   3.926
 3344TIP3   OH2 9995   0.676   0.814   0.131
 3344TIP3    H1 9996   0.679   0.899   0.088
 3344TIP3    H2 9997   0.615   0.825   0.204
 3345TIP3   OH2 9998   6.331   0.259   1.807
 3345TIP3    H1 9999   6.263   0.321   1.831
 3345TIP3    H210000   6.413   0.301   1.833
 3346TIP3   OH210001   5.997   4.185   4.498
 3346TIP3    H110002   6.084   4.159   4.528
 3346TIP3    H210003   6.004   4.190   4.403
 3347TIP3   OH210004   1.941   4.700   1.722
 3347TIP3    H110005   1.929   4.649   1.642
 3347TIP3    H210006   1.922   4.790   1.697
 3348TIP3   OH210007   2.297   6.556   4.047
 3348TIP3    H110008   2.275   6.484   3.988
 3348TIP3    H210009   2.393   6.553   4.053
 3349TIP3   OH210010   3.606   5.195   5.202
 3349TIP3    H110011   3.570   5.207   5.114
 3349TIP3    H210012   3.700   5.208   5.191
 3350TIP3   OH210013   0.790   2.165   4.733
 3350TIP3    H110014   0.867   2.217   4.708
 3350TIP3    H210015   0.811   2.133   4.820
 3351TIP3   OH210016   5.966   1.968   2.399
 3351TIP3    H110017   6.059   1.962   2.422
 3351TIP3    H210018   5.933   1.879   2.411
 3352TIP3   OH210019   7.042   5.785   1.186
 3352TIP3    H110020   7.107   5.855   1.188
 3352TIP3    H210021   6.971   5.817   1.242
 3353TIP3   OH210022   7.048   1.544   4.131
 3353TIP3    H110023   7.019   1.614   4.073
 3353TIP3    H210024   7.087   1.479   4.073
 3354TIP3   OH210025   0.023   4.000   3.333
 3354TIP3    H110026   0.114   4.011   3.361
 3354TIP3    H210027   0.008   3.906   3.336
 3355TIP3   OH210028   2.581   3.060   1.484
 3355TIP3    H110029   2.544   3.114   1.415
 3355TIP3    H210030   2.585   3.118   1.560
 3356TIP3   OH210031   5.653   0.175   1.306
 3356TIP3    H110032   5.742   0.141   1.307
 3356TIP3    H210033   5.660   0.259   1.262
 3357TIP3   OH210034   6.031   0.358   1.377
 3357TIP3    H110035   5.979   0.359   1.296
 3357TIP3    H210036   5.966   0.356   1.447
 3358TIP3   OH210037   3.943   4.103   3.174
 3358TIP3    H110038   3.943   4.172   3.107
 3358TIP3    H210039   4.025   4.056   3.160
 3359TIP3   OH210040   6.408   3.847   3.008
 3359TIP3    H110041   6.380   3.843   2.917
 3359TIP3    H210042   6.335   3.890   3.053
 3360TIP3   OH210043   4.312   4.421   0.668
 3360TIP3    H110044   4.337   4.514   0.670
 3360TIP3    H210045   4.380   4.380   0.615
 3361TIP3   OH210046   0.038   0.298   0.340
 3361TIP3    H110047   0.119   0.278   0.386
 3361TIP3    H210048   0.031   0.393   0.343
 3362TIP3   OH210049   6.389   4.258   2.991
 3362TIP3    H110050   6.435   4.272   3.074
 3362TIP3    H210051   6.452   4.210   2.936
 3363TIP3   OH210052   1.207   0.245   0.093
 3363TIP3    H110053   1.273   0.314   0.092
 3363TIP3    H210054   1.207   0.214   0.184
 3364TIP3   OH210055   5.972   5.470   4.012
 3364TIP3    H110056   5.996   5.454   3.921
 3364TIP3    H210057   6.027   5.409   4.062
 3365TIP3   OH210058   5.776   2.049   0.763
 3365TIP3    H110059   5.824   1.966   0.759
 3365TIP3    H210060   5.750   2.057   0.855
 3366TIP3   OH210061   3.398   6.578   2.824
 3366TIP3    H110062   3.402   6.528   2.906
 3366TIP3    H210063   3.487   6.573   2.789
 3367TIP3   OH210064   4.854   5.891   3.737
 3367TIP3    H110065   4.914   5.870   3.664
 3367TIP3    H210066   4.907   5.876   3.815
 3368TIP3   OH210067   5.867   5.042   3.583
 3368TIP3    H110068   5.816   5.055   3.503
 3368TIP3    H210069   5.810   5.074   3.653
 3369TIP3   OH210070   6.004   0.116   0.718
 3369TIP3    H110071   5.941   0.096   0.650
 3369TIP3    H210072   6.064   0.041   0.719
 3370TIP3   OH210073   6.861   5.888   2.502
 3370TIP3    H110074   6.944   5.935   2.496
 3370TIP3    H210075   6.846   5.877   2.596
 3371TIP3   OH210076   5.570   1.286   5.478
 3371TIP3    H110077   5.520   1.285   5.560
 3371TIP3    H210078   5.653   1.243   5.501
 3372TIP3   OH210079   2.753   3.094   3.991
 3372TIP3    H110080   2.683   3.156   4.008
 3372TIP3    H210081   2.752   3.035   4.067
 3373TIP3   OH210082   1.320   1.887   3.932
 3373TIP3    H110083   1.393   1.931   3.975
 3373TIP3    H210084   1.324   1.917   3.841
 3374TIP3   OH210085   0.172   3.461   4.331
 3374TIP3    H110086   0.144   3.492   4.418
 3374TIP3    H210087   0.266   3.445   4.340
 3375TIP3   OH210088   3.836   1.396   5.347
 3375TIP3    H110089   3.853   1.478   5.393
 3375TIP3    H210090   3.913   1.343   5.362
 3376TIP3   OH210091   2.032   3.625   2.813
 3376TIP3    H110092   1.993   3.704   2.776
 3376TIP3    H210093   1.985   3.611   2.895
 3377TIP3   OH210094   0.770   1.611   0.196
 3377TIP3    H110095   0.854   1.648   0.221
 3377TIP3    H210096   0.768   1.619   0.100
 3378TIP3   OH210097   5.900   2.080   4.560
 3378TIP3    H110098   5.856   2.049   4.481
 3378TIP3    H210099   5.987   2.106   4.530
 3379TIP3   OH210100   3.715   6.379   3.263
 3379TIP3    H110101   3.622   6.392   3.245
 3379TIP3    H210102   3.743   6.460   3.306
 3380TIP3   OH210103   0.382   0.964   4.962
 3380TIP3    H110104   0.299   0.990   5.003
 3380TIP3    H210105   0.413   0.892   5.018
 3381TIP3   OH210106   1.430   0.238   2.811
 3381TIP3    H110107   1.457   0.256   2.721
 3381TIP3    H210108   1.512   0.217   2.856
 3382TIP3   OH210109   4.344   0.912   5.791
 3382TIP3    H110110   4.336   0.985   5.852
 3382TIP3    H210111   4.281   0.847   5.823
 3383TIP3   OH210112   2.576   4.913   3.062
 3383TIP3    H110113   2.506   4.865   3.018
 3383TIP3    H210114   2.603   4.856   3.134
 3384TIP3   OH210115   4.134   2.565   5.623
 3384TIP3    H110116   4.085   2.596   5.699
 3384TIP3    H210117   4.193   2.638   5.601
 3385TIP3   OH210118   0.328   3.464   0.823
 3385TIP3    H110119   0.292   3.421   0.745
 3385TIP3    H210120   0.420   3.480   0.800
 3386TIP3   OH210121   4.626   4.316   5.807
 3386TIP3    H110122   4.537   4.293   5.780
 3386TIP3    H210123   4.618   4.343   5.898
 3387TIP3   OH210124   4.771   3.750   0.944
 3387TIP3    H110125   4.829   3.770   0.870
 3387TIP3    H210126   4.741   3.836   0.975
 3388TIP3   OH210127   7.215   4.966   1.081
 3388TIP3    H110128   7.242   4.875   1.090
 3388TIP3    H210129   7.243   5.008   1.163
 3389TIP3   OH210130   3.171   3.866   0.191
 3389TIP3    H110131   3.156   3.943   0.137
 3389TIP3    H210132   3.104   3.871   0.260
 3390TIP3   OH210133   4.005   6.680   2.824
 3390TIP3    H110134   3.976   6.595   2.790
 3390TIP3    H210135   4.098   6.684   2.800
 3391TIP3   OH210136   1.718   1.726   0.550
 3391TIP3    H110137   1.760   1.735   0.636
 3391TIP3    H210138   1.652   1.658   0.564
 3392TIP3   OH210139   2.101   0.610   3.551
 3392TIP3    H110140   2.072   0.534   3.602
 3392TIP3    H210141   2.054   0.602   3.468
 3393TIP3   OH210142   4.278   1.499   0.813
 3393TIP3    H110143   4.370   1.503   0.788
 3393TIP3    H210144   4.242   1.583   0.784
 3394TIP3   OH210145   5.708   2.775   5.737
 3394TIP3    H110146   5.678   2.787   5.827
 3394TIP3    H210147   5.629   2.791   5.684
 3395TIP3   OH210148   4.119   1.517   4.414
 3395TIP3    H110149   4.037   1.565   4.401
 3395TIP3    H210150   4.124   1.457   4.339
 3396TIP3   OH210151   0.177   4.384   0.823
 3396TIP3    H110152   0.152   4.322   0.754
 3396TIP3    H210153   0.126   4.462   0.804
 3397TIP3   OH210154   2.752   3.190   0.345
 3397TIP3    H110155   2.840   3.155   0.335
 3397TIP3    H210156   2.704   3.158   0.269
 3398TIP3   OH210157   1.594   6.602   5.180
 3398TIP3    H110158   1.671   6.582   5.126
 3398TIP3    H210159   1.593   6.533   5.247
 3399TIP3   OH210160   3.299   2.807   1.233
 3399TIP3    H110161   3.224   2.865   1.250
 3399TIP3    H210162   3.292   2.786   1.140
 3400TIP3   OH210163   6.341   1.444   3.470
 3400TIP3    H110164   6.293   1.371   3.432
 3400TIP3    H210165   6.399   1.474   3.400
 3401TIP3   OH210166   1.225   1.128   3.976
 3401TIP3    H110167   1.318   1.151   3.968
 3401TIP3    H210168   1.221   1.072   4.053
 3402TIP3   OH210169   4.490   4.135   3.016
 3402TIP3    H110170   4.470   4.050   3.054
 3402TIP3    H210171   4.515   4.117   2.925
 3403TIP3   OH210172   0.660   0.956   3.962
 3403TIP3    H110173   0.620   1.042   3.969
 3403TIP3    H210174   0.750   0.968   3.993
 3404TIP3   OH210175   6.021   5.651   2.684
 3404TIP3    H110176   6.015   5.696   2.599
 3404TIP3    H210177   5.992   5.562   2.666
 3405TIP3   OH210178   5.690   1.338   1.543
 3405TIP3    H110179   5.775   1.296   1.557
 3405TIP3    H210180   5.628   1.284   1.591
 3406TIP3   OH210181   1.634   3.133   2.787
 3406TIP3    H110182   1.621   3.207   2.728
 3406TIP3    H210183   1.666   3.062   2.731
 3407TIP3   OH210184   6.799   4.104   3.085
 3407TIP3    H110185   6.856   4.158   3.141
 3407TIP3    H210186   6.860   4.047   3.037
 3408TIP3   OH210187   6.131   2.448   1.928
 3408TIP3    H110188   6.048   2.495   1.939
 3408TIP3    H210189   6.128   2.378   1.993
 3409TIP3   OH210190   1.995   6.437   0.198
 3409TIP3    H110191   1.924   6.374   0.211
 3409TIP3    H210192   2.059   6.416   0.265
 3410TIP3   OH210193   4.869   6.104   1.615
 3410TIP3    H110194   4.833   6.145   1.537
 3410TIP3    H210195   4.963   6.098   1.597
 3411TIP3   OH210196   3.614   6.586   1.523
 3411TIP3    H110197   3.554   6.640   1.575
 3411TIP3    H210198   3.591   6.496   1.546
 3412TIP3   OH210199   2.247   2.024   1.613
 3412TIP3    H110200   2.303   2.033   1.537
 3412TIP3    H210201   2.251   1.931   1.635
 3413TIP3   OH210202   4.189   4.762   5.113
 3413TIP3    H110203   4.278   4.783   5.084
 3413TIP3    H210204   4.157   4.844   5.150
 3414TIP3   OH210205   4.482   4.153   0.083
 3414TIP3    H110206   4.429   4.185   0.157
 3414TIP3    H210207   4.443   4.069   0.060
 3415TIP3   OH210208   6.348   1.652   3.080
 3415TIP3    H110209   6.303   1.736   3.090
 3415TIP3    H210210   6.335   1.628   2.988
 3416TIP3   OH210211   0.283   6.470   4.160
 3416TIP3    H110212   0.235   6.454   4.079
 3416TIP3    H210213   0.220   6.514   4.217
 3417TIP3   OH210214   7.128   4.083   0.473
 3417TIP3    H110215   7.067   4.156   0.471
 3417TIP3    H210216   7.073   4.007   0.494
 3418TIP3   OH210217   6.762   4.701   0.094
 3418TIP3    H110218   6.778   4.756   0.171
 3418TIP3    H210219   6.836   4.718   0.036
 3419TIP3   OH210220   5.017   1.324   4.475
 3419TIP3    H110221   5.100   1.353   4.513
 3419TIP3    H210222   4.971   1.405   4.455
 3420TIP3   OH210223   6.589   1.842   2.362
 3420TIP3    H110224   6.497   1.818   2.370
 3420TIP3    H210225   6.593   1.893   2.281
 3421TIP3   OH210226   0.273   2.251   1.196
 3421TIP3    H110227   0.191   2.294   1.217
 3421TIP3    H210228   0.321   2.314   1.142
 3422TIP3   OH210229   3.433   3.203   2.145
 3422TIP3    H110230   3.472   3.192   2.058
 3422TIP3    H210231   3.434   3.115   2.182
 3423TIP3   OH210232   3.051   0.154   1.262
 3423TIP3    H110233   2.968   0.197   1.244
 3423TIP3    H210234   3.108   0.180   1.189
 3424TIP3   OH210235   1.223   5.983   5.518
 3424TIP3    H110236   1.307   6.026   5.533
 3424TIP3    H210237   1.196   6.012   5.431
 3425TIP3   OH210238   4.941   5.646   0.762
 3425TIP3    H110239   4.858   5.635   0.716
 3425TIP3    H210240   5.007   5.646   0.693
 3426TIP3   OH210241   0.780   2.712   5.185
 3426TIP3    H110242   0.774   2.807   5.171
 3426TIP3    H210243   0.862   2.700   5.233
 3427TIP3   OH210244   4.205   5.433   3.660
 3427TIP3    H110245   4.246   5.456   3.577
 3427TIP3    H210246   4.123   5.389   3.635
 3428TIP3   OH210247   1.824   2.446   0.380
 3428TIP3    H110248   1.842   2.519   0.321
 3428TIP3    H210249   1.729   2.447   0.391
 3429TIP3   OH210250   4.636   3.857   0.627
 3429TIP3    H110251   4.595   3.779   0.590
 3429TIP3    H210252   4.671   3.904   0.551
 3430TIP3   OH210253   0.797   5.949   0.954
 3430TIP3    H110254   0.723   5.919   1.006
 3430TIP3    H210255   0.864   5.881   0.968
 3431TIP3   OH210256   0.601   2.237   5.873
 3431TIP3    H110257   0.612   2.228   5.778
 3431TIP3    H210258   0.683   2.278   5.903
 3432TIP3   OH210259   3.552   0.846   0.676
 3432TIP3    H110260   3.494   0.788   0.725
 3432TIP3    H210261   3.567   0.920   0.735
 3433TIP3   OH210262   3.806   1.988   2.089
 3433TIP3    H110263   3.805   2.027   2.176
 3433TIP3    H210264   3.847   1.902   2.101
 3434TIP3   OH210265   4.963   3.499   3.238
 3434TIP3    H110266   4.968   3.590   3.208
 3434TIP3    H210267   4.884   3.495   3.291
 3435TIP3   OH210268   3.769   0.508   1.244
 3435TIP3    H110269   3.836   0.575   1.255
 3435TIP3    H210270   3.767   0.491   1.150
 3436TIP3   OH210271   5.457   5.248   0.650
 3436TIP3    H110272   5.407   5.329   0.639
 3436TIP3    H210273   5.542   5.276   0.681
 3437TIP3   OH210274   1.846   0.632   2.103
 3437TIP3    H110275   1.777   0.601   2.045
 3437TIP3    H210276   1.828   0.726   2.114
 3438TIP3   OH210277   2.975   5.346   3.657
 3438TIP3    H110278   3.067   5.324   3.672
 3438TIP3    H210279   2.934   5.263   3.632
 3439TIP3   OH210280   1.569   1.190   2.303
 3439TIP3    H110281   1.496   1.224   2.251
 3439TIP3    H210282   1.574   1.249   2.378
 3440TIP3   OH210283   2.402   3.178   4.343
 3440TIP3    H110284   2.410   3.147   4.433
 3440TIP3    H210285   2.458   3.119   4.293
 3441TIP3   OH210286   2.188   3.625   4.410
 3441TIP3    H110287   2.099   3.660   4.409
 3441TIP3    H210288   2.188   3.560   4.340
 3442TIP3   OH210289   0.476   0.027   3.661
 3442TIP3    H110290   0.489   0.090   3.589
 3442TIP3    H210291   0.513   0.071   3.738
 3443TIP3   OH210292   4.189   1.968   1.913
 3443TIP3    H110293   4.173   2.034   1.846
 3443TIP3    H210294   4.277   1.989   1.946
 3444TIP3   OH210295   0.980   2.019   1.833
 3444TIP3    H110296   0.941   1.957   1.772
 3444TIP3    H210297   0.980   1.973   1.917
 3445TIP3   OH210298   4.013   0.795   1.851
 3445TIP3    H110299   4.002   0.818   1.943
 3445TIP3    H210300   3.936   0.744   1.829
 3446TIP3   OH210301   3.902   1.242   0.972
 3446TIP3    H110302   3.956   1.261   0.896
 3446TIP3    H210303   3.938   1.297   1.042
 3447TIP3   OH210304   5.915   2.058   4.842
 3447TIP3    H110305   5.821   2.062   4.857
 3447TIP3    H210306   5.925   2.072   4.748
 3448TIP3   OH210307   3.830   4.801   3.539
 3448TIP3    H110308   3.813   4.835   3.627
 3448TIP3    H210309   3.910   4.749   3.548
 3449TIP3   OH210310   6.289   1.198   4.310
 3449TIP3    H110311   6.213   1.166   4.358
 3449TIP3    H210312   6.270   1.177   4.218
 3450TIP3   OH210313   0.385   2.174   5.375
 3450TIP3    H110314   0.393   2.080   5.357
 3450TIP3    H210315   0.384   2.214   5.289
 3451TIP3   OH210316   3.428   6.707   1.669
 3451TIP3    H110317   3.483   6.751   1.734
 3451TIP3    H210318   3.372   6.776   1.635
 3452TIP3   OH210319   0.133   4.050   2.100
 3452TIP3    H110320   0.094   4.040   2.187
 3452TIP3    H210321   0.098   3.977   2.049
 3453TIP3   OH210322   5.675   1.682   2.485
 3453TIP3    H110323   5.758   1.667   2.439
 3453TIP3    H210324   5.690   1.763   2.534
 3454TIP3   OH210325   2.359   3.859   5.747
 3454TIP3    H110326   2.334   3.889   5.835
 3454TIP3    H210327   2.347   3.764   5.750
 3455TIP3   OH210328   4.404   1.761   5.146
 3455TIP3    H110329   4.358   1.804   5.219
 3455TIP3    H210330   4.360   1.793   5.068
 3456TIP3   OH210331   4.680   0.442   5.071
 3456TIP3    H110332   4.687   0.379   5.142
 3456TIP3    H210333   4.678   0.527   5.116
 3457TIP3   OH210334   1.136   1.030   5.251
 3457TIP3    H110335   1.222   1.062   5.221
 3457TIP3    H210336   1.108   0.968   5.183
 3458TIP3   OH210337   2.635   2.879   4.641
 3458TIP3    H110338   2.607   2.961   4.600
 3458TIP3    H210339   2.728   2.873   4.622
 3459TIP3   OH210340   2.245   3.162   2.910
 3459TIP3    H110341   2.340   3.151   2.914
 3459TIP3    H210342   2.232   3.257   2.908
 3460TIP3   OH210343   0.847   4.440   5.703
 3460TIP3    H110344   0.826   4.464   5.612
 3460TIP3    H210345   0.801   4.357   5.716
 3461TIP3   OH210346   5.497   0.318   1.794
 3461TIP3    H110347   5.474   0.402   1.833
 3461TIP3    H210348   5.553   0.276   1.859
 3462TIP3   OH210349   1.294   3.169   0.307
 3462TIP3    H110350   1.314   3.168   0.213
 3462TIP3    H210351   1.207   3.206   0.312
 3463TIP3   OH210352   5.365   1.717   1.929
 3463TIP3    H110353   5.286   1.717   1.874
 3463TIP3    H210354   5.393   1.809   1.929
 3464TIP3   OH210355   3.494   6.311   4.366
 3464TIP3    H110356   3.535   6.225   4.359
 3464TIP3    H210357   3.475   6.320   4.459
 3465TIP3   OH210358   2.896   2.582   0.688
 3465TIP3    H110359   2.832   2.511   0.691
 3465TIP3    H210360   2.978   2.542   0.715
 3466TIP3   OH210361   4.287   3.863   5.338
 3466TIP3    H110362   4.283   3.772   5.309
 3466TIP3    H210363   4.205   3.902   5.307
 3467TIP3   OH210364   1.920   1.130   0.880
 3467TIP3    H110365   1.831   1.121   0.913
 3467TIP3    H210366   1.972   1.070   0.933
 3468TIP3   OH210367   1.464   0.142   5.728
 3468TIP3    H110368   1.484   0.139   5.821
 3468TIP3    H210369   1.416   0.224   5.716
 3469TIP3   OH210370   4.464   4.737   2.028
 3469TIP3    H110371   4.392   4.716   1.969
 3469TIP3    H210372   4.439   4.697   2.111
 3470TIP3   OH210373   3.595   5.467   2.487
 3470TIP3    H110374   3.672   5.511   2.451
 3470TIP3    H210375   3.548   5.434   2.410
 3471TIP3   OH210376   3.464   5.639   5.040
 3471TIP3    H110377   3.380   5.597   5.058
 3471TIP3    H210378   3.493   5.600   4.957
 3472TIP3   OH210379   4.173   6.686   1.855
 3472TIP3    H110380   4.200   6.760   1.801
 3472TIP3    H210381   4.088   6.713   1.891
 3473TIP3   OH210382   0.368   6.559   3.476
 3473TIP3    H110383   0.381   6.641   3.429
 3473TIP3    H210384   0.423   6.568   3.555
 3474TIP3   OH210385   6.786   1.854   2.028
 3474TIP3    H110386   6.881   1.861   2.028
 3474TIP3    H210387   6.769   1.760   2.034
 3475TIP3   OH210388   0.593   2.480   2.735
 3475TIP3    H110389   0.510   2.500   2.691
 3475TIP3    H210390   0.660   2.513   2.675
 3476TIP3   OH210391   4.357   5.018   5.330
 3476TIP3    H110392   4.273   4.985   5.362
 3476TIP3    H210393   4.419   4.949   5.353
 3477TIP3   OH210394   3.428   0.067   0.759
 3477TIP3    H110395   3.480  -0.012   0.758
 3477TIP3    H210396   3.484   0.133   0.801
 3478TIP3   OH210397   7.159   1.641   4.351
 3478TIP3    H110398   7.107   1.604   4.279
 3478TIP3    H210399   7.097   1.652   4.422
 3479TIP3   OH210400   5.079   1.144   2.983
 3479TIP3    H110401   5.019   1.153   2.909
 3479TIP3    H210402   5.158   1.193   2.955
 3480TIP3   OH210403   1.253   5.908   0.115
 3480TIP3    H110404   1.196   5.862   0.178
 3480TIP3    H210405   1.338   5.912   0.158
 3481TIP3   OH210406   6.484   4.532   0.707
 3481TIP3    H110407   6.525   4.528   0.793
 3481TIP3    H210408   6.504   4.447   0.668
 3482TIP3   OH210409   3.455   4.990   0.957
 3482TIP3    H110410   3.457   4.903   0.996
 3482TIP3    H210411   3.465   4.974   0.863
 3483TIP3   OH210412   1.646   3.083   1.562
 3483TIP3    H110413   1.640   3.135   1.642
 3483TIP3    H210414   1.599   3.134   1.497
 3484TIP3   OH210415   1.012   5.570   3.202
 3484TIP3    H110416   1.084   5.633   3.199
 3484TIP3    H210417   1.054   5.485   3.187
 3485TIP3   OH210418   5.648   2.594   4.093
 3485TIP3    H110419   5.623   2.555   4.176
 3485TIP3    H210420   5.700   2.671   4.118
 3486TIP3   OH210421   2.377   4.065   0.647
 3486TIP3    H110422   2.291   4.086   0.685
 3486TIP3    H210423   2.392   4.134   0.583
 3487TIP3   OH210424   2.940   2.718   3.493
 3487TIP3    H110425   3.025   2.697   3.533
 3487TIP3    H210426   2.903   2.786   3.549
 3488TIP3   OH210427   6.039   1.780   4.541
 3488TIP3    H110428   6.042   1.779   4.636
 3488TIP3    H210429   6.090   1.704   4.514
 3489TIP3   OH210430   4.994   2.502   3.366
 3489TIP3    H110431   4.995   2.407   3.383
 3489TIP3    H210432   4.912   2.532   3.406
 3490TIP3   OH210433   2.409   2.713   2.567
 3490TIP3    H110434   2.459   2.683   2.491
 3490TIP3    H210435   2.331   2.754   2.530
 3491TIP3   OH210436   3.202   0.875   5.481
 3491TIP3    H110437   3.244   0.854   5.397
 3491TIP3    H210438   3.254   0.946   5.517
 3492TIP3   OH210439   1.351   2.569   5.025
 3492TIP3    H110440   1.303   2.590   4.944
 3492TIP3    H210441   1.441   2.556   4.997
 3493TIP3   OH210442   4.023   4.337   2.990
 3493TIP3    H110443   4.106   4.382   3.008
 3493TIP3    H210444   3.979   4.392   2.926
 3494TIP3   OH210445   3.049   3.853   1.922
 3494TIP3    H110446   3.113   3.823   1.987
 3494TIP3    H210447   3.096   3.847   1.839
 3495TIP3   OH210448   1.937   5.754   3.285
 3495TIP3    H110449   2.016   5.708   3.315
 3495TIP3    H210450   1.967   5.806   3.210
 3496TIP3   OH210451   0.089   1.713   4.824
 3496TIP3    H110452   0.022   1.656   4.862
 3496TIP3    H210453   0.107   1.676   4.738
 3497TIP3   OH210454   5.591   2.908   0.820
 3497TIP3    H110455   5.604   2.825   0.867
 3497TIP3    H210456   5.645   2.971   0.868
 3498TIP3   OH210457   6.111   5.039   3.454
 3498TIP3    H110458   6.084   5.055   3.363
 3498TIP3    H210459   6.031   5.048   3.505
 3499TIP3   OH210460   0.856   1.079   5.117
 3499TIP3    H110461   0.912   1.012   5.080
 3499TIP3    H210462   0.772   1.035   5.131
 3500TIP3   OH210463   2.537   4.157   0.315
 3500TIP3    H110464   2.524   4.102   0.238
 3500TIP3    H210465   2.450   4.166   0.354
 3501TIP3   OH210466   0.205   3.346   3.897
 3501TIP3    H110467   0.279   3.381   3.947
 3501TIP3    H210468   0.147   3.310   3.964
 3502TIP3   OH210469   2.041   0.949   5.756
 3502TIP3    H110470   2.058   0.909   5.842
 3502TIP3    H210471   2.118   0.928   5.704
 3503TIP3   OH210472   6.101   3.941   2.813
 3503TIP3    H110473   6.045   3.911   2.884
 3503TIP3    H210474   6.059   4.021   2.780
 3504TIP3   OH210475   1.477   0.588   4.301
 3504TIP3    H110476   1.556   0.563   4.254
 3504TIP3    H210477   1.418   0.621   4.233
 3505TIP3   OH210478   4.025   3.512   0.417
 3505TIP3    H110479   4.103   3.479   0.462
 3505TIP3    H210480   3.954   3.497   0.479
 3506TIP3   OH210481   3.264   5.813   3.743
 3506TIP3    H110482   3.235   5.876   3.677
 3506TIP3    H210483   3.244   5.855   3.827
 3507TIP3   OH210484   4.987   1.439   0.314
 3507TIP3    H110485   4.941   1.358   0.336
 3507TIP3    H210486   5.023   1.422   0.227
 3508TIP3   OH210487   6.165   6.419   3.233
 3508TIP3    H110488   6.238   6.360   3.214
 3508TIP3    H210489   6.173   6.489   3.169
 3509TIP3   OH210490   5.873   6.470   0.968
 3509TIP3    H110491   5.959   6.428   0.960
 3509TIP3    H210492   5.893   6.557   1.003
 3510TIP3   OH210493   3.992   2.187   4.351
 3510TIP3    H110494   3.943   2.258   4.308
 3510TIP3    H210495   4.082   2.199   4.322
 3511TIP3   OH210496   6.487   4.781   0.052
 3511TIP3    H110497   6.579   4.758   0.057
 3511TIP3    H210498   6.464   4.808   0.141
 3512TIP3   OH210499   0.314   5.306   2.078
 3512TIP3    H110500   0.316   5.402   2.072
 3512TIP3    H210501   0.244   5.288   2.142
 3513TIP3   OH210502   3.656   2.115   5.409
 3513TIP3    H110503   3.653   2.037   5.465
 3513TIP3    H210504   3.730   2.166   5.442
 3514TIP3   OH210505   1.926   1.255   4.866
 3514TIP3    H110506   1.895   1.268   4.956
 3514TIP3    H210507   2.022   1.253   4.875
 3515TIP3   OH210508   0.864   6.078   2.561
 3515TIP3    H110509   0.792   6.016   2.547
 3515TIP3    H210510   0.903   6.051   2.644
 3516TIP3   OH210511   5.409   2.770   3.406
 3516TIP3    H110512   5.478   2.724   3.357
 3516TIP3    H210513   5.338   2.706   3.412
 3517TIP3   OH210514   4.214   1.238   5.657
 3517TIP3    H110515   4.173   1.228   5.571
 3517TIP3    H210516   4.190   1.159   5.705
 3518TIP3   OH210517   4.630   2.175   4.722
 3518TIP3    H110518   4.616   2.229   4.645
 3518TIP3    H210519   4.563   2.204   4.784
 3519TIP3   OH210520   4.194   3.759   4.555
 3519TIP3    H110521   4.252   3.812   4.500
 3519TIP3    H210522   4.198   3.672   4.517
 3520TIP3   OH210523   2.475   6.651   3.264
 3520TIP3    H110524   2.508   6.669   3.176
 3520TIP3    H210525   2.458   6.738   3.301
 3521TIP3   OH210526   4.464   6.784   2.892
 3521TIP3    H110527   4.518   6.759   2.968
 3521TIP3    H210528   4.514   6.754   2.816
 3522TIP3   OH210529   1.127   3.296   2.917
 3522TIP3    H110530   1.076   3.251   2.849
 3522TIP3    H210531   1.209   3.247   2.921
 3523TIP3   OH210532   6.005   1.941   0.493
 3523TIP3    H110533   5.987   1.892   0.573
 3523TIP3    H210534   6.055   1.880   0.439
 3524TIP3   OH210535   6.558   4.680   4.225
 3524TIP3    H110536   6.550   4.590   4.195
 3524TIP3    H210537   6.651   4.692   4.242
 3525TIP3   OH210538   5.098   2.586   2.026
 3525TIP3    H110539   5.044   2.546   2.094
 3525TIP3    H210540   5.138   2.512   1.980
 3526TIP3   OH210541   2.899   0.685   5.404
 3526TIP3    H110542   2.914   0.779   5.395
 3526TIP3    H210543   2.846   0.677   5.483
 3527TIP3   OH210544   3.611   1.672   2.245
 3527TIP3    H110545   3.653   1.755   2.223
 3527TIP3    H210546   3.629   1.660   2.338
 3528TIP3   OH210547   0.615   5.877   1.616
 3528TIP3    H110548   0.692   5.933   1.624
 3528TIP3    H210549   0.624   5.836   1.530
 3529TIP3   OH210550   4.734   2.011   4.432
 3529TIP3    H110551   4.753   2.095   4.390
 3529TIP3    H210552   4.771   2.019   4.520
 3530TIP3   OH210553   0.951   4.167   1.899
 3530TIP3    H110554   1.001   4.143   1.977
 3530TIP3    H210555   0.859   4.158   1.925
 3531TIP3   OH210556   7.014   2.244   0.482
 3531TIP3    H110557   7.037   2.329   0.443
 3531TIP3    H210558   7.021   2.258   0.576
 3532TIP3   OH210559   0.984   1.544   1.528
 3532TIP3    H110560   1.031   1.605   1.587
 3532TIP3    H210561   0.894   1.577   1.527
 3533TIP3   OH210562   4.073   2.815   4.030
 3533TIP3    H110563   4.078   2.889   3.969
 3533TIP3    H210564   4.150   2.825   4.086
 3534TIP3   OH210565   5.459   3.450   0.789
 3534TIP3    H110566   5.533   3.456   0.729
 3534TIP3    H210567   5.499   3.430   0.874
 3535TIP3   OH210568   1.388   2.789   3.658
 3535TIP3    H110569   1.427   2.767   3.574
 3535TIP3    H210570   1.383   2.706   3.705
 3536TIP3   OH210571   0.165   5.075   3.560
 3536TIP3    H110572   0.254   5.107   3.549
 3536TIP3    H210573   0.146   5.027   3.480
 3537TIP3   OH210574   7.115   2.616   5.629
 3537TIP3    H110575   7.088   2.573   5.548
 3537TIP3    H210576   7.181   2.557   5.667
 3538TIP3   OH210577   3.328   4.722   4.259
 3538TIP3    H110578   3.356   4.691   4.345
 3538TIP3    H210579   3.305   4.814   4.272
 3539TIP3   OH210580   2.536   4.086   5.724
 3539TIP3    H110581   2.466   4.022   5.731
 3539TIP3    H210582   2.606   4.051   5.781
 3540TIP3   OH210583   4.117   1.482   0.174
 3540TIP3    H110584   4.203   1.440   0.171
 3540TIP3    H210585   4.063   1.423   0.226
 3541TIP3   OH210586   1.758   2.611   1.366
 3541TIP3    H110587   1.691   2.585   1.429
 3541TIP3    H210588   1.709   2.651   1.294
 3542TIP3   OH210589   0.139   4.546   1.708
 3542TIP3    H110590   0.157   4.492   1.632
 3542TIP3    H210591   0.215   4.533   1.766
 3543TIP3   OH210592   5.383   4.385   2.463
 3543TIP3    H110593   5.473   4.411   2.445
 3543TIP3    H210594   5.340   4.464   2.496
 3544TIP3   OH210595   0.680   6.591   0.983
 3544TIP3    H110596   0.715   6.505   1.008
 3544TIP3    H210597   0.753   6.635   0.940
 3545TIP3   OH210598   5.914   5.594   0.930
 3545TIP3    H110599   5.877   5.680   0.947
 3545TIP3    H210600   5.979   5.609   0.862
 3546TIP3   OH210601   6.528   4.929   5.485
 3546TIP3    H110602   6.498   5.012   5.523
 3546TIP3    H210603   6.544   4.950   5.393
 3547TIP3   OH210604   3.752   0.038   1.872
 3547TIP3    H110605   3.781   0.028   1.782
 3547TIP3    H210606   3.777  -0.044   1.915
 3548TIP3   OH210607   6.321   2.994   0.892
 3548TIP3    H110608   6.384   3.059   0.861
 3548TIP3    H210609   6.236   3.037   0.886
 3549TIP3   OH210610   1.970   3.885   2.042
 3549TIP3    H110611   1.969   3.792   2.064
 3549TIP3    H210612   1.898   3.896   1.979
 3550TIP3   OH210613   1.171   6.263   3.919
 3550TIP3    H110614   1.162   6.290   3.827
 3550TIP3    H210615   1.262   6.282   3.940
 3551TIP3   OH210616   5.230   4.448   0.437
 3551TIP3    H110617   5.316   4.466   0.398
 3551TIP3    H210618   5.179   4.527   0.420
 3552TIP3   OH210619   5.163   5.064   3.211
 3552TIP3    H110620   5.196   4.977   3.232
 3552TIP3    H210621   5.070   5.051   3.193
 3553TIP3   OH210622   5.412   0.859   5.404
 3553TIP3    H110623   5.333   0.817   5.371
 3553TIP3    H210624   5.441   0.915   5.332
 3554TIP3   OH210625   0.321   0.765   1.523
 3554TIP3    H110626   0.281   0.813   1.450
 3554TIP3    H210627   0.351   0.834   1.583
 3555TIP3   OH210628   5.459   5.932   3.418
 3555TIP3    H110629   5.499   5.852   3.382
 3555TIP3    H210630   5.507   5.948   3.499
 3556TIP3   OH210631   5.259   0.775   1.958
 3556TIP3    H110632   5.305   0.759   2.040
 3556TIP3    H210633   5.168   0.749   1.976
 3557TIP3   OH210634   2.262   6.094   1.436
 3557TIP3    H110635   2.286   6.054   1.352
 3557TIP3    H210636   2.167   6.105   1.432
 3558TIP3   OH210637   4.078   5.806   4.454
 3558TIP3    H110638   4.027   5.870   4.504
 3558TIP3    H210639   4.167   5.814   4.488
 3559TIP3   OH210640   2.277   2.531   4.866
 3559TIP3    H110641   2.342   2.476   4.909
 3559TIP3    H210642   2.296   2.620   4.895
 3560TIP3   OH210643   0.543   0.379   4.134
 3560TIP3    H110644   0.513   0.434   4.062
 3560TIP3    H210645   0.471   0.380   4.197
 3561TIP3   OH210646   0.267   3.326   3.076
 3561TIP3    H110647   0.308   3.381   3.143
 3561TIP3    H210648   0.335   3.264   3.051
 3562TIP3   OH210649   6.068   3.443   1.246
 3562TIP3    H110650   6.053   3.515   1.185
 3562TIP3    H210651   5.985   3.432   1.292
 3563TIP3   OH210652   1.416   3.396   0.462
 3563TIP3    H110653   1.461   3.419   0.381
 3563TIP3    H210654   1.381   3.308   0.447
 3564TIP3   OH210655   5.117   0.285   1.389
 3564TIP3    H110656   5.052   0.353   1.406
 3564TIP3    H210657   5.087   0.210   1.440
 3565TIP3   OH210658   4.881   5.557   2.910
 3565TIP3    H110659   4.835   5.533   2.830
 3565TIP3    H210660   4.973   5.567   2.883
 3566TIP3   OH210661   4.436   3.303   5.308
 3566TIP3    H110662   4.506   3.244   5.283
 3566TIP3    H210663   4.476   3.363   5.371
 3567TIP3   OH210664   5.229   5.966   5.300
 3567TIP3    H110665   5.166   5.992   5.233
 3567TIP3    H210666   5.255   6.047   5.343
 3568TIP3   OH210667   3.130   2.351   1.757
 3568TIP3    H110668   3.169   2.412   1.694
 3568TIP3    H210669   3.040   2.340   1.726
 3569TIP3   OH210670   4.066   3.064   1.147
 3569TIP3    H110671   4.049   2.980   1.190
 3569TIP3    H210672   4.111   3.041   1.066
 3570TIP3   OH210673   1.950   1.974   3.141
 3570TIP3    H110674   1.995   1.965   3.225
 3570TIP3    H210675   1.957   2.068   3.121
 3571TIP3   OH210676   2.945   0.026   0.228
 3571TIP3    H110677   2.969   0.119   0.229
 3571TIP3    H210678   2.954  -0.002   0.319
 3572TIP3   OH210679   6.914   6.757   0.303
 3572TIP3    H110680   6.888   6.817   0.233
 3572TIP3    H210681   6.995   6.794   0.337
 3573TIP3   OH210682   2.469   6.761   0.100
 3573TIP3    H110683   2.427   6.836   0.057
 3573TIP3    H210684   2.400   6.724   0.156
 3574TIP3   OH210685   4.482   5.068   2.711
 3574TIP3    H110686   4.565   5.114   2.701
 3574TIP3    H210687   4.420   5.135   2.741
 3575TIP3   OH210688   7.060   3.512   5.148
 3575TIP3    H110689   6.994   3.533   5.083
 3575TIP3    H210690   7.014   3.456   5.212
 3576TIP3   OH210691   3.660  -0.008   3.834
 3576TIP3    H110692   3.723   0.026   3.770
 3576TIP3    H210693   3.714  -0.049   3.901
 3577TIP3   OH210694   0.705   1.361   3.672
 3577TIP3    H110695   0.749   1.438   3.636
 3577TIP3    H210696   0.761   1.288   3.647
 3578TIP3   OH210697   6.967   0.623   2.736
 3578TIP3    H110698   6.894   0.561   2.739
 3578TIP3    H210699   7.022   0.598   2.811
 3579TIP3   OH210700   3.194   6.616   3.810
 3579TIP3    H110701   3.101   6.617   3.788
 3579TIP3    H210702   3.199   6.657   3.896
 3580TIP3   OH210703   0.062   3.242   0.804
 3580TIP3    H110704  -0.021   3.289   0.795
 3580TIP3    H210705   0.062   3.210   0.895
 3581TIP3   OH210706   0.246   1.349   0.530
 3581TIP3    H110707   0.264   1.432   0.574
 3581TIP3    H210708   0.162   1.321   0.566
 3582TIP3   OH210709   4.964   3.491   0.213
 3582TIP3    H110710   5.059   3.498   0.222
 3582TIP3    H210711   4.931   3.580   0.230
 3583TIP3   OH210712   0.761   0.088   1.372
 3583TIP3    H110713   0.688   0.059   1.426
 3583TIP3    H210714   0.829   0.111   1.434
 3584TIP3   OH210715   6.324   3.907   5.529
 3584TIP3    H110716   6.379   3.986   5.530
 3584TIP3    H210717   6.317   3.885   5.436
 3585TIP3   OH210718   1.062   5.383   0.278
 3585TIP3    H110719   1.032   5.447   0.212
 3585TIP3    H210720   1.130   5.333   0.233
 3586TIP3   OH210721   4.426   1.733   4.220
 3586TIP3    H110722   4.421   1.796   4.292
 3586TIP3    H210723   4.341   1.689   4.220
 3587TIP3   OH210724   3.608   4.567   5.679
 3587TIP3    H110725   3.604   4.630   5.751
 3587TIP3    H210726   3.523   4.575   5.635
 3588TIP3   OH210727   3.809   0.280   0.439
 3588TIP3    H110728   3.717   0.258   0.454
 3588TIP3    H210729   3.806   0.370   0.405
 3589TIP3   OH210730   1.220   0.119   2.206
 3589TIP3    H110731   1.169   0.105   2.286
 3589TIP3    H210732   1.286   0.183   2.231
 3590TIP3   OH210733   3.488   3.848   5.515
 3590TIP3    H110734   3.445   3.825   5.598
 3590TIP3    H210735   3.570   3.800   5.516
 3591TIP3   OH210736   1.091   4.212   5.781
 3591TIP3    H110737   1.133   4.266   5.847
 3591TIP3    H210738   1.035   4.272   5.733
 3592TIP3   OH210739   0.051   4.071   2.355
 3592TIP3    H110740   0.035   4.154   2.400
 3592TIP3    H210741   0.086   4.013   2.424
 3593TIP3   OH210742   2.144   3.274   0.472
 3593TIP3    H110743   2.182   3.308   0.553
 3593TIP3    H210744   2.142   3.179   0.483
 3594TIP3   OH210745   3.706   2.903   5.047
 3594TIP3    H110746   3.641   2.881   5.113
 3594TIP3    H210747   3.790   2.880   5.087
 3595TIP3   OH210748   6.989   4.128   4.291
 3595TIP3    H110749   6.909   4.157   4.336
 3595TIP3    H210750   6.960   4.055   4.235
 3596TIP3   OH210751   4.023   3.030   0.031
 3596TIP3    H110752   4.093   3.080   0.072
 3596TIP3    H210753   4.046   3.028  -0.062
 3597TIP3   OH210754   7.157   1.634   1.346
 3597TIP3    H110755   7.201   1.634   1.431
 3597TIP3    H210756   7.071   1.597   1.364
 3598TIP3   OH210757   3.323   1.966   2.037
 3598TIP3    H110758   3.245   2.018   2.018
 3598TIP3    H210759   3.395   2.029   2.030
 3599TIP3   OH210760   1.369   0.871   0.019
 3599TIP3    H110761   1.320   0.797   0.055
 3599TIP3    H210762   1.346   0.871  -0.074
 3600TIP3   OH210763   1.304   2.970   1.001
 3600TIP3    H110764   1.319   2.905   0.933
 3600TIP3    H210765   1.222   2.942   1.043
 3601TIP3   OH210766   1.801   3.179   2.498
 3601TIP3    H110767   1.706   3.183   2.502
 3601TIP3    H210768   1.824   3.099   2.545
 3602TIP3   OH210769   1.860   4.077   1.274
 3602TIP3    H110770   1.933   4.022   1.303
 3602TIP3    H210771   1.801   4.017   1.229
 3603TIP3   OH210772   0.632   1.103   2.915
 3603TIP3    H110773   0.561   1.163   2.893
 3603TIP3    H210774   0.610   1.070   3.003
 3604TIP3   OH210775   1.562   4.834   4.212
 3604TIP3    H110776   1.527   4.903   4.156
 3604TIP3    H210777   1.591   4.880   4.291
 3605TIP3   OH210778   0.193   2.888   0.455
 3605TIP3    H110779   0.108   2.871   0.414
 3605TIP3    H210780   0.257   2.848   0.396
 3606TIP3   OH210781   2.723   3.396   0.135
 3606TIP3    H110782   2.742   3.324   0.195
 3606TIP3    H210783   2.781   3.380   0.060
 3607TIP3   OH210784   6.536   6.151   0.391
 3607TIP3    H110785   6.454   6.179   0.431
 3607TIP3    H210786   6.603   6.177   0.454
 3608TIP3   OH210787   6.910   6.590   3.784
 3608TIP3    H110788   6.978   6.528   3.756
 3608TIP3    H210789   6.931   6.608   3.876
 3609TIP3   OH210790   6.163   2.495   0.598
 3609TIP3    H110791   6.208   2.454   0.673
 3609TIP3    H210792   6.090   2.543   0.638
 3610TIP3   OH210793   4.987   1.241   5.022
 3610TIP3    H110794   5.044   1.289   4.962
 3610TIP3    H210795   4.949   1.172   4.968
 3611TIP3   OH210796   6.905   0.574   1.276
 3611TIP3    H110797   6.969   0.631   1.318
 3611TIP3    H210798   6.928   0.577   1.183
 3612TIP3   OH210799   6.518   2.079   3.748
 3612TIP3    H110800   6.529   2.150   3.811
 3612TIP3    H210801   6.603   2.071   3.705
 3613TIP3   OH210802   0.828   5.989   5.539
 3613TIP3    H110803   0.918   5.991   5.507
 3613TIP3    H210804   0.774   6.008   5.462
 3614TIP3   OH210805   2.686   4.317   1.853
 3614TIP3    H110806   2.775   4.348   1.871
 3614TIP3    H210807   2.689   4.290   1.761
 3615TIP3   OH210808   4.634   4.182   3.829
 3615TIP3    H110809   4.590   4.259   3.791
 3615TIP3    H210810   4.583   4.162   3.908
 3616TIP3   OH210811   6.102   5.114   2.212
 3616TIP3    H110812   6.116   5.024   2.240
 3616TIP3    H210813   6.103   5.109   2.116
 3617TIP3   OH210814   0.162   1.339   3.063
 3617TIP3    H110815   0.113   1.329   3.145
 3617TIP3    H210816   0.152   1.255   3.019
 3618TIP3   OH210817   6.711   2.250   0.692
 3618TIP3    H110818   6.727   2.329   0.641
 3618TIP3    H210819   6.653   2.278   0.763
 3619TIP3   OH210820   4.585   2.826   1.964
 3619TIP3    H110821   4.658   2.783   2.009
 3619TIP3    H210822   4.519   2.838   2.033
 3620TIP3   OH210823   2.685   0.680   0.874
 3620TIP3    H110824   2.696   0.622   0.798
 3620TIP3    H210825   2.598   0.660   0.908
 3621TIP3   OH210826   7.172   5.411   1.068
 3621TIP3    H110827   7.140   5.367   0.989
 3621TIP3    H210828   7.258   5.373   1.083
 3622TIP3   OH210829   0.417   5.377   1.641
 3622TIP3    H110830   0.399   5.398   1.550
 3622TIP3    H210831   0.450   5.287   1.639
 3623TIP3   OH210832   4.833   3.757   5.688
 3623TIP3    H110833   4.896   3.771   5.759
 3623TIP3    H210834   4.867   3.809   5.616
 3624TIP3   OH210835   1.616   1.576   1.468
 3624TIP3    H110836   1.558   1.587   1.543
 3624TIP3    H210837   1.558   1.585   1.392
 3625TIP3   OH210838   3.226   0.128   5.756
 3625TIP3    H110839   3.131   0.146   5.759
 3625TIP3    H210840   3.264   0.199   5.808
 3626TIP3   OH210841   3.330   6.201   3.988
 3626TIP3    H110842   3.321   6.195   3.893
 3626TIP3    H210843   3.246   6.234   4.018
 3627TIP3   OH210844   2.609   1.618   4.183
 3627TIP3    H110845   2.596   1.652   4.094
 3627TIP3    H210846   2.668   1.681   4.224
 3628TIP3   OH210847   2.888   1.570   2.623
 3628TIP3    H110848   2.823   1.505   2.651
 3628TIP3    H210849   2.873   1.580   2.529
 3629TIP3   OH210850   7.182   3.160   1.610
 3629TIP3    H110851   7.174   3.250   1.578
 3629TIP3    H210852   7.273   3.136   1.591
 3630TIP3   OH210853   1.585   2.236   4.261
 3630TIP3    H110854   1.503   2.268   4.300
 3630TIP3    H210855   1.616   2.168   4.320
 3631TIP3   OH210856   6.955   6.478   2.143
 3631TIP3    H110857   7.023   6.544   2.155
 3631TIP3    H210858   6.924   6.459   2.232
 3632TIP3   OH210859   4.449   6.274   5.278
 3632TIP3    H110860   4.493   6.316   5.204
 3632TIP3    H210861   4.356   6.293   5.265
 3633TIP3   OH210862   2.349   5.996   4.872
 3633TIP3    H110863   2.321   5.915   4.829
 3633TIP3    H210864   2.432   5.974   4.913
 3634TIP3   OH210865   6.591   5.747   4.885
 3634TIP3    H110866   6.668   5.728   4.833
 3634TIP3    H210867   6.557   5.829   4.849
 3635TIP3   OH210868   6.995   1.863   4.079
 3635TIP3    H110869   6.985   1.805   4.003
 3635TIP3    H210870   6.927   1.835   4.140
 3636TIP3   OH210871   0.268   3.529   2.034
 3636TIP3    H110872   0.320   3.535   1.954
 3636TIP3    H210873   0.298   3.602   2.088
 3637TIP3   OH210874   0.995   4.627   2.322
 3637TIP3    H110875   0.927   4.622   2.256
 3637TIP3    H210876   0.966   4.696   2.382
 3638TIP3   OH210877   2.614   0.994   0.355
 3638TIP3    H110878   2.666   0.940   0.295
 3638TIP3    H210879   2.575   0.932   0.416
 3639TIP3   OH210880   0.453   1.028   3.680
 3639TIP3    H110881   0.444   1.071   3.595
 3639TIP3    H210882   0.530   0.972   3.671
 3640TIP3   OH210883   3.796   2.771   0.107
 3640TIP3    H110884   3.765   2.719   0.034
 3640TIP3    H210885   3.828   2.852   0.067
 3641TIP3   OH210886   4.551   0.476   2.572
 3641TIP3    H110887   4.599   0.460   2.653
 3641TIP3    H210888   4.464   0.438   2.587
 3642TIP3   OH210889   4.415   6.439   2.475
 3642TIP3    H110890   4.493   6.445   2.530
 3642TIP3    H210891   4.448   6.415   2.389
 3643TIP3   OH210892   0.578   3.681   1.085
 3643TIP3    H110893   0.587   3.594   1.124
 3643TIP3    H210894   0.555   3.664   0.993
 3644TIP3   OH210895   2.926   4.414   2.007
 3644TIP3    H110896   2.930   4.495   1.956
 3644TIP3    H210897   2.867   4.434   2.080
 3645TIP3   OH210898   3.497   2.513   0.007
 3645TIP3    H110899   3.404   2.497  -0.004
 3645TIP3    H210900   3.532   2.431   0.043
 3646TIP3   OH210901   7.101   1.887   0.337
 3646TIP3    H110902   7.133   1.915   0.423
 3646TIP3    H210903   7.165   1.922   0.275
 3647TIP3   OH210904   5.883   4.201   1.864
 3647TIP3    H110905   5.830   4.204   1.785
 3647TIP3    H210906   5.821   4.214   1.935
 3648TIP3   OH210907   6.491   1.511   3.241
 3648TIP3    H110908   6.449   1.575   3.184
 3648TIP3    H210909   6.535   1.451   3.181
 3649TIP3   OH210910   3.382   5.987   1.421
 3649TIP3    H110911   3.402   5.894   1.427
 3649TIP3    H210912   3.464   6.029   1.397
 3650TIP3   OH210913   3.938   5.178   4.111
 3650TIP3    H110914   3.913   5.210   4.025
 3650TIP3    H210915   4.018   5.227   4.132
 3651TIP3   OH210916   1.886   6.106   4.016
 3651TIP3    H110917   1.924   6.163   4.082
 3651TIP3    H210918   1.792   6.121   4.021
 3652TIP3   OH210919   1.025   0.180   2.984
 3652TIP3    H110920   1.106   0.143   2.949
 3652TIP3    H210921   0.977   0.209   2.907
 3653TIP3   OH210922   0.291   2.938   1.152
 3653TIP3    H110923   0.321   2.890   1.075
 3653TIP3    H210924   0.197   2.922   1.155
 3654TIP3   OH210925   1.839   1.917   3.640
 3654TIP3    H110926   1.812   1.837   3.685
 3654TIP3    H210927   1.854   1.980   3.711
 3655TIP3   OH210928   5.361   5.077   4.541
 3655TIP3    H110929   5.429   5.116   4.486
 3655TIP3    H210930   5.279   5.103   4.498
 3656TIP3   OH210931   4.557   6.127   0.103
 3656TIP3    H110932   4.594   6.197   0.049
 3656TIP3    H210933   4.579   6.150   0.193
 3657TIP3   OH210934   5.456   0.981   1.932
 3657TIP3    H110935   5.387   0.923   1.965
 3657TIP3    H210936   5.471   0.953   1.842
 3658TIP3   OH210937   7.106   2.008   4.408
 3658TIP3    H110938   7.148   2.020   4.493
 3658TIP3    H210939   7.178   2.005   4.345
 3659TIP3   OH210940   5.805   1.631   1.462
 3659TIP3    H110941   5.775   1.560   1.519
 3659TIP3    H210942   5.749   1.624   1.385
 3660TIP3   OH210943   6.059   4.539   5.808
 3660TIP3    H110944   6.049   4.606   5.741
 3660TIP3    H210945   6.074   4.458   5.759
 3661TIP3   OH210946   7.163   0.536   2.496
 3661TIP3    H110947   7.130   0.567   2.580
 3661TIP3    H210948   7.086   0.507   2.448
 3662TIP3   OH210949   4.972   2.438   0.173
 3662TIP3    H110950   5.044   2.382   0.145
 3662TIP3    H210951   5.013   2.506   0.226
 3663TIP3   OH210952   4.095   6.788   0.520
 3663TIP3    H110953   4.026   6.783   0.454
 3663TIP3    H210954   4.148   6.710   0.504
 3664TIP3   OH210955   4.583   2.752   1.031
 3664TIP3    H110956   4.608   2.704   1.110
 3664TIP3    H210957   4.616   2.840   1.046
 3665TIP3   OH210958   1.323   0.644   1.349
 3665TIP3    H110959   1.252   0.580   1.357
 3665TIP3    H210960   1.365   0.643   1.435
 3666TIP3   OH210961   2.479   3.836   3.793
 3666TIP3    H110962   2.554   3.813   3.848
 3666TIP3    H210963   2.427   3.896   3.846
 3667TIP3   OH210964   6.563   5.380   5.293
 3667TIP3    H110965   6.613   5.306   5.329
 3667TIP3    H210966   6.535   5.430   5.370
 3668TIP3   OH210967   3.751   2.519   2.134
 3668TIP3    H110968   3.733   2.534   2.042
 3668TIP3    H210969   3.759   2.606   2.172
 3669TIP3   OH210970   6.207   2.983   1.271
 3669TIP3    H110971   6.286   2.929   1.269
 3669TIP3    H210972   6.187   2.995   1.364
 3670TIP3   OH210973   3.691   1.036   3.956
 3670TIP3    H110974   3.780   1.002   3.968
 3670TIP3    H210975   3.693   1.080   3.871
 3671TIP3   OH210976   5.205   2.600   3.510
 3671TIP3    H110977   5.227   2.516   3.550
 3671TIP3    H210978   5.133   2.581   3.450
 3672TIP3   OH210979   0.238   4.953   0.206
 3672TIP3    H110980   0.291   4.931   0.283
 3672TIP3    H210981   0.297   5.002   0.149
 3673TIP3   OH210982   0.878   3.707   5.739
 3673TIP3    H110983   0.930   3.756   5.803
 3673TIP3    H210984   0.920   3.723   5.655
 3674TIP3   OH210985   4.887   1.810   1.684
 3674TIP3    H110986   4.852   1.729   1.721
 3674TIP3    H210987   4.829   1.829   1.609
 3675TIP3   OH210988   3.931   2.157   4.981
 3675TIP3    H110989   3.851   2.146   5.032
 3675TIP3    H210990   4.002   2.137   5.043
 3676TIP3   OH210991   5.538   6.408   3.361
 3676TIP3    H110992   5.623   6.414   3.405
 3676TIP3    H210993   5.488   6.481   3.396
 3677TIP3   OH210994   6.065   3.965   5.605
 3677TIP3    H110995   6.151   3.957   5.566
 3677TIP3    H210996   6.043   3.876   5.633
 3678TIP3   OH210997   4.196   1.006   1.327
 3678TIP3    H110998   4.183   0.999   1.232
 3678TIP3    H210999   4.289   0.989   1.340
 3679TIP3   OH211000   4.124   6.669   0.107
 3679TIP3    H111001   4.159   6.582   0.124
 3679TIP3    H211002   4.038   6.669   0.149
 3680TIP3   OH211003   5.896   2.559   1.984
 3680TIP3    H111004   5.803   2.559   1.961
 3680TIP3    H211005   5.918   2.652   1.993
 3681TIP3   OH211006   2.887   5.530   5.632
 3681TIP3    H111007   2.825   5.550   5.702
 3681TIP3    H211008   2.931   5.450   5.660
 3682TIP3   OH211009   1.121   4.018   5.577
 3682TIP3    H111010   1.079   4.061   5.651
 3682TIP3    H211011   1.215   4.022   5.597
 3683TIP3   OH211012   6.499   1.638   2.116
 3683TIP3    H111013   6.499   1.732   2.102
 3683TIP3    H211014   6.578   1.607   2.073
 3684TIP3   OH211015   0.833   3.923   0.063
 3684TIP3    H111016   0.869   4.012   0.057
 3684TIP3    H211017   0.807   3.914   0.155
 3685TIP3   OH211018   4.332   4.235   0.300
 3685TIP3    H111019   4.391   4.273   0.365
 3685TIP3    H211020   4.302   4.310   0.248
 3686TIP3   OH211021   5.023   3.761   0.796
 3686TIP3    H111022   5.113   3.740   0.818
 3686TIP3    H211023   5.028   3.842   0.745
 3687TIP3   OH211024   2.559   5.247   3.111
 3687TIP3    H111025   2.653   5.260   3.098
 3687TIP3    H211026   2.533   5.190   3.039
 3688TIP3   OH211027   6.405   4.834   4.966
 3688TIP3    H111028   6.490   4.862   4.930
 3688TIP3    H211029   6.427   4.796   5.051
 3689TIP3   OH211030   4.339   3.058   4.822
 3689TIP3    H111031   4.356   2.998   4.894
 3689TIP3    H211032   4.383   3.139   4.847
 3690TIP3   OH211033   6.871   2.715   0.322
 3690TIP3    H111034   6.816   2.752   0.392
 3690TIP3    H211035   6.815   2.649   0.281
 3691TIP3   OH211036   2.720   4.854   0.196
 3691TIP3    H111037   2.764   4.938   0.200
 3691TIP3    H211038   2.627   4.875   0.196
 3692TIP3   OH211039   1.365   5.110   1.314
 3692TIP3    H111040   1.301   5.179   1.331
 3692TIP3    H211041   1.449   5.156   1.306
 3693TIP3   OH211042   1.451   1.096   3.632
 3693TIP3    H111043   1.424   1.006   3.649
 3693TIP3    H211044   1.445   1.140   3.717
 3694TIP3   OH211045   4.138   2.274   0.581
 3694TIP3    H111046   4.140   2.247   0.489
 3694TIP3    H211047   4.143   2.369   0.578
 3695TIP3   OH211048   5.656   3.063   4.544
 3695TIP3    H111049   5.654   3.134   4.608
 3695TIP3    H211050   5.620   3.101   4.464
 3696TIP3   OH211051   3.851   6.679   3.929
 3696TIP3    H111052   3.807   6.611   3.876
 3696TIP3    H211053   3.788   6.700   3.998
 3697TIP3   OH211054   2.796   4.111   5.461
 3697TIP3    H111055   2.734   4.077   5.525
 3697TIP3    H211056   2.745   4.121   5.381
 3698TIP3   OH211057   5.566   3.049   3.930
 3698TIP3    H111058   5.569   3.013   4.019
 3698TIP3    H211059   5.553   2.972   3.874
 3699TIP3   OH211060   1.467   3.477   0.181
 3699TIP3    H111061   1.375   3.461   0.157
 3699TIP3    H211062   1.475   3.573   0.180
 3700TIP3   OH211063   1.160   4.125   4.779
 3700TIP3    H111064   1.222   4.146   4.849
 3700TIP3    H211065   1.151   4.207   4.729
 3701TIP3   OH211066   0.682   5.206   3.102
 3701TIP3    H111067   0.762   5.162   3.074
 3701TIP3    H211068   0.660   5.265   3.030
 3702TIP3   OH211069   2.721   2.126   1.434
 3702TIP3    H111070   2.720   2.128   1.338
 3702TIP3    H211071   2.770   2.047   1.455
 3703TIP3   OH211072   1.463   4.690   3.287
 3703TIP3    H111073   1.532   4.627   3.304
 3703TIP3    H211074   1.423   4.705   3.372
 3704TIP3   OH211075   3.640   1.416   2.655
 3704TIP3    H111076   3.657   1.391   2.745
 3704TIP3    H211077   3.685   1.500   2.644
 3705TIP3   OH211078   5.839   1.451   0.723
 3705TIP3    H111079   5.853   1.362   0.689
 3705TIP3    H211080   5.898   1.506   0.671
 3706TIP3   OH211081   4.890   2.194   4.797
 3706TIP3    H111082   4.807   2.219   4.757
 3706TIP3    H211083   4.878   2.102   4.822
 3707TIP3   OH211084   1.052   2.676   5.095
 3707TIP3    H111085   1.138   2.637   5.108
 3707TIP3    H211086   1.005   2.612   5.041
 3708TIP3   OH211087   5.975   6.233   3.240
 3708TIP3    H111088   6.024   6.315   3.235
 3708TIP3    H211089   5.938   6.221   3.153
 3709TIP3   OH211090   0.557   3.138   3.281
 3709TIP3    H111091   0.477   3.161   3.328
 3709TIP3    H211092   0.533   3.142   3.189
 3710TIP3   OH211093   3.437   1.304   2.526
 3710TIP3    H111094   3.517   1.319   2.577
 3710TIP3    H211095   3.398   1.226   2.565
 3711TIP3   OH211096   7.141   2.814   2.131
 3711TIP3    H111097   7.149   2.795   2.225
 3711TIP3    H211098   7.056   2.856   2.123
 3712TIP3   OH211099   4.256   6.595   4.851
 3712TIP3    H111100   4.276   6.615   4.760
 3712TIP3    H211101   4.174   6.546   4.849
 3713TIP3   OH211102   6.286   1.412   0.830
 3713TIP3    H111103   6.249   1.379   0.912
 3713TIP3    H211104   6.345   1.482   0.857
 3714TIP3   OH211105   4.109   6.044   5.401
 3714TIP3    H111106   4.138   6.034   5.311
 3714TIP3    H211107   4.188   6.031   5.453
 3715TIP3   OH211108   2.819   4.358   4.533
 3715TIP3    H111109   2.863   4.358   4.448
 3715TIP3    H211110   2.890   4.352   4.597
 3716TIP3   OH211111   1.745   3.286   0.648
 3716TIP3    H111112   1.793   3.213   0.611
 3716TIP3    H211113   1.792   3.364   0.618
 3717TIP3   OH211114   6.732   4.312   3.750
 3717TIP3    H111115   6.741   4.382   3.685
 3717TIP3    H211116   6.747   4.232   3.700
 3718TIP3   OH211117   2.812   4.965   5.661
 3718TIP3    H111118   2.734   4.935   5.614
 3718TIP3    H211119   2.885   4.921   5.617
 3719TIP3   OH211120   4.710   5.351   1.495
 3719TIP3    H111121   4.652   5.307   1.434
 3719TIP3    H211122   4.654   5.415   1.540
 3720TIP3   OH211123   4.080   6.566   2.484
 3720TIP3    H111124   4.131   6.643   2.460
 3720TIP3    H211125   4.141   6.493   2.478
 3721TIP3   OH211126   2.079   0.724   4.665
 3721TIP3    H111127   2.011   0.663   4.640
 3721TIP3    H211128   2.121   0.685   4.741
 3722TIP3   OH211129   5.609   2.962   4.232
 3722TIP3    H111130   5.532   2.905   4.240
 3722TIP3    H211131   5.585   3.040   4.281
 3723TIP3   OH211132   6.185   2.344   4.544
 3723TIP3    H111133   6.147   2.300   4.468
 3723TIP3    H211134   6.184   2.277   4.613
 3724TIP3   OH211135   2.028   4.863   5.871
 3724TIP3    H111136   2.022   4.938   5.812
 3724TIP3    H211137   1.947   4.814   5.855
 3725TIP3   OH211138   2.680   4.970   0.566
 3725TIP3    H111139   2.668   5.057   0.604
 3725TIP3    H211140   2.762   4.976   0.516
 3726TIP3   OH211141   2.440   3.703   4.318
 3726TIP3    H111142   2.514   3.645   4.340
 3726TIP3    H211143   2.367   3.669   4.369
 3727TIP3   OH211144   0.381   2.851   4.841
 3727TIP3    H111145   0.285   2.850   4.835
 3727TIP3    H211146   0.408   2.775   4.790
 3728TIP3   OH211147   3.148   3.693   0.512
 3728TIP3    H111148   3.084   3.760   0.488
 3728TIP3    H211149   3.156   3.700   0.607
 3729TIP3   OH211150   3.950   0.289   2.240
 3729TIP3    H111151   3.941   0.310   2.147
 3729TIP3    H211152   3.864   0.257   2.265
 3730TIP3   OH211153   6.755   1.589   2.037
 3730TIP3    H111154   6.851   1.591   2.042
 3730TIP3    H211155   6.737   1.552   1.950
 3731TIP3   OH211156   3.002   2.152   1.188
 3731TIP3    H111157   3.030   2.213   1.119
 3731TIP3    H211158   2.908   2.171   1.199
 3732TIP3   OH211159   4.285   5.844   0.598
 3732TIP3    H111160   4.218   5.777   0.613
 3732TIP3    H211161   4.238   5.927   0.605
 3733TIP3   OH211162   6.870   6.247   5.909
 3733TIP3    H111163   6.961   6.248   5.880
 3733TIP3    H211164   6.831   6.324   5.867
 3734TIP3   OH211165   2.569   2.970   3.398
 3734TIP3    H111166   2.648   2.983   3.346
 3734TIP3    H211167   2.519   2.905   3.348
 3735TIP3   OH211168   3.153   4.590   5.659
 3735TIP3    H111169   3.246   4.602   5.641
 3735TIP3    H211170   3.113   4.674   5.638
 3736TIP3   OH211171   2.515   1.417   0.287
 3736TIP3    H111172   2.512   1.370   0.371
 3736TIP3    H211173   2.424   1.435   0.266
 3737TIP3   OH211174   4.449   4.499   2.443
 3737TIP3    H111175   4.526   4.556   2.443
 3737TIP3    H211176   4.376   4.557   2.463
 3738TIP3   OH211177   3.422   3.611   4.307
 3738TIP3    H111178   3.515   3.624   4.289
 3738TIP3    H211179   3.378   3.685   4.264
 3739TIP3   OH211180   5.704   4.251   4.267
 3739TIP3    H111181   5.704   4.173   4.211
 3739TIP3    H211182   5.797   4.270   4.281
 3740TIP3   OH211183   0.820   1.912   5.106
 3740TIP3    H111184   0.737   1.873   5.080
 3740TIP3    H211185   0.799   1.964   5.183
 3741TIP3   OH211186   3.482   4.136   4.233
 3741TIP3    H111187   3.390   4.149   4.209
 3741TIP3    H211188   3.518   4.225   4.240
 3742TIP3   OH211189   3.413   5.119   2.302
 3742TIP3    H111190   3.350   5.161   2.243
 3742TIP3    H211191   3.425   5.031   2.265
 3743TIP3   OH211192   3.829   0.228   1.610
 3743TIP3    H111193   3.795   0.154   1.560
 3743TIP3    H211194   3.911   0.252   1.567
 3744TIP3   OH211195   5.746   3.895   5.577
 3744TIP3    H111196   5.832   3.917   5.614
 3744TIP3    H211197   5.701   3.979   5.570
 3745TIP3   OH211198   1.451   1.817   0.252
 3745TIP3    H111199   1.451   1.816   0.156
 3745TIP3    H211200   1.527   1.869   0.276
 3746TIP3   OH211201   2.420   0.880   5.207
 3746TIP3    H111202   2.496   0.907   5.156
 3746TIP3    H211203   2.363   0.836   5.144
 3747TIP3   OH211204   3.981   2.782   2.602
 3747TIP3    H111205   4.013   2.761   2.514
 3747TIP3    H211206   3.945   2.871   2.593
 3748TIP3   OH211207   1.202   3.444   2.601
 3748TIP3    H111208   1.111   3.473   2.598
 3748TIP3    H211209   1.197   3.349   2.606
 3749TIP3   OH211210   2.262   1.429   1.657
 3749TIP3    H111211   2.201   1.462   1.722
 3749TIP3    H211212   2.207   1.391   1.589
 3750TIP3   OH211213   4.902   3.074   1.244
 3750TIP3    H111214   4.848   3.144   1.281
 3750TIP3    H211215   4.926   3.019   1.319
 3751TIP3   OH211216   4.042   3.890   2.419
 3751TIP3    H111217   3.973   3.832   2.453
 3751TIP3    H211218   4.020   3.903   2.327
 3752TIP3   OH211219   1.010   0.171   1.991
 3752TIP3    H111220   1.094   0.161   2.036
 3752TIP3    H211221   1.015   0.110   1.917
 3753TIP3   OH211222   3.126   5.319   4.828
 3753TIP3    H111223   3.059   5.350   4.767
 3753TIP3    H211224   3.208   5.326   4.778
 3754TIP3   OH211225   1.028   0.988   3.014
 3754TIP3    H111226   1.016   0.940   2.932
 3754TIP3    H211227   1.045   1.078   2.986
 3755TIP3   OH211228   7.211   6.223   4.293
 3755TIP3    H111229   7.194   6.168   4.369
 3755TIP3    H211230   7.145   6.293   4.299
 3756TIP3   OH211231   4.110   1.729   4.630
 3756TIP3    H111232   4.099   1.766   4.718
 3756TIP3    H211233   4.037   1.668   4.620
 3757TIP3   OH211234   1.292   2.661   3.040
 3757TIP3    H111235   1.374   2.675   2.994
 3757TIP3    H211236   1.317   2.619   3.123
 3758TIP3   OH211237   4.172   1.845   4.372
 3758TIP3    H111238   4.194   1.813   4.460
 3758TIP3    H211239   4.210   1.933   4.368
 3759TIP3   OH211240   4.076   3.673   2.100
 3759TIP3    H111241   4.036   3.750   2.140
 3759TIP3    H211242   4.020   3.654   2.024
 3760TIP3   OH211243   0.584   4.391   5.190
 3760TIP3    H111244   0.619   4.462   5.136
 3760TIP3    H211245   0.499   4.371   5.151
 3761TIP3   OH211246   5.623   1.786   2.208
 3761TIP3    H111247   5.601   1.777   2.301
 3761TIP3    H211248   5.644   1.878   2.196
 3762TIP3   OH211249   6.643   1.830   4.792
 3762TIP3    H111250   6.722   1.858   4.747
 3762TIP3    H211251   6.648   1.735   4.795
 3763TIP3   OH211252   5.510   2.801   4.527
 3763TIP3    H111253   5.475   2.791   4.438
 3763TIP3    H211254   5.505   2.895   4.544
 3764TIP3   OH211255   0.474   5.619   2.165
 3764TIP3    H111256   0.527   5.550   2.207
 3764TIP3    H211257   0.471   5.593   2.073
 3765TIP3   OH211258   4.599   5.254   0.228
 3765TIP3    H111259   4.662   5.225   0.162
 3765TIP3    H211260   4.647   5.252   0.311
 3766TIP3   OH211261   0.456   1.733   4.714
 3766TIP3    H111262   0.409   1.761   4.792
 3766TIP3    H211263   0.525   1.797   4.702
 3767TIP3   OH211264   6.774   0.201   4.923
 3767TIP3    H111265   6.788   0.185   5.017
 3767TIP3    H211266   6.759   0.295   4.917
 3768TIP3   OH211267   1.210   0.782   4.792
 3768TIP3    H111268   1.148   0.850   4.765
 3768TIP3    H211269   1.290   0.829   4.814
 3769TIP3   OH211270   2.634   5.143   3.973
 3769TIP3    H111271   2.683   5.224   3.991
 3769TIP3    H211272   2.692   5.093   3.916
 3770TIP3   OH211273   4.553   3.838   0.348
 3770TIP3    H111274   4.524   3.747   0.343
 3770TIP3    H211275   4.474   3.887   0.371
 3771TIP3   OH211276   2.037   0.471   4.556
 3771TIP3    H111277   2.133   0.467   4.558
 3771TIP3    H211278   2.009   0.384   4.586
 3772TIP3   OH211279   3.801   3.758   2.928
 3772TIP3    H111280   3.771   3.689   2.868
 3772TIP3    H211281   3.852   3.817   2.874
 3773TIP3   OH211282   3.172   5.249   4.249
 3773TIP3    H111283   3.212   5.274   4.166
 3773TIP3    H211284   3.166   5.330   4.299
 3774TIP3   OH211285   1.357   1.475   4.139
 3774TIP3    H111286   1.330   1.402   4.083
 3774TIP3    H211287   1.449   1.489   4.117
 3775TIP3   OH211288   6.733   0.236   4.182
 3775TIP3    H111289   6.688   0.317   4.205
 3775TIP3    H211290   6.806   0.263   4.127
 3776TIP3   OH211291   6.917   0.603   2.095
 3776TIP3    H111292   6.994   0.658   2.082
 3776TIP3    H211293   6.939   0.547   2.168
 3777TIP3   OH211294   6.842   0.606   3.753
 3777TIP3    H111295   6.917   0.558   3.786
 3777TIP3    H211296   6.841   0.688   3.801
 3778TIP3   OH211297   2.119   5.363   5.251
 3778TIP3    H111298   2.041   5.325   5.210
 3778TIP3    H211299   2.096   5.455   5.266
 3779TIP3   OH211300   3.194   2.684   3.606
 3779TIP3    H111301   3.228   2.773   3.604
 3779TIP3    H211302   3.211   2.653   3.695
 3780TIP3   OH211303   3.349   1.009   4.191
 3780TIP3    H111304   3.361   0.989   4.284
 3780TIP3    H211305   3.416   0.957   4.147
 3781TIP3   OH211306   6.404   1.177   4.626
 3781TIP3    H111307   6.359   1.098   4.658
 3781TIP3    H211308   6.414   1.162   4.532
 3782TIP3   OH211309   0.495   3.976   5.512
 3782TIP3    H111310   0.503   3.895   5.561
 3782TIP3    H211311   0.459   4.039   5.574
 3783TIP3   OH211312   7.204   5.126   1.807
 3783TIP3    H111313   7.173   5.087   1.726
 3783TIP3    H211314   7.272   5.188   1.781
 3784TIP3   OH211315   6.078   5.865   3.861
 3784TIP3    H111316   6.143   5.807   3.821
 3784TIP3    H211317   6.108   5.953   3.839
 3785TIP3   OH211318   2.175   3.444   1.017
 3785TIP3    H111319   2.232   3.379   0.977
 3785TIP3    H211320   2.087   3.417   0.993
 3786TIP3   OH211321   4.196   6.242   5.705
 3786TIP3    H111322   4.187   6.318   5.762
 3786TIP3    H211323   4.258   6.270   5.637
 3787TIP3   OH211324   3.075   6.418   2.271
 3787TIP3    H111325   3.159   6.373   2.267
 3787TIP3    H211326   3.038   6.408   2.183
 3788TIP3   OH211327   2.175   1.948   4.374
 3788TIP3    H111328   2.164   2.003   4.297
 3788TIP3    H211329   2.263   1.911   4.365
 3789TIP3   OH211330   4.448   0.638   4.480
 3789TIP3    H111331   4.357   0.611   4.491
 3789TIP3    H211332   4.443   0.714   4.421
 3790TIP3   OH211333   6.637   4.112   2.526
 3790TIP3    H111334   6.659   4.057   2.451
 3790TIP3    H211335   6.703   4.181   2.526
 3791TIP3   OH211336   4.396   0.166   0.835
 3791TIP3    H111337   4.470   0.195   0.782
 3791TIP3    H211338   4.388   0.073   0.818
 3792TIP3   OH211339   1.768   0.426   3.033
 3792TIP3    H111340   1.737   0.486   2.965
 3792TIP3    H211341   1.841   0.379   2.992
 3793TIP3   OH211342   4.102   3.388   5.926
 3793TIP3    H111343   4.099   3.293   5.920
 3793TIP3    H211344   4.180   3.414   5.878
 3794TIP3   OH211345   1.827   3.710   0.106
 3794TIP3    H111346   1.826   3.798   0.070
 3794TIP3    H211347   1.796   3.654   0.034
 3795TIP3   OH211348   6.962   0.348   2.900
 3795TIP3    H111349   6.917   0.319   2.820
 3795TIP3    H211350   7.021   0.276   2.921
 3796TIP3   OH211351   1.193   2.944   3.523
 3796TIP3    H111352   1.244   2.936   3.442
 3796TIP3    H211353   1.258   2.931   3.593
 3797TIP3   OH211354   4.707   6.488   3.274
 3797TIP3    H111355   4.688   6.414   3.331
 3797TIP3    H211356   4.742   6.555   3.332
 3798TIP3   OH211357   0.787   6.698   5.556
 3798TIP3    H111358   0.783   6.607   5.587
 3798TIP3    H211359   0.695   6.724   5.546
 3799TIP3   OH211360   1.284   1.223   0.779
 3799TIP3    H111361   1.225   1.292   0.809
 3799TIP3    H211362   1.338   1.265   0.712
 3800TIP3   OH211363   6.251   5.005   2.770
 3800TIP3    H111364   6.241   4.934   2.707
 3800TIP3    H211365   6.282   4.962   2.849
 3801TIP3   OH211366   7.191   4.790   1.736
 3801TIP3    H111367   7.231   4.704   1.727
 3801TIP3    H211368   7.237   4.845   1.672
 3802TIP3   OH211369   3.245   3.236   5.799
 3802TIP3    H111370   3.261   3.229   5.893
 3802TIP3    H211371   3.156   3.202   5.787
 3803TIP3   OH211372   0.422   1.111   3.161
 3803TIP3    H111373   0.423   1.029   3.112
 3803TIP3    H211374   0.329   1.126   3.182
 3804TIP3   OH211375   4.280   5.260   0.530
 3804TIP3    H111376   4.373   5.276   0.512
 3804TIP3    H211377   4.266   5.296   0.618
 3805TIP3   OH211378   1.010   5.086   0.753
 3805TIP3    H111379   1.045   5.151   0.691
 3805TIP3    H211380   1.086   5.033   0.777
 3806TIP3   OH211381   5.423   4.489   1.632
 3806TIP3    H111382   5.459   4.421   1.689
 3806TIP3    H211383   5.421   4.448   1.545
 3807TIP3   OH211384   0.248   6.263   5.210
 3807TIP3    H111385   0.258   6.353   5.242
 3807TIP3    H211386   0.190   6.270   5.135
 3808TIP3   OH211387   5.233   3.772   2.172
 3808TIP3    H111388   5.202   3.756   2.261
 3808TIP3    H211389   5.329   3.770   2.180
 3809TIP3   OH211390   1.319   6.623   4.728
 3809TIP3    H111391   1.247   6.586   4.779
 3809TIP3    H211392   1.395   6.617   4.785
 3810TIP3   OH211393   0.905   3.540   5.341
 3810TIP3    H111394   0.854   3.618   5.320
 3810TIP3    H211395   0.849   3.489   5.399
 3811TIP3   OH211396   4.664   1.341   1.679
 3811TIP3    H111397   4.582   1.295   1.696
 3811TIP3    H211398   4.732   1.283   1.714
 3812TIP3   OH211399   4.526   5.495   2.055
 3812TIP3    H111400   4.523   5.401   2.034
 3812TIP3    H211401   4.576   5.534   1.984
 3813TIP3   OH211402   6.885   5.840   5.105
 3813TIP3    H111403   6.885   5.933   5.080
 3813TIP3    H211404   6.900   5.794   5.022
 3814TIP3   OH211405   2.087   1.165   2.655
 3814TIP3    H111406   2.081   1.171   2.559
 3814TIP3    H211407   2.087   1.256   2.685
 3815TIP3   OH211408   6.826   3.489   1.053
 3815TIP3    H111409   6.782   3.538   0.983
 3815TIP3    H211410   6.755   3.448   1.102
 3816TIP3   OH211411   6.646   3.755   0.966
 3816TIP3    H111412   6.632   3.828   1.027
 3816TIP3    H211413   6.720   3.783   0.912
 3817TIP3   OH211414   0.158   4.163   4.281
 3817TIP3    H111415   0.246   4.125   4.275
 3817TIP3    H211416   0.106   4.114   4.217
 3818TIP3   OH211417   3.007   4.463   3.061
 3818TIP3    H111418   2.916   4.470   3.088
 3818TIP3    H211419   3.049   4.411   3.130
 3819TIP3   OH211420   1.997   3.765   4.880
 3819TIP3    H111421   1.957   3.685   4.916
 3819TIP3    H211422   2.039   3.807   4.955
 3820TIP3   OH211423   1.318   2.801   4.128
 3820TIP3    H111424   1.247   2.738   4.117
 3820TIP3    H211425   1.327   2.844   4.043
 3821TIP3   OH211426   6.899   5.859   2.020
 3821TIP3    H111427   6.989   5.870   2.050
 3821TIP3    H211428   6.907   5.844   1.926
 3822TIP3   OH211429   3.575   5.712   1.916
 3822TIP3    H111430   3.574   5.708   2.012
 3822TIP3    H211431   3.487   5.738   1.891
 3823TIP3   OH211432   5.258   0.957   3.068
 3823TIP3    H111433   5.177   0.990   3.031
 3823TIP3    H211434   5.277   1.017   3.140
 3824TIP3   OH211435   3.213   2.675   5.701
 3824TIP3    H111436   3.214   2.771   5.701
 3824TIP3    H211437   3.299   2.650   5.735
 3825TIP3   OH211438   1.408   2.011   3.694
 3825TIP3    H111439   1.473   2.035   3.760
 3825TIP3    H211440   1.328   2.055   3.722
 3826TIP3   OH211441   1.337   3.854   3.914
 3826TIP3    H111442   1.314   3.774   3.961
 3826TIP3    H211443   1.430   3.865   3.930
 3827TIP3   OH211444   4.370   0.972   5.503
 3827TIP3    H111445   4.365   0.964   5.598
 3827TIP3    H211446   4.309   0.906   5.470
 3828TIP3   OH211447   0.421   2.320   3.632
 3828TIP3    H111448   0.334   2.287   3.613
 3828TIP3    H211449   0.411   2.415   3.630
 3829TIP3   OH211450   1.032   0.769   5.357
 3829TIP3    H111451   1.093   0.824   5.308
 3829TIP3    H211452   1.027   0.688   5.306
 3830TIP3   OH211453   4.379   6.587   2.189
 3830TIP3    H111454   4.293   6.575   2.230
 3830TIP3    H211455   4.400   6.679   2.206
 3831TIP3   OH211456   2.882   4.639   1.835
 3831TIP3    H111457   2.972   4.641   1.802
 3831TIP3    H211458   2.833   4.695   1.774
 3832TIP3   OH211459   0.899   2.682  -0.017
 3832TIP3    H111460   0.844   2.675   0.061
 3832TIP3    H211461   0.923   2.591  -0.038
 3833TIP3   OH211462   3.466   1.728   4.448
 3833TIP3    H111463   3.392   1.676   4.416
 3833TIP3    H211464   3.429   1.779   4.521
 3834TIP3   OH211465   4.188   2.156   5.142
 3834TIP3    H111466   4.214   2.117   5.225
 3834TIP3    H211467   4.182   2.250   5.160
 3835TIP3   OH211468   6.569   0.961   5.404
 3835TIP3    H111469   6.605   0.914   5.480
 3835TIP3    H211470   6.547   0.891   5.342
 3836TIP3   OH211471   2.887   3.334   2.381
 3836TIP3    H111472   2.927   3.290   2.306
 3836TIP3    H211473   2.960   3.351   2.441
 3837TIP3   OH211474   5.427   3.574   4.982
 3837TIP3    H111475   5.421   3.668   4.998
 3837TIP3    H211476   5.521   3.556   4.981
 3838TIP3   OH211477   4.198   0.988   5.253
 3838TIP3    H111478   4.292   0.967   5.246
 3838TIP3    H211479   4.159   0.910   5.292
 3839TIP3   OH211480   1.005   6.240   5.434
 3839TIP3    H111481   1.016   6.213   5.525
 3839TIP3    H211482   0.981   6.160   5.388
 3840TIP3   OH211483   2.326   4.220   4.169
 3840TIP3    H111484   2.300   4.304   4.130
 3840TIP3    H211485   2.298   4.154   4.105
 3841TIP3   OH211486   6.517   5.186   0.454
 3841TIP3    H111487   6.607   5.197   0.424
 3841TIP3    H211488   6.467   5.250   0.402
 3842TIP3   OH211489   0.164   5.518   1.361
 3842TIP3    H111490   0.131   5.602   1.394
 3842TIP3    H211491   0.086   5.472   1.330
 3843TIP3   OH211492   6.469   2.293   4.544
 3843TIP3    H111493   6.473   2.355   4.616
 3843TIP3    H211494   6.376   2.280   4.528
 3844TIP3   OH211495   1.420   5.789   0.742
 3844TIP3    H111496   1.404   5.851   0.813
 3844TIP3    H211497   1.422   5.704   0.785
 3845TIP3   OH211498   1.431   0.900   1.987
 3845TIP3    H111499   1.351   0.939   1.951
 3845TIP3    H211500   1.428   0.809   1.958
 3846TIP3   OH211501   5.419   4.474   4.629
 3846TIP3    H111502   5.398   4.511   4.543
 3846TIP3    H211503   5.378   4.533   4.691
 3847TIP3   OH211504   0.828   2.572   1.173
 3847TIP3    H111505   0.900   2.589   1.112
 3847TIP3    H211506   0.764   2.640   1.154
 3848TIP3   OH211507   5.791   6.473   2.703
 3848TIP3    H111508   5.877   6.431   2.706
 3848TIP3    H211509   5.786   6.521   2.785
 3849TIP3   OH211510   1.598   6.491   4.090
 3849TIP3    H111511   1.511   6.473   4.125
 3849TIP3    H211512   1.657   6.469   4.162
 3850TIP3   OH211513   4.517   4.100   2.738
 3850TIP3    H111514   4.437   4.050   2.721
 3850TIP3    H211515   4.493   4.191   2.721
 3851TIP3   OH211516   2.597   6.170   0.841
 3851TIP3    H111517   2.637   6.158   0.755
 3851TIP3    H211518   2.659   6.130   0.902
 3852TIP3   OH211519   6.085   2.243   1.490
 3852TIP3    H111520   6.026   2.263   1.562
 3852TIP3    H211521   6.112   2.329   1.456
 3853TIP3   OH211522   1.716   1.862   0.328
 3853TIP3    H111523   1.799   1.908   0.341
 3853TIP3    H211524   1.700   1.817   0.411
 3854TIP3   OH211525   6.238   0.784   0.523
 3854TIP3    H111526   6.185   0.737   0.588
 3854TIP3    H211527   6.181   0.854   0.492
 3855TIP3   OH211528   1.166   1.983   2.195
 3855TIP3    H111529   1.224   1.979   2.270
 3855TIP3    H211530   1.120   1.899   2.195
 3856TIP3   OH211531   1.032   1.918   0.024
 3856TIP3    H111532   1.036   1.932  -0.070
 3856TIP3    H211533   1.105   1.859   0.043
 3857TIP3   OH211534   4.919   3.855   1.798
 3857TIP3    H111535   4.866   3.835   1.720
 3857TIP3    H211536   4.994   3.796   1.792
 3858TIP3   OH211537   3.694   2.037   4.780
 3858TIP3    H111538   3.607   2.066   4.751
 3858TIP3    H211539   3.686   2.029   4.875
 3859TIP3   OH211540   2.387   3.950   2.933
 3859TIP3    H111541   2.418   4.024   2.882
 3859TIP3    H211542   2.331   3.988   3.000
 3860TIP3   OH211543   2.302   5.255   5.071
 3860TIP3    H111544   2.275   5.330   5.124
 3860TIP3    H211545   2.318   5.292   4.984
 3861TIP3   OH211546   1.968   6.421   5.656
 3861TIP3    H111547   1.934   6.347   5.708
 3861TIP3    H211548   1.985   6.489   5.721
 3862TIP3   OH211549   5.222   6.725   0.329
 3862TIP3    H111550   5.232   6.768   0.414
 3862TIP3    H211551   5.299   6.752   0.279
 3863TIP3   OH211552   2.842   2.887   0.488
 3863TIP3    H111553   2.889   2.812   0.525
 3863TIP3    H211554   2.811   2.856   0.403
 3864TIP3   OH211555   5.703   3.067   0.278
 3864TIP3    H111556   5.608   3.058   0.280
 3864TIP3    H211557   5.732   3.004   0.212
 3865TIP3   OH211558   0.871   2.337   4.348
 3865TIP3    H111559   0.781   2.313   4.326
 3865TIP3    H211560   0.866   2.370   4.438
 3866TIP3   OH211561   3.135   2.525   2.216
 3866TIP3    H111562   3.078   2.521   2.139
 3866TIP3    H211563   3.085   2.576   2.279
 3867TIP3   OH211564   3.758   4.470   0.589
 3867TIP3    H111565   3.796   4.399   0.538
 3867TIP3    H211566   3.752   4.436   0.678
 3868TIP3   OH211567   5.721   1.626   1.798
 3868TIP3    H111568   5.643   1.611   1.745
 3868TIP3    H211569   5.717   1.560   1.867
 3869TIP3   OH211570   6.141   4.403   2.041
 3869TIP3    H111571   6.049   4.416   2.065
 3869TIP3    H211572   6.161   4.314   2.071
 3870TIP3   OH211573   6.695   5.101   1.767
 3870TIP3    H111574   6.640   5.100   1.689
 3870TIP3    H211575   6.760   5.033   1.753
 3871TIP3   OH211576   2.872   4.359   4.108
 3871TIP3    H111577   2.859   4.269   4.075
 3871TIP3    H211578   2.844   4.415   4.036
 3872TIP3   OH211579   3.238   2.654   5.148
 3872TIP3    H111580   3.224   2.703   5.229
 3872TIP3    H211581   3.250   2.721   5.081
 3873TIP3   OH211582   2.840   5.399   4.749
 3873TIP3    H111583   2.814   5.354   4.829
 3873TIP3    H211584   2.870   5.329   4.691
 3874TIP3   OH211585   0.874   4.466   5.378
 3874TIP3    H111586   0.855   4.558   5.398
 3874TIP3    H211587   0.967   4.465   5.356
 3875TIP3   OH211588   2.731   2.104   1.155
 3875TIP3    H111589   2.754   2.071   1.068
 3875TIP3    H211590   2.680   2.183   1.139
 3876TIP3   OH211591   2.579   5.148   2.002
 3876TIP3    H111592   2.577   5.062   1.959
 3876TIP3    H211593   2.578   5.211   1.931
 3877TIP3   OH211594   2.518   1.636   1.947
 3877TIP3    H111595   2.509   1.572   2.017
 3877TIP3    H211596   2.429   1.647   1.913
 3878TIP3   OH211597   0.018   4.320   4.494
 3878TIP3    H111598   0.055   4.408   4.507
 3878TIP3    H211599   0.052   4.292   4.410
 3879TIP3   OH211600   5.329   2.319   5.098
 3879TIP3    H111601   5.387   2.343   5.026
 3879TIP3    H211602   5.276   2.398   5.113
 3880TIP3   OH211603   6.983   1.675   3.865
 3880TIP3    H111604   6.997   1.618   3.789
 3880TIP3    H211605   6.888   1.679   3.875
 3881TIP3   OH211606   1.843   2.123   1.153
 3881TIP3    H111607   1.757   2.153   1.183
 3881TIP3    H211608   1.889   2.204   1.129
 3882TIP3   OH211609   3.602   1.500   2.024
 3882TIP3    H111610   3.592   1.577   2.079
 3882TIP3    H211611   3.587   1.426   2.083
 3883TIP3   OH211612   5.710   5.767   0.281
 3883TIP3    H111613   5.640   5.822   0.316
 3883TIP3    H211614   5.702   5.776   0.186
 3884TIP3   OH211615   6.664   1.141   5.210
 3884TIP3    H111616   6.656   1.160   5.116
 3884TIP3    H211617   6.601   1.070   5.225
 3885TIP3   OH211618   0.404   2.397   1.880
 3885TIP3    H111619   0.390   2.306   1.905
 3885TIP3    H211620   0.384   2.400   1.786
 3886TIP3   OH211621   0.623   1.679   5.115
 3886TIP3    H111622   0.655   1.592   5.139
 3886TIP3    H211623   0.533   1.681   5.146
 3887TIP3   OH211624   5.019   6.327   4.854
 3887TIP3    H111625   5.029   6.418   4.826
 3887TIP3    H211626   5.077   6.319   4.929
 3888TIP3   OH211627   1.092   0.362   4.536
 3888TIP3    H111628   1.159   0.334   4.473
 3888TIP3    H211629   1.137   0.424   4.593
 3889TIP3   OH211630   5.123   5.331   5.037
 3889TIP3    H111631   5.153   5.341   4.947
 3889TIP3    H211632   5.059   5.260   5.033
 3890TIP3   OH211633   1.485   2.740   3.397
 3890TIP3    H111634   1.580   2.734   3.409
 3890TIP3    H211635   1.461   2.660   3.352
 3891TIP3   OH211636   5.850   5.857   0.930
 3891TIP3    H111637   5.887   5.894   1.010
 3891TIP3    H211638   5.845   5.931   0.869
 3892TIP3   OH211639   4.847   1.160   1.809
 3892TIP3    H111640   4.833   1.187   1.899
 3892TIP3    H211641   4.929   1.110   1.811
 3893TIP3   OH211642   2.652   6.674   3.018
 3893TIP3    H111643   2.698   6.744   2.970
 3893TIP3    H211644   2.715   6.645   3.084
 3894TIP3   OH211645   7.203   1.086   2.113
 3894TIP3    H111646   7.253   1.053   2.039
 3894TIP3    H211647   7.116   1.045   2.104
 3895TIP3   OH211648   4.375   2.506   2.551
 3895TIP3    H111649   4.388   2.499   2.646
 3895TIP3    H211650   4.407   2.593   2.529
 3896TIP3   OH211651   4.241   4.811   3.785
 3896TIP3    H111652   4.325   4.853   3.805
 3896TIP3    H211653   4.179   4.851   3.845
 3897TIP3   OH211654   1.744   4.592   3.669
 3897TIP3    H111655   1.773   4.667   3.616
 3897TIP3    H211656   1.680   4.630   3.730
 3898TIP3   OH211657   6.020   1.268   2.767
 3898TIP3    H111658   5.999   1.177   2.787
 3898TIP3    H211659   5.971   1.319   2.831
 3899TIP3   OH211660   4.181   0.675   1.382
 3899TIP3    H111661   4.085   0.673   1.376
 3899TIP3    H211662   4.210   0.675   1.291
 3900TIP3   OH211663   3.020   2.488   1.984
 3900TIP3    H111664   3.086   2.482   1.915
 3900TIP3    H211665   2.939   2.459   1.943
 3901TIP3   OH211666   5.668   5.206   1.356
 3901TIP3    H111667   5.609   5.153   1.304
 3901TIP3    H211668   5.726   5.247   1.292
 3902TIP3   OH211669   4.162   0.627   3.663
 3902TIP3    H111670   4.221   0.554   3.675
 3902TIP3    H211671   4.078   0.597   3.698
 3903TIP3   OH211672   5.663   2.289   2.159
 3903TIP3    H111673   5.694   2.340   2.233
 3903TIP3    H211674   5.601   2.346   2.114
 3904TIP3   OH211675   7.167   2.844   4.400
 3904TIP3    H111676   7.098   2.907   4.419
 3904TIP3    H211677   7.120   2.762   4.380
 3905TIP3   OH211678   0.308   4.208   1.662
 3905TIP3    H111679   0.381   4.195   1.723
 3905TIP3    H211680   0.232   4.223   1.719
 3906TIP3   OH211681   3.090   3.510   0.783
 3906TIP3    H111682   3.151   3.458   0.834
 3906TIP3    H211683   3.014   3.452   0.770
 3907TIP3   OH211684   0.283   2.946   2.244
 3907TIP3    H111685   0.369   2.912   2.219
 3907TIP3    H211686   0.242   2.972   2.161
 3908TIP3   OH211687   0.801   3.905   1.022
 3908TIP3    H111688   0.738   3.838   0.996
 3908TIP3    H211689   0.858   3.862   1.085
 3909TIP3   OH211690   4.167   0.256   1.971
 3909TIP3    H111691   4.231   0.323   1.949
 3909TIP3    H211692   4.209   0.205   2.040
 3910TIP3   OH211693   5.654   6.244   5.411
 3910TIP3    H111694   5.691   6.305   5.475
 3910TIP3    H211695   5.722   6.237   5.343
 3911TIP3   OH211696   3.795   2.576   0.692
 3911TIP3    H111697   3.790   2.655   0.638
 3911TIP3    H211698   3.858   2.520   0.647
 3912TIP3   OH211699   4.128   1.417   4.162
 3912TIP3    H111700   4.077   1.335   4.161
 3912TIP3    H211701   4.166   1.422   4.075
 3913TIP3   OH211702   3.607   6.050   4.356
 3913TIP3    H111703   3.552   6.052   4.277
 3913TIP3    H211704   3.589   5.965   4.395
 3914TIP3   OH211705   5.240   0.564   4.473
 3914TIP3    H111706   5.252   0.471   4.488
 3914TIP3    H211707   5.329   0.600   4.475
 3915TIP3   OH211708   7.057   6.350   2.897
 3915TIP3    H111709   7.107   6.369   2.976
 3915TIP3    H211710   7.097   6.406   2.830
 3916TIP3   OH211711   4.024   3.362   2.949
 3916TIP3    H111712   4.072   3.294   2.902
 3916TIP3    H211713   3.972   3.314   3.013
 3917TIP3   OH211714   2.894   4.680   4.635
 3917TIP3    H111715   2.990   4.685   4.640
 3917TIP3    H211716   2.865   4.681   4.726
 3918TIP3   OH211717   3.955   1.423   0.443
 3918TIP3    H111718   3.936   1.485   0.513
 3918TIP3    H211719   3.871   1.407   0.401
 3919TIP3   OH211720   3.972   2.384   0.929
 3919TIP3    H111721   3.989   2.293   0.908
 3919TIP3    H211722   3.881   2.385   0.961
 3920TIP3   OH211723   0.437   0.536   3.953
 3920TIP3    H111724   0.418   0.627   3.978
 3920TIP3    H211725   0.468   0.542   3.863
 3921TIP3   OH211726   2.629   3.158   1.196
 3921TIP3    H111727   2.553   3.195   1.241
 3921TIP3    H211728   2.627   3.197   1.109
 3922TIP3   OH211729   1.588   2.653   5.581
 3922TIP3    H111730   1.682   2.641   5.591
 3922TIP3    H211731   1.574   2.655   5.486
 3923TIP3   OH211732   3.161   0.659   4.051
 3923TIP3    H111733   3.226   0.638   4.118
 3923TIP3    H211734   3.078   0.662   4.100
 3924TIP3   OH211735   4.821   4.028   5.031
 3924TIP3    H111736   4.753   4.075   4.983
 3924TIP3    H211737   4.777   3.953   5.069
 3925TIP3   OH211738   4.308   6.579   4.579
 3925TIP3    H111739   4.376   6.519   4.550
 3925TIP3    H211740   4.301   6.642   4.508
 3926TIP3   OH211741   3.883   2.929   3.271
 3926TIP3    H111742   3.811   2.955   3.213
 3926TIP3    H211743   3.840   2.880   3.342
 3927TIP3   OH211744   0.870   2.480   2.844
 3927TIP3    H111745   0.878   2.407   2.783
 3927TIP3    H211746   0.784   2.518   2.825
 3928TIP3   OH211747   2.633   6.285   4.471
 3928TIP3    H111748   2.560   6.341   4.443
 3928TIP3    H211749   2.610   6.258   4.560
 3929TIP3   OH211750   0.988   2.347   2.598
 3929TIP3    H111751   1.044   2.299   2.537
 3929TIP3    H211752   0.926   2.281   2.630
 3930TIP3   OH211753   5.063   3.203   4.176
 3930TIP3    H111754   4.985   3.234   4.131
 3930TIP3    H211755   5.040   3.116   4.208
 3931TIP3   OH211756   5.027   0.391   0.111
 3931TIP3    H111757   4.957   0.351   0.163
 3931TIP3    H211758   4.988   0.401   0.024
 3932TIP3   OH211759   5.959   6.642   3.116
 3932TIP3    H111760   6.040   6.643   3.065
 3932TIP3    H211761   5.891   6.617   3.054
 3933TIP3   OH211762   3.574   2.890   5.298
 3933TIP3    H111763   3.559   2.984   5.309
 3933TIP3    H211764   3.633   2.867   5.370
 3934TIP3   OH211765   4.760   1.273   3.821
 3934TIP3    H111766   4.765   1.291   3.727
 3934TIP3    H211767   4.738   1.358   3.860
 3935TIP3   OH211768   2.091   0.712   2.348
 3935TIP3    H111769   2.031   0.786   2.345
 3935TIP3    H211770   2.037   0.636   2.325
 3936TIP3   OH211771   4.201   0.082   0.146
 3936TIP3    H111772   4.111   0.075   0.115
 3936TIP3    H211773   4.239  -0.004   0.126
 3937TIP3   OH211774   7.098   6.863   5.444
 3937TIP3    H111775   7.082   6.802   5.516
 3937TIP3    H211776   7.186   6.842   5.413
 3938TIP3   OH211777   2.485   4.568   4.155
 3938TIP3    H111778   2.520   4.529   4.075
 3938TIP3    H211779   2.532   4.523   4.226
 3939TIP3   OH211780   5.938   5.640   3.105
 3939TIP3    H111781   5.864   5.700   3.099
 3939TIP3    H211782   5.914   5.567   3.047
 3940TIP3   OH211783   2.184   2.236   1.153
 3940TIP3    H111784   2.212   2.160   1.101
 3940TIP3    H211785   2.185   2.204   1.243
 3941TIP3   OH211786   0.982   0.310   3.849
 3941TIP3    H111787   0.914   0.349   3.904
 3941TIP3    H211788   1.058   0.302   3.906
 3942TIP3   OH211789   1.115   1.949   1.445
 3942TIP3    H111790   1.174   2.008   1.397
 3942TIP3    H211791   1.169   1.871   1.464
 3943TIP3   OH211792   1.415   0.218   1.978
 3943TIP3    H111793   1.441   0.235   2.069
 3943TIP3    H211794   1.331   0.264   1.969
 3944TIP3   OH211795   1.013   3.151   2.685
 3944TIP3    H111796   1.041   3.061   2.702
 3944TIP3    H211797   1.061   3.176   2.606
 3945TIP3   OH211798   6.456   4.268   5.213
 3945TIP3    H111799   6.436   4.324   5.138
 3945TIP3    H211800   6.546   4.290   5.236
 3946TIP3   OH211801   5.438   2.473   2.410
 3946TIP3    H111802   5.457   2.508   2.323
 3946TIP3    H211803   5.349   2.437   2.402
 3947TIP3   OH211804   6.455   5.559   5.764
 3947TIP3    H111805   6.519   5.613   5.810
 3947TIP3    H211806   6.372   5.604   5.778
 3948TIP3   OH211807   0.240   3.798   0.610
 3948TIP3    H111808   0.210   3.840   0.530
 3948TIP3    H211809   0.298   3.728   0.579
 3949TIP3   OH211810   6.799   5.550   1.176
 3949TIP3    H111811   6.761   5.477   1.127
 3949TIP3    H211812   6.815   5.514   1.263
 3950TIP3   OH211813   5.498   6.264   3.939
 3950TIP3    H111814   5.418   6.229   3.978
 3950TIP3    H211815   5.476   6.281   3.848
 3951TIP3   OH211816   1.737   2.271   5.693
 3951TIP3    H111817   1.816   2.283   5.641
 3951TIP3    H211818   1.718   2.357   5.729
 3952TIP3   OH211819   6.076   0.912   5.469
 3952TIP3    H111820   6.036   0.912   5.556
 3952TIP3    H211821   6.132   0.990   5.469
 3953TIP3   OH211822   6.666   6.158   2.082
 3953TIP3    H111823   6.615   6.205   2.148
 3953TIP3    H211824   6.701   6.227   2.025
 3954TIP3   OH211825   3.733   5.810   4.702
 3954TIP3    H111826   3.640   5.826   4.687
 3954TIP3    H211827   3.769   5.896   4.721
 3955TIP3   OH211828   5.453   6.066   5.483
 3955TIP3    H111829   5.374   6.108   5.517
 3955TIP3    H211830   5.506   6.139   5.450
 3956TIP3   OH211831   0.078   2.405   0.605
 3956TIP3    H111832   0.082   2.365   0.518
 3956TIP3    H211833  -0.008   2.447   0.607
 3957TIP3   OH211834   0.797   3.658   3.738
 3957TIP3    H111835   0.865   3.631   3.676
 3957TIP3    H211836   0.846   3.696   3.812
 3958TIP3   OH211837   3.265   0.528   1.282
 3958TIP3    H111838   3.353   0.565   1.282
 3958TIP3    H211839   3.207   0.603   1.295
 3959TIP3   OH211840   0.309   6.572   0.317
 3959TIP3    H111841   0.375   6.640   0.334
 3959TIP3    H211842   0.355   6.490   0.329
 3960TIP3   OH211843   5.215   1.307   5.385
 3960TIP3    H111844   5.211   1.402   5.376
 3960TIP3    H211845   5.161   1.288   5.461
 3961TIP3   OH211846   7.098   2.408   2.851
 3961TIP3    H111847   7.124   2.494   2.816
 3961TIP3    H211848   7.066   2.427   2.939
 3962TIP3   OH211849   3.458   4.153   1.261
 3962TIP3    H111850   3.516   4.146   1.337
 3962TIP3    H211851   3.476   4.240   1.225
 3963TIP3   OH211852   3.231   0.980   2.046
 3963TIP3    H111853   3.153   0.926   2.060
 3963TIP3    H211854   3.213   1.028   1.965
 3964TIP3   OH211855   4.837   6.414   4.599
 3964TIP3    H111856   4.772   6.484   4.603
 3964TIP3    H211857   4.891   6.427   4.677
 3965TIP3   OH211858   5.914   3.757   1.881
 3965TIP3    H111859   5.886   3.690   1.943
 3965TIP3    H211860   5.883   3.726   1.796
 3966TIP3   OH211861   4.671   5.909   1.976
 3966TIP3    H111862   4.669   5.926   1.882
 3966TIP3    H211863   4.583   5.932   2.007
 3967TIP3   OH211864   4.235   4.495   2.962
 3967TIP3    H111865   4.315   4.458   3.000
 3967TIP3    H211866   4.241   4.589   2.979
 3968TIP3   OH211867   1.617   3.905   3.996
 3968TIP3    H111868   1.653   3.818   3.980
 3968TIP3    H211869   1.693   3.959   4.018
 3969TIP3   OH211870   5.965   1.916   1.016
 3969TIP3    H111871   5.978   1.908   1.111
 3969TIP3    H211872   5.919   2.000   1.005
 3970TIP3   OH211873   0.822   0.086   4.820
 3970TIP3    H111874   0.815   0.150   4.890
 3970TIP3    H211875   0.915   0.079   4.802
 3971TIP3   OH211876   4.287   5.428   4.003
 3971TIP3    H111877   4.358   5.487   4.029
 3971TIP3    H211878   4.331   5.356   3.959
 3972TIP3   OH211879   5.881   6.322   5.039
 3972TIP3    H111880   5.916   6.401   4.998
 3972TIP3    H211881   5.870   6.346   5.132
 3973TIP3   OH211882   6.504   6.405   5.061
 3973TIP3    H111883   6.525   6.421   5.153
 3973TIP3    H211884   6.469   6.316   5.060
 3974TIP3   OH211885   1.628   1.073   0.755
 3974TIP3    H111886   1.595   1.040   0.839
 3974TIP3    H211887   1.640   1.167   0.771
 3975TIP3   OH211888   6.920   6.554   5.346
 3975TIP3    H111889   6.831   6.578   5.371
 3975TIP3    H211890   6.970   6.558   5.427
 3976TIP3   OH211891   0.060   6.570   5.753
 3976TIP3    H111892   0.058   6.596   5.845
 3976TIP3    H211893   0.105   6.486   5.753
 3977TIP3   OH211894   3.413   6.068   3.189
 3977TIP3    H111895   3.367   6.058   3.272
 3977TIP3    H211896   3.355   6.122   3.136
 3978TIP3   OH211897   6.573   1.478   5.285
 3978TIP3    H111898   6.622   1.451   5.208
 3978TIP3    H211899   6.582   1.574   5.287
 3979TIP3   OH211900   0.660   1.121   0.745
 3979TIP3    H111901   0.631   1.188   0.807
 3979TIP3    H211902   0.748   1.097   0.775
 3980TIP3   OH211903   5.272   3.828   1.116
 3980TIP3    H111904   5.251   3.764   1.185
 3980TIP3    H211905   5.256   3.780   1.035
 3981TIP3   OH211906   4.568   6.669   0.923
 3981TIP3    H111907   4.528   6.696   0.840
 3981TIP3    H211908   4.662   6.671   0.906
 3982TIP3   OH211909   5.234   3.900   4.848
 3982TIP3    H111910   5.206   3.971   4.906
 3982TIP3    H211911   5.330   3.907   4.848
 3983TIP3   OH211912   3.844   6.013   3.707
 3983TIP3    H111913   3.877   6.102   3.720
 3983TIP3    H211914   3.838   6.004   3.612
 3984TIP3   OH211915   2.283   6.540   0.697
 3984TIP3    H111916   2.206   6.514   0.646
 3984TIP3    H211917   2.325   6.458   0.721
 3985TIP3   OH211918   1.025   1.967   2.558
 3985TIP3    H111919   0.964   1.937   2.490
 3985TIP3    H211920   0.977   1.955   2.640
 3986TIP3   OH211921   1.242   3.085   2.012
 3986TIP3    H111922   1.245   3.145   2.087
 3986TIP3    H211923   1.206   3.004   2.049
 3987TIP3   OH211924   5.375   3.836   5.572
 3987TIP3    H111925   5.434   3.834   5.497
 3987TIP3    H211926   5.306   3.897   5.547
 3988TIP3   OH211927   3.175   3.922   3.604
 3988TIP3    H111928   3.260   3.884   3.628
 3988TIP3    H211929   3.110   3.860   3.638
 3989TIP3   OH211930   2.125   1.685   2.116
 3989TIP3    H111931   2.171   1.763   2.086
 3989TIP3    H211932   2.163   1.613   2.066
 3990TIP3   OH211933   0.298   6.523   5.317
 3990TIP3    H111934   0.256   6.585   5.257
 3990TIP3    H211935   0.274   6.553   5.404
 3991TIP3   OH211936   6.316   5.503   1.467
 3991TIP3    H111937   6.407   5.479   1.484
 3991TIP3    H211938   6.301   5.580   1.523
 3992TIP3   OH211939   4.449   3.043   1.167
 3992TIP3    H111940   4.535   3.043   1.125
 3992TIP3    H211941   4.467   3.032   1.261
 3993TIP3   OH211942   3.926   2.651   4.381
 3993TIP3    H111943   3.993   2.599   4.426
 3993TIP3    H211944   3.870   2.684   4.451
 3994TIP3   OH211945   2.569   2.346   4.197
 3994TIP3    H111946   2.517   2.386   4.127
 3994TIP3    H211947   2.658   2.377   4.181
 3995TIP3   OH211948   1.855   1.220   2.350
 3995TIP3    H111949   1.825   1.255   2.266
 3995TIP3    H211950   1.941   1.183   2.331
 3996TIP3   OH211951   6.932   2.966   3.780
 3996TIP3    H111952   6.966   2.953   3.869
 3996TIP3    H211953   7.010   2.969   3.725
 3997TIP3   OH211954   3.266   1.085   3.578
 3997TIP3    H111955   3.297   1.035   3.654
 3997TIP3    H211956   3.316   1.166   3.581
 3998TIP3   OH211957   3.729   1.423   5.110
 3998TIP3    H111958   3.784   1.430   5.187
 3998TIP3    H211959   3.769   1.483   5.046
 3999TIP3   OH211960   3.905   3.860   3.763
 3999TIP3    H111961   3.849   3.811   3.823
 3999TIP3    H211962   3.855   3.938   3.741
 4000TIP3   OH211963   0.246   6.797   0.645
 4000TIP3    H111964   0.314   6.864   0.633
 4000TIP3    H211965   0.271   6.753   0.727
 4001TIP3   OH211966   5.820   5.377   0.102
 4001TIP3    H111967   5.733   5.364   0.064
 4001TIP3    H211968   5.803   5.422   0.185
 4002TIP3   OH211969   1.408   4.125   0.338
 4002TIP3    H111970   1.439   4.201   0.387
 4002TIP3    H211971   1.471   4.115   0.266
 4003TIP3   OH211972   5.886   0.534   0.904
 4003TIP3    H111973   5.812   0.580   0.945
 4003TIP3    H211974   5.852   0.446   0.886
 4004TIP3   OH211975   0.323   3.524   5.141
 4004TIP3    H111976   0.324   3.616   5.115
 4004TIP3    H211977   0.414   3.504   5.162
 4005TIP3   OH211978   5.525   4.908   4.985
 4005TIP3    H111979   5.470   4.953   4.921
 4005TIP3    H211980   5.609   4.895   4.940
 4006TIP3   OH211981   4.527   4.756   5.376
 4006TIP3    H111982   4.611   4.802   5.378
 4006TIP3    H211983   4.489   4.771   5.462
 4007TIP3   OH211984   1.376   4.193   4.964
 4007TIP3    H111985   1.432   4.150   5.029
 4007TIP3    H211986   1.436   4.217   4.893
 4008TIP3   OH211987   2.284   2.592   1.393
 4008TIP3    H111988   2.295   2.660   1.459
 4008TIP3    H211989   2.291   2.509   1.441
 4009TIP3   OH211990   2.009   6.787   0.476
 4009TIP3    H111991   1.927   6.785   0.427
 4009TIP3    H211992   2.011   6.702   0.521
 4010TIP3   OH211993   1.009   0.407   2.310
 4010TIP3    H111994   1.094   0.403   2.354
 4010TIP3    H211995   0.946   0.417   2.381
 4011TIP3   OH211996   6.659   0.433   0.694
 4011TIP3    H111997   6.713   0.363   0.729
 4011TIP3    H211998   6.720   0.493   0.651
 4012TIP3   OH211999   6.426   5.066   3.599
 4012TIP3    H112000   6.358   5.070   3.666
 4012TIP3    H212001   6.494   5.125   3.631
 4013TIP3   OH212002   1.916   6.395   3.522
 4013TIP3    H112003   1.928   6.427   3.433
 4013TIP3    H212004   1.853   6.324   3.514
 4014TIP3   OH212005   6.060   5.912   0.585
 4014TIP3    H112006   6.030   5.999   0.612
 4014TIP3    H212007   6.125   5.887   0.652
 4015TIP3   OH212008   1.990   2.816   1.020
 4015TIP3    H112009   2.067   2.788   1.069
 4015TIP3    H212010   1.952   2.734   0.987
 4016TIP3   OH212011   2.802   5.618   2.867
 4016TIP3    H112012   2.797   5.627   2.772
 4016TIP3    H212013   2.726   5.667   2.900
 4017TIP3   OH212014   2.508   3.293   0.683
 4017TIP3    H112015   2.592   3.323   0.650
 4017TIP3    H212016   2.500   3.204   0.650
 4018TIP3   OH212017   2.041   5.568   5.521
 4018TIP3    H112018   2.020   5.624   5.595
 4018TIP3    H212019   1.965   5.575   5.463
 4019TIP3   OH212020   6.361   5.218   3.208
 4019TIP3    H112021   6.366   5.139   3.262
 4019TIP3    H212022   6.305   5.194   3.135
 4020TIP3   OH212023   1.349   4.620   0.555
 4020TIP3    H112024   1.342   4.703   0.508
 4020TIP3    H212025   1.386   4.644   0.640
 4021TIP3   OH212026   2.283   2.523   5.645
 4021TIP3    H112027   2.249   2.439   5.678
 4021TIP3    H212028   2.338   2.499   5.570
 4022TIP3   OH212029   0.076   0.488   2.162
 4022TIP3    H112030   0.171   0.474   2.169
 4022TIP3    H212031   0.038   0.401   2.173
 4023TIP3   OH212032   3.550   1.561   0.084
 4023TIP3    H112033   3.532   1.634   0.142
 4023TIP3    H212034   3.625   1.517   0.123
 4024TIP3   OH212035   4.888   1.735   3.648
 4024TIP3    H112036   4.929   1.820   3.636
 4024TIP3    H212037   4.794   1.753   3.645
 4025TIP3   OH212038   1.130   6.011   3.672
 4025TIP3    H112039   1.137   5.991   3.766
 4025TIP3    H212040   1.086   5.935   3.634
 4026TIP3   OH212041   7.178   0.753   2.099
 4026TIP3    H112042   7.230   0.816   2.050
 4026TIP3    H212043   7.225   0.670   2.089
 4027TIP3   OH212044   3.337   3.093   5.474
 4027TIP3    H112045   3.317   3.187   5.479
 4027TIP3    H212046   3.430   3.087   5.497
 4028TIP3   OH212047   1.292   4.646   4.580
 4028TIP3    H112048   1.340   4.685   4.653
 4028TIP3    H212049   1.214   4.700   4.570
 4029TIP3   OH212050   7.160   2.923   4.823
 4029TIP3    H112051   7.220   2.848   4.819
 4029TIP3    H212052   7.206   2.993   4.778
 4030TIP3   OH212053   3.818   3.180   1.796
 4030TIP3    H112054   3.866   3.262   1.796
 4030TIP3    H212055   3.754   3.189   1.867
 4031TIP3   OH212056   5.646   3.312   4.661
 4031TIP3    H112057   5.583   3.375   4.625
 4031TIP3    H212058   5.633   3.317   4.756
 4032TIP3   OH212059   4.155   6.264   5.214
 4032TIP3    H112060   4.152   6.233   5.123
 4032TIP3    H212061   4.064   6.283   5.236
 4033TIP3   OH212062   5.409   4.842   3.023
 4033TIP3    H112063   5.497   4.815   2.996
 4033TIP3    H212064   5.378   4.899   2.953
 4034TIP3   OH212065   1.748   0.147   2.160
 4034TIP3    H112066   1.686   0.205   2.205
 4034TIP3    H212067   1.723   0.151   2.068
 4035TIP3   OH212068   2.744   5.659   2.602
 4035TIP3    H112069   2.683   5.603   2.554
 4035TIP3    H212070   2.694   5.738   2.621
 4036TIP3   OH212071   1.924   4.618   2.732
 4036TIP3    H112072   1.946   4.657   2.647
 4036TIP3    H212073   1.830   4.629   2.740
 4037TIP3   OH212074   0.170   4.765   3.554
 4037TIP3    H112075   0.205   4.805   3.474
 4037TIP3    H212076   0.242   4.711   3.587
 4038TIP3   OH212077   3.276   6.120   0.472
 4038TIP3    H112078   3.346   6.174   0.509
 4038TIP3    H212079   3.200   6.141   0.526
 4039TIP3   OH212080   1.929   5.680   0.411
 4039TIP3    H112081   1.923   5.773   0.431
 4039TIP3    H212082   1.875   5.638   0.478
 4040TIP3   OH212083   1.712   2.465   4.040
 4040TIP3    H112084   1.625   2.501   4.022
 4040TIP3    H212085   1.720   2.469   4.135
 4041TIP3   OH212086   6.202   2.609   1.633
 4041TIP3    H112087   6.244   2.634   1.550
 4041TIP3    H212088   6.113   2.644   1.625
 4042TIP3   OH212089   6.556   4.429   5.685
 4042TIP3    H112090   6.600   4.507   5.651
 4042TIP3    H212091   6.479   4.463   5.731
 4043TIP3   OH212092   2.872   2.014   3.409
 4043TIP3    H112093   2.952   2.026   3.357
 4043TIP3    H212094   2.903   1.983   3.494
 4044TIP3   OH212095   0.521   0.106   4.424
 4044TIP3    H112096   0.601   0.116   4.475
 4044TIP3    H212097   0.526   0.017   4.389
 4045TIP3   OH212098   0.602   4.303  -0.002
 4045TIP3    H112099   0.561   4.249   0.066
 4045TIP3    H212100   0.674   4.347   0.043
 4046TIP3   OH212101   6.386   1.088   3.481
 4046TIP3    H112102   6.475   1.090   3.446
 4046TIP3    H212103   6.333   1.135   3.416
 4047TIP3   OH212104   1.717   6.087   1.323
 4047TIP3    H112105   1.736   6.091   1.230
 4047TIP3    H212106   1.693   6.177   1.346
 4048TIP3   OH212107   6.971   3.862   0.540
 4048TIP3    H112108   6.885   3.875   0.499
 4048TIP3    H212109   7.016   3.800   0.481
 4049TIP3   OH212110   6.196   2.008   4.514
 4049TIP3    H112111   6.270   1.995   4.573
 4049TIP3    H212112   6.150   1.924   4.514
 4050TIP3   OH212113   4.448   5.279   3.798
 4050TIP3    H112114   4.353   5.265   3.802
 4050TIP3    H212115   4.459   5.358   3.745
 4051TIP3   OH212116   3.892   4.146   0.530
 4051TIP3    H112117   3.813   4.197   0.545
 4051TIP3    H212118   3.909   4.155   0.436
 4052TIP3   OH212119   1.971   1.574   3.667
 4052TIP3    H112120   2.052   1.623   3.653
 4052TIP3    H212121   1.928   1.574   3.581
 4053TIP3   OH212122   3.725   3.665   0.142
 4053TIP3    H112123   3.681   3.711   0.070
 4053TIP3    H212124   3.692   3.575   0.136
 4054TIP3   OH212125   3.548   5.631   5.712
 4054TIP3    H112126   3.490   5.556   5.715
 4054TIP3    H212127   3.607   5.613   5.638
 4055TIP3   OH212128   5.316   0.074   0.972
 4055TIP3    H112129   5.371   0.150   0.954
 4055TIP3    H212130   5.314   0.068   1.067
 4056TIP3   OH212131   4.820   1.474   2.079
 4056TIP3    H112132   4.906   1.432   2.074
 4056TIP3    H212133   4.759   1.401   2.085
 4057TIP3   OH212134   1.425   2.397   1.337
 4057TIP3    H112135   1.352   2.356   1.384
 4057TIP3    H212136   1.470   2.449   1.403
 4058TIP3   OH212137   3.630   0.308   3.223
 4058TIP3    H112138   3.626   0.354   3.307
 4058TIP3    H212139   3.720   0.277   3.216
 4059TIP3   OH212140   0.345   1.194   4.743
 4059TIP3    H112141   0.388   1.194   4.657
 4059TIP3    H212142   0.387   1.123   4.791
 4060TIP3   OH212143   1.002   1.378   4.603
 4060TIP3    H112144   0.969   1.467   4.610
 4060TIP3    H212145   1.051   1.364   4.684
 4061TIP3   OH212146   6.380   4.286   3.594
 4061TIP3    H112147   6.307   4.235   3.558
 4061TIP3    H212148   6.353   4.377   3.582
 4062TIP3   OH212149   3.345   3.884   2.365
 4062TIP3    H112150   3.353   3.902   2.459
 4062TIP3    H212151   3.271   3.823   2.359
 4063TIP3   OH212152   4.630   3.209   3.294
 4063TIP3    H112153   4.667   3.142   3.237
 4063TIP3    H212154   4.535   3.200   3.283
 4064TIP3   OH212155   0.875   3.429   1.159
 4064TIP3    H112156   0.910   3.351   1.116
 4064TIP3    H212157   0.780   3.418   1.154
 4065TIP3   OH212158   7.112   3.656   0.350
 4065TIP3    H112159   7.126   3.736   0.299
 4065TIP3    H212160   7.147   3.586   0.296
 4066TIP3   OH212161   4.913   5.518   2.603
 4066TIP3    H112162   4.840   5.580   2.597
 4066TIP3    H212163   4.879   5.438   2.563
 4067TIP3   OH212164   5.389   0.248   4.415
 4067TIP3    H112165   5.301   0.278   4.436
 4067TIP3    H212166   5.379   0.153   4.402
 4068TIP3   OH212167   5.013   4.356   4.668
 4068TIP3    H112168   5.001   4.384   4.577
 4068TIP3    H212169   5.092   4.302   4.666
 4069TIP3   OH212170   2.289   5.602   5.466
 4069TIP3    H112171   2.204   5.564   5.489
 4069TIP3    H212172   2.305   5.572   5.377
 4070TIP3   OH212173   5.689   4.567   1.838
 4070TIP3    H112174   5.629   4.499   1.809
 4070TIP3    H212175   5.721   4.607   1.757
 4071TIP3   OH212176   5.539   5.351   2.235
 4071TIP3    H112177   5.536   5.447   2.239
 4071TIP3    H212178   5.632   5.329   2.237
 4072TIP3   OH212179   1.800   3.161   4.824
 4072TIP3    H112180   1.734   3.104   4.785
 4072TIP3    H212181   1.750   3.223   4.878
 4073TIP3   OH212182   5.226   4.612   1.383
 4073TIP3    H112183   5.187   4.574   1.461
 4073TIP3    H212184   5.204   4.550   1.313
 4074TIP3   OH212185   3.553   1.454   4.829
 4074TIP3    H112186   3.501   1.490   4.901
 4074TIP3    H212187   3.641   1.488   4.843
 4075TIP3   OH212188   0.430   1.138   5.226
 4075TIP3    H112189   0.427   1.194   5.148
 4075TIP3    H212190   0.493   1.070   5.204
 4076TIP3   OH212191   3.990   5.189   0.480
 4076TIP3    H112192   4.059   5.246   0.513
 4076TIP3    H212193   4.017   5.101   0.507
 4077TIP3   OH212194   1.754   4.977   1.212
 4077TIP3    H112195   1.736   4.973   1.306
 4077TIP3    H212196   1.738   4.888   1.181
 4078TIP3   OH212197   4.036   5.463   0.364
 4078TIP3    H112198   4.012   5.370   0.367
 4078TIP3    H212199   4.040   5.483   0.270
 4079TIP3   OH212200   5.577   2.797   4.818
 4079TIP3    H112201   5.578   2.790   4.723
 4079TIP3    H212202   5.485   2.785   4.842
 4080TIP3   OH212203   6.986   1.031   1.680
 4080TIP3    H112204   6.959   1.122   1.692
 4080TIP3    H212205   6.919   0.993   1.623
 4081TIP3   OH212206   3.595   5.146   2.666
 4081TIP3    H112207   3.661   5.134   2.734
 4081TIP3    H212208   3.560   5.234   2.682
 4082TIP3   OH212209   1.104   4.890   3.843
 4082TIP3    H112210   1.043   4.959   3.870
 4082TIP3    H212211   1.191   4.929   3.854
 4083TIP3   OH212212   5.354   6.651   4.298
 4083TIP3    H112213   5.323   6.674   4.210
 4083TIP3    H212214   5.325   6.561   4.311
 4084TIP3   OH212215   6.417   5.634   3.999
 4084TIP3    H112216   6.474   5.598   4.067
 4084TIP3    H212217   6.353   5.687   4.047
 4085TIP3   OH212218   0.492   2.880   5.394
 4085TIP3    H112219   0.485   2.877   5.298
 4085TIP3    H212220   0.461   2.967   5.417
 4086TIP3   OH212221   1.121   5.938   5.042
 4086TIP3    H112222   1.187   5.906   5.104
 4086TIP3    H212223   1.154   5.910   4.956
 4087TIP3   OH212224   4.238   5.246   5.231
 4087TIP3    H112225   4.280   5.168   5.267
 4087TIP3    H212226   4.206   5.293   5.309
 4088TIP3   OH212227   6.268   6.532   4.457
 4088TIP3    H112228   6.312   6.563   4.378
 4088TIP3    H212229   6.316   6.453   4.482
 4089TIP3   OH212230   0.593   0.610   0.939
 4089TIP3    H112231   0.579   0.693   0.983
 4089TIP3    H212232   0.686   0.609   0.917
 4090TIP3   OH212233   2.330   4.187   5.457
 4090TIP3    H112234   2.371   4.204   5.542
 4090TIP3    H212235   2.289   4.101   5.467
 4091TIP3   OH212236   1.848   0.666   0.306
 4091TIP3    H112237   1.817   0.615   0.231
 4091TIP3    H212238   1.831   0.609   0.381
 4092TIP3   OH212239   3.833   4.461   3.698
 4092TIP3    H112240   3.920   4.426   3.717
 4092TIP3    H212241   3.821   4.442   3.604
 4093TIP3   OH212242   1.605   5.138   0.824
 4093TIP3    H112243   1.548   5.195   0.876
 4093TIP3    H212244   1.603   5.054   0.869
 4094TIP3   OH212245   0.762   4.317   2.244
 4094TIP3    H112246   0.672   4.312   2.276
 4094TIP3    H212247   0.772   4.407   2.214
 4095TIP3   OH212248   3.772   5.567   1.460
 4095TIP3    H112249   3.755   5.576   1.367
 4095TIP3    H212250   3.709   5.502   1.491
 4096TIP3   OH212251   5.490   6.652   0.619
 4096TIP3    H112252   5.423   6.585   0.608
 4096TIP3    H212253   5.540   6.624   0.696
 4097TIP3   OH212254   0.403   6.703   2.829
 4097TIP3    H112255   0.358   6.630   2.786
 4097TIP3    H212256   0.486   6.666   2.859
 4098TIP3   OH212257   5.289   6.735   5.754
 4098TIP3    H112258   5.346   6.665   5.785
 4098TIP3    H212259   5.211   6.689   5.721
 4099TIP3   OH212260   5.804   0.070   0.557
 4099TIP3    H112261   5.725   0.016   0.554
 4099TIP3    H212262   5.822   0.092   0.465
 4100TIP3   OH212263   2.999   3.222   1.027
 4100TIP3    H112264   3.063   3.292   1.038
 4100TIP3    H212265   2.918   3.267   1.004
 4101TIP3   OH212266   1.528   5.014   1.662
 4101TIP3    H112267   1.572   4.940   1.620
 4101TIP3    H212268   1.594   5.083   1.664
 4102TIP3   OH212269   4.391   2.615   5.808
 4102TIP3    H112270   4.340   2.603   5.889
 4102TIP3    H212271   4.426   2.703   5.815
 4103TIP3   OH212272   5.820   4.923   0.996
 4103TIP3    H112273   5.736   4.950   0.959
 4103TIP3    H212274   5.824   4.967   1.081
 4104TIP3   OH212275   0.490   3.030   5.682
 4104TIP3    H112276   0.540   3.110   5.666
 4104TIP3    H212277   0.524   2.997   5.765
 4105TIP3   OH212278   4.868   4.117   5.306
 4105TIP3    H112279   4.782   4.154   5.288
 4105TIP3    H212280   4.890   4.067   5.228
 4106TIP3   OH212281   0.686   0.459   0.635
 4106TIP3    H112282   0.705   0.365   0.644
 4106TIP3    H212283   0.644   0.466   0.549
 4107TIP3   OH212284   5.364   5.189   3.378
 4107TIP3    H112285   5.403   5.243   3.308
 4107TIP3    H212286   5.322   5.117   3.332
 4108TIP3   OH212287   1.749   1.529   5.313
 4108TIP3    H112288   1.821   1.560   5.368
 4108TIP3    H212289   1.779   1.545   5.224
 4109TIP3   OH212290   5.469   1.330   1.917
 4109TIP3    H112291   5.516   1.409   1.945
 4109TIP3    H212292   5.508   1.308   1.833
 4110TIP3   OH212293   3.413   3.606   0.039
 4110TIP3    H112294   3.396   3.638   0.128
 4110TIP3    H212295   3.423   3.685  -0.014
 4111TIP3   OH212296   0.820   0.210   0.270
 4111TIP3    H112297   0.868   0.127   0.268
 4111TIP3    H212298   0.886   0.276   0.251
 4112TIP3   OH212299   2.459   2.733   0.845
 4112TIP3    H112300   2.374   2.710   0.808
 4112TIP3    H212301   2.471   2.825   0.821
 4113TIP3   OH212302   6.993   4.690   3.601
 4113TIP3    H112303   7.003   4.785   3.597
 4113TIP3    H212304   6.952   4.673   3.686
 4114TIP3   OH212305   0.455   1.173   3.993
 4114TIP3    H112306   0.373   1.128   4.010
 4114TIP3    H212307   0.442   1.218   3.910
 4115TIP3   OH212308   3.689   0.311   3.692
 4115TIP3    H112309   3.667   0.340   3.780
 4115TIP3    H212310   3.653   0.379   3.635
 4116TIP3   OH212311   3.867   6.333   1.436
 4116TIP3    H112312   3.869   6.406   1.375
 4116TIP3    H212313   3.885   6.372   1.521
 4117TIP3   OH212314   6.695   1.993   5.683
 4117TIP3    H112315   6.734   2.071   5.722
 4117TIP3    H212316   6.654   1.947   5.756
 4118TIP3   OH212317   5.435   3.117   2.628
 4118TIP3    H112318   5.418   3.193   2.684
 4118TIP3    H212319   5.501   3.148   2.566
 4119TIP3   OH212320   5.370   6.074   2.604
 4119TIP3    H112321   5.465   6.074   2.619
 4119TIP3    H212322   5.337   6.139   2.666
 4120TIP3   OH212323   1.318   0.356   4.381
 4120TIP3    H112324   1.347   0.372   4.291
 4120TIP3    H212325   1.396   0.371   4.434
 4121TIP3   OH212326   3.217   2.498   1.366
 4121TIP3    H112327   3.235   2.507   1.273
 4121TIP3    H212328   3.299   2.466   1.404
 4122TIP3   OH212329   3.423   4.883   2.133
 4122TIP3    H112330   3.434   4.790   2.154
 4122TIP3    H212331   3.490   4.901   2.067
 4123TIP3   OH212332   0.323   0.283   4.339
 4123TIP3    H112333   0.366   0.201   4.362
 4123TIP3    H212334   0.265   0.302   4.413
 4124TIP3   OH212335   2.329   0.340   0.982
 4124TIP3    H112336   2.379   0.302   0.910
 4124TIP3    H212337   2.351   0.285   1.057
 4125TIP3   OH212338   2.803   5.935   0.810
 4125TIP3    H112339   2.745   5.897   0.743
 4125TIP3    H212340   2.864   5.865   0.832
 4126TIP3   OH212341   6.429   0.172   1.331
 4126TIP3    H112342   6.469   0.109   1.390
 4126TIP3    H212343   6.361   0.215   1.384
 4127TIP3   OH212344   6.923   3.462   1.343
 4127TIP3    H112345   6.906   3.448   1.250
 4127TIP3    H212346   6.910   3.556   1.356
 4128TIP3   OH212347   0.244   4.996   4.485
 4128TIP3    H112348   0.233   4.923   4.424
 4128TIP3    H212349   0.156   5.033   4.494
 4129TIP3   OH212350   4.922   5.149   5.072
 4129TIP3    H112351   4.881   5.063   5.072
 4129TIP3    H212352   4.918   5.178   5.163
 4130TIP3   OH212353   4.405   0.275   0.152
 4130TIP3    H112354   4.346   0.208   0.186
 4130TIP3    H212355   4.469   0.289   0.223
 4131TIP3   OH212356   0.526   4.839   3.284
 4131TIP3    H112357   0.566   4.921   3.314
 4131TIP3    H212358   0.593   4.773   3.300
 4132TIP3   OH212359   4.562   3.079   5.714
 4132TIP3    H112360   4.497   3.076   5.643
 4132TIP3    H212361   4.520   3.128   5.784
 4133TIP3   OH212362   4.423   3.496   0.932
 4133TIP3    H112363   4.414   3.484   1.027
 4133TIP3    H212364   4.441   3.589   0.921
 4134TIP3   OH212365   1.891   2.824   3.340
 4134TIP3    H112366   1.870   2.892   3.275
 4134TIP3    H212367   1.987   2.821   3.341
 4135TIP3   OH212368   2.162   4.745   3.121
 4135TIP3    H112369   2.162   4.650   3.114
 4135TIP3    H212370   2.252   4.770   3.099
 4136TIP3   OH212371   6.584   1.423   2.746
 4136TIP3    H112372   6.530   1.483   2.695
 4136TIP3    H212373   6.651   1.393   2.685
 4137TIP3   OH212374   7.152   5.261   1.558
 4137TIP3    H112375   7.210   5.215   1.496
 4137TIP3    H212376   7.065   5.232   1.533
 4138TIP3   OH212377   0.122   2.443   5.702
 4138TIP3    H112378   0.191   2.418   5.764
 4138TIP3    H212379   0.169   2.461   5.620
 4139TIP3   OH212380   7.100   3.119   1.872
 4139TIP3    H112381   7.146   3.172   1.937
 4139TIP3    H212382   7.120   3.161   1.789
 4140TIP3   OH212383   4.434   0.213   4.050
 4140TIP3    H112384   4.423   0.304   4.077
 4140TIP3    H212385   4.520   0.187   4.084
 4141TIP3   OH212386   6.043   0.427   4.093
 4141TIP3    H112387   6.004   0.514   4.103
 4141TIP3    H212388   6.114   0.424   4.157
 4142TIP3   OH212389   4.149   3.110   2.627
 4142TIP3    H112390   4.218   3.124   2.562
 4142TIP3    H212391   4.191   3.122   2.711
 4143TIP3   OH212392   2.384   3.077   2.302
 4143TIP3    H112393   2.428   3.038   2.226
 4143TIP3    H212394   2.365   3.167   2.274
 4144TIP3   OH212395   4.984   2.900   1.446
 4144TIP3    H112396   4.981   2.812   1.483
 4144TIP3    H212397   5.076   2.915   1.426
 4145TIP3   OH212398   5.896   4.403   4.034
 4145TIP3    H112399   5.811   4.433   4.066
 4145TIP3    H212400   5.944   4.483   4.012
 4146TIP3   OH212401   0.412   2.326   5.163
 4146TIP3    H112402   0.447   2.294   5.080
 4146TIP3    H212403   0.455   2.410   5.176
 4147TIP3   OH212404   4.697   0.121   4.450
 4147TIP3    H112405   4.673   0.051   4.389
 4147TIP3    H212406   4.788   0.141   4.427
 4148TIP3   OH212407   0.818   1.087   1.651
 4148TIP3    H112408   0.855   1.043   1.728
 4148TIP3    H212409   0.892   1.136   1.614
 4149TIP3   OH212410   5.654   0.309   0.636
 4149TIP3    H112411   5.726   0.370   0.625
 4149TIP3    H212412   5.696   0.225   0.653
 4150TIP3   OH212413   6.363   4.974   3.345
 4150TIP3    H112414   6.379   5.017   3.430
 4150TIP3    H212415   6.288   4.917   3.362
 4151TIP3   OH212416   6.678   5.635   0.201
 4151TIP3    H112417   6.719   5.633   0.115
 4151TIP3    H212418   6.743   5.595   0.259
 4152TIP3   OH212419   0.384   3.960   0.099
 4152TIP3    H112420   0.313   4.012   0.061
 4152TIP3    H212421   0.347   3.872   0.108
 4153TIP3   OH212422   2.787   1.519   5.597
 4153TIP3    H112423   2.768   1.492   5.507
 4153TIP3    H212424   2.782   1.615   5.594
 4154TIP3   OH212425   5.870   4.219   0.608
 4154TIP3    H112426   5.892   4.292   0.550
 4154TIP3    H212427   5.953   4.173   0.620
 4155TIP3   OH212428   4.829   2.112   1.341
 4155TIP3    H112429   4.752   2.055   1.334
 4155TIP3    H212430   4.903   2.054   1.326
 4156TIP3   OH212431   3.087   0.675   3.389
 4156TIP3    H112432   3.094   0.760   3.433
 4156TIP3    H212433   3.022   0.688   3.320
 4157TIP3   OH212434   6.324   4.226   4.161
 4157TIP3    H112435   6.382   4.164   4.204
 4157TIP3    H212436   6.252   4.173   4.127
 4158TIP3   OH212437   3.134   4.768   2.764
 4158TIP3    H112438   3.127   4.682   2.724
 4158TIP3    H212439   3.209   4.809   2.720
 4159TIP3   OH212440   6.073   3.105   0.871
 4159TIP3    H112441   6.008   3.167   0.836
 4159TIP3    H212442   6.087   3.133   0.961
 4160TIP3   OH212443   2.723   0.853   0.135
 4160TIP3    H112444   2.815   0.829   0.138
 4160TIP3    H212445   2.688   0.803   0.061
 4161TIP3   OH212446   5.918   4.724   5.191
 4161TIP3    H112447   5.846   4.783   5.214
 4161TIP3    H212448   5.946   4.687   5.275
 4162TIP3   OH212449   4.671   0.990   1.419
 4162TIP3    H112450   4.733   1.063   1.426
 4162TIP3    H212451   4.698   0.928   1.486
 4163TIP3   OH212452   1.392   2.977   4.308
 4163TIP3    H112453   1.345   3.051   4.269
 4163TIP3    H212454   1.362   2.901   4.258
 4164TIP3   OH212455   1.645   4.871   0.915
 4164TIP3    H112456   1.623   4.809   0.985
 4164TIP3    H212457   1.740   4.877   0.917
 4165TIP3   OH212458   2.633   5.689   1.803
 4165TIP3    H112459   2.660   5.651   1.887
 4165TIP3    H212460   2.587   5.769   1.827
 4166TIP3   OH212461   3.466   0.611   3.977
 4166TIP3    H112462   3.385   0.583   4.021
 4166TIP3    H212463   3.438   0.637   3.890
 4167TIP3   OH212464   2.572   5.901   5.015
 4167TIP3    H112465   2.661   5.934   5.023
 4167TIP3    H212466   2.562   5.838   5.086
 4168TIP3   OH212467   1.439   0.139   3.811
 4168TIP3    H112468   1.457   0.147   3.718
 4168TIP3    H212469   1.507   0.192   3.854
 4169TIP3   OH212470   1.693   3.420   1.653
 4169TIP3    H112471   1.627   3.389   1.591
 4169TIP3    H212472   1.681   3.366   1.731
 4170TIP3   OH212473   4.511   2.089   4.159
 4170TIP3    H112474   4.564   2.064   4.235
 4170TIP3    H212475   4.575   2.115   4.093
 4171TIP3   OH212476   0.730   5.804   3.549
 4171TIP3    H112477   0.820   5.815   3.579
 4171TIP3    H212478   0.707   5.715   3.575
 4172TIP3   OH212479   2.095   0.823   1.195
 4172TIP3    H112480   2.139   0.752   1.147
 4172TIP3    H212481   2.013   0.785   1.225
 4173TIP3   OH212482   0.671   1.573   1.582
 4173TIP3    H112483   0.590   1.622   1.564
 4173TIP3    H212484   0.644   1.503   1.641
 4174TIP3   OH212485   4.687   1.114   4.975
 4174TIP3    H112486   4.695   1.047   4.906
 4174TIP3    H212487   4.770   1.108   5.023
 4175TIP3   OH212488   6.441   0.218   2.914
 4175TIP3    H112489   6.512   0.203   2.976
 4175TIP3    H212490   6.482   0.214   2.828
 4176TIP3   OH212491   4.319   6.144   2.213
 4176TIP3    H112492   4.381   6.198   2.262
 4176TIP3    H212493   4.281   6.084   2.278
 4177TIP3   OH212494   0.880   1.215   2.514
 4177TIP3    H112495   0.889   1.119   2.511
 4177TIP3    H212496   0.787   1.230   2.504
 4178TIP3   OH212497   6.276   4.554   1.756
 4178TIP3    H112498   6.308   4.565   1.667
 4178TIP3    H212499   6.235   4.468   1.756
 4179TIP3   OH212500   0.557   3.704   2.126
 4179TIP3    H112501   0.638   3.753   2.112
 4179TIP3    H212502   0.540   3.662   2.041
 4180TIP3   OH212503   0.370   4.108   0.808
 4180TIP3    H112504   0.327   4.048   0.869
 4180TIP3    H212505   0.429   4.159   0.862
 4181TIP3   OH212506   6.314   0.362   4.774
 4181TIP3    H112507   6.399   0.405   4.775
 4181TIP3    H212508   6.262   0.410   4.839
 4182TIP3   OH212509   1.907   0.157   2.724
 4182TIP3    H112510   1.997   0.155   2.692
 4182TIP3    H212511   1.889   0.250   2.739
 4183TIP3   OH212512   2.742   6.735   0.165
 4183TIP3    H112513   2.789   6.774   0.091
 4183TIP3    H212514   2.653   6.724   0.132
 4184TIP3   OH212515   7.045   1.395   2.465
 4184TIP3    H112516   7.039   1.306   2.500
 4184TIP3    H212517   7.011   1.389   2.376
 4185TIP3   OH212518   5.496   2.480   2.054
 4185TIP3    H112519   5.460   2.414   1.995
 4185TIP3    H212520   5.502   2.559   2.001
 4186TIP3   OH212521   4.238   1.796   3.628
 4186TIP3    H112522   4.239   1.890   3.646
 4186TIP3    H212523   4.161   1.764   3.674
 4187TIP3   OH212524   4.930   5.990   1.293
 4187TIP3    H112525   5.004   5.944   1.333
 4187TIP3    H212526   4.951   5.993   1.200
 4188TIP3   OH212527   5.872   4.428   4.538
 4188TIP3    H112528   5.914   4.348   4.509
 4188TIP3    H212529   5.788   4.399   4.575
 4189TIP3   OH212530   5.922   4.630   4.939
 4189TIP3    H112531   5.936   4.656   5.030
 4189TIP3    H212532   5.986   4.560   4.925
 4190TIP3   OH212533   4.290   6.175   1.588
 4190TIP3    H112534   4.252   6.183   1.501
 4190TIP3    H212535   4.254   6.249   1.637
 4191TIP3   OH212536   0.797   4.221   5.318
 4191TIP3    H112537   0.848   4.297   5.344
 4191TIP3    H212538   0.722   4.257   5.270
 4192TIP3   OH212539   3.129   2.430   0.655
 4192TIP3    H112540   3.222   2.453   0.658
 4192TIP3    H212541   3.108   2.424   0.562
 4193TIP3   OH212542   3.240   0.216   0.017
 4193TIP3    H112543   3.213   0.264   0.095
 4193TIP3    H212544   3.244   0.125   0.045
 4194TIP3   OH212545   6.878   2.550   2.696
 4194TIP3    H112546   6.870   2.614   2.768
 4194TIP3    H212547   6.937   2.483   2.730
 4195TIP3   OH212548   2.492   4.235   4.875
 4195TIP3    H112549   2.501   4.163   4.937
 4195TIP3    H212550   2.554   4.214   4.805
 4196TIP3   OH212551   7.201   1.889   3.530
 4196TIP3    H112552   7.209   1.817   3.468
 4196TIP3    H212553   7.158   1.959   3.481
 4197TIP3   OH212554   3.605   5.179   1.541
 4197TIP3    H112555   3.693   5.207   1.563
 4197TIP3    H212556   3.613   5.141   1.453
 4198TIP3   OH212557   0.465   3.821   4.750
 4198TIP3    H112558   0.378   3.852   4.775
 4198TIP3    H212559   0.509   3.804   4.833
 4199TIP3   OH212560   5.664   0.300   0.283
 4199TIP3    H112561   5.756   0.283   0.261
 4199TIP3    H212562   5.665   0.382   0.332
 4200TIP3   OH212563   2.290   0.777   1.372
 4200TIP3    H112564   2.223   0.803   1.308
 4200TIP3    H212565   2.370   0.766   1.320
 4201TIP3   OH212566   6.210   5.050   4.872
 4201TIP3    H112567   6.244   4.981   4.929
 4201TIP3    H212568   6.220   5.130   4.924
 4202TIP3   OH212569   4.926   6.533   2.767
 4202TIP3    H112570   4.984   6.491   2.831
 4202TIP3    H212571   4.855   6.569   2.819
 4203TIP3   OH212572   0.847   3.914   0.332
 4203TIP3    H112573   0.932   3.889   0.370
 4203TIP3    H212574   0.798   3.948   0.407
 4204TIP3   OH212575   0.580   6.613   3.947
 4204TIP3    H112576   0.493   6.650   3.960
 4204TIP3    H212577   0.611   6.593   4.035
 4205TIP3   OH212578   0.186   3.906   1.810
 4205TIP3    H112579   0.161   3.998   1.806
 4205TIP3    H212580   0.280   3.906   1.792
 4206TIP3   OH212581   4.750   4.740   2.029
 4206TIP3    H112582   4.659   4.768   2.029
 4206TIP3    H212583   4.775   4.741   1.937
 4207TIP3   OH212584   4.750   6.408   1.724
 4207TIP3    H112585   4.694   6.335   1.695
 4207TIP3    H212586   4.716   6.484   1.677
 4208TIP3   OH212587   2.635   1.396   3.553
 4208TIP3    H112588   2.566   1.333   3.531
 4208TIP3    H212589   2.590   1.480   3.555
 4209TIP3   OH212590   3.766   6.003   2.590
 4209TIP3    H112591   3.719   6.063   2.532
 4209TIP3    H212592   3.708   5.927   2.598
 4210TIP3   OH212593   2.060   3.698   3.638
 4210TIP3    H112594   2.056   3.631   3.705
 4210TIP3    H212595   2.075   3.650   3.556
 4211TIP3   OH212596   4.168   5.068   5.027
 4211TIP3    H112597   4.184   5.131   5.096
 4211TIP3    H212598   4.255   5.050   4.990
 4212TIP3   OH212599   2.576   2.599   3.976
 4212TIP3    H112600   2.652   2.598   3.918
 4212TIP3    H212601   2.562   2.692   3.994
 4213TIP3   OH212602   4.207   1.280   2.624
 4213TIP3    H112603   4.160   1.237   2.552
 4213TIP3    H212604   4.167   1.243   2.703
 4214TIP3   OH212605   4.928   2.792   0.675
 4214TIP3    H112606   4.905   2.865   0.732
 4214TIP3    H212607   4.972   2.729   0.732
 4215TIP3   OH212608   0.757   2.933   0.355
 4215TIP3    H112609   0.746   2.947   0.261
 4215TIP3    H212610   0.852   2.935   0.367
 4216TIP3   OH212611   5.568   6.373   3.041
 4216TIP3    H112612   5.586   6.281   3.023
 4216TIP3    H212613   5.540   6.375   3.133
 4217TIP3   OH212614   4.807   4.118   2.749
 4217TIP3    H112615   4.713   4.100   2.739
 4217TIP3    H212616   4.848   4.032   2.744
 4218TIP3   OH212617   5.501   0.548   3.686
 4218TIP3    H112618   5.561   0.622   3.675
 4218TIP3    H212619   5.553   0.483   3.734
 4219TIP3   OH212620   6.040   4.694   2.965
 4219TIP3    H112621   5.983   4.623   2.996
 4219TIP3    H212622   6.127   4.671   3.000
 4220TIP3   OH212623   0.335   5.905   1.651
 4220TIP3    H112624   0.417   5.864   1.624
 4220TIP3    H212625   0.331   5.891   1.746
 4221TIP3   OH212626   2.579   2.081   3.372
 4221TIP3    H112627   2.634   2.105   3.297
 4221TIP3    H212628   2.528   2.159   3.391
 4222TIP3   OH212629   2.568   0.564   4.969
 4222TIP3    H112630   2.658   0.534   4.957
 4222TIP3    H212631   2.519   0.485   4.992
 4223TIP3   OH212632   7.131   0.946   3.721
 4223TIP3    H112633   7.118   0.993   3.638
 4223TIP3    H212634   7.216   0.976   3.753
 4224TIP3   OH212635   6.571   1.976   5.090
 4224TIP3    H112636   6.634   2.047   5.079
 4224TIP3    H212637   6.619   1.897   5.065
 4225TIP3   OH212638   4.569   3.444   4.423
 4225TIP3    H112639   4.558   3.386   4.499
 4225TIP3    H212640   4.658   3.427   4.393
 4226TIP3   OH212641   3.670   3.978   2.592
 4226TIP3    H112642   3.664   4.039   2.518
 4226TIP3    H212643   3.579   3.960   2.615
 4227TIP3   OH212644   4.242   3.576   5.246
 4227TIP3    H112645   4.164   3.522   5.260
 4227TIP3    H212646   4.312   3.513   5.228
 4228TIP3   OH212647   1.381   2.023   0.570
 4228TIP3    H112648   1.362   1.936   0.536
 4228TIP3    H212649   1.402   2.009   0.662
 4229TIP3   OH212650   3.532   6.119   0.697
 4229TIP3    H112651   3.539   6.098   0.604
 4229TIP3    H212652   3.490   6.204   0.699
 4230TIP3   OH212653   0.762   0.863   5.454
 4230TIP3    H112654   0.803   0.910   5.526
 4230TIP3    H212655   0.832   0.813   5.413
 4231TIP3   OH212656   3.633   1.086   3.412
 4231TIP3    H112657   3.568   1.028   3.373
 4231TIP3    H212658   3.696   1.027   3.453
 4232TIP3   OH212659   5.580   1.220   5.771
 4232TIP3    H112660   5.587   1.147   5.711
 4232TIP3    H212661   5.648   1.204   5.837
 4233TIP3   OH212662   6.280   2.990   4.365
 4233TIP3    H112663   6.324   2.905   4.365
 4233TIP3    H212664   6.208   2.980   4.302
 4234TIP3   OH212665   5.994   6.571   0.365
 4234TIP3    H112666   5.929   6.517   0.409
 4234TIP3    H212667   6.027   6.630   0.433
 4235TIP3   OH212668   3.592   3.574   3.041
 4235TIP3    H112669   3.611   3.641   3.107
 4235TIP3    H212670   3.668   3.577   2.983
 4236TIP3   OH212671   1.546   0.081   1.402
 4236TIP3    H112672   1.575   0.103   1.491
 4236TIP3    H212673   1.624   0.094   1.348
 4237TIP3   OH212674   6.393   6.044   1.218
 4237TIP3    H112675   6.333   5.994   1.273
 4237TIP3    H212676   6.381   6.135   1.246
 4238TIP3   OH212677   1.402   2.024   3.416
 4238TIP3    H112678   1.444   1.943   3.388
 4238TIP3    H212679   1.411   2.023   3.512
 4239TIP3   OH212680   0.797   3.333   2.710
 4239TIP3    H112681   0.856   3.264   2.742
 4239TIP3    H212682   0.842   3.414   2.733
 4240TIP3   OH212683   2.766   1.092   4.704
 4240TIP3    H112684   2.769   1.057   4.615
 4240TIP3    H212685   2.737   1.183   4.693
 4241TIP3   OH212686   5.863   5.870   3.398
 4241TIP3    H112687   5.809   5.869   3.319
 4241TIP3    H212688   5.802   5.859   3.470
 4242TIP3   OH212689   3.410   2.162   5.527
 4242TIP3    H112690   3.492   2.134   5.486
 4242TIP3    H212691   3.395   2.250   5.493
 4243TIP3   OH212692   6.659   2.608   1.255
 4243TIP3    H112693   6.626   2.545   1.320
 4243TIP3    H212694   6.584   2.623   1.196
 4244TIP3   OH212695   5.125   3.229   2.555
 4244TIP3    H112696   5.163   3.200   2.472
 4244TIP3    H212697   5.196   3.275   2.599
 4245TIP3   OH212698   5.475   3.125   1.799
 4245TIP3    H112699   5.381   3.106   1.802
 4245TIP3    H212700   5.493   3.144   1.706
 4246TIP3   OH212701   3.147   4.670   4.754
 4246TIP3    H112702   3.113   4.618   4.828
 4246TIP3    H212703   3.236   4.693   4.780
 4247TIP3   OH212704   2.663   3.666   2.013
 4247TIP3    H112705   2.674   3.725   1.939
 4247TIP3    H212706   2.626   3.720   2.082
 4248TIP3   OH212707   2.454   4.438   1.923
 4248TIP3    H112708   2.419   4.353   1.951
 4248TIP3    H212709   2.543   4.418   1.894
 4249TIP3   OH212710   5.394   0.998   0.537
 4249TIP3    H112711   5.346   0.971   0.615
 4249TIP3    H212712   5.368   0.936   0.470
 4250TIP3   OH212713   4.364   0.629   0.731
 4250TIP3    H112714   4.419   0.574   0.787
 4250TIP3    H212715   4.303   0.568   0.690
 4251TIP3   OH212716   3.250   2.594   3.853
 4251TIP3    H112717   3.165   2.560   3.826
 4251TIP3    H212718   3.298   2.518   3.884
 4252TIP3   OH212719   5.890   3.203   2.654
 4252TIP3    H112720   5.901   3.117   2.614
 4252TIP3    H212721   5.911   3.265   2.583
 4253TIP3   OH212722   1.297   5.693   1.099
 4253TIP3    H112723   1.390   5.672   1.110
 4253TIP3    H212724   1.252   5.610   1.108
 4254TIP3   OH212725   3.247   5.651   1.037
 4254TIP3    H112726   3.316   5.714   1.059
 4254TIP3    H212727   3.219   5.676   0.949
 4255TIP3   OH212728   3.698   3.934   3.131
 4255TIP3    H112729   3.731   3.860   3.080
 4255TIP3    H212730   3.766   4.000   3.124
 4256TIP3   OH212731   2.003   6.445   2.168
 4256TIP3    H112732   1.954   6.478   2.244
 4256TIP3    H212733   1.969   6.495   2.095
 4257TIP3   OH212734   2.974   2.892   1.364
 4257TIP3    H112735   3.038   2.826   1.391
 4257TIP3    H212736   2.936   2.923   1.446
 4258TIP3   OH212737   6.452   0.324   3.974
 4258TIP3    H112738   6.506   0.399   3.952
 4258TIP3    H212739   6.456   0.319   4.070
 4259TIP3   OH212740   1.473   1.932   0.812
 4259TIP3    H112741   1.532   1.977   0.873
 4259TIP3    H212742   1.461   1.845   0.849
 4260TIP3   OH212743   3.717   3.766   5.232
 4260TIP3    H112744   3.788   3.773   5.295
 4260TIP3    H212745   3.679   3.854   5.228
 4261TIP3   OH212746   1.137   1.708   2.293
 4261TIP3    H112747   1.138   1.619   2.258
 4261TIP3    H212748   1.188   1.702   2.374
 4262TIP3   OH212749   6.364   5.857   1.008
 4262TIP3    H112750   6.354   5.912   1.085
 4262TIP3    H212751   6.459   5.848   0.997
 4263TIP3   OH212752   2.616   2.465   0.553
 4263TIP3    H112753   2.676   2.414   0.500
 4263TIP3    H212754   2.652   2.461   0.641
 4264TIP3   OH212755   0.244   1.799   2.252
 4264TIP3    H112756   0.235   1.895   2.254
 4264TIP3    H212757   0.242   1.773   2.344
 4265TIP3   OH212758   1.329   6.468   0.995
 4265TIP3    H112759   1.385   6.546   0.991
 4265TIP3    H212760   1.378   6.401   0.946
 4266TIP3   OH212761   6.591   1.800   1.016
 4266TIP3    H112762   6.525   1.869   1.012
 4266TIP3    H212763   6.665   1.834   0.965
 4267TIP3   OH212764   0.410   2.443   5.864
 4267TIP3    H112765   0.452   2.358   5.876
 4267TIP3    H212766   0.445   2.476   5.782
 4268TIP3   OH212767   3.213   2.959   5.705
 4268TIP3    H112768   3.257   2.969   5.621
 4268TIP3    H212769   3.268   3.007   5.767
 4269TIP3   OH212770   5.415   5.541   4.541
 4269TIP3    H112771   5.383   5.566   4.627
 4269TIP3    H212772   5.477   5.470   4.557
 4270TIP3   OH212773   1.004   1.678   0.290
 4270TIP3    H112774   1.025   1.746   0.354
 4270TIP3    H212775   1.005   1.596   0.340
 4271TIP3   OH212776   1.680   0.909   4.610
 4271TIP3    H112777   1.603   0.896   4.665
 4271TIP3    H212778   1.752   0.921   4.672
 4272TIP3   OH212779   4.474   5.361   2.540
 4272TIP3    H112780   4.487   5.428   2.472
 4272TIP3    H212781   4.408   5.302   2.503
 4273TIP3   OH212782   4.893   0.414   2.582
 4273TIP3    H112783   4.845   0.404   2.500
 4273TIP3    H212784   4.935   0.329   2.596
 4274TIP3   OH212785   0.510   4.770   5.556
 4274TIP3    H112786   0.553   4.701   5.506
 4274TIP3    H212787   0.445   4.724   5.609
 4275TIP3   OH212788   4.998   0.096   0.392
 4275TIP3    H112789   4.953   0.079   0.309
 4275TIP3    H212790   5.083   0.132   0.366
 4276TIP3   OH212791   1.440   0.957   0.571
 4276TIP3    H112792   1.510   0.925   0.629
 4276TIP3    H212793   1.440   1.051   0.584
 4277TIP3   OH212794   6.658   6.636   3.240
 4277TIP3    H112795   6.607   6.710   3.206
 4277TIP3    H212796   6.602   6.599   3.309
 4278TIP3   OH212797   1.612   5.262   1.819
 4278TIP3    H112798   1.660   5.260   1.902
 4278TIP3    H212799   1.669   5.310   1.759
 4279TIP3   OH212800   0.847   1.508   1.137
 4279TIP3    H112801   0.936   1.483   1.162
 4279TIP3    H212802   0.794   1.487   1.214
 4280TIP3   OH212803   1.963   5.553   4.183
 4280TIP3    H112804   1.875   5.561   4.146
 4280TIP3    H212805   1.953   5.494   4.258
 4281TIP3   OH212806   3.709   0.514   2.222
 4281TIP3    H112807   3.772   0.478   2.159
 4281TIP3    H212808   3.665   0.437   2.258
 4282TIP3   OH212809   0.987   1.500   4.135
 4282TIP3    H112810   0.965   1.534   4.222
 4282TIP3    H212811   0.984   1.576   4.078
 4283TIP3   OH212812   2.909   4.666   0.180
 4283TIP3    H112813   2.862   4.748   0.196
 4283TIP3    H212814   2.966   4.685   0.106
 4284TIP3   OH212815   2.879   2.704   4.613
 4284TIP3    H112816   2.839   2.698   4.700
 4284TIP3    H212817   2.973   2.693   4.629
 4285TIP3   OH212818   2.078   1.706   1.428
 4285TIP3    H112819   2.055   1.777   1.367
 4285TIP3    H212820   2.000   1.651   1.431
 4286TIP3   OH212821   4.996   2.457   3.863
 4286TIP3    H112822   4.962   2.491   3.780
 4286TIP3    H212823   5.017   2.366   3.845
 4287TIP3   OH212824   5.769   2.737   0.986
 4287TIP3    H112825   5.796   2.818   1.029
 4287TIP3    H212826   5.718   2.691   1.053
 4288TIP3   OH212827   5.056   0.881   0.200
 4288TIP3    H112828   5.037   0.930   0.120
 4288TIP3    H212829   4.978   0.829   0.215
 4289TIP3   OH212830   5.406   0.756   2.189
 4289TIP3    H112831   5.493   0.736   2.221
 4289TIP3    H212832   5.388   0.844   2.220
 4290TIP3   OH212833   3.262   1.976   3.645
 4290TIP3    H112834   3.176   2.014   3.665
 4290TIP3    H212835   3.242   1.890   3.609
 4291TIP3   OH212836   4.003   1.917   4.822
 4291TIP3    H112837   3.990   1.973   4.746
 4291TIP3    H212838   3.932   1.942   4.882
 4292TIP3   OH212839   5.479   4.147   2.603
 4292TIP3    H112840   5.466   4.230   2.558
 4292TIP3    H212841   5.502   4.085   2.533
 4293TIP3   OH212842   3.453   1.845   5.739
 4293TIP3    H112843   3.440   1.901   5.815
 4293TIP3    H212844   3.385   1.778   5.746
 4294TIP3   OH212845   3.973   3.850   0.113
 4294TIP3    H112846   4.018   3.797   0.179
 4294TIP3    H212847   3.898   3.887   0.159
 4295TIP3   OH212848   1.398   6.776   2.259
 4295TIP3    H112849   1.404   6.776   2.164
 4295TIP3    H212850   1.485   6.749   2.289
 4296TIP3   OH212851   6.004   1.534   5.787
 4296TIP3    H112852   5.969   1.562   5.872
 4296TIP3    H212853   6.045   1.612   5.750
 4297TIP3   OH212854   4.475   1.876   4.438
 4297TIP3    H112855   4.454   1.882   4.531
 4297TIP3    H212856   4.562   1.914   4.430
 4298TIP3   OH212857   3.311   4.558   1.921
 4298TIP3    H112858   3.271   4.472   1.921
 4298TIP3    H212859   3.398   4.545   1.881
 4299TIP3   OH212860   1.071   1.408   1.290
 4299TIP3    H112861   1.147   1.366   1.329
 4299TIP3    H212862   1.033   1.461   1.361
 4300TIP3   OH212863   2.866   5.111   0.385
 4300TIP3    H112864   2.808   5.186   0.377
 4300TIP3    H212865   2.942   5.144   0.433
 4301TIP3   OH212866   6.940   0.042   4.262
 4301TIP3    H112867   7.023   0.042   4.308
 4301TIP3    H212868   6.947   0.115   4.200
 4302TIP3   OH212869   5.166   6.114   0.040
 4302TIP3    H112870   5.250   6.158   0.028
 4302TIP3    H212871   5.111   6.179   0.084
 4303TIP3   OH212872   6.774   6.285   4.119
 4303TIP3    H112873   6.765   6.195   4.151
 4303TIP3    H212874   6.847   6.282   4.057
 4304TIP3   OH212875   6.371   6.743   3.128
 4304TIP3    H112876   6.298   6.798   3.159
 4304TIP3    H212877   6.395   6.690   3.203
 4305TIP3   OH212878   4.871   1.359   1.210
 4305TIP3    H112879   4.855   1.414   1.287
 4305TIP3    H212880   4.958   1.322   1.225
 4306TIP3   OH212881   1.541   5.711   5.260
 4306TIP3    H112882   1.599   5.671   5.195
 4306TIP3    H212883   1.565   5.669   5.342
 4307TIP3   OH212884   6.256   5.823   1.305
 4307TIP3    H112885   6.336   5.772   1.315
 4307TIP3    H212886   6.189   5.772   1.350
 4308TIP3   OH212887   0.440   0.936   0.711
 4308TIP3    H112888   0.512   0.998   0.723
 4308TIP3    H212889   0.380   0.956   0.783
 4309TIP3   OH212890   7.040   4.668   0.849
 4309TIP3    H112891   6.972   4.638   0.789
 4309TIP3    H212892   6.993   4.704   0.924
 4310TIP3   OH212893   1.366   3.996   5.326
 4310TIP3    H112894   1.418   4.064   5.283
 4310TIP3    H212895   1.277   4.031   5.326
 4311TIP3   OH212896   6.843   5.795   3.239
 4311TIP3    H112897   6.867   5.778   3.330
 4311TIP3    H212898   6.900   5.738   3.188
 4312TIP3   OH212899   3.953   3.021   2.106
 4312TIP3    H112900   3.944   3.116   2.100
 4312TIP3    H212901   3.962   3.004   2.199
 4313TIP3   OH212902   5.032   0.800   3.665
 4313TIP3    H112903   5.076   0.728   3.620
 4313TIP3    H212904   5.094   0.873   3.660
 4314TIP3   OH212905   5.259   3.397   0.604
 4314TIP3    H112906   5.188   3.438   0.654
 4314TIP3    H212907   5.338   3.424   0.650
 4315TIP3   OH212908   6.049   1.015   0.465
 4315TIP3    H112909   6.076   1.084   0.403
 4315TIP3    H212910   6.000   0.953   0.411
 4316TIP3   OH212911   1.532   2.670   4.015
 4316TIP3    H112912   1.474   2.713   4.077
 4316TIP3    H212913   1.481   2.664   3.934
 4317TIP3   OH212914   4.625   2.290   1.080
 4317TIP3    H112915   4.627   2.329   1.167
 4317TIP3    H212916   4.559   2.341   1.033
 4318TIP3   OH212917   3.390   2.712   1.642
 4318TIP3    H112918   3.381   2.617   1.645
 4318TIP3    H212919   3.429   2.730   1.556
 4319TIP3   OH212920   3.398   4.615   2.748
 4319TIP3    H112921   3.351   4.646   2.826
 4319TIP3    H212922   3.483   4.586   2.781
 4320TIP3   OH212923   5.651   1.027   0.641
 4320TIP3    H112924   5.564   1.018   0.600
 4320TIP3    H212925   5.632   1.048   0.732
 4321TIP3   OH212926   3.874   3.194   5.763
 4321TIP3    H112927   3.834   3.280   5.772
 4321TIP3    H212928   3.834   3.140   5.832
 4322TIP3   OH212929   3.363   1.712   2.150
 4322TIP3    H112930   3.363   1.805   2.171
 4322TIP3    H212931   3.415   1.672   2.218
 4323TIP3   OH212932   3.867   2.304   5.483
 4323TIP3    H112933   3.881   2.378   5.424
 4323TIP3    H212934   3.938   2.311   5.547
 4324TIP3   OH212935   7.069   5.335   2.546
 4324TIP3    H112936   7.080   5.333   2.451
 4324TIP3    H212937   6.994   5.392   2.561
 4325TIP3   OH212938   3.578   6.247   5.294
 4325TIP3    H112939   3.501   6.231   5.239
 4325TIP3    H212940   3.611   6.331   5.264
 4326TIP3   OH212941   7.180   4.840   3.209
 4326TIP3    H112942   7.126   4.912   3.241
 4326TIP3    H212943   7.238   4.880   3.144
 4327TIP3   OH212944   1.713   2.332   2.090
 4327TIP3    H112945   1.784   2.394   2.073
 4327TIP3    H212946   1.708   2.279   2.010
 4328TIP3   OH212947   3.616   4.329   0.782
 4328TIP3    H112948   3.541   4.285   0.742
 4328TIP3    H212949   3.636   4.277   0.860
 4329TIP3   OH212950   2.728   1.205   4.949
 4329TIP3    H112951   2.792   1.229   4.882
 4329TIP3    H212952   2.775   1.144   5.006
 4330TIP3   OH212953   3.952   6.564   4.752
 4330TIP3    H112954   3.904   6.513   4.817
 4330TIP3    H212955   3.925   6.654   4.767
 4331TIP3   OH212956   4.603   2.517   4.896
 4331TIP3    H112957   4.665   2.535   4.825
 4331TIP3    H212958   4.646   2.450   4.949
 4332TIP3   OH212959   3.564   2.663   2.344
 4332TIP3    H112960   3.486   2.712   2.371
 4332TIP3    H212961   3.532   2.600   2.280
 4333TIP3   OH212962   1.096   0.704   1.639
 4333TIP3    H112963   1.074   0.772   1.575
 4333TIP3    H212964   1.178   0.667   1.607
 4334TIP3   OH212965   3.572   5.789   0.819
 4334TIP3    H112966   3.477   5.791   0.809
 4334TIP3    H212967   3.594   5.872   0.861
 4335TIP3   OH212968   6.351   6.462   0.487
 4335TIP3    H112969   6.382   6.445   0.398
 4335TIP3    H212970   6.426   6.501   0.532
 4336TIP3   OH212971   5.880   0.856   0.314
 4336TIP3    H112972   5.858   0.850   0.221
 4336TIP3    H212973   5.796   0.862   0.359
 4337TIP3   OH212974   2.594   6.813   3.887
 4337TIP3    H112975   2.609   6.731   3.934
 4337TIP3    H212976   2.584   6.879   3.956
 4338TIP3   OH212977   4.051   3.611   3.680
 4338TIP3    H112978   3.976   3.554   3.663
 4338TIP3    H212979   4.014   3.686   3.727
 4339TIP3   OH212980   3.069   3.641   2.639
 4339TIP3    H112981   3.133   3.679   2.700
 4339TIP3    H212982   2.984   3.654   2.681
 4340TIP3   OH212983   5.413   0.412   5.818
 4340TIP3    H112984   5.354   0.479   5.851
 4340TIP3    H212985   5.497   0.430   5.862
 4341TIP3   OH212986   1.943   5.443   4.420
 4341TIP3    H112987   2.009   5.374   4.415
 4341TIP3    H212988   1.947   5.474   4.511
 4342TIP3   OH212989   2.950   1.063   1.222
 4342TIP3    H112990   3.018   1.021   1.170
 4342TIP3    H212991   2.966   1.157   1.211
 4343TIP3   OH212992   2.866   4.084   1.708
 4343TIP3    H112993   2.932   4.138   1.664
 4343TIP3    H212994   2.798   4.071   1.642
 4344TIP3   OH212995   4.567   6.680   3.142
 4344TIP3    H112996   4.583   6.763   3.188
 4344TIP3    H212997   4.605   6.613   3.199
 4345TIP3   OH212998   5.272   3.077   4.382
 4345TIP3    H112999   5.270   3.037   4.295
 4345TIP3    H213000   5.222   3.016   4.437
 4346TIP3   OH213001   5.672   4.084   0.069
 4346TIP3    H113002   5.637   4.168   0.098
 4346TIP3    H213003   5.678   4.032   0.149
 4347TIP3   OH213004   0.722   6.501   2.306
 4347TIP3    H113005   0.774   6.539   2.377
 4347TIP3    H213006   0.760   6.415   2.291
 4348TIP3   OH213007   5.124   1.792   5.356
 4348TIP3    H113008   5.060   1.791   5.427
 4348TIP3    H213009   5.136   1.885   5.337
 4349TIP3   OH213010   2.556   1.856   2.708
 4349TIP3    H113011   2.476   1.813   2.677
 4349TIP3    H213012   2.564   1.934   2.653
 4350TIP3   OH213013   3.513   2.880   0.200
 4350TIP3    H113014   3.585   2.832   0.158
 4350TIP3    H213015   3.553   2.919   0.278
 4351TIP3   OH213016   1.377   2.153   0.172
 4351TIP3    H113017   1.289   2.144   0.208
 4351TIP3    H213018   1.404   2.063   0.152
 4352TIP3   OH213019   3.380   1.257   1.205
 4352TIP3    H113020   3.319   1.212   1.146
 4352TIP3    H213021   3.412   1.331   1.154
 4353TIP3   OH213022   6.444   1.075   1.367
 4353TIP3    H113023   6.434   1.149   1.308
 4353TIP3    H213024   6.477   1.113   1.448
 4354TIP3   OH213025   1.938   4.742   0.982
 4354TIP3    H113026   1.953   4.800   0.907
 4354TIP3    H213027   2.026   4.725   1.017
 4355TIP3   OH213028   5.297   4.862   5.763
 4355TIP3    H113029   5.206   4.841   5.782
 4355TIP3    H213030   5.339   4.866   5.849
 4356TIP3   OH213031   6.273   4.665   5.342
 4356TIP3    H113032   6.293   4.693   5.431
 4356TIP3    H213033   6.353   4.684   5.293
 4357TIP3   OH213034   5.594   3.035   4.939
 4357TIP3    H113035   5.582   2.964   4.876
 4357TIP3    H213036   5.629   2.992   5.017
 4358TIP3   OH213037   2.998   4.822   3.265
 4358TIP3    H113038   2.977   4.835   3.173
 4358TIP3    H213039   3.093   4.821   3.268
 4359TIP3   OH213040   4.819   5.205   1.164
 4359TIP3    H113041   4.840   5.196   1.257
 4359TIP3    H213042   4.794   5.297   1.153
 4360TIP3   OH213043   2.940   0.705   0.577
 4360TIP3    H113044   2.974   0.792   0.553
 4360TIP3    H213045   2.879   0.683   0.506
 4361TIP3   OH213046   6.628   5.003   3.270
 4361TIP3    H113047   6.669   4.993   3.357
 4361TIP3    H213048   6.537   4.979   3.284
 4362TIP3   OH213049   3.931   1.248   3.320
 4362TIP3    H113050   3.924   1.339   3.290
 4362TIP3    H213051   3.903   1.196   3.245
 4363TIP3   OH213052   3.689   4.400   4.560
 4363TIP3    H113053   3.746   4.382   4.486
 4363TIP3    H213054   3.642   4.318   4.575
 4364TIP3   OH213055   5.311   1.165   2.087
 4364TIP3    H113056   5.335   1.256   2.101
 4364TIP3    H213057   5.384   1.128   2.037
 4365TIP3   OH213058   2.587   4.585   2.535
 4365TIP3    H113059   2.519   4.525   2.566
 4365TIP3    H213060   2.618   4.629   2.614
 4366TIP3   OH213061   6.189   0.787   3.845
 4366TIP3    H113062   6.245   0.824   3.777
 4366TIP3    H213063   6.169   0.698   3.814
 4367TIP3   OH213064   0.776   1.690   0.954
 4367TIP3    H113065   0.788   1.612   1.008
 4367TIP3    H213066   0.841   1.752   0.986
 4368TIP3   OH213067   7.164   2.018   5.029
 4368TIP3    H113068   7.084   2.070   5.026
 4368TIP3    H213069   7.136   1.932   5.061
 4369TIP3   OH213070   2.517   5.768   4.778
 4369TIP3    H113071   2.534   5.807   4.864
 4369TIP3    H213072   2.433   5.723   4.789
 4370TIP3   OH213073   2.802   3.262   3.427
 4370TIP3    H113074   2.847   3.184   3.459
 4370TIP3    H213075   2.826   3.331   3.489
 4371TIP3   OH213076   2.002   5.072   3.694
 4371TIP3    H113077   1.958   5.141   3.744
 4371TIP3    H213078   1.961   4.990   3.725
 4372TIP3   OH213079   2.251   0.272   0.527
 4372TIP3    H113080   2.339   0.238   0.546
 4372TIP3    H213081   2.258   0.310   0.440
 4373TIP3   OH213082   2.007   1.442   1.865
 4373TIP3    H113083   1.963   1.521   1.834
 4373TIP3    H213084   1.943   1.372   1.851
 4374TIP3   OH213085   5.679   1.147   1.920
 4374TIP3    H113086   5.598   1.096   1.924
 4374TIP3    H213087   5.741   1.091   1.872
 4375TIP3   OH213088   7.103   5.795   2.209
 4375TIP3    H113089   7.188   5.827   2.180
 4375TIP3    H213090   7.097   5.822   2.301
 4376TIP3   OH213091   2.735   1.811   4.909
 4376TIP3    H113092   2.810   1.756   4.930
 4376TIP3    H213093   2.701   1.773   4.827
 4377TIP3   OH213094   0.654   2.538   1.896
 4377TIP3    H113095   0.569   2.494   1.894
 4377TIP3    H213096   0.671   2.562   1.805
 4378TIP3   OH213097   5.643   4.642   2.297
 4378TIP3    H113098   5.670   4.644   2.389
 4378TIP3    H213099   5.676   4.558   2.264
 4379TIP3   OH213100   6.750   4.594   0.462
 4379TIP3    H113101   6.817   4.543   0.416
 4379TIP3    H213102   6.671   4.582   0.410
 4380TIP3   OH213103   2.657   1.936   3.586
 4380TIP3    H113104   2.659   1.989   3.506
 4380TIP3    H213105   2.747   1.905   3.596
 4381TIP3   OH213106   2.226   3.445   2.861
 4381TIP3    H113107   2.226   3.505   2.936
 4381TIP3    H213108   2.147   3.469   2.812
 4382TIP3   OH213109   5.561   1.168   4.112
 4382TIP3    H113110   5.541   1.094   4.171
 4382TIP3    H213111   5.652   1.155   4.088
 4383TIP3   OH213112   5.442   2.099   4.786
 4383TIP3    H113113   5.356   2.060   4.773
 4383TIP3    H213114   5.428   2.193   4.774
 4384TIP3   OH213115   6.843   3.529   5.512
 4384TIP3    H113116   6.930   3.491   5.494
 4384TIP3    H213117   6.860   3.622   5.524
 4385TIP3   OH213118   4.601   6.131   2.409
 4385TIP3    H113119   4.638   6.051   2.373
 4385TIP3    H213120   4.608   6.195   2.338
 4386TIP3   OH213121   2.326   0.262   1.879
 4386TIP3    H113122   2.297   0.346   1.843
 4386TIP3    H213123   2.313   0.271   1.974
 4387TIP3   OH213124   2.507   6.436   1.523
 4387TIP3    H113125   2.454   6.511   1.497
 4387TIP3    H213126   2.492   6.371   1.454
 4388TIP3   OH213127   1.101   6.799   5.144
 4388TIP3    H113128   1.023   6.763   5.188
 4388TIP3    H213129   1.173   6.780   5.204
 4389TIP3   OH213130   1.029   0.394   0.292
 4389TIP3    H113131   1.020   0.457   0.363
 4389TIP3    H213132   1.082   0.323   0.329
 4390TIP3   OH213133   2.315   0.327   2.156
 4390TIP3    H113134   2.295   0.412   2.116
 4390TIP3    H213135   2.410   0.330   2.170
 4391TIP3   OH213136   3.269   1.384   0.817
 4391TIP3    H113137   3.221   1.327   0.877
 4391TIP3    H213138   3.200   1.436   0.774
 4392TIP3   OH213139   5.573   2.411   5.658
 4392TIP3    H113140   5.591   2.317   5.651
 4392TIP3    H213141   5.576   2.443   5.568
 4393TIP3   OH213142   6.586   5.855   2.019
 4393TIP3    H113143   6.497   5.889   2.032
 4393TIP3    H213144   6.575   5.783   1.957
 4394TIP3   OH213145   6.468   5.694   3.070
 4394TIP3    H113146   6.407   5.761   3.100
 4394TIP3    H213147   6.440   5.614   3.114
 4395TIP3   OH213148   5.847   0.466   5.744
 4395TIP3    H113149   5.802   0.494   5.824
 4395TIP3    H213150   5.924   0.522   5.739
 4396TIP3   OH213151   5.812   3.280   2.197
 4396TIP3    H113152   5.759   3.358   2.213
 4396TIP3    H213153   5.781   3.247   2.112
 4397TIP3   OH213154   6.932   1.717   4.473
 4397TIP3    H113155   6.851   1.667   4.481
 4397TIP3    H213156   6.908   1.792   4.418
 4398TIP3   OH213157   0.526   4.168   0.222
 4398TIP3    H113158   0.512   4.076   0.201
 4398TIP3    H213159   0.571   4.167   0.306
 4399TIP3   OH213160   0.428   3.646   1.849
 4399TIP3    H113161   0.517   3.619   1.826
 4399TIP3    H213162   0.413   3.726   1.799
 4400TIP3   OH213163   5.847   2.212   4.114
 4400TIP3    H113164   5.862   2.288   4.058
 4400TIP3    H213165   5.770   2.235   4.166
 4401TIP3   OH213166   2.305   3.896   0.369
 4401TIP3    H113167   2.392   3.877   0.406
 4401TIP3    H213168   2.252   3.919   0.445
 4402TIP3   OH213169   0.409   0.962   5.490
 4402TIP3    H113170   0.319   0.942   5.466
 4402TIP3    H213171   0.435   1.032   5.430
 4403TIP3   OH213172   4.965   2.400   1.746
 4403TIP3    H113173   5.000   2.373   1.831
 4403TIP3    H213174   4.909   2.327   1.720
 4404TIP3   OH213175   0.952   1.004   3.283
 4404TIP3    H113176   0.954   0.969   3.194
 4404TIP3    H213177   0.859   1.023   3.298
 4405TIP3   OH213178   0.201   6.120   2.484
 4405TIP3    H113179   0.177   6.065   2.410
 4405TIP3    H213180   0.119   6.157   2.514
 4406TIP3   OH213181   4.053   5.820   0.338
 4406TIP3    H113182   4.098   5.865   0.268
 4406TIP3    H213183   4.116   5.756   0.371
 4407TIP3   OH213184   0.081   4.636   0.699
 4407TIP3    H113185   0.131   4.716   0.682
 4407TIP3    H213186   0.006   4.665   0.752
 4408TIP3   OH213187   0.336   2.114   1.492
 4408TIP3    H113188   0.324   2.203   1.459
 4408TIP3    H213189   0.283   2.110   1.572
 4409TIP3   OH213190   6.803   2.483   5.459
 4409TIP3    H113191   6.883   2.431   5.464
 4409TIP3    H213192   6.787   2.494   5.365
 4410TIP3   OH213193   5.821   4.704   3.887
 4410TIP3    H113194   5.755   4.655   3.936
 4410TIP3    H213195   5.874   4.637   3.844
 4411TIP3   OH213196   3.526   0.067   0.362
 4411TIP3    H113197   3.512  -0.013   0.311
 4411TIP3    H213198   3.510   0.138   0.301
 4412TIP3   OH213199   4.860   0.976   0.503
 4412TIP3    H113200   4.802   0.927   0.561
 4412TIP3    H213201   4.942   0.926   0.504
 4413TIP3   OH213202   6.758   2.521   2.094
 4413TIP3    H113203   6.762   2.453   2.161
 4413TIP3    H213204   6.844   2.520   2.053
 4414TIP3   OH213205   5.339   5.178   4.110
 4414TIP3    H113206   5.343   5.260   4.061
 4414TIP3    H213207   5.307   5.114   4.046
 4415TIP3   OH213208   3.749   0.880   2.188
 4415TIP3    H113209   3.753   0.846   2.277
 4415TIP3    H213210   3.673   0.837   2.149
 4416TIP3   OH213211   0.637   3.217   0.515
 4416TIP3    H113212   0.709   3.216   0.452
 4416TIP3    H213213   0.559   3.202   0.462
 4417TIP3   OH213214   3.911   1.311   3.986
 4417TIP3    H113215   3.961   1.284   3.909
 4417TIP3    H213216   3.884   1.401   3.967
 4418TIP3   OH213217   2.898   3.543   3.011
 4418TIP3    H113218   2.874   3.475   3.074
 4418TIP3    H213219   2.883   3.626   3.057
 4419TIP3   OH213220   2.716   4.403   0.851
 4419TIP3    H113221   2.734   4.421   0.759
 4419TIP3    H213222   2.742   4.312   0.863
 4420TIP3   OH213223   3.445   3.866   1.624
 4420TIP3    H113224   3.497   3.911   1.690
 4420TIP3    H213225   3.489   3.887   1.541
 4421TIP3   OH213226   3.186   4.315   1.933
 4421TIP3    H113227   3.184   4.291   2.025
 4421TIP3    H213228   3.094   4.327   1.909
 4422TIP3   OH213229   5.499   4.233   3.644
 4422TIP3    H113230   5.497   4.299   3.713
 4422TIP3    H213231   5.456   4.275   3.570
 4423TIP3   OH213232   3.961   5.052   2.350
 4423TIP3    H113233   3.884   5.065   2.404
 4423TIP3    H213234   3.927   5.028   2.264
 4424TIP3   OH213235   4.736   1.611   0.534
 4424TIP3    H113236   4.784   1.564   0.603
 4424TIP3    H213237   4.756   1.563   0.454
 4425TIP3   OH213238   5.891   3.055   3.205
 4425TIP3    H113239   5.844   3.073   3.123
 4425TIP3    H213240   5.925   2.966   3.194
 4426TIP3   OH213241   0.080   1.579   2.142
 4426TIP3    H113242   0.125   1.501   2.176
 4426TIP3    H213243   0.106   1.649   2.202
 4427TIP3   OH213244   2.203   5.264   2.689
 4427TIP3    H113245   2.151   5.183   2.686
 4427TIP3    H213246   2.139   5.334   2.698
 4428TIP3   OH213247   4.306   4.404   4.795
 4428TIP3    H113248   4.397   4.430   4.806
 4428TIP3    H213249   4.307   4.347   4.717
 4429TIP3   OH213250   4.579   4.231   2.371
 4429TIP3    H113251   4.552   4.313   2.413
 4429TIP3    H213252   4.670   4.219   2.399
 4430TIP3   OH213253   0.881   5.577   4.823
 4430TIP3    H113254   0.830   5.631   4.762
 4430TIP3    H213255   0.963   5.558   4.777
 4431TIP3   OH213256   2.881   2.875   0.119
 4431TIP3    H113257   2.856   2.805   0.180
 4431TIP3    H213258   2.926   2.939   0.175
 4432TIP3   OH213259   3.216   4.177   4.171
 4432TIP3    H113260   3.198   4.127   4.092
 4432TIP3    H213261   3.208   4.268   4.144
 4433TIP3   OH213262   4.313   2.116   0.186
 4433TIP3    H113263   4.372   2.063   0.239
 4433TIP3    H213264   4.371   2.178   0.141
 4434TIP3   OH213265   5.046   5.496   3.156
 4434TIP3    H113266   5.094   5.562   3.207
 4434TIP3    H213267   4.980   5.546   3.108
 4435TIP3   OH213268   1.942   0.697   2.945
 4435TIP3    H113269   1.935   0.786   2.979
 4435TIP3    H213270   1.851   0.668   2.935
 4436TIP3   OH213271   4.950   0.466   5.682
 4436TIP3    H113272   4.995   0.391   5.720
 4436TIP3    H213273   4.858   0.440   5.680
 4437TIP3   OH213274   3.683   5.916   5.082
 4437TIP3    H113275   3.627   5.908   5.159
 4437TIP3    H213276   3.637   5.867   5.014
 4438TIP3   OH213277   6.845   4.215   0.547
 4438TIP3    H113278   6.769   4.187   0.598
 4438TIP3    H213279   6.867   4.302   0.582
 4439TIP3   OH213280   5.314   0.681   3.108
 4439TIP3    H113281   5.395   0.687   3.158
 4439TIP3    H213282   5.280   0.770   3.106
 4440TIP3   OH213283   3.445   6.106   1.701
 4440TIP3    H113284   3.379   6.103   1.632
 4440TIP3    H213285   3.445   6.196   1.732
 4441TIP3   OH213286   0.869   4.859   4.598
 4441TIP3    H113287   0.938   4.821   4.544
 4441TIP3    H213288   0.790   4.811   4.571
 4442TIP3   OH213289   1.121   3.372   3.331
 4442TIP3    H113290   1.080   3.290   3.305
 4442TIP3    H213291   1.192   3.346   3.390
 4443TIP3   OH213292   6.191   5.174   4.420
 4443TIP3    H113293   6.255   5.146   4.485
 4443TIP3    H213294   6.173   5.096   4.368
 4444TIP3   OH213295   5.652   6.660   3.571
 4444TIP3    H113296   5.563   6.687   3.548
 4444TIP3    H213297   5.706   6.693   3.499
 4445TIP3   OH213298   1.251   6.461   3.196
 4445TIP3    H113299   1.244   6.515   3.275
 4445TIP3    H213300   1.187   6.497   3.135
 4446TIP3   OH213301   4.040   0.301   2.667
 4446TIP3    H113302   4.026   0.380   2.718
 4446TIP3    H213303   4.087   0.331   2.589
 4447TIP3   OH213304   6.596   5.503   3.807
 4447TIP3    H113305   6.518   5.527   3.856
 4447TIP3    H213306   6.655   5.578   3.816
 4448TIP3   OH213307   2.566   4.122   2.813
 4448TIP3    H113308   2.512   4.178   2.758
 4448TIP3    H213309   2.638   4.094   2.756
 4449TIP3   OH213310   1.860   6.378   2.709
 4449TIP3    H113311   1.932   6.435   2.736
 4449TIP3    H213312   1.811   6.429   2.645
 4450TIP3   OH213313   0.739   4.207   0.385
 4450TIP3    H113314   0.830   4.204   0.414
 4450TIP3    H213315   0.735   4.282   0.325
 4451TIP3   OH213316   1.922   2.709   0.292
 4451TIP3    H113317   1.912   2.702   0.197
 4451TIP3    H213318   1.910   2.803   0.311
 4452TIP3   OH213319   5.738   3.878   4.782
 4452TIP3    H113320   5.738   3.960   4.733
 4452TIP3    H213321   5.727   3.810   4.716
 4453TIP3   OH213322   3.993   3.474   4.564
 4453TIP3    H113323   3.954   3.388   4.548
 4453TIP3    H213324   4.081   3.468   4.527
 4454TIP3   OH213325   0.187  -0.009   4.581
 4454TIP3    H113326   0.156   0.011   4.669
 4454TIP3    H213327   0.247   0.063   4.559
 4455TIP3   OH213328   2.516   5.603   0.124
 4455TIP3    H113329   2.454   5.551   0.175
 4455TIP3    H213330   2.590   5.544   0.108
 4456TIP3   OH213331   4.877   2.769   5.532
 4456TIP3    H113332   4.942   2.764   5.462
 4456TIP3    H213333   4.927   2.764   5.613
 4457TIP3   OH213334   5.396   0.908   3.838
 4457TIP3    H113335   5.391   0.813   3.824
 4457TIP3    H213336   5.325   0.944   3.786
 4458TIP3   OH213337   0.785   0.662   3.607
 4458TIP3    H113338   0.792   0.635   3.698
 4458TIP3    H213339   0.876   0.681   3.580
 4459TIP3   OH213340   6.475   0.463   5.393
 4459TIP3    H113341   6.430   0.547   5.387
 4459TIP3    H213342   6.412   0.404   5.432
 4460TIP3   OH213343   1.171   2.179   2.476
 4460TIP3    H113344   1.209   2.152   2.392
 4460TIP3    H213345   1.131   2.099   2.511
 4461TIP3   OH213346   0.429   3.459   5.695
 4461TIP3    H113347   0.496   3.425   5.754
 4461TIP3    H213348   0.445   3.414   5.612
 4462TIP3   OH213349   6.887   5.064   4.938
 4462TIP3    H113350   6.897   5.146   4.890
 4462TIP3    H213351   6.875   5.092   5.029
 4463TIP3   OH213352   4.532   5.131   5.141
 4463TIP3    H113353   4.470   5.122   5.214
 4463TIP3    H213354   4.591   5.201   5.168
 4464TIP3   OH213355   7.090   6.790   4.483
 4464TIP3    H113356   7.142   6.711   4.469
 4464TIP3    H213357   7.145   6.846   4.538
 4465TIP3   OH213358   0.239   4.732   0.059
 4465TIP3    H113359   0.163   4.744   0.003
 4465TIP3    H213360   0.248   4.815   0.106
 4466TIP3   OH213361   4.495   2.527   4.201
 4466TIP3    H113362   4.460   2.596   4.257
 4466TIP3    H213363   4.586   2.554   4.185
 4467TIP3   OH213364   5.816   5.354   0.997
 4467TIP3    H113365   5.897   5.309   1.020
 4467TIP3    H213366   5.842   5.445   0.981
 4468TIP3   OH213367   1.269   4.422   4.358
 4468TIP3    H113368   1.263   4.508   4.316
 4468TIP3    H213369   1.355   4.423   4.401
 4469TIP3   OH213370   4.585   3.788   0.037
 4469TIP3    H113371   4.491   3.783   0.052
 4469TIP3    H213372   4.621   3.818   0.120
 4470TIP3   OH213373   3.564   1.352   3.463
 4470TIP3    H113374   3.497   1.342   3.531
 4470TIP3    H213375   3.593   1.263   3.445
 4471TIP3   OH213376   0.200   5.868   4.118
 4471TIP3    H113377   0.227   5.959   4.107
 4471TIP3    H213378   0.265   5.830   4.177
 4472TIP3   OH213379   4.409   2.698   4.926
 4472TIP3    H113380   4.430   2.775   4.874
 4472TIP3    H213381   4.486   2.641   4.917
 4473TIP3   OH213382   3.162   2.065   5.642
 4473TIP3    H113383   3.114   2.011   5.579
 4473TIP3    H213384   3.242   2.089   5.596
 4474TIP3   OH213385   2.304   4.301   2.328
 4474TIP3    H113386   2.367   4.361   2.289
 4474TIP3    H213387   2.310   4.222   2.274
 4475TIP3   OH213388   5.571   0.975   4.687
 4475TIP3    H113389   5.523   1.058   4.690
 4475TIP3    H213390   5.532   0.922   4.757
 4476TIP3   OH213391   4.566   4.253   4.278
 4476TIP3    H113392   4.529   4.248   4.189
 4476TIP3    H213393   4.522   4.183   4.326
 4477TIP3   OH213394   3.914   0.565   1.665
 4477TIP3    H113395   3.845   0.535   1.723
 4477TIP3    H213396   3.933   0.490   1.609
 4478TIP3   OH213397   3.322   1.549   5.061
 4478TIP3    H113398   3.250   1.573   5.120
 4478TIP3    H213399   3.393   1.523   5.120
 4479TIP3   OH213400   4.335   2.090   2.469
 4479TIP3    H113401   4.309   2.037   2.393
 4479TIP3    H213402   4.385   2.029   2.524
 4480TIP3   OH213403   4.167   3.682   0.725
 4480TIP3    H113404   4.095   3.743   0.707
 4480TIP3    H213405   4.126   3.595   0.721
 4481TIP3   OH213406   6.335   2.938   5.049
 4481TIP3    H113407   6.279   2.860   5.055
 4481TIP3    H213408   6.298   2.999   5.113
 4482TIP3   OH213409   3.792   2.849   0.603
 4482TIP3    H113410   3.747   2.920   0.558
 4482TIP3    H213411   3.879   2.885   0.622
 4483TIP3   OH213412   2.198   5.018   0.546
 4483TIP3    H113413   2.138   4.955   0.507
 4483TIP3    H213414   2.148   5.100   0.549
 4484TIP3   OH213415   6.271   5.490   0.524
 4484TIP3    H113416   6.332   5.534   0.465
 4484TIP3    H213417   6.199   5.462   0.467
 4485TIP3   OH213418   4.348   4.363   1.775
 4485TIP3    H113419   4.272   4.400   1.819
 4485TIP3    H213420   4.400   4.439   1.749
 4486TIP3   OH213421  -0.029   0.611   0.783
 4486TIP3    H113422  -0.083   0.659   0.720
 4486TIP3    H213423   0.046   0.581   0.732
 4487TIP3   OH213424   1.579   4.525   0.990
 4487TIP3    H113425   1.607   4.438   1.019
 4487TIP3    H213426   1.487   4.531   1.015
 4488TIP3   OH213427   4.601   4.934   1.660
 4488TIP3    H113428   4.585   4.841   1.677
 4488TIP3    H213429   4.565   4.979   1.737
 4489TIP3   OH213430   4.213   3.376   4.856
 4489TIP3    H113431   4.193   3.315   4.927
 4489TIP3    H213432   4.176   3.460   4.886
 4490TIP3   OH213433   1.522   1.936   5.285
 4490TIP3    H113434   1.508   1.988   5.364
 4490TIP3    H213435   1.494   1.848   5.308
 4491TIP3   OH213436   0.989   3.600   1.684
 4491TIP3    H113437   1.034   3.683   1.671
 4491TIP3    H213438   0.984   3.562   1.597
 4492TIP3   OH213439   2.041   5.318   1.978
 4492TIP3    H113440   2.056   5.285   2.067
 4492TIP3    H213441   2.090   5.400   1.975
 4493TIP3   OH213442   4.672   3.271   2.964
 4493TIP3    H113443   4.627   3.322   3.031
 4493TIP3    H213444   4.728   3.212   3.014
 4494TIP3   OH213445   1.210   0.188   0.390
 4494TIP3    H113446   1.166   0.145   0.463
 4494TIP3    H213447   1.301   0.197   0.419
 4495TIP3   OH213448   1.869   0.710   1.330
 4495TIP3    H113449   1.802   0.642   1.315
 4495TIP3    H213450   1.841   0.754   1.410
 4496TIP3   OH213451   4.232   6.067   3.024
 4496TIP3    H113452   4.141   6.038   3.013
 4496TIP3    H213453   4.284   5.988   3.007
 4497TIP3   OH213454   5.446   4.761   1.570
 4497TIP3    H113455   5.432   4.680   1.618
 4497TIP3    H213456   5.449   4.734   1.478
 4498TIP3   OH213457   1.516   6.622   3.705
 4498TIP3    H113458   1.497   6.626   3.611
 4498TIP3    H213459   1.475   6.701   3.742
 4499TIP3   OH213460   3.286   4.192   3.790
 4499TIP3    H113461   3.322   4.184   3.702
 4499TIP3    H213462   3.325   4.272   3.825
 4500TIP3   OH213463   4.152   0.157   4.264
 4500TIP3    H113464   4.056   0.165   4.263
 4500TIP3    H213465   4.177   0.160   4.172
 4501TIP3   OH213466   1.089   1.769   5.025
 4501TIP3    H113467   1.063   1.679   5.006
 4501TIP3    H213468   1.006   1.816   5.031
 4502TIP3   OH213469   1.885   4.795   3.528
 4502TIP3    H113470   1.956   4.773   3.468
 4502TIP3    H213471   1.928   4.805   3.613
 4503TIP3   OH213472   7.124   1.351   2.747
 4503TIP3    H113473   7.090   1.432   2.784
 4503TIP3    H213474   7.056   1.286   2.767
 4504TIP3   OH213475   3.330   3.669   0.307
 4504TIP3    H113476   3.288   3.650   0.390
 4504TIP3    H213477   3.274   3.736   0.267
 4505TIP3   OH213478   6.177   1.202   0.285
 4505TIP3    H113479   6.262   1.169   0.256
 4505TIP3    H213480   6.191   1.295   0.301
 4506TIP3   OH213481   2.321   2.921   4.562
 4506TIP3    H113482   2.241   2.926   4.510
 4506TIP3    H213483   2.317   2.835   4.605
 4507TIP3   OH213484   6.798   6.284   3.075
 4507TIP3    H113485   6.882   6.250   3.044
 4507TIP3    H213486   6.752   6.208   3.110
 4508TIP3   OH213487   4.426   0.437   2.325
 4508TIP3    H113488   4.477   0.475   2.397
 4508TIP3    H213489   4.409   0.511   2.266
 4509TIP3   OH213490   5.653   3.651   5.625
 4509TIP3    H113491   5.701   3.731   5.604
 4509TIP3    H213492   5.670   3.637   5.718
 4510TIP3   OH213493   0.197   3.416   1.072
 4510TIP3    H113494   0.102   3.404   1.067
 4510TIP3    H213495   0.222   3.449   0.986
 4511TIP3   OH213496   5.850   0.532   2.242
 4511TIP3    H113497   5.907   0.529   2.165
 4511TIP3    H213498   5.910   0.552   2.314
 4512TIP3   OH213499   1.465   5.522   0.795
 4512TIP3    H113500   1.560   5.516   0.802
 4512TIP3    H213501   1.431   5.476   0.872
 4513TIP3   OH213502   5.548   1.565   2.061
 4513TIP3    H113503   5.480   1.603   2.005
 4513TIP3    H213504   5.600   1.641   2.089
 4514TIP3   OH213505   7.045   3.433   3.731
 4514TIP3    H113506   7.006   3.418   3.817
 4514TIP3    H213507   7.044   3.347   3.689
 4515TIP3   OH213508   3.753   4.213   2.746
 4515TIP3    H113509   3.779   4.132   2.703
 4515TIP3    H213510   3.788   4.283   2.691
 4516TIP3   OH213511   3.607   2.484   5.050
 4516TIP3    H113512   3.574   2.396   5.067
 4516TIP3    H213513   3.577   2.536   5.125
 4517TIP3   OH213514   1.242   5.209   4.388
 4517TIP3    H113515   1.234   5.278   4.454
 4517TIP3    H213516   1.152   5.179   4.373
 4518TIP3   OH213517   4.411   6.695   0.668
 4518TIP3    H113518   4.321   6.672   0.690
 4518TIP3    H213519   4.440   6.624   0.610
 4519TIP3   OH213520   1.951   3.715   4.140
 4519TIP3    H113521   2.043   3.731   4.119
 4519TIP3    H213522   1.946   3.733   4.234
 4520TIP3   OH213523   2.578   0.400   1.376
 4520TIP3    H113524   2.575   0.366   1.466
 4520TIP3    H213525   2.611   0.490   1.386
 4521TIP3   OH213526   6.436   1.481   2.350
 4521TIP3    H113527   6.438   1.512   2.259
 4521TIP3    H213528   6.405   1.391   2.344
 4522TIP3   OH213529   2.918   3.627   4.255
 4522TIP3    H113530   2.917   3.703   4.197
 4522TIP3    H213531   2.990   3.573   4.223
 4523TIP3   OH213532   3.909   5.916   5.256
 4523TIP3    H113533   3.836   5.914   5.195
 4523TIP3    H213534   3.943   5.826   5.255
 4524TIP3   OH213535   6.254   0.987   2.306
 4524TIP3    H113536   6.284   0.897   2.296
 4524TIP3    H213537   6.212   0.988   2.392
 4525TIP3   OH213538   2.816   3.239   3.771
 4525TIP3    H113539   2.805   3.168   3.835
 4525TIP3    H213540   2.727   3.259   3.742
 4526TIP3   OH213541   4.881   4.628   4.216
 4526TIP3    H113542   4.883   4.564   4.144
 4526TIP3    H213543   4.930   4.703   4.182
 4527TIP3   OH213544   3.128   4.483   3.953
 4527TIP3    H113545   3.127   4.579   3.946
 4527TIP3    H213546   3.071   4.453   3.882
 4528TIP3   OH213547   4.810   4.340   3.624
 4528TIP3    H113548   4.759   4.321   3.703
 4528TIP3    H213549   4.834   4.432   3.632
 4529TIP3   OH213550   4.275   1.487   1.404
 4529TIP3    H113551   4.285   1.467   1.311
 4529TIP3    H213552   4.182   1.509   1.414
 4530TIP3   OH213553   5.993   3.679   3.891
 4530TIP3    H113554   6.072   3.644   3.932
 4530TIP3    H213555   5.971   3.616   3.822
 4531TIP3   OH213556   4.419   2.953   2.864
 4531TIP3    H113557   4.326   2.951   2.840
 4531TIP3    H213558   4.446   2.861   2.862
 4532TIP3   OH213559   0.678   3.807   4.251
 4532TIP3    H113560   0.765   3.797   4.290
 4532TIP3    H213561   0.618   3.804   4.325
 4533TIP3   OH213562   3.017   1.163   0.575
 4533TIP3    H113563   2.924   1.151   0.558
 4533TIP3    H213564   3.021   1.237   0.636
 4534TIP3   OH213565   2.108   1.752   3.094
 4534TIP3    H113566   2.087   1.738   3.186
 4534TIP3    H213567   2.193   1.795   3.095
 4535TIP3   OH213568   3.101   5.422   1.550
 4535TIP3    H113569   3.074   5.402   1.461
 4535TIP3    H213570   3.188   5.461   1.542
 4536TIP3   OH213571   2.147   5.144   3.020
 4536TIP3    H113572   2.115   5.234   3.019
 4536TIP3    H213573   2.242   5.152   3.011
 4537TIP3   OH213574   3.986   1.963   5.470
 4537TIP3    H113575   4.051   1.986   5.536
 4537TIP3    H213576   3.904   1.995   5.505
 4538TIP3   OH213577   4.298   5.672   2.442
 4538TIP3    H113578   4.214   5.634   2.418
 4538TIP3    H213579   4.324   5.625   2.522
 4539TIP3   OH213580   5.127   5.168   4.352
 4539TIP3    H113581   5.087   5.214   4.426
 4539TIP3    H213582   5.208   5.216   4.334
 4540TIP3   OH213583   2.897   1.716   5.317
 4540TIP3    H113584   2.818   1.662   5.318
 4540TIP3    H213585   2.879   1.783   5.252
 4541TIP3   OH213586   1.168   3.764   0.294
 4541TIP3    H113587   1.128   3.748   0.380
 4541TIP3    H213588   1.177   3.677   0.256
 4542TIP3   OH213589   5.086   3.358   5.726
 4542TIP3    H113590   5.120   3.425   5.667
 4542TIP3    H213591   5.083   3.401   5.811
 4543TIP3   OH213592   2.941   1.119   0.190
 4543TIP3    H113593   2.896   1.101   0.273
 4543TIP3    H213594   2.952   1.214   0.189
 4544TIP3   OH213595   1.838   3.324   3.185
 4544TIP3    H113596   1.855   3.379   3.261
 4544TIP3    H213597   1.742   3.318   3.180
 4545TIP3   OH213598   0.370   0.261   5.633
 4545TIP3    H113599   0.314   0.303   5.568
 4545TIP3    H213600   0.401   0.182   5.589
 4546TIP3   OH213601   1.610   3.304   4.615
 4546TIP3    H113602   1.605   3.290   4.521
 4546TIP3    H213603   1.606   3.217   4.653
 4547TIP3   OH213604   1.364   2.927   3.887
 4547TIP3    H113605   1.332   3.008   3.847
 4547TIP3    H213606   1.390   2.872   3.813
 4548TIP3   OH213607   2.500   1.797   5.084
 4548TIP3    H113608   2.489   1.768   4.993
 4548TIP3    H213609   2.591   1.825   5.089
 4549TIP3   OH213610   2.211   4.768   1.029
 4549TIP3    H113611   2.278   4.770   0.961
 4549TIP3    H213612   2.239   4.836   1.092
 4550TIP3   OH213613   0.635   4.271   2.549
 4550TIP3    H113614   0.541   4.278   2.533
 4550TIP3    H213615   0.653   4.177   2.546
 4551TIP3   OH213616   3.196   6.082   1.878
 4551TIP3    H113617   3.217   6.167   1.839
 4551TIP3    H213618   3.280   6.048   1.909
 4552TIP3   OH213619   5.688   4.252   1.494
 4552TIP3    H113620   5.675   4.183   1.560
 4552TIP3    H213621   5.753   4.310   1.531
 4553TIP3   OH213622   4.134   6.091   3.312
 4553TIP3    H113623   4.155   6.069   3.221
 4553TIP3    H213624   4.043   6.121   3.308
 4554TIP3   OH213625   4.159   4.889   4.322
 4554TIP3    H113626   4.182   4.804   4.286
 4554TIP3    H213627   4.237   4.943   4.307
 4555TIP3   OH213628   6.390   6.622   3.395
 4555TIP3    H113629   6.343   6.693   3.440
 4555TIP3    H213630   6.365   6.543   3.442
 4556TIP3   OH213631   4.945   1.588   2.530
 4556TIP3    H113632   5.001   1.554   2.599
 4556TIP3    H213633   4.887   1.515   2.508
 4557TIP3   OH213634   4.847   2.725   2.036
 4557TIP3    H113635   4.882   2.814   2.042
 4557TIP3    H213636   4.923   2.670   2.016
 4558TIP3   OH213637   3.453   3.395   5.696
 4558TIP3    H113638   3.390   3.326   5.717
 4558TIP3    H213639   3.407   3.477   5.718
 4559TIP3   OH213640   4.538   4.229   0.875
 4559TIP3    H113641   4.444   4.223   0.858
 4559TIP3    H213642   4.550   4.315   0.915
 4560TIP3   OH213643   6.544   3.477   5.380
 4560TIP3    H113644   6.471   3.522   5.421
 4560TIP3    H213645   6.618   3.537   5.390
 4561TIP3   OH213646   6.148   6.102   0.111
 4561TIP3    H113647   6.124   6.094   0.203
 4561TIP3    H213648   6.089   6.042   0.065
 4562TIP3   OH213649   4.422   5.925   0.026
 4562TIP3    H113650   4.480   5.991   0.062
 4562TIP3    H213651   4.436   5.930  -0.069
 4563TIP3   OH213652  -0.022   3.671   2.808
 4563TIP3    H113653   0.053   3.643   2.755
 4563TIP3    H213654  -0.015   3.620   2.889
 4564TIP3   OH213655   0.007   0.285   1.468
 4564TIP3    H113656   0.005   0.371   1.511
 4564TIP3    H213657   0.097   0.277   1.436
 4565TIP3   OH213658   6.749   0.879   0.423
 4565TIP3    H113659   6.765   0.791   0.459
 4565TIP3    H213660   6.758   0.868   0.328
 4566TIP3   OH213661   0.450   0.666   0.356
 4566TIP3    H113662   0.467   0.637   0.446
 4566TIP3    H213663   0.468   0.760   0.358
 4567TIP3   OH213664   3.679   6.675   0.973
 4567TIP3    H113665   3.615   6.608   0.995
 4567TIP3    H213666   3.651   6.752   1.022
 4568TIP3   OH213667   3.505   4.387   4.151
 4568TIP3    H113668   3.539   4.471   4.120
 4568TIP3    H213669   3.412   4.390   4.132
 4569TIP3   OH213670   5.403   5.524   2.986
 4569TIP3    H113671   5.430   5.511   2.895
 4569TIP3    H213672   5.332   5.461   3.000
 4570TIP3   OH213673   0.697   2.277   3.612
 4570TIP3    H113674   0.740   2.358   3.585
 4570TIP3    H213675   0.604   2.298   3.615
 4571TIP3   OH213676   3.892   1.928   5.217
 4571TIP3    H113677   3.924   1.964   5.300
 4571TIP3    H213678   3.934   1.843   5.210
 4572TIP3   OH213679   6.039   2.104   3.487
 4572TIP3    H113680   6.115   2.126   3.541
 4572TIP3    H213681   5.963   2.120   3.544
 4573TIP3   OH213682   3.003   4.397   4.332
 4573TIP3    H113683   2.953   4.351   4.265
 4573TIP3    H213684   3.089   4.410   4.293
 4574TIP3   OH213685   4.928   5.211   2.786
 4574TIP3    H113686   4.834   5.225   2.798
 4574TIP3    H213687   4.934   5.136   2.726
 4575TIP3   OH213688   5.804   1.654   0.282
 4575TIP3    H113689   5.835   1.677   0.195
 4575TIP3    H213690   5.709   1.662   0.277
 4576TIP3   OH213691   6.505   0.324   5.704
 4576TIP3    H113692   6.453   0.336   5.625
 4576TIP3    H213693   6.456   0.259   5.755
 4577TIP3   OH213694   1.463   3.083   0.499
 4577TIP3    H113695   1.394   3.107   0.437
 4577TIP3    H213696   1.468   3.157   0.560
 4578TIP3   OH213697   1.737   4.126   0.305
 4578TIP3    H113698   1.775   4.212   0.291
 4578TIP3    H213699   1.706   4.128   0.396
 4579TIP3   OH213700   1.760   2.504   3.130
 4579TIP3    H113701   1.815   2.425   3.131
 4579TIP3    H213702   1.800   2.560   3.064
 4580TIP3   OH213703   6.945   4.595   4.563
 4580TIP3    H113704   6.964   4.605   4.657
 4580TIP3    H213705   7.028   4.615   4.520
 4581TIP3   OH213706   2.743   0.567   1.966
 4581TIP3    H113707   2.656   0.571   2.006
 4581TIP3    H213708   2.767   0.475   1.969
 4582TIP3   OH213709   3.976   1.688   2.370
 4582TIP3    H113710   3.962   1.747   2.444
 4582TIP3    H213711   4.053   1.637   2.395
 4583TIP3   OH213712   1.597   1.668   2.325
 4583TIP3    H113713   1.683   1.708   2.340
 4583TIP3    H213714   1.541   1.705   2.395
 4584TIP3   OH213715   5.369   3.366   2.701
 4584TIP3    H113716   5.376   3.435   2.635
 4584TIP3    H213717   5.378   3.411   2.785
 4585TIP3   OH213718   0.483   6.144   5.119
 4585TIP3    H113719   0.437   6.095   5.051
 4585TIP3    H213720   0.414   6.188   5.169
 4586TIP3   OH213721   4.555   5.826   4.374
 4586TIP3    H113722   4.628   5.859   4.425
 4586TIP3    H213723   4.595   5.771   4.307
 4587TIP3   OH213724   6.918   4.353   1.837
 4587TIP3    H113725   6.962   4.438   1.844
 4587TIP3    H213726   6.958   4.312   1.760
 4588TIP3   OH213727   2.313   4.817   4.182
 4588TIP3    H113728   2.315   4.905   4.144
 4588TIP3    H213729   2.370   4.766   4.125
 4589TIP3   OH213730   1.664   3.183   1.829
 4589TIP3    H113731   1.575   3.203   1.858
 4589TIP3    H213732   1.709   3.153   1.908
 4590TIP3   OH213733   4.027   5.184   0.091
 4590TIP3    H113734   4.024   5.255   0.026
 4590TIP3    H213735   4.120   5.160   0.095
 4591TIP3   OH213736   5.033   2.689   2.439
 4591TIP3    H113737   5.024   2.632   2.515
 4591TIP3    H213738   4.986   2.644   2.369
 4592TIP3   OH213739   3.420   6.544   5.674
 4592TIP3    H113740   3.438   6.479   5.742
 4592TIP3    H213741   3.380   6.493   5.603
 4593TIP3   OH213742   4.328   2.614   1.403
 4593TIP3    H113743   4.375   2.644   1.481
 4593TIP3    H213744   4.315   2.694   1.352
 4594TIP3   OH213745   1.725   2.619   3.385
 4594TIP3    H113746   1.778   2.693   3.356
 4594TIP3    H213747   1.725   2.558   3.311
 4595TIP3   OH213748   0.869   2.353   0.346
 4595TIP3    H113749   0.906   2.309   0.269
 4595TIP3    H213750   0.774   2.339   0.337
 4596TIP3   OH213751   4.327   3.866   2.948
 4596TIP3    H113752   4.303   3.773   2.948
 4596TIP3    H213753   4.371   3.879   2.864
 4597TIP3   OH213754   3.163   0.555   5.369
 4597TIP3    H113755   3.195   0.598   5.448
 4597TIP3    H213756   3.072   0.533   5.389
 4598TIP3   OH213757   4.626   3.552   5.718
 4598TIP3    H113758   4.698   3.610   5.691
 4598TIP3    H213759   4.651   3.466   5.683
 4599TIP3   OH213760   4.282   4.232   1.104
 4599TIP3    H113761   4.355   4.259   1.159
 4599TIP3    H213762   4.307   4.145   1.072
 4600TIP3   OH213763   4.618   4.882   4.486
 4600TIP3    H113764   4.612   4.791   4.515
 4600TIP3    H213765   4.563   4.930   4.548
 4601TIP3   OH213766   4.956   3.473   2.526
 4601TIP3    H113767   4.885   3.434   2.474
 4601TIP3    H213768   4.998   3.399   2.569
 4602TIP3   OH213769   5.305   5.225   5.380
 4602TIP3    H113770   5.247   5.276   5.437
 4602TIP3    H213771   5.333   5.152   5.434
 4603TIP3   OH213772   4.834   6.741   0.909
 4603TIP3    H113773   4.828   6.770   1.000
 4603TIP3    H213774   4.924   6.760   0.884
 4604TIP3   OH213775   3.455   4.841   1.333
 4604TIP3    H113776   3.408   4.922   1.352
 4604TIP3    H213777   3.531   4.868   1.282
 4605TIP3   OH213778   2.119   2.142   5.553
 4605TIP3    H113779   2.199   2.171   5.508
 4605TIP3    H213780   2.103   2.054   5.519
 4606TIP3   OH213781   3.889   0.860   2.927
 4606TIP3    H113782   3.932   0.819   2.851
 4606TIP3    H213783   3.825   0.920   2.888
 4607TIP3   OH213784   3.379   3.665   1.300
 4607TIP3    H113785   3.348   3.575   1.315
 4607TIP3    H213786   3.474   3.659   1.305
 4608TIP3   OH213787   6.687   3.413   0.680
 4608TIP3    H113788   6.756   3.469   0.715
 4608TIP3    H213789   6.696   3.421   0.585
 4609TIP3   OH213790   3.495   5.087   5.667
 4609TIP3    H113791   3.529   5.096   5.756
 4609TIP3    H213792   3.569   5.053   5.616
 4610TIP3   OH213793   1.703   4.496   0.598
 4610TIP3    H113794   1.682   4.590   0.596
 4610TIP3    H213795   1.775   4.489   0.660
 4611TIP3   OH213796   1.740   1.776   4.076
 4611TIP3    H113797   1.671   1.771   4.142
 4611TIP3    H213798   1.820   1.793   4.126
 4612TIP3   OH213799   0.146   5.075   1.277
 4612TIP3    H113800   0.219   5.023   1.311
 4612TIP3    H213801   0.187   5.153   1.239
 4613TIP3   OH213802   3.636   4.006   5.009
 4613TIP3    H113803   3.668   3.957   4.934
 4613TIP3    H213804   3.648   4.098   4.985
 4614TIP3   OH213805   0.857   3.498   4.457
 4614TIP3    H113806   0.782   3.538   4.413
 4614TIP3    H213807   0.902   3.572   4.498
 4615TIP3   OH213808   2.468   5.881   1.846
 4615TIP3    H113809   2.473   5.958   1.790
 4615TIP3    H213810   2.387   5.893   1.896
 4616TIP3   OH213811   6.324   4.602   2.109
 4616TIP3    H113812   6.276   4.523   2.085
 4616TIP3    H213813   6.416   4.577   2.107
 4617TIP3   OH213814   7.085   5.648   4.485
 4617TIP3    H113815   7.012   5.653   4.548
 4617TIP3    H213816   7.126   5.735   4.490
 4618TIP3   OH213817   6.240   6.756   4.066
 4618TIP3    H113818   6.265   6.825   4.128
 4618TIP3    H213819   6.233   6.677   4.120
 4619TIP3   OH213820   5.846   0.651   5.521
 4619TIP3    H113821   5.932   0.654   5.564
 4619TIP3    H213822   5.792   0.599   5.581
 4620TIP3   OH213823   1.054   3.295   0.986
 4620TIP3    H113824   1.019   3.352   0.918
 4620TIP3    H213825   1.142   3.330   1.004
 4621TIP3   OH213826   3.576   3.799   0.885
 4621TIP3    H113827   3.557   3.892   0.894
 4621TIP3    H213828   3.499   3.755   0.922
 4622TIP3   OH213829   2.139   2.777   1.771
 4622TIP3    H113830   2.125   2.770   1.865
 4622TIP3    H213831   2.055   2.751   1.732
 4623TIP3   OH213832   0.555   5.431   2.628
 4623TIP3    H113833   0.573   5.416   2.535
 4623TIP3    H213834   0.464   5.459   2.632
 4624TIP3   OH213835   4.252   2.101   4.263
 4624TIP3    H113836   4.213   2.054   4.190
 4624TIP3    H213837   4.343   2.113   4.239
 4625TIP3   OH213838   2.182   6.096   4.045
 4625TIP3    H113839   2.089   6.073   4.036
 4625TIP3    H213840   2.184   6.163   4.112
 4626TIP3   OH213841   2.422   1.826   4.322
 4626TIP3    H113842   2.421   1.732   4.306
 4626TIP3    H213843   2.514   1.847   4.338
 4627TIP3   OH213844   4.411   6.330   3.685
 4627TIP3    H113845   4.500   6.342   3.719
 4627TIP3    H213846   4.355   6.377   3.747
 4628TIP3   OH213847   0.072   5.680   1.676
 4628TIP3    H113848   0.041   5.747   1.615
 4628TIP3    H213849   0.011   5.607   1.664
 4629TIP3   OH213850   4.381   0.120   1.134
 4629TIP3    H113851   4.375   0.073   1.217
 4629TIP3    H213852   4.470   0.101   1.103
 4630TIP3   OH213853   2.226   6.069   5.100
 4630TIP3    H113854   2.226   5.987   5.150
 4630TIP3    H213855   2.272   6.048   5.019
 4631TIP3   OH213856   7.006   5.208   4.707
 4631TIP3    H113857   7.083   5.160   4.676
 4631TIP3    H213858   6.942   5.198   4.637
 4632TIP3   OH213859   1.858   5.001   2.155
 4632TIP3    H113860   1.953   5.007   2.149
 4632TIP3    H213861   1.830   5.088   2.182
 4633TIP3   OH213862   4.950   6.651   2.497
 4633TIP3    H113863   5.006   6.592   2.447
 4633TIP3    H213864   4.947   6.612   2.585
 4634TIP3   OH213865   4.622   0.850   3.456
 4634TIP3    H113866   4.657   0.761   3.452
 4634TIP3    H213867   4.694   0.902   3.492
 4635TIP3   OH213868   4.550   4.647   2.924
 4635TIP3    H113869   4.581   4.560   2.949
 4635TIP3    H213870   4.488   4.671   2.992
 4636TIP3   OH213871   1.448   2.254   3.318
 4636TIP3    H113872   1.522   2.229   3.263
 4636TIP3    H213873   1.413   2.170   3.350
 4637TIP3   OH213874   3.156   4.775   3.919
 4637TIP3    H113875   3.172   4.844   3.854
 4637TIP3    H213876   3.083   4.808   3.972
 4638TIP3   OH213877   1.370   5.654   2.182
 4638TIP3    H113878   1.326   5.739   2.189
 4638TIP3    H213879   1.333   5.602   2.253
 4639TIP3   OH213880   6.781   2.420   0.441
 4639TIP3    H113881   6.765   2.434   0.348
 4639TIP3    H213882   6.779   2.325   0.452
 4640TIP3   OH213883   2.577   3.913   0.729
 4640TIP3    H113884   2.497   3.963   0.712
 4640TIP3    H213885   2.645   3.958   0.680
 4641TIP3   OH213886   4.841   2.775   4.492
 4641TIP3    H113887   4.936   2.759   4.491
 4641TIP3    H213888   4.818   2.793   4.401
 4642TIP3   OH213889   5.591   2.598   0.772
 4642TIP3    H113890   5.626   2.533   0.832
 4642TIP3    H213891   5.520   2.553   0.726
 4643TIP3   OH213892   5.030   5.265   2.306
 4643TIP3    H113893   5.016   5.170   2.311
 4643TIP3    H213894   4.990   5.290   2.223
 4644TIP3   OH213895   5.384   6.279   0.030
 4644TIP3    H113896   5.447   6.294  -0.041
 4644TIP3    H213897   5.360   6.366   0.061
 4645TIP3   OH213898   7.044   4.173   5.120
 4645TIP3    H113899   6.973   4.148   5.179
 4645TIP3    H213900   7.011   4.249   5.072
 4646TIP3   OH213901   6.885   1.388   2.248
 4646TIP3    H113902   6.820   1.452   2.218
 4646TIP3    H213903   6.917   1.348   2.167
 4647TIP3   OH213904   5.732   6.559   2.967
 4647TIP3    H113905   5.657   6.616   2.954
 4647TIP3    H213906   5.694   6.473   2.985
 4648TIP3   OH213907   6.854   3.157   3.384
 4648TIP3    H113908   6.830   3.244   3.415
 4648TIP3    H213909   6.808   3.148   3.301
 4649TIP3   OH213910   6.430   5.377   2.180
 4649TIP3    H113911   6.517   5.418   2.176
 4649TIP3    H213912   6.440   5.296   2.130
 4650TIP3   OH213913   0.470   0.656   0.636
 4650TIP3    H113914   0.453   0.748   0.657
 4650TIP3    H213915   0.525   0.625   0.708
 4651TIP3   OH213916   4.464   3.871   2.033
 4651TIP3    H113917   4.478   3.911   2.119
 4651TIP3    H213918   4.435   3.943   1.978
 4652TIP3   OH213919   6.598   6.472   4.199
 4652TIP3    H113920   6.667   6.416   4.164
 4652TIP3    H213921   6.633   6.561   4.192
 4653TIP3   OH213922   2.284   4.595   2.425
 4653TIP3    H113923   2.335   4.565   2.350
 4653TIP3    H213924   2.198   4.554   2.413
 4654TIP3   OH213925   6.110   0.115   1.174
 4654TIP3    H113926   6.079   0.203   1.150
 4654TIP3    H213927   6.206   0.124   1.176
 4655TIP3   OH213928   3.950   3.064   4.308
 4655TIP3    H113929   3.922   2.997   4.245
 4655TIP3    H213930   3.964   3.142   4.254
 4656TIP3   OH213931   3.140   6.482   5.855
 4656TIP3    H113932   3.233   6.499   5.838
 4656TIP3    H213933   3.104   6.569   5.871
 4657TIP3   OH213934   3.700   1.106   5.051
 4657TIP3    H113935   3.650   1.078   5.127
 4657TIP3    H213936   3.738   1.190   5.077
 4658TIP3   OH213937   1.220   4.161   4.286
 4658TIP3    H113938   1.293   4.124   4.236
 4658TIP3    H213939   1.247   4.251   4.305
 4659TIP3   OH213940   4.014   0.531   2.824
 4659TIP3    H113941   4.001   0.618   2.788
 4659TIP3    H213942   4.107   0.529   2.849
 4660TIP3   OH213943   6.961   4.604   1.555
 4660TIP3    H113944   6.918   4.520   1.543
 4660TIP3    H213945   6.987   4.606   1.647
 4661TIP3   OH213946   0.646   3.246   1.936
 4661TIP3    H113947   0.559   3.253   1.897
 4661TIP3    H213948   0.690   3.328   1.911
 4662TIP3   OH213949   5.013   0.555   1.348
 4662TIP3    H113950   4.922   0.574   1.371
 4662TIP3    H213951   5.035   0.622   1.283
 4663TIP3   OH213952   0.886   1.011   4.091
 4663TIP3    H113953   0.914   1.088   4.041
 4663TIP3    H213954   0.897   1.037   4.183
 4664TIP3   OH213955   2.010   1.786   5.736
 4664TIP3    H113956   1.967   1.871   5.752
 4664TIP3    H213957   2.092   1.809   5.692
 4665TIP3   OH213958   1.072   4.785   4.427
 4665TIP3    H113959   1.142   4.748   4.373
 4665TIP3    H213960   1.088   4.879   4.426
 4666TIP3   OH213961   4.234   5.508   2.100
 4666TIP3    H113962   4.227   5.602   2.120
 4666TIP3    H213963   4.316   5.501   2.050
 4667TIP3   OH213964   5.020   6.314   1.397
 4667TIP3    H113965   4.972   6.336   1.317
 4667TIP3    H213966   4.986   6.376   1.462
 4668TIP3   OH213967   3.780   3.619   2.124
 4668TIP3    H113968   3.685   3.609   2.126
 4668TIP3    H213969   3.811   3.566   2.198
 4669TIP3   OH213970   4.895   6.207   3.681
 4669TIP3    H113971   4.909   6.218   3.775
 4669TIP3    H213972   4.882   6.112   3.670
 4670TIP3   OH213973   2.518   4.685   5.856
 4670TIP3    H113974   2.435   4.710   5.816
 4670TIP3    H213975   2.538   4.756   5.917
 4671TIP3   OH213976   5.548   0.986   5.161
 4671TIP3    H113977   5.546   1.080   5.178
 4671TIP3    H213978   5.629   0.956   5.202
 4672TIP3   OH213979   6.806   1.228   3.117
 4672TIP3    H113980   6.872   1.184   3.063
 4672TIP3    H213981   6.857   1.280   3.179
 4673TIP3   OH213982   5.272   5.510   2.106
 4673TIP3    H113983   5.194   5.504   2.052
 4673TIP3    H213984   5.309   5.596   2.086
 4674TIP3   OH213985   5.401   3.970   1.481
 4674TIP3    H113986   5.439   3.886   1.505
 4674TIP3    H213987   5.410   3.974   1.386
 4675TIP3   OH213988   1.027   6.384   3.446
 4675TIP3    H113989   0.943   6.421   3.474
 4675TIP3    H213990   1.005   6.328   3.372
 4676TIP3   OH213991   6.767   0.299   1.346
 4676TIP3    H113992   6.808   0.380   1.317
 4676TIP3    H213993   6.673   0.318   1.344
 4677TIP3   OH213994   2.975   6.267   2.489
 4677TIP3    H113995   2.879   6.264   2.491
 4677TIP3    H213996   2.996   6.305   2.404
 4678TIP3   OH213997   3.651   2.518   0.274
 4678TIP3    H113998   3.700   2.599   0.293
 4678TIP3    H213999   3.632   2.524   0.180
 4679TIP3   OH214000   0.610   1.859   2.151
 4679TIP3    H114001   0.598   1.793   2.220
 4679TIP3    H214002   0.536   1.846   2.092
 4680TIP3   OH214003   4.405   3.764   1.446
 4680TIP3    H114004   4.426   3.672   1.462
 4680TIP3    H214005   4.366   3.795   1.528
 4681TIP3   OH214006   2.660   5.949   4.619
 4681TIP3    H114007   2.618   5.886   4.677
 4681TIP3    H214008   2.667   6.029   4.671
 4682TIP3   OH214009   6.672   2.348   3.343
 4682TIP3    H114010   6.626   2.281   3.292
 4682TIP3    H214011   6.714   2.299   3.414
 4683TIP3   OH214012   5.507   1.670   4.551
 4683TIP3    H114013   5.589   1.714   4.573
 4683TIP3    H214014   5.457   1.736   4.502
 4684TIP3   OH214015   2.139   2.421   3.721
 4684TIP3    H114016   2.080   2.406   3.795
 4684TIP3    H214017   2.115   2.508   3.689
 4685TIP3   OH214018   5.914   4.982   4.439
 4685TIP3    H114019   5.890   5.052   4.379
 4685TIP3    H214020   5.988   4.938   4.396
 4686TIP3   OH214021   0.188   3.456   5.415
 4686TIP3    H114022   0.182   3.508   5.495
 4686TIP3    H214023   0.262   3.495   5.368
 4687TIP3   OH214024   0.324   0.964   1.003
 4687TIP3    H114025   0.308   1.058   1.002
 4687TIP3    H214026   0.240   0.926   1.029
 4688TIP3   OH214027   5.957   0.159   0.327
 4688TIP3    H114028   6.037   0.191   0.369
 4688TIP3    H214029   5.986   0.089   0.268
 4689TIP3   OH214030   0.207   3.616   2.661
 4689TIP3    H114031   0.253   3.571   2.590
 4689TIP3    H214032   0.269   3.681   2.693
 4690TIP3   OH214033   4.244   4.295   3.206
 4690TIP3    H114034   4.322   4.323   3.157
 4690TIP3    H214035   4.217   4.214   3.163
 4691TIP3   OH214036   5.225   3.447   3.338
 4691TIP3    H114037   5.142   3.480   3.303
 4691TIP3    H214038   5.258   3.387   3.271
 4692TIP3   OH214039   4.108   6.406   3.178
 4692TIP3    H114040   4.163   6.482   3.159
 4692TIP3    H214041   4.083   6.371   3.092
 4693TIP3   OH214042   2.009   5.847   0.922
 4693TIP3    H114043   2.053   5.808   0.847
 4693TIP3    H214044   1.921   5.869   0.890
 4694TIP3   OH214045   6.452   5.184   5.579
 4694TIP3    H114046   6.399   5.247   5.530
 4694TIP3    H214047   6.452   5.217   5.669
 4695TIP3   OH214048   1.565   2.811   4.430
 4695TIP3    H114049   1.527   2.724   4.436
 4695TIP3    H214050   1.492   2.867   4.402
 4696TIP3   OH214051   4.554   3.009   4.328
 4696TIP3    H114052   4.625   3.044   4.381
 4696TIP3    H214053   4.477   3.060   4.354
 4697TIP3   OH214054   3.511   4.329   2.541
 4697TIP3    H114055   3.544   4.306   2.628
 4697TIP3    H214056   3.426   4.286   2.535
 4698TIP3   OH214057   2.890   3.802   4.650
 4698TIP3    H114058   2.829   3.732   4.624
 4698TIP3    H214059   2.935   3.825   4.569
 4699TIP3   OH214060   1.207   0.455   1.103
 4699TIP3    H114061   1.141   0.415   1.046
 4699TIP3    H214062   1.166   0.460   1.189
 4700TIP3   OH214063   6.398   2.855   1.658
 4700TIP3    H114064   6.440   2.773   1.632
 4700TIP3    H214065   6.469   2.918   1.666
 4701TIP3   OH214066   3.809   5.290   1.689
 4701TIP3    H114067   3.825   5.376   1.729
 4701TIP3    H214068   3.817   5.229   1.762
 4702TIP3   OH214069   1.999   1.905   3.399
 4702TIP3    H114070   2.025   1.816   3.419
 4702TIP3    H214071   1.940   1.929   3.471
 4703TIP3   OH214072   2.489   4.483   2.915
 4703TIP3    H114073   2.425   4.481   2.844
 4703TIP3    H214074   2.448   4.536   2.983
 4704TIP3   OH214075   2.847   2.989   1.881
 4704TIP3    H114076   2.814   2.903   1.904
 4704TIP3    H214077   2.934   2.994   1.922
 4705TIP3   OH214078   1.993   4.987   3.189
 4705TIP3    H114079   2.026   4.897   3.179
 4705TIP3    H214080   2.062   5.042   3.151
 4706TIP3   OH214081   1.895   3.964   5.638
 4706TIP3    H114082   1.876   3.884   5.686
 4706TIP3    H214083   1.874   3.943   5.546
 4707TIP3   OH214084   1.018   6.387   2.672
 4707TIP3    H114085   0.945   6.362   2.729
 4707TIP3    H214086   1.092   6.398   2.732
 4708TIP3   OH214087   7.079   1.301   3.702
 4708TIP3    H114088   7.057   1.385   3.663
 4708TIP3    H214089   7.056   1.237   3.635
 4709TIP3   OH214090   3.879   4.422   5.663
 4709TIP3    H114091   3.934   4.425   5.741
 4709TIP3    H214092   3.793   4.454   5.692
 4710TIP3   OH214093   3.825   5.050   2.762
 4710TIP3    H114094   3.772   4.985   2.717
 4710TIP3    H214095   3.836   5.015   2.850
 4711TIP3   OH214096   4.536   5.034   3.620
 4711TIP3    H114097   4.589   5.100   3.666
 4711TIP3    H214098   4.447   5.067   3.624
 4712TIP3   OH214099   2.543   6.473   2.542
 4712TIP3    H114100   2.630   6.473   2.502
 4712TIP3    H214101   2.551   6.533   2.616
 4713TIP3   OH214102   0.751   0.767   1.538
 4713TIP3    H114103   0.737   0.767   1.443
 4713TIP3    H214104   0.730   0.677   1.565
 4714TIP3   OH214105   4.691   2.349   0.731
 4714TIP3    H114106   4.668   2.441   0.747
 4714TIP3    H214107   4.634   2.321   0.661
 4715TIP3   OH214108   1.368   3.881   1.727
 4715TIP3    H114109   1.312   3.954   1.754
 4715TIP3    H214110   1.321   3.842   1.653
 4716TIP3   OH214111   6.343   4.832   4.116
 4716TIP3    H114112   6.421   4.777   4.122
 4716TIP3    H214113   6.347   4.870   4.028
 4717TIP3   OH214114   4.221   4.853   2.690
 4717TIP3    H114115   4.288   4.825   2.628
 4717TIP3    H214116   4.211   4.947   2.675
 4718TIP3   OH214117   2.598   0.392   0.017
 4718TIP3    H114118   2.589   0.366   0.109
 4718TIP3    H214119   2.596   0.488   0.019
 4719TIP3   OH214120   6.074   6.672   3.819
 4719TIP3    H114121   6.034   6.654   3.904
 4719TIP3    H214122   6.010   6.640   3.755
 4720TIP3   OH214123   3.682   0.671   5.142
 4720TIP3    H114124   3.640   0.704   5.063
 4720TIP3    H214125   3.770   0.710   5.140
 4721TIP3   OH214126   5.247   2.544   1.664
 4721TIP3    H114127   5.171   2.499   1.628
 4721TIP3    H214128   5.322   2.502   1.620
 4722TIP3   OH214129   1.829   3.738   5.798
 4722TIP3    H114130   1.843   3.757   5.891
 4722TIP3    H214131   1.824   3.643   5.794
 4723TIP3   OH214132   5.866   0.940   2.149
 4723TIP3    H114133   5.862   0.965   2.241
 4723TIP3    H214134   5.956   0.958   2.122
 4724TIP3   OH214135   5.068   5.551  -0.001
 4724TIP3    H114136   5.094   5.632   0.042
 4724TIP3    H214137   4.983   5.570  -0.039
 4725TIP3   OH214138   2.384   5.200   2.875
 4725TIP3    H114139   2.303   5.208   2.825
 4725TIP3    H214140   2.448   5.251   2.826
 4726TIP3   OH214141   2.150   3.423   4.224
 4726TIP3    H114142   2.237   3.385   4.237
 4726TIP3    H214143   2.104   3.358   4.171
 4727TIP3   OH214144   5.740   5.636   4.805
 4727TIP3    H114145   5.675   5.703   4.826
 4727TIP3    H214146   5.767   5.602   4.891
 4728TIP3   OH214147   6.999   0.798   1.426
 4728TIP3    H114148   7.024   0.795   1.518
 4728TIP3    H214149   6.969   0.887   1.412
 4729TIP3   OH214150   1.173   6.341   2.433
 4729TIP3    H114151   1.160   6.246   2.436
 4729TIP3    H214152   1.103   6.377   2.487
 4730TIP3   OH214153   3.920   2.417   1.605
 4730TIP3    H114154   4.003   2.394   1.563
 4730TIP3    H214155   3.911   2.354   1.677
 4731TIP3   OH214156   6.842   0.984   3.614
 4731TIP3    H114157   6.926   1.014   3.578
 4731TIP3    H214158   6.861   0.959   3.704
 4732TIP3   OH214159   1.819   4.517   5.284
 4732TIP3    H114160   1.826   4.522   5.380
 4732TIP3    H214161   1.907   4.539   5.253
 4733TIP3   OH214162   6.327   5.045   0.608
 4733TIP3    H114163   6.401   5.080   0.558
 4733TIP3    H214164   6.250   5.079   0.563
 4734TIP3   OH214165   6.752   3.878   5.063
 4734TIP3    H114166   6.837   3.911   5.033
 4734TIP3    H214167   6.704   3.860   4.983
 4735TIP3   OH214168   6.352   6.146   1.880
 4735TIP3    H114169   6.342   6.078   1.946
 4735TIP3    H214170   6.285   6.211   1.902
 4736TIP3   OH214171   5.274   6.389   1.523
 4736TIP3    H114172   5.321   6.379   1.606
 4736TIP3    H214173   5.287   6.481   1.499
 4737TIP3   OH214174   1.246   3.698   3.503
 4737TIP3    H114175   1.280   3.771   3.451
 4737TIP3    H214176   1.288   3.621   3.467
 4738TIP3   OH214177   4.632   6.078   4.565
 4738TIP3    H114178   4.563   6.144   4.570
 4738TIP3    H214179   4.710   6.123   4.597
 4739TIP3   OH214180   5.680   3.235   1.942
 4739TIP3    H114181   5.608   3.194   1.893
 4739TIP3    H214182   5.656   3.327   1.947
 4740TIP3   OH214183   6.316   6.522   4.174
 4740TIP3    H114184   6.401   6.484   4.194
 4740TIP3    H214185   6.261   6.448   4.149
 4741TIP3   OH214186   6.357   0.836   1.804
 4741TIP3    H114187   6.366   0.786   1.723
 4741TIP3    H214188   6.446   0.838   1.840
 4742TIP3   OH214189   5.493   4.097   4.634
 4742TIP3    H114190   5.544   4.126   4.710
 4742TIP3    H214191   5.502   4.002   4.633
 4743TIP3   OH214192   1.134   1.940   0.928
 4743TIP3    H114193   1.164   2.022   0.888
 4743TIP3    H214194   1.117   1.882   0.854
 4744TIP3   OH214195   4.242   4.760   0.218
 4744TIP3    H114196   4.276   4.849   0.229
 4744TIP3    H214197   4.207   4.737   0.304
 4745TIP3   OH214198   0.461   5.146   4.435
 4745TIP3    H114199   0.526   5.135   4.505
 4745TIP3    H214200   0.396   5.078   4.452
 4746TIP3   OH214201   0.805   6.207   4.752
 4746TIP3    H114202   0.717   6.236   4.729
 4746TIP3    H214203   0.832   6.268   4.821
 4747TIP3   OH214204   0.571   5.257   0.557
 4747TIP3    H114205   0.528   5.240   0.641
 4747TIP3    H214206   0.599   5.348   0.563
 4748TIP3   OH214207   2.350   0.695   2.337
 4748TIP3    H114208   2.255   0.692   2.343
 4748TIP3    H214209   2.380   0.654   2.418
 4749TIP3   OH214210   2.831   5.299   2.220
 4749TIP3    H114211   2.851   5.393   2.216
 4749TIP3    H214212   2.738   5.294   2.200
 4750TIP3   OH214213   2.107   4.345   2.034
 4750TIP3    H114214   2.195   4.322   2.061
 4750TIP3    H214215   2.050   4.304   2.100
 4751TIP3   OH214216   1.838   3.531   4.922
 4751TIP3    H114217   1.793   3.585   4.857
 4751TIP3    H214218   1.787   3.543   5.002
 4752TIP3   OH214219   4.109   2.408   2.105
 4752TIP3    H114220   4.140   2.335   2.158
 4752TIP3    H214221   4.026   2.378   2.068
 4753TIP3   OH214222   6.883   6.442   2.468
 4753TIP3    H114223   6.845   6.528   2.483
 4753TIP3    H214224   6.973   6.449   2.501
 4754TIP3   OH214225   4.509   1.289   0.467
 4754TIP3    H114226   4.422   1.318   0.495
 4754TIP3    H214227   4.537   1.353   0.402
 4755TIP3   OH214228   3.911   4.146   4.598
 4755TIP3    H114229   3.898   4.122   4.506
 4755TIP3    H214230   3.822   4.152   4.633
 4756TIP3   OH214231   1.754   3.091   2.093
 4756TIP3    H114232   1.686   3.128   2.149
 4756TIP3    H214233   1.811   3.043   2.152
 4757TIP3   OH214234   0.040   1.240   5.643
 4757TIP3    H114235   0.091   1.244   5.563
 4757TIP3    H214236   0.099   1.201   5.707
 4758TIP3   OH214237   4.215   0.267   0.393
 4758TIP3    H114238   4.164   0.306   0.323
 4758TIP3    H214239   4.161   0.195   0.426
 4759TIP3   OH214240   0.447   6.483   3.036
 4759TIP3    H114241   0.457   6.388   3.025
 4759TIP3    H214242   0.442   6.496   3.130
 4760TIP3   OH214243   2.480   0.795   2.681
 4760TIP3    H114244   2.419   0.847   2.629
 4760TIP3    H214245   2.442   0.793   2.769
 4761TIP3   OH214246   2.041   2.278   0.301
 4761TIP3    H114247   1.964   2.318   0.341
 4761TIP3    H214248   2.113   2.338   0.322
 4762TIP3   OH214249   6.412   5.985   1.624
 4762TIP3    H114250   6.419   6.077   1.597
 4762TIP3    H214251   6.346   5.985   1.693
 4763TIP3   OH214252   5.865   0.592   2.699
 4763TIP3    H114253   5.911   0.548   2.771
 4763TIP3    H214254   5.823   0.521   2.650
 4764TIP3   OH214255   5.726   3.617   1.145
 4764TIP3    H114256   5.819   3.613   1.123
 4764TIP3    H214257   5.683   3.561   1.080
 4765TIP3   OH214258   6.591   3.017   4.334
 4765TIP3    H114259   6.496   3.021   4.324
 4765TIP3    H214260   6.610   3.075   4.407
 4766TIP3   OH214261   0.360   4.188   2.522
 4766TIP3    H114262   0.318   4.225   2.599
 4766TIP3    H214263   0.362   4.094   2.538
 4767TIP3   OH214264   6.840   1.555   3.383
 4767TIP3    H114265   6.778   1.482   3.388
 4767TIP3    H214266   6.786   1.632   3.366
 4768TIP3   OH214267   0.283   1.181   1.230
 4768TIP3    H114268   0.230   1.138   1.297
 4768TIP3    H214269   0.369   1.141   1.237
 4769TIP3   OH214270   6.771   2.269   5.155
 4769TIP3    H114271   6.686   2.309   5.138
 4769TIP3    H214272   6.827   2.341   5.182
 4770TIP3   OH214273   6.684   3.153   5.382
 4770TIP3    H114274   6.705   3.125   5.293
 4770TIP3    H214275   6.588   3.153   5.385
 4771TIP3   OH214276   3.825   0.697   5.482
 4771TIP3    H114277   3.904   0.727   5.527
 4771TIP3    H214278   3.754   0.743   5.526
 4772TIP3   OH214279   6.082   2.319   1.067
 4772TIP3    H114280   5.991   2.338   1.045
 4772TIP3    H214281   6.077   2.261   1.143
 4773TIP3   OH214282   2.802   4.500   3.854
 4773TIP3    H114283   2.764   4.466   3.773
 4773TIP3    H214284   2.815   4.593   3.837
 4774TIP3   OH214285   1.737   4.122   2.141
 4774TIP3    H114286   1.833   4.120   2.150
 4774TIP3    H214287   1.705   4.112   2.230
 4775TIP3   OH214288   1.516   5.121   4.344
 4775TIP3    H114289   1.589   5.180   4.324
 4775TIP3    H214290   1.466   5.168   4.412
 4776TIP3   OH214291   5.548   5.785   0.615
 4776TIP3    H114292   5.643   5.775   0.617
 4776TIP3    H214293   5.532   5.850   0.547
 4777TIP3   OH214294   6.806   0.145   5.180
 4777TIP3    H114295   6.893   0.108   5.197
 4777TIP3    H214296   6.801   0.221   5.238
 4778TIP3   OH214297   0.934   5.104   2.080
 4778TIP3    H114298   0.988   5.038   2.036
 4778TIP3    H214299   0.859   5.115   2.022
 4779TIP3   OH214300   6.019   5.480   5.328
 4779TIP3    H114301   5.977   5.458   5.245
 4779TIP3    H214302   6.092   5.536   5.304
 4780TIP3   OH214303   1.037   1.921   4.677
 4780TIP3    H114304   1.003   1.976   4.748
 4780TIP3    H214305   1.112   1.876   4.715
 4781TIP3   OH214306   3.297   6.324   0.871
 4781TIP3    H114307   3.222   6.377   0.841
 4781TIP3    H214308   3.293   6.329   0.966
 4782TIP3   OH214309   6.813   0.046   3.617
 4782TIP3    H114310   6.813   0.074   3.709
 4782TIP3    H214311   6.767   0.115   3.570
 4783TIP3   OH214312   1.589   6.548   5.818
 4783TIP3    H114313   1.576   6.489   5.892
 4783TIP3    H214314   1.519   6.525   5.757
 4784TIP3   OH214315   0.469   3.118   2.606
 4784TIP3    H114316   0.439   3.029   2.620
 4784TIP3    H214317   0.555   3.108   2.565
 4785TIP3   OH214318   6.302   1.782   2.360
 4785TIP3    H114319   6.246   1.823   2.426
 4785TIP3    H214320   6.257   1.798   2.277
 4786TIP3   OH214321   0.320   6.808   1.956
 4786TIP3    H114322   0.243   6.785   1.904
 4786TIP3    H214323   0.386   6.744   1.930
 4787TIP3   OH214324   7.109   1.990   5.767
 4787TIP3    H114325   7.134   1.997   5.859
 4787TIP3    H214326   7.103   1.896   5.750
 4788TIP3   OH214327   5.600   0.650   2.386
 4788TIP3    H114328   5.655   0.583   2.346
 4788TIP3    H214329   5.571   0.611   2.468
 4789TIP3   OH214330   6.021   5.974   4.139
 4789TIP3    H114331   5.965   5.903   4.107
 4789TIP3    H214332   6.078   5.995   4.066
 4790TIP3   OH214333   1.529   6.209   0.970
 4790TIP3    H114334   1.493   6.169   1.049
 4790TIP3    H214335   1.620   6.179   0.969
 4791TIP3   OH214336   0.830   2.877   1.271
 4791TIP3    H114337   0.852   2.854   1.361
 4791TIP3    H214338   0.754   2.935   1.279
 4792TIP3   OH214339   1.818   1.250   2.998
 4792TIP3    H114340   1.737   1.264   2.950
 4792TIP3    H214341   1.868   1.331   2.985
 4793TIP3   OH214342   2.996   5.475   4.084
 4793TIP3    H114343   3.065   5.476   4.150
 4793TIP3    H214344   2.994   5.564   4.050
 4794TIP3   OH214345   4.394   2.063   2.035
 4794TIP3    H114346   4.466   2.125   2.019
 4794TIP3    H214347   4.435   1.992   2.084
 4795TIP3   OH214348   4.964   2.002   0.729
 4795TIP3    H114349   4.886   1.987   0.676
 4795TIP3    H214350   4.931   2.002   0.819
 4796TIP3   OH214351   0.898   3.934   1.604
 4796TIP3    H114352   0.806   3.951   1.626
 4796TIP3    H214353   0.894   3.865   1.538
 4797TIP3   OH214354   5.718   0.735   2.027
 4797TIP3    H114355   5.743   0.784   2.105
 4797TIP3    H214356   5.741   0.792   1.954
 4798TIP3   OH214357   0.182   4.393   2.980
 4798TIP3    H114358   0.240   4.435   2.916
 4798TIP3    H214359   0.097   4.433   2.965
 4799TIP3   OH214360   4.566   1.160   4.148
 4799TIP3    H114361   4.611   1.164   4.232
 4799TIP3    H214362   4.622   1.105   4.093
 4800TIP3   OH214363   0.494   2.174   3.175
 4800TIP3    H114364   0.479   2.084   3.144
 4800TIP3    H214365   0.498   2.166   3.270
 4801TIP3   OH214366   1.878   5.879   2.791
 4801TIP3    H114367   1.922   5.921   2.718
 4801TIP3    H214368   1.835   5.951   2.838
 4802TIP3   OH214369   2.050   6.703   3.783
 4802TIP3    H114370   2.102   6.639   3.832
 4802TIP3    H214371   1.967   6.658   3.768
 4803TIP3   OH214372   4.187   0.631   1.658
 4803TIP3    H114373   4.189   0.650   1.564
 4803TIP3    H214374   4.093   0.629   1.679
 4804TIP3   OH214375   6.413   0.503   2.182
 4804TIP3    H114376   6.490   0.534   2.134
 4804TIP3    H214377   6.449   0.470   2.265
 4805TIP3   OH214378   3.385   5.084   0.530
 4805TIP3    H114379   3.341   5.063   0.448
 4805TIP3    H214380   3.405   4.999   0.569
 4806TIP3   OH214381   3.327   4.507   2.381
 4806TIP3    H114382   3.370   4.449   2.443
 4806TIP3    H214383   3.317   4.590   2.428
 4807TIP3   OH214384   6.804   0.751   1.049
 4807TIP3    H114385   6.762   0.780   0.968
 4807TIP3    H214386   6.753   0.674   1.076
 4808TIP3   OH214387   0.738   3.802   1.889
 4808TIP3    H114388   0.808   3.855   1.928
 4808TIP3    H214389   0.717   3.847   1.807
 4809TIP3   OH214390   3.970   3.107   4.965
 4809TIP3    H114391   3.953   3.056   4.886
 4809TIP3    H214392   4.065   3.108   4.973
 4810TIP3   OH214393   1.803   5.656   2.405
 4810TIP3    H114394   1.796   5.569   2.445
 4810TIP3    H214395   1.737   5.709   2.450
 4811TIP3   OH214396   0.606   2.876   1.786
 4811TIP3    H114397   0.527   2.854   1.834
 4811TIP3    H214398   0.674   2.887   1.853
 4812TIP3   OH214399   5.213   4.496   5.819
 4812TIP3    H114400   5.133   4.502   5.872
 4812TIP3    H214401   5.281   4.473   5.882
 4813TIP3   OH214402   2.158   0.876   4.425
 4813TIP3    H114403   2.068   0.900   4.406
 4813TIP3    H214404   2.154   0.835   4.512
 4814TIP3   OH214405   4.233   6.461   3.846
 4814TIP3    H114406   4.184   6.487   3.924
 4814TIP3    H214407   4.190   6.507   3.774
 4815TIP3   OH214408   5.496   6.216   5.189
 4815TIP3    H114409   5.566   6.216   5.253
 4815TIP3    H214410   5.470   6.307   5.181
 4816TIP3   OH214411   2.054   5.175   1.742
 4816TIP3    H114412   2.123   5.117   1.773
 4816TIP3    H214413   2.041   5.237   1.814
 4817TIP3   OH214414   2.100   0.747   1.910
 4817TIP3    H114415   2.127   0.781   1.825
 4817TIP3    H214416   2.019   0.795   1.930
 4818TIP3   OH214417   6.065   4.789   5.682
 4818TIP3    H114418   5.987   4.808   5.734
 4818TIP3    H214419   6.105   4.874   5.666
 4819TIP3   OH214420   1.293   2.942   2.390
 4819TIP3    H114421   1.256   2.861   2.425
 4819TIP3    H214422   1.258   2.948   2.301
 4820TIP3   OH214423   0.638   5.401   2.910
 4820TIP3    H114424   0.601   5.370   2.827
 4820TIP3    H214425   0.636   5.497   2.902
 4821TIP3   OH214426   5.959   2.712   3.993
 4821TIP3    H114427   5.928   2.788   4.043
 4821TIP3    H214428   6.052   2.728   3.980
 4822TIP3   OH214429   6.374   0.861   3.653
 4822TIP3    H114430   6.352   0.942   3.605
 4822TIP3    H214431   6.452   0.883   3.703
 4823TIP3   OH214432   4.008   1.332   1.199
 4823TIP3    H114433   4.013   1.417   1.243
 4823TIP3    H214434   4.046   1.270   1.262
 4824TIP3   OH214435   5.293   4.220   2.231
 4824TIP3    H114436   5.349   4.278   2.282
 4824TIP3    H214437   5.207   4.227   2.273
 4825TIP3   OH214438   4.122   1.292   1.753
 4825TIP3    H114439   4.071   1.368   1.780
 4825TIP3    H214440   4.060   1.237   1.706
 4826TIP3   OH214441   0.007   1.394   4.718
 4826TIP3    H114442   0.094   1.433   4.718
 4826TIP3    H214443  -0.046   1.455   4.771
 4827TIP3   OH214444   2.771   4.045   0.597
 4827TIP3    H114445   2.803   4.063   0.508
 4827TIP3    H214446   2.800   4.121   0.648
 4828TIP3   OH214447   2.932   1.938   2.082
 4828TIP3    H114448   2.975   1.915   2.000
 4828TIP3    H214449   2.839   1.932   2.063
 4829TIP3   OH214450   5.552   1.430   0.605
 4829TIP3    H114451   5.625   1.485   0.633
 4829TIP3    H214452   5.583   1.388   0.525
 4830TIP3   OH214453   6.092   3.232   3.796
 4830TIP3    H114454   6.013   3.222   3.848
 4830TIP3    H214455   6.081   3.171   3.723
 4831TIP3   OH214456   3.105   4.450   5.873
 4831TIP3    H114457   3.143   4.496   5.798
 4831TIP3    H214458   3.070   4.520   5.928
 4832TIP3   OH214459   0.872   4.596   3.495
 4832TIP3    H114460   0.869   4.525   3.559
 4832TIP3    H214461   0.927   4.663   3.535
 4833TIP3   OH214462   3.737   2.616   1.106
 4833TIP3    H114463   3.749   2.595   1.199
 4833TIP3    H214464   3.712   2.708   1.104
 4834TIP3   OH214465   1.855   2.013   1.903
 4834TIP3    H114466   1.917   1.951   1.865
 4834TIP3    H214467   1.839   1.980   1.992
 4835TIP3   OH214468   4.656   4.539   0.578
 4835TIP3    H114469   4.671   4.537   0.672
 4835TIP3    H214470   4.625   4.629   0.561
 4836TIP3   OH214471   1.423   1.962   2.337
 4836TIP3    H114472   1.442   1.891   2.398
 4836TIP3    H214473   1.509   1.997   2.313
 4837TIP3   OH214474   2.341   5.121   3.336
 4837TIP3    H114475   2.312   5.177   3.264
 4837TIP3    H214476   2.299   5.158   3.413
 4838TIP3   OH214477   1.847   4.212   1.897
 4838TIP3    H114478   1.822   4.172   1.980
 4838TIP3    H214479   1.879   4.139   1.844
 4839TIP3   OH214480   5.154   2.245   3.138
 4839TIP3    H114481   5.207   2.252   3.217
 4839TIP3    H214482   5.157   2.332   3.099
 4840TIP3   OH214483   0.801   3.934   2.905
 4840TIP3    H114484   0.746   3.892   2.970
 4840TIP3    H214485   0.745   3.942   2.827
 4841TIP3   OH214486   6.312   2.079   1.676
 4841TIP3    H114487   6.313   2.174   1.668
 4841TIP3    H214488   6.236   2.061   1.732
 4842TIP3   OH214489   3.500   1.241   0.833
 4842TIP3    H114490   3.455   1.190   0.900
 4842TIP3    H214491   3.439   1.312   0.812
 4843TIP3   OH214492   2.808   0.583   1.127
 4843TIP3    H114493   2.757   0.637   1.187
 4843TIP3    H214494   2.781   0.612   1.040
 4844TIP3   OH214495   6.521   2.318   0.864
 4844TIP3    H114496   6.431   2.350   0.864
 4844TIP3    H214497   6.547   2.321   0.956
 4845TIP3   OH214498   1.059   6.479   4.120
 4845TIP3    H114499   1.039   6.569   4.144
 4845TIP3    H214500   0.975   6.433   4.128
 4846TIP3   OH214501   6.828   1.491   5.822
 4846TIP3    H114502   6.911   1.456   5.791
 4846TIP3    H214503   6.841   1.585   5.826
 4847TIP3   OH214504   2.458   0.118   3.503
 4847TIP3    H114505   2.538   0.101   3.552
 4847TIP3    H214506   2.489   0.140   3.415
 4848TIP3   OH214507   0.623   4.120   1.411
 4848TIP3    H114508   0.600   4.037   1.369
 4848TIP3    H214509   0.698   4.152   1.361
 4849TIP3   OH214510   2.352   4.226   2.050
 4849TIP3    H114511   2.310   4.144   2.025
 4849TIP3    H214512   2.445   4.205   2.051
 4850TIP3   OH214513   1.035   6.008   3.394
 4850TIP3    H114514   0.954   5.961   3.375
 4850TIP3    H214515   1.104   5.942   3.388
 4851TIP3   OH214516   0.830   0.416   2.516
 4851TIP3    H114517   0.881   0.383   2.590
 4851TIP3    H214518   0.740   0.419   2.550
 4852TIP3   OH214519   2.755   1.325   2.621
 4852TIP3    H114520   2.808   1.269   2.565
 4852TIP3    H214521   2.694   1.266   2.664
 4853TIP3   OH214522   2.702   0.531   5.286
 4853TIP3    H114523   2.789   0.571   5.293
 4853TIP3    H214524   2.642   0.600   5.313
 4854TIP3   OH214525   5.424   1.835   5.487
 4854TIP3    H114526   5.379   1.769   5.435
 4854TIP3    H214527   5.374   1.840   5.569
 4855TIP3   OH214528   5.151   2.837   0.089
 4855TIP3    H114529   5.139   2.743   0.106
 4855TIP3    H214530   5.177   2.873   0.173
 4856TIP3   OH214531   4.565   3.567   0.324
 4856TIP3    H114532   4.638   3.509   0.345
 4856TIP3    H214533   4.513   3.570   0.404
 4857TIP3   OH214534   2.803   6.153   3.257
 4857TIP3    H114535   2.797   6.122   3.166
 4857TIP3    H214536   2.731   6.215   3.266
 4858TIP3   OH214537   1.591   4.907   4.559
 4858TIP3    H114538   1.626   4.819   4.539
 4858TIP3    H214539   1.622   4.961   4.487
 4859TIP3   OH214540   0.061   0.177   0.058
 4859TIP3    H114541   0.058   0.249   0.122
 4859TIP3    H214542   0.147   0.137   0.071
 4860TIP3   OH214543   0.042   5.213   5.509
 4860TIP3    H114544  -0.025   5.219   5.441
 4860TIP3    H214545   0.125   5.212   5.460
 4861TIP3   OH214546   5.878   4.499   2.691
 4861TIP3    H114547   5.847   4.589   2.696
 4861TIP3    H214548   5.973   4.506   2.689
 4862TIP3   OH214549   5.219   1.225   1.546
 4862TIP3    H114550   5.186   1.281   1.475
 4862TIP3    H214551   5.262   1.153   1.501
 4863TIP3   OH214552   2.949   5.243   5.858
 4863TIP3    H114553   2.954   5.249   5.763
 4863TIP3    H214554   3.025   5.292   5.890
 4864TIP3   OH214555   2.845   4.077   0.322
 4864TIP3    H114556   2.759   4.115   0.303
 4864TIP3    H214557   2.906   4.151   0.312
 4865TIP3   OH214558   5.585   4.772   0.413
 4865TIP3    H114559   5.517   4.828   0.449
 4865TIP3    H214560   5.547   4.684   0.417
 4866TIP3   OH214561   3.543   1.438   0.374
 4866TIP3    H114562   3.557   1.436   0.469
 4866TIP3    H214563   3.608   1.502   0.343
 4867TIP3   OH214564   1.725   6.276   2.058
 4867TIP3    H114565   1.768   6.361   2.048
 4867TIP3    H214566   1.632   6.295   2.054
 4868TIP3   OH214567   4.015   5.352   2.056
 4868TIP3    H114568   4.068   5.430   2.072
 4868TIP3    H214569   3.949   5.353   2.125
 4869TIP3   OH214570   4.831   4.040   3.569
 4869TIP3    H114571   4.862   4.131   3.567
 4869TIP3    H214572   4.765   4.039   3.638
 4870TIP3   OH214573   0.677   2.543   4.534
 4870TIP3    H114574   0.612   2.472   4.533
 4870TIP3    H214575   0.633   2.615   4.490
 4871TIP3   OH214576   3.673   1.007   2.801
 4871TIP3    H114577   3.606   1.028   2.866
 4871TIP3    H214578   3.698   1.092   2.765
 4872TIP3   OH214579   7.004   6.447   1.467
 4872TIP3    H114580   7.059   6.427   1.391
 4872TIP3    H214581   7.058   6.423   1.542
 4873TIP3   OH214582   5.237   5.474   2.368
 4873TIP3    H114583   5.171   5.407   2.353
 4873TIP3    H214584   5.268   5.497   2.280
 4874TIP3   OH214585   4.858   1.194   0.324
 4874TIP3    H114586   4.896   1.146   0.251
 4874TIP3    H214587   4.867   1.136   0.399
 4875TIP3   OH214588   4.616   5.733   4.836
 4875TIP3    H114589   4.674   5.772   4.902
 4875TIP3    H214590   4.633   5.639   4.842
 4876TIP3   OH214591   6.237   4.758   0.968
 4876TIP3    H114592   6.256   4.842   1.010
 4876TIP3    H214593   6.216   4.782   0.878
 4877TIP3   OH214594   3.104   2.267   5.804
 4877TIP3    H114595   3.124   2.207   5.732
 4877TIP3    H214596   3.009   2.279   5.799
 4878TIP3   OH214597   4.039   6.230   3.958
 4878TIP3    H114598   4.122   6.278   3.961
 4878TIP3    H214599   3.996   6.262   3.878
 4879TIP3   OH214600   3.960   0.918   3.916
 4879TIP3    H114601   4.035   0.951   3.868
 4879TIP3    H214602   3.995   0.892   4.001
 4880TIP3   OH214603   1.692   3.873   1.563
 4880TIP3    H114604   1.775   3.829   1.579
 4880TIP3    H214605   1.708   3.964   1.589
 4881TIP3   OH214606   2.525   2.803   4.897
 4881TIP3    H114607   2.548   2.844   4.814
 4881TIP3    H214608   2.430   2.808   4.901
 4882TIP3   OH214609   3.784   6.220   5.064
 4882TIP3    H114610   3.726   6.147   5.045
 4882TIP3    H214611   3.813   6.205   5.154
 4883TIP3   OH214612   6.586   6.739   5.265
 4883TIP3    H114613   6.641   6.790   5.323
 4883TIP3    H214614   6.640   6.724   5.187
 4884TIP3   OH214615   6.473   0.845   1.188
 4884TIP3    H114616   6.455   0.909   1.257
 4884TIP3    H214617   6.565   0.822   1.199
 4885TIP3   OH214618   4.755   1.183   4.384
 4885TIP3    H114619   4.847   1.210   4.387
 4885TIP3    H214620   4.710   1.243   4.443
 4886TIP3   OH214621   6.651   4.474   2.720
 4886TIP3    H114622   6.714   4.524   2.772
 4886TIP3    H214623   6.674   4.383   2.734
 4887TIP3   OH214624   1.434   5.765   4.900
 4887TIP3    H114625   1.492   5.689   4.905
 4887TIP3    H214626   1.346   5.729   4.899
 4888TIP3   OH214627   5.739   2.902   2.974
 4888TIP3    H114628   5.644   2.894   2.978
 4888TIP3    H214629   5.754   2.994   2.953
 4889TIP3   OH214630   2.578   1.934   2.956
 4889TIP3    H114631   2.557   1.895   2.871
 4889TIP3    H214632   2.674   1.935   2.958
 4890TIP3   OH214633   1.847   5.191   0.745
 4890TIP3    H114634   1.831   5.285   0.740
 4890TIP3    H214635   1.765   5.155   0.778
 4891TIP3   OH214636   2.790   6.045   3.005
 4891TIP3    H114637   2.738   6.084   2.934
 4891TIP3    H214638   2.870   6.016   2.962
 4892TIP3   OH214639   1.766   0.492   1.099
 4892TIP3    H114640   1.840   0.433   1.114
 4892TIP3    H214641   1.726   0.502   1.186
 4893TIP3   OH214642   2.106   4.990   2.644
 4893TIP3    H114643   2.048   4.952   2.710
 4893TIP3    H214644   2.093   4.936   2.566
 4894TIP3   OH214645   1.776   5.935   0.773
 4894TIP3    H114646   1.741   5.862   0.721
 4894TIP3    H214647   1.824   5.988   0.710
 4895TIP3   OH214648   6.418   5.941   5.731
 4895TIP3    H114649   6.464   5.885   5.794
 4895TIP3    H214650   6.486   6.000   5.698
 4896TIP3   OH214651   3.733   2.811   5.493
 4896TIP3    H114652   3.754   2.745   5.559
 4896TIP3    H214653   3.802   2.877   5.502
 4897TIP3   OH214654   2.642   5.483   0.810
 4897TIP3    H114655   2.678   5.429   0.879
 4897TIP3    H214656   2.684   5.568   0.821
 4898TIP3   OH214657   2.254   5.347   4.560
 4898TIP3    H114658   2.243   5.254   4.544
 4898TIP3    H214659   2.348   5.361   4.559
 4899TIP3   OH214660   1.691   2.264   0.133
 4899TIP3    H114661   1.666   2.248   0.224
 4899TIP3    H214662   1.616   2.233   0.082
 4900TIP3   OH214663   3.552   5.871   5.342
 4900TIP3    H114664   3.469   5.916   5.323
 4900TIP3    H214665   3.575   5.900   5.430
 4901TIP3   OH214666   2.481   1.491   5.088
 4901TIP3    H114667   2.479   1.418   5.026
 4901TIP3    H214668   2.469   1.569   5.035
 4902TIP3   OH214669   5.229   4.708   4.244
 4902TIP3    H114670   5.153   4.728   4.299
 4902TIP3    H214671   5.260   4.623   4.276
 4903TIP3   OH214672   6.792   4.942   1.312
 4903TIP3    H114673   6.737   4.864   1.320
 4903TIP3    H214674   6.880   4.911   1.330
 4904TIP3   OH214675   6.184   0.308   0.811
 4904TIP3    H114676   6.263   0.277   0.768
 4904TIP3    H214677   6.114   0.252   0.777
 4905TIP3   OH214678   0.826   0.564   3.861
 4905TIP3    H114679   0.863   0.643   3.902
 4905TIP3    H214680   0.779   0.521   3.932
 4906TIP3   OH214681   0.679   4.221   4.343
 4906TIP3    H114682   0.766   4.207   4.306
 4906TIP3    H214683   0.676   4.166   4.421
 4907TIP3   OH214684   2.128   5.379   1.290
 4907TIP3    H114685   2.107   5.433   1.365
 4907TIP3    H214686   2.188   5.432   1.237
 4908TIP3   OH214687   6.304   2.383   3.812
 4908TIP3    H114688   6.360   2.353   3.883
 4908TIP3    H214689   6.285   2.304   3.761
 4909TIP3   OH214690   1.045   2.401   3.803
 4909TIP3    H114691   0.996   2.340   3.859
 4909TIP3    H214692   0.979   2.437   3.743
 4910TIP3   OH214693   4.413   6.231   1.044
 4910TIP3    H114694   4.399   6.324   1.027
 4910TIP3    H214695   4.403   6.222   1.139
 4911TIP3   OH214696   1.654   3.411   5.182
 4911TIP3    H114697   1.702   3.491   5.202
 4911TIP3    H214698   1.591   3.437   5.114
 4912TIP3   OH214699   5.130   3.687   2.413
 4912TIP3    H114700   5.076   3.610   2.428
 4912TIP3    H214701   5.070   3.761   2.425
 4913TIP3   OH214702   2.959   5.163   4.585
 4913TIP3    H114703   2.909   5.090   4.621
 4913TIP3    H214704   2.919   5.181   4.500
 4914TIP3   OH214705   3.483   6.748   5.842
 4914TIP3    H114706   3.458   6.685   5.775
 4914TIP3    H214707   3.402   6.764   5.891
 4915TIP3   OH214708   2.902   5.567   4.428
 4915TIP3    H114709   2.919   5.608   4.343
 4915TIP3    H214710   2.811   5.537   4.423
 4916TIP3   OH214711   6.904   3.686   3.676
 4916TIP3    H114712   6.954   3.606   3.694
 4916TIP3    H214713   6.895   3.729   3.761
 4917TIP3   OH214714   2.920   1.163   2.491
 4917TIP3    H114715   2.969   1.171   2.409
 4917TIP3    H214716   2.931   1.071   2.516
 4918TIP3   OH214717   6.922   5.055   1.081
 4918TIP3    H114718   7.008   5.018   1.099
 4918TIP3    H214719   6.880   4.992   1.023
 4919TIP3   OH214720   6.240   5.264   0.221
 4919TIP3    H114721   6.190   5.288   0.299
 4919TIP3    H214722   6.230   5.169   0.213
 4920TIP3   OH214723   1.820   1.945   5.165
 4920TIP3    H114724   1.733   1.963   5.202
 4920TIP3    H214725   1.804   1.876   5.101
 4921TIP3   OH214726   6.403   6.763   0.369
 4921TIP3    H114727   6.483   6.814   0.378
 4921TIP3    H214728   6.431   6.682   0.326
 4922TIP3   OH214729   0.859   1.304   4.872
 4922TIP3    H114730   0.856   1.231   4.933
 4922TIP3    H214731   0.883   1.265   4.788
 4923TIP3   OH214732   3.525   2.200   2.242
 4923TIP3    H114733   3.448   2.255   2.250
 4923TIP3    H214734   3.591   2.241   2.298
 4924TIP3   OH214735   2.558   3.016   2.517
 4924TIP3    H114736   2.517   3.073   2.452
 4924TIP3    H214737   2.573   3.073   2.593
 4925TIP3   OH214738   6.107   1.042   2.084
 4925TIP3    H114739   6.161   1.031   2.162
 4925TIP3    H214740   6.165   1.081   2.018
 4926TIP3   OH214741   0.017   2.845   5.487
 4926TIP3    H114742   0.102   2.878   5.516
 4926TIP3    H214743  -0.018   2.800   5.563
 4927TIP3   OH214744   6.181   2.710   0.174
 4927TIP3    H114745   6.174   2.685   0.266
 4927TIP3    H214746   6.165   2.629   0.126
 4928TIP3   OH214747   6.210   2.625   2.542
 4928TIP3    H114748   6.239   2.571   2.615
 4928TIP3    H214749   6.265   2.598   2.469
 4929TIP3   OH214750   6.081   2.472   1.363
 4929TIP3    H114751   6.044   2.546   1.411
 4929TIP3    H214752   6.062   2.492   1.271
 4930TIP3   OH214753   0.537   2.661   3.155
 4930TIP3    H114754   0.564   2.572   3.178
 4930TIP3    H214755   0.580   2.716   3.221
 4931TIP3   OH214756   2.756   2.278   3.956
 4931TIP3    H114757   2.718   2.196   3.923
 4931TIP3    H214758   2.765   2.333   3.879
 4932TIP3   OH214759   2.348   1.940   3.421
 4932TIP3    H114760   2.433   1.981   3.406
 4932TIP3    H214761   2.356   1.853   3.380
 4933TIP3   OH214762   5.752   0.615   4.794
 4933TIP3    H114763   5.773   0.647   4.882
 4933TIP3    H214764   5.720   0.526   4.808
 4934TIP3   OH214765   1.199   0.968   4.264
 4934TIP3    H114766   1.112   0.981   4.303
 4934TIP3    H214767   1.258   1.019   4.320
 4935TIP3   OH214768   2.076   5.367   0.806
 4935TIP3    H114769   2.039   5.323   0.883
 4935TIP3    H214770   2.033   5.452   0.804
 4936TIP3   OH214771   5.010   0.779   1.192
 4936TIP3    H114772   4.986   0.872   1.187
 4936TIP3    H214773   4.930   0.732   1.165
 4937TIP3   OH214774   1.316   6.788   1.475
 4937TIP3    H114775   1.369   6.747   1.544
 4937TIP3    H214776   1.363   6.767   1.394
 4938TIP3   OH214777   1.564   1.191   1.014
 4938TIP3    H114778   1.524   1.105   1.022
 4938TIP3    H214779   1.574   1.222   1.104
 4939TIP3   OH214780   5.018   3.006   5.300
 4939TIP3    H114781   5.078   3.081   5.302
 4939TIP3    H214782   4.931   3.045   5.292
 4940TIP3   OH214783   6.127   3.995   4.129
 4940TIP3    H114784   6.202   3.954   4.173
 4940TIP3    H214785   6.060   3.927   4.126
 4941TIP3   OH214786   2.372   0.732   2.928
 4941TIP3    H114787   2.365   0.791   3.003
 4941TIP3    H214788   2.314   0.659   2.950
 4942TIP3   OH214789   6.239   0.208   5.217
 4942TIP3    H114790   6.288   0.249   5.146
 4942TIP3    H214791   6.156   0.255   5.219
 4943TIP3   OH214792   4.835   0.360   1.104
 4943TIP3    H114793   4.807   0.349   1.195
 4943TIP3    H214794   4.790   0.290   1.056
 4944TIP3   OH214795   3.519   6.458   2.254
 4944TIP3    H114796   3.478   6.387   2.202
 4944TIP3    H214797   3.605   6.424   2.276
 4945TIP3   OH214798   2.115   1.273   3.872
 4945TIP3    H114799   2.033   1.247   3.829
 4945TIP3    H214800   2.178   1.208   3.844
 4946TIP3   OH214801   3.539   0.863   2.558
 4946TIP3    H114802   3.544   0.953   2.527
 4946TIP3    H214803   3.627   0.828   2.544
 4947TIP3   OH214804   5.125   0.407   2.071
 4947TIP3    H114805   5.061   0.353   2.025
 4947TIP3    H214806   5.074   0.459   2.133
 4948TIP3   OH214807   1.426   0.423   5.198
 4948TIP3    H114808   1.389   0.511   5.207
 4948TIP3    H214809   1.520   0.435   5.212
 4949TIP3   OH214810   6.545   2.770   2.633
 4949TIP3    H114811   6.459   2.736   2.609
 4949TIP3    H214812   6.544   2.773   2.729
 4950TIP3   OH214813   4.568   1.634   3.770
 4950TIP3    H114814   4.543   1.710   3.823
 4950TIP3    H214815   4.598   1.569   3.833
 4951TIP3   OH214816   7.191   3.215   2.789
 4951TIP3    H114817   7.150   3.242   2.706
 4951TIP3    H214818   7.177   3.120   2.793
 4952TIP3   OH214819   6.263   2.278   5.224
 4952TIP3    H114820   6.328   2.221   5.263
 4952TIP3    H214821   6.302   2.366   5.228
 4953TIP3   OH214822   5.224   3.713   0.486
 4953TIP3    H114823   5.290   3.770   0.525
 4953TIP3    H214824   5.156   3.706   0.552
 4954TIP3   OH214825   4.013   4.861   3.038
 4954TIP3    H114826   3.973   4.936   3.081
 4954TIP3    H214827   4.104   4.886   3.024
 4955TIP3   OH214828   0.856   2.132   3.789
 4955TIP3    H114829   0.912   2.058   3.766
 4955TIP3    H214830   0.815   2.157   3.706
 4956TIP3   OH214831   2.341   5.740   3.724
 4956TIP3    H114832   2.322   5.790   3.644
 4956TIP3    H214833   2.338   5.805   3.794
 4957TIP3   OH214834   1.197   1.697   0.058
 4957TIP3    H114835   1.136   1.671   0.128
 4957TIP3    H214836   1.283   1.695   0.099
 4958TIP3   OH214837   5.202   2.831   4.054
 4958TIP3    H114838   5.132   2.770   4.031
 4958TIP3    H214839   5.219   2.879   3.973
 4959TIP3   OH214840   2.547   5.788   2.267
 4959TIP3    H114841   2.586   5.702   2.283
 4959TIP3    H214842   2.454   5.770   2.252
 4960TIP3   OH214843   5.560   1.758   3.116
 4960TIP3    H114844   5.587   1.669   3.098
 4960TIP3    H214845   5.504   1.781   3.042
 4961TIP3   OH214846   0.143   6.823   5.345
 4961TIP3    H114847   0.161   6.912   5.312
 4961TIP3    H214848   0.198   6.815   5.423
 4962TIP3   OH214849   3.299   0.570   2.118
 4962TIP3    H114850   3.268   0.589   2.029
 4962TIP3    H214851   3.224   0.592   2.174
 4963TIP3   OH214852   4.790   3.825   2.353
 4963TIP3    H114853   4.768   3.814   2.261
 4963TIP3    H214854   4.711   3.794   2.399
 4964TIP3   OH214855   0.944   3.968   2.611
 4964TIP3    H114856   0.998   4.037   2.650
 4964TIP3    H214857   0.856   3.984   2.644
 4965TIP3   OH214858   1.048   3.000   3.832
 4965TIP3    H114859   1.125   3.054   3.819
 4965TIP3    H214860   1.077   2.911   3.813
 4966TIP3   OH214861   0.806   2.982   0.989
 4966TIP3    H114862   0.810   2.968   1.083
 4966TIP3    H214863   0.715   2.962   0.965
 4967TIP3   OH214864   3.749   1.905   0.921
 4967TIP3    H114865   3.777   1.869   1.005
 4967TIP3    H214866   3.705   1.833   0.876
 4968TIP3   OH214867   4.892   3.673   4.012
 4968TIP3    H114868   4.982   3.679   4.042
 4968TIP3    H214869   4.840   3.705   4.085
 4969TIP3   OH214870   1.386   0.153   0.848
 4969TIP3    H114871   1.343   0.224   0.896
 4969TIP3    H214872   1.387   0.080   0.910
 4970TIP3   OH214873   7.203   4.359   3.412
 4970TIP3    H114874   7.225   4.447   3.381
 4970TIP3    H214875   7.125   4.334   3.363
 4971TIP3   OH214876   4.126   4.546   0.858
 4971TIP3    H114877   4.197   4.505   0.808
 4971TIP3    H214878   4.069   4.585   0.792
 4972TIP3   OH214879   4.075   5.739   2.857
 4972TIP3    H114880   3.999   5.682   2.842
 4972TIP3    H214881   4.054   5.819   2.809
 4973TIP3   OH214882   1.839   0.540   3.923
 4973TIP3    H114883   1.875   0.463   3.879
 4973TIP3    H214884   1.863   0.614   3.866
 4974TIP3   OH214885   0.096   1.101   4.738
 4974TIP3    H114886   0.017   1.155   4.727
 4974TIP3    H214887   0.167   1.164   4.745
 4975TIP3   OH214888   5.781   5.270   2.270
 4975TIP3    H114889   5.849   5.332   2.242
 4975TIP3    H214890   5.827   5.210   2.330
 4976TIP3   OH214891   6.819   0.717   3.497
 4976TIP3    H114892   6.846   0.671   3.577
 4976TIP3    H214893   6.781   0.799   3.529
 4977TIP3   OH214894   7.145   6.088  -0.005
 4977TIP3    H114895   7.087   6.132   0.056
 4977TIP3    H214896   7.104   6.102  -0.091
 4978TIP3   OH214897   3.856   3.143   0.243
 4978TIP3    H114898   3.855   3.214   0.178
 4978TIP3    H214899   3.918   3.079   0.207
 4979TIP3   OH214900   3.433   6.365   1.395
 4979TIP3    H114901   3.404   6.375   1.486
 4979TIP3    H214902   3.496   6.293   1.398
 4980TIP3   OH214903   3.001   3.900   4.404
 4980TIP3    H114904   2.913   3.937   4.411
 4980TIP3    H214905   3.014   3.885   4.311
 4981TIP3   OH214906   7.055   5.278   0.829
 4981TIP3    H114907   6.960   5.270   0.836
 4981TIP3    H214908   7.073   5.271   0.736
 4982TIP3   OH214909   2.318   2.526   0.140
 4982TIP3    H114910   2.253   2.580   0.187
 4982TIP3    H214911   2.311   2.440   0.181
 4983TIP3   OH214912   3.810   5.228   3.888
 4983TIP3    H114913   3.716   5.210   3.879
 4983TIP3    H214914   3.840   5.238   3.798
 4984TIP3   OH214915   5.088   6.122   5.104
 4984TIP3    H114916   5.151   6.194   5.094
 4984TIP3    H214917   5.015   6.161   5.153
 4985TIP3   OH214918   2.943   1.883   3.643
 4985TIP3    H114919   2.976   1.959   3.691
 4985TIP3    H214920   2.939   1.813   3.708
 4986TIP3   OH214921   1.130   0.093   5.044
 4986TIP3    H114922   1.131   0.097   4.948
 4986TIP3    H214923   1.202   0.032   5.066
 4987TIP3   OH214924   4.145   4.915   1.342
 4987TIP3    H114925   4.086   4.931   1.416
 4987TIP3    H214926   4.232   4.905   1.382
 4988TIP3   OH214927   3.048   2.935   3.013
 4988TIP3    H114928   3.059   3.005   2.949
 4988TIP3    H214929   3.128   2.883   3.006
 4989TIP3   OH214930   1.081   0.215   1.221
 4989TIP3    H114931   1.153   0.220   1.284
 4989TIP3    H214932   1.002   0.223   1.275
 4990TIP3   OH214933   3.137   2.099   3.285
 4990TIP3    H114934   3.182   2.015   3.280
 4990TIP3    H214935   3.182   2.155   3.222
 4991TIP3   OH214936   0.941   1.290   5.510
 4991TIP3    H114937   0.890   1.366   5.540
 4991TIP3    H214938   0.963   1.311   5.419
 4992TIP3   OH214939   6.778   2.723   5.104
 4992TIP3    H114940   6.704   2.783   5.094
 4992TIP3    H214941   6.851   2.766   5.060
 4993TIP3   OH214942   5.517   4.247   0.276
 4993TIP3    H114943   5.552   4.183   0.338
 4993TIP3    H214944   5.447   4.201   0.231
 4994TIP3   OH214945   4.325   3.705   2.275
 4994TIP3    H114946   4.320   3.763   2.199
 4994TIP3    H214947   4.252   3.644   2.263
 4995TIP3   OH214948   0.413   3.467   3.281
 4995TIP3    H114949   0.439   3.484   3.371
 4995TIP3    H214950   0.479   3.511   3.228
 4996TIP3   OH214951   3.410   3.818   5.035
 4996TIP3    H114952   3.342   3.881   5.059
 4996TIP3    H214953   3.486   3.871   5.012
 4997TIP3   OH214954   3.239   5.140   5.552
 4997TIP3    H114955   3.321   5.122   5.599
 4997TIP3    H214956   3.250   5.099   5.467
 4998TIP3   OH214957   2.481   4.625   3.232
 4998TIP3    H114958   2.386   4.625   3.238
 4998TIP3    H214959   2.510   4.693   3.293
 4999TIP3   OH214960   5.376   6.283   1.757
 4999TIP3    H114961   5.375   6.195   1.795
 4999TIP3    H214962   5.393   6.341   1.832
 5000TIP3   OH214963   4.661   4.686   3.782
 5000TIP3    H114964   4.587   4.743   3.803
 5000TIP3    H214965   4.731   4.747   3.758
 5001TIP3   OH214966   5.777   0.286   1.954
 5001TIP3    H114967   5.738   0.279   2.041
 5001TIP3    H214968   5.797   0.379   1.945
 5002TIP3   OH214969   3.670   5.075   1.911
 5002TIP3    H114970   3.623   5.158   1.909
 5002TIP3    H214971   3.604   5.009   1.891
 5003TIP3   OH214972   2.688   6.171   2.387
 5003TIP3    H114973   2.717   6.197   2.300
 5003TIP3    H214974   2.594   6.190   2.387
 5004TIP3   OH214975   5.794   1.321   1.236
 5004TIP3    H114976   5.836   1.286   1.315
 5004TIP3    H214977   5.861   1.313   1.168
 5005TIP3   OH214978   3.742   0.610   4.816
 5005TIP3    H114979   3.681   0.679   4.839
 5005TIP3    H214980   3.737   0.604   4.720
 5006TIP3   OH214981   4.671   1.879   1.086
 5006TIP3    H114982   4.646   1.796   1.046
 5006TIP3    H214983   4.627   1.946   1.033
 5007TIP3   OH214984   3.091   5.702   2.242
 5007TIP3    H114985   3.177   5.712   2.282
 5007TIP3    H214986   3.089   5.768   2.172
 5008TIP3   OH214987   3.567   3.238   4.265
 5008TIP3    H114988   3.588   3.179   4.337
 5008TIP3    H214989   3.480   3.271   4.285
 5009TIP3   OH214990   2.697   3.132   2.049
 5009TIP3    H114991   2.750   3.109   1.973
 5009TIP3    H214992   2.671   3.223   2.034
 5010TIP3   OH214993   0.800   3.038   4.441
 5010TIP3    H114994   0.846   3.060   4.522
 5010TIP3    H214995   0.870   3.019   4.379
 5011TIP3   OH214996   4.257   3.403   1.725
 5011TIP3    H114997   4.195   3.346   1.680
 5011TIP3    H214998   4.343   3.374   1.693
 5012TIP3   OH214999   2.270   2.806   5.000
 5012TIP3    H115000   2.199   2.809   4.935
 5012TIP3    H215001   2.238   2.861   5.072
 5013TIP3   OH215002   6.943   2.266   4.373
 5013TIP3    H115003   6.984   2.262   4.286
 5013TIP3    H215004   6.862   2.216   4.363
 5014TIP3   OH215005   4.875   0.786   3.091
 5014TIP3    H115006   4.915   0.844   3.027
 5014TIP3    H215007   4.816   0.730   3.039
 5015TIP3   OH215008   3.484   3.158   0.730
 5015TIP3    H115009   3.526   3.244   0.733
 5015TIP3    H215010   3.421   3.165   0.658
 5016TIP3   OH215011   4.662   4.668   2.451
 5016TIP3    H115012   4.705   4.707   2.375
 5016TIP3    H215013   4.631   4.743   2.502
 5017TIP3   OH215014   6.048   0.541   3.811
 5017TIP3    H115015   6.028   0.456   3.773
 5017TIP3    H215016   5.994   0.546   3.890
 5018TIP3   OH215017   7.086   2.242   3.733
 5018TIP3    H115018   7.092   2.171   3.797
 5018TIP3    H215019   7.175   2.277   3.727
 5019TIP3   OH215020   2.561   5.400   2.208
 5019TIP3    H115021   2.474   5.378   2.176
 5019TIP3    H215022   2.610   5.423   2.129
 5020TIP3   OH215023   3.166   4.152   3.019
 5020TIP3    H115024   3.148   4.184   3.108
 5020TIP3    H215025   3.123   4.067   3.015
 5021TIP3   OH215026   4.384   3.005   3.760
 5021TIP3    H115027   4.332   3.029   3.683
 5021TIP3    H215028   4.472   2.989   3.726
 5022TIP3   OH215029   2.673   0.063   0.129
 5022TIP3    H115030   2.642   0.131   0.189
 5022TIP3    H215031   2.769   0.072   0.131
 5023TIP3   OH215032   5.279   4.458   4.376
 5023TIP3    H115033   5.189   4.459   4.408
 5023TIP3    H215034   5.307   4.367   4.386
 5024TIP3   OH215035   3.744   5.082   3.532
 5024TIP3    H115036   3.793   5.000   3.536
 5024TIP3    H215037   3.785   5.131   3.460
 5025TIP3   OH215038   5.907   0.886   1.296
 5025TIP3    H115039   5.899   0.930   1.211
 5025TIP3    H215040   5.943   0.800   1.275
 5026TIP3   OH215041   1.206   4.715   2.619
 5026TIP3    H115042   1.292   4.756   2.610
 5026TIP3    H215043   1.224   4.621   2.619
 5027TIP3   OH215044   3.220   5.512   4.247
 5027TIP3    H115045   3.225   5.589   4.304
 5027TIP3    H215046   3.287   5.528   4.180
 5028TIP3   OH215047   0.965   3.692   1.111
 5028TIP3    H115048   0.929   3.605   1.093
 5028TIP3    H215049   1.055   3.689   1.077
 5029TIP3   OH215050   5.085   4.366   4.058
 5029TIP3    H115051   5.135   4.304   4.111
 5029TIP3    H215052   4.998   4.368   4.098
 5030TIP3   OH215053   2.333   5.458   1.139
 5030TIP3    H115054   2.382   5.435   1.060
 5030TIP3    H215055   2.364   5.546   1.162
 5031TIP3   OH215056   3.731   4.852   2.413
 5031TIP3    H115057   3.716   4.945   2.423
 5031TIP3    H215058   3.809   4.835   2.466
 5032TIP3   OH215059   3.180   0.239   2.236
 5032TIP3    H115060   3.173   0.334   2.228
 5032TIP3    H215061   3.126   0.205   2.165
 5033TIP3   OH215062   5.878   0.377   3.318
 5033TIP3    H115063   5.783   0.381   3.311
 5033TIP3    H215064   5.906   0.335   3.236
 5034TIP3   OH215065   6.286   1.177   5.751
 5034TIP3    H115066   6.355   1.206   5.692
 5034TIP3    H215067   6.332   1.137   5.825
 5035TIP3   OH215068   1.912   2.382   1.106
 5035TIP3    H115069   1.960   2.424   1.177
 5035TIP3    H215070   1.820   2.388   1.133
 5036TIP3   OH215071   4.129   2.092   3.703
 5036TIP3    H115072   4.043   2.061   3.733
 5036TIP3    H215073   4.184   2.084   3.781
 5037TIP3   OH215074   4.359   1.953   4.700
 5037TIP3    H115075   4.340   1.933   4.792
 5037TIP3    H215076   4.296   2.022   4.677
 5038TIP3   OH215077   0.721   4.892   2.619
 5038TIP3    H115078   0.797   4.880   2.562
 5038TIP3    H215079   0.728   4.823   2.684
 5039TIP3   OH215080   2.039   1.801   1.829
 5039TIP3    H115081   2.100   1.797   1.756
 5039TIP3    H215082   1.968   1.742   1.805
 5040TIP3   OH215083   0.143   4.237   3.593
 5040TIP3    H115084   0.104   4.279   3.516
 5040TIP3    H215085   0.088   4.160   3.608
 5041TIP3   OH215086   3.426   6.159   1.156
 5041TIP3    H115087   3.487   6.231   1.144
 5041TIP3    H215088   3.374   6.184   1.232
 5042TIP3   OH215089   6.629   2.670   1.884
 5042TIP3    H115090   6.593   2.758   1.894
 5042TIP3    H215091   6.709   2.683   1.832
 5043TIP3   OH215092   0.916   4.423   1.807
 5043TIP3    H115093   0.996   4.443   1.758
 5043TIP3    H215094   0.915   4.327   1.813
 5044TIP3   OH215095   5.902   3.636   0.567
 5044TIP3    H115096   5.883   3.715   0.516
 5044TIP3    H215097   5.953   3.581   0.507
 5045TIP3   OH215098   3.483   3.121   1.348
 5045TIP3    H115099   3.434   3.123   1.266
 5045TIP3    H215100   3.557   3.063   1.330
 5046TIP3   OH215101   0.839   0.426   4.597
 5046TIP3    H115102   0.837   0.497   4.661
 5046TIP3    H215103   0.932   0.403   4.590
 5047TIP3   OH215104   1.205   1.819   5.801
 5047TIP3    H115105   1.257   1.821   5.881
 5047TIP3    H215106   1.249   1.880   5.742
 5048TIP3   OH215107   3.474   3.372   3.886
 5048TIP3    H115108   3.435   3.444   3.936
 5048TIP3    H215109   3.526   3.324   3.951
 5049TIP3   OH215110   6.578   2.093   1.630
 5049TIP3    H115111   6.633   2.046   1.693
 5049TIP3    H215112   6.491   2.057   1.643
 5050TIP3   OH215113   6.227   3.675   1.358
 5050TIP3    H115114   6.267   3.698   1.275
 5050TIP3    H215115   6.143   3.635   1.335
 5051TIP3   OH215116   3.087   6.797   2.555
 5051TIP3    H115117   3.096   6.807   2.649
 5051TIP3    H215118   3.130   6.714   2.536
 5052TIP3   OH215119   6.369   0.479   0.654
 5052TIP3    H115120   6.393   0.570   0.636
 5052TIP3    H215121   6.451   0.437   0.680
 5053TIP3   OH215122   2.369   1.842   1.193
 5053TIP3    H115123   2.394   1.859   1.102
 5053TIP3    H215124   2.288   1.891   1.206
 5054TIP3   OH215125   2.860   4.837   3.995
 5054TIP3    H115126   2.819   4.846   3.909
 5054TIP3    H215127   2.790   4.856   4.057
 5055TIP3   OH215128   2.610   5.256   1.211
 5055TIP3    H115129   2.623   5.233   1.119
 5055TIP3    H215130   2.587   5.173   1.254
 5056TIP3   OH215131   4.884   1.867   3.371
 5056TIP3    H115132   4.969   1.910   3.377
 5056TIP3    H215133   4.904   1.776   3.347
 5057TIP3   OH215134   6.022   6.591   4.588
 5057TIP3    H115135   5.966   6.618   4.515
 5057TIP3    H215136   6.107   6.574   4.548
 5058TIP3   OH215137   2.036   4.762   1.987
 5058TIP3    H115138   2.129   4.743   1.978
 5058TIP3    H215139   1.999   4.746   1.900
 5059TIP3   OH215140   1.590   2.285   0.738
 5059TIP3    H115141   1.502   2.306   0.707
 5059TIP3    H215142   1.636   2.251   0.661
 5060TIP3   OH215143   6.471   6.467   4.767
 5060TIP3    H115144   6.418   6.407   4.714
 5060TIP3    H215145   6.497   6.414   4.843
 5061TIP3   OH215146   0.557   6.320   4.648
 5061TIP3    H115147   0.587   6.394   4.700
 5061TIP3    H215148   0.481   6.353   4.600
 5062TIP3   OH215149   6.312   3.032   3.871
 5062TIP3    H115150   6.364   3.047   3.950
 5062TIP3    H215151   6.251   3.105   3.867
 5063TIP3   OH215152   6.348   3.657   0.812
 5063TIP3    H115153   6.397   3.591   0.862
 5063TIP3    H215154   6.367   3.636   0.720
 5064TIP3   OH215155   2.743   1.464   3.229
 5064TIP3    H115156   2.653   1.483   3.257
 5064TIP3    H215157   2.773   1.545   3.187
 5065TIP3   OH215158   1.078   5.665   5.341
 5065TIP3    H115159   1.017   5.661   5.268
 5065TIP3    H215160   1.143   5.597   5.322
 5066TIP3   OH215161   4.069   1.598   3.457
 5066TIP3    H115162   4.110   1.670   3.409
 5066TIP3    H215163   4.007   1.640   3.516
 5067TIP3   OH215164   3.734   3.037   2.341
 5067TIP3    H115165   3.651   3.005   2.376
 5067TIP3    H215166   3.736   3.130   2.365
 5068TIP3   OH215167   6.233   4.756   2.641
 5068TIP3    H115168   6.269   4.735   2.554
 5068TIP3    H215169   6.283   4.701   2.701
 5069TIP3   OH215170   1.321   0.690   5.187
 5069TIP3    H115171   1.335   0.666   5.095
 5069TIP3    H215172   1.385   0.760   5.203
 5070TIP3   OH215173   5.466   5.182   3.674
 5070TIP3    H115174   5.442   5.090   3.684
 5070TIP3    H215175   5.460   5.198   3.580
 5071TIP3   OH215176   2.410   4.548   0.610
 5071TIP3    H115177   2.401   4.518   0.700
 5071TIP3    H215178   2.502   4.572   0.602
 5072TIP3   OH215179   3.989   0.062   0.402
 5072TIP3    H115180   3.952   0.137   0.450
 5072TIP3    H215181   3.972   0.083   0.310
 5073TIP3   OH215182   5.932   5.739   5.197
 5073TIP3    H115183   5.909   5.783   5.115
 5073TIP3    H215184   5.857   5.682   5.215
 5074TIP3   OH215185   0.793   2.793   3.913
 5074TIP3    H115186   0.881   2.759   3.898
 5074TIP3    H215187   0.806   2.886   3.932
 5075TIP3   OH215188   2.283   6.618   4.981
 5075TIP3    H115189   2.297   6.703   5.022
 5075TIP3    H215190   2.246   6.564   5.051
 5076TIP3   OH215191   3.368   4.400   5.271
 5076TIP3    H115192   3.374   4.337   5.199
 5076TIP3    H215193   3.382   4.485   5.229
 5077TIP3   OH215194   0.796   5.647   5.372
 5077TIP3    H115195   0.789   5.684   5.285
 5077TIP3    H215196   0.889   5.655   5.395
 5078TIP3   OH215197   3.043   6.372   1.382
 5078TIP3    H115198   2.952   6.351   1.402
 5078TIP3    H215199   3.043   6.466   1.368
 5079TIP3   OH215200   5.927   0.212   3.103
 5079TIP3    H115201   5.950   0.207   3.010
 5079TIP3    H215202   5.996   0.163   3.148
 5080TIP3   OH215203   1.687   6.238   4.895
 5080TIP3    H115204   1.604   6.279   4.921
 5080TIP3    H215205   1.679   6.147   4.924
 5081TIP3   OH215206   0.095   3.560   3.745
 5081TIP3    H115207   0.131   3.491   3.800
 5081TIP3    H215208   0.015   3.522   3.708
 5082TIP3   OH215209   4.540   3.323   4.009
 5082TIP3    H115210   4.497   3.237   4.007
 5082TIP3    H215211   4.484   3.376   4.066
 5083TIP3   OH215212   5.021   3.779   3.164
 5083TIP3    H115213   5.008   3.871   3.139
 5083TIP3    H215214   5.116   3.768   3.165
 5084TIP3   OH215215   1.246   4.204   2.944
 5084TIP3    H115216   1.196   4.132   2.905
 5084TIP3    H215217   1.238   4.191   3.038
 5085TIP3   OH215218   2.816   0.578   4.863
 5085TIP3    H115219   2.880   0.578   4.934
 5085TIP3    H215220   2.791   0.670   4.853
 5086TIP3   OH215221   0.457   1.498   2.645
 5086TIP3    H115222   0.375   1.460   2.677
 5086TIP3    H215223   0.434   1.588   2.622
 5087TIP3   OH215224   0.410   2.123   3.977
 5087TIP3    H115225   0.403   2.096   4.068
 5087TIP3    H215226   0.319   2.134   3.948
 5088TIP3   OH215227   4.772   3.074   5.037
 5088TIP3    H115228   4.822   3.155   5.040
 5088TIP3    H215229   4.737   3.064   5.125
 5089TIP3   OH215230   6.587   4.755   2.821
 5089TIP3    H115231   6.541   4.809   2.885
 5089TIP3    H215232   6.519   4.701   2.782
 5090TIP3   OH215233   3.849   4.169   2.100
 5090TIP3    H115234   3.908   4.228   2.148
 5090TIP3    H215235   3.762   4.204   2.117
 5091TIP3   OH215236   5.222   5.913   0.481
 5091TIP3    H115237   5.180   5.959   0.408
 5091TIP3    H215238   5.194   5.962   0.558
 5092TIP3   OH215239   4.385   5.940   5.462
 5092TIP3    H115240   4.403   5.869   5.524
 5092TIP3    H215241   4.372   5.896   5.378
 5093TIP3   OH215242   0.464   2.029   0.778
 5093TIP3    H115243   0.476   1.963   0.710
 5093TIP3    H215244   0.527   2.006   0.846
 5094TIP3   OH215245   4.646   0.064   1.084
 5094TIP3    H115246   4.674   0.068   0.993
 5094TIP3    H215247   4.671  -0.023   1.113
 5095TIP3   OH215248   5.832   3.336   1.336
 5095TIP3    H115249   5.742   3.314   1.312
 5095TIP3    H215250   5.844   3.295   1.422
 5096TIP3   OH215251   5.206   5.359   5.592
 5096TIP3    H115252   5.193   5.385   5.684
 5096TIP3    H215253   5.271   5.420   5.559
 5097TIP3   OH215254   3.141   2.730   4.072
 5097TIP3    H115255   3.160   2.670   3.999
 5097TIP3    H215256   3.120   2.673   4.145
 5098TIP3   OH215257   5.553   4.336   5.064
 5098TIP3    H115258   5.604   4.331   5.144
 5098TIP3    H215259   5.579   4.419   5.024
 5099TIP3   OH215260   2.985   2.171   4.962
 5099TIP3    H115261   2.982   2.263   4.989
 5099TIP3    H215262   2.895   2.140   4.972
 5100TIP3   OH215263   6.701   2.504   2.466
 5100TIP3    H115264   6.615   2.545   2.467
 5100TIP3    H215265   6.741   2.529   2.550
 5101TIP3   OH215266   5.860   0.333   3.830
 5101TIP3    H115267   5.905   0.282   3.898
 5101TIP3    H215268   5.783   0.369   3.875
 5102TIP3   OH215269   0.655   3.853   5.809
 5102TIP3    H115270   0.741   3.894   5.813
 5102TIP3    H215271   0.671   3.765   5.774
 5103TIP3   OH215272   1.368   3.650   5.671
 5103TIP3    H115273   1.311   3.624   5.599
 5103TIP3    H215274   1.420   3.722   5.636
 5104TIP3   OH215275   3.499   1.858   3.933
 5104TIP3    H115276   3.407   1.832   3.939
 5104TIP3    H215277   3.534   1.841   4.021
 5105TIP3   OH215278   2.021   2.196   3.420
 5105TIP3    H115279   1.932   2.161   3.409
 5105TIP3    H215280   2.030   2.260   3.349
 5106TIP3   OH215281   3.906   4.600   2.941
 5106TIP3    H115282   3.919   4.694   2.954
 5106TIP3    H215283   3.891   4.566   3.030
 5107TIP3   OH215284   2.580   2.186   5.428
 5107TIP3    H115285   2.491   2.156   5.410
 5107TIP3    H215286   2.619   2.198   5.342
 5108TIP3   OH215287   5.542   5.193   1.603
 5108TIP3    H115288   5.572   5.112   1.645
 5108TIP3    H215289   5.544   5.173   1.509
 5109TIP3   OH215290   2.043   5.501   4.672
 5109TIP3    H115291   2.071   5.567   4.735
 5109TIP3    H215292   2.124   5.462   4.641
 5110TIP3   OH215293   3.586   6.098   0.413
 5110TIP3    H115294   3.532   6.140   0.346
 5110TIP3    H215295   3.604   6.011   0.378
 5111TIP3   OH215296   1.902   3.980   0.126
 5111TIP3    H115297   1.885   4.036   0.202
 5111TIP3    H215298   1.822   3.986   0.074
 5112TIP3   OH215299   6.168   4.781   3.509
 5112TIP3    H115300   6.131   4.868   3.500
 5112TIP3    H215301   6.223   4.785   3.587
 5113TIP3   OH215302   3.876   6.504   0.228
 5113TIP3    H115303   3.797   6.558   0.229
 5113TIP3    H215304   3.844   6.415   0.211
 5114TIP3   OH215305   5.416   2.594   3.895
 5114TIP3    H115306   5.502   2.586   3.935
 5114TIP3    H215307   5.354   2.564   3.962
 5115TIP3   OH215308   3.896   0.114   0.658
 5115TIP3    H115309   3.816   0.166   0.645
 5115TIP3    H215310   3.865   0.024   0.664
 5116TIP3   OH215311   1.464   6.139   1.662
 5116TIP3    H115312   1.369   6.134   1.654
 5116TIP3    H215313   1.480   6.206   1.728
 5117TIP3   OH215314   2.456   2.313   3.421
 5117TIP3    H115315   2.405   2.365   3.358
 5117TIP3    H215316   2.439   2.355   3.506
 5118TIP3   OH215317   3.057   0.230   4.973
 5118TIP3    H115318   3.052   0.221   5.068
 5118TIP3    H215319   2.970   0.261   4.948
 5119TIP3   OH215320   0.059   0.885   2.796
 5119TIP3    H115321   0.072   0.887   2.701
 5119TIP3    H215322   0.067   0.793   2.819
 5120TIP3   OH215323   5.665   0.019   0.852
 5120TIP3    H115324   5.672  -0.059   0.908
 5120TIP3    H215325   5.702  -0.009   0.768
 5121TIP3   OH215326   5.317   1.925   1.426
 5121TIP3    H115327   5.409   1.910   1.401
 5121TIP3    H215328   5.311   1.894   1.516
 5122TIP3   OH215329   4.600   0.963   2.839
 5122TIP3    H115330   4.524   1.018   2.857
 5122TIP3    H215331   4.667   0.993   2.901
 5123TIP3   OH215332   3.244   6.420   3.636
 5123TIP3    H115333   3.265   6.483   3.704
 5123TIP3    H215334   3.167   6.456   3.593
 5124TIP3   OH215335   1.099   5.108   4.124
 5124TIP3    H115336   1.029   5.068   4.073
 5124TIP3    H215337   1.087   5.202   4.111
 5125TIP3   OH215338   3.124   2.250   5.375
 5125TIP3    H115339   3.116   2.321   5.439
 5125TIP3    H215340   3.050   2.193   5.393
 5126TIP3   OH215341   0.296   4.106   4.582
 5126TIP3    H115342   0.358   4.171   4.614
 5126TIP3    H215343   0.259   4.145   4.503
 5127TIP3   OH215344   7.037   5.437   5.032
 5127TIP3    H115345   7.065   5.508   5.091
 5127TIP3    H215346   6.942   5.445   5.029
 5128TIP3   OH215347   6.917   1.946   5.234
 5128TIP3    H115348   6.937   1.994   5.314
 5128TIP3    H215349   6.886   2.013   5.173
 5129TIP3   OH215350   3.203   6.179   4.555
 5129TIP3    H115351   3.135   6.219   4.502
 5129TIP3    H215352   3.224   6.244   4.622
 5130TIP3   OH215353   2.235   2.676   1.117
 5130TIP3    H115354   2.264   2.628   1.194
 5130TIP3    H215355   2.224   2.609   1.049
 5131TIP3   OH215356   3.789   6.425   2.199
 5131TIP3    H115357   3.818   6.515   2.189
 5131TIP3    H215358   3.861   6.372   2.163
 5132TIP3   OH215359   4.829   4.087   1.662
 5132TIP3    H115360   4.759   4.034   1.625
 5132TIP3    H215361   4.860   4.036   1.737
 5133TIP3   OH215362   4.989   0.529   4.319
 5133TIP3    H115363   4.924   0.584   4.364
 5133TIP3    H215364   5.067   0.535   4.375
 5134TIP3   OH215365   1.813   4.384   0.379
 5134TIP3    H115366   1.797   4.412   0.469
 5134TIP3    H215367   1.836   4.464   0.332
 5135TIP3   OH215368   4.169   1.055   3.827
 5135TIP3    H115369   4.197   1.039   3.737
 5135TIP3    H215370   4.127   1.141   3.824
 5136TIP3   OH215371   0.575   2.273   0.336
 5136TIP3    H115372   0.507   2.321   0.383
 5136TIP3    H215373   0.531   2.195   0.302
 5137TIP3   OH215374   2.520   5.568   3.090
 5137TIP3    H115375   2.586   5.637   3.094
 5137TIP3    H215376   2.450   5.604   3.035
 5138TIP3   OH215377   5.477   2.507   1.529
 5138TIP3    H115378   5.568   2.498   1.500
 5138TIP3    H215379   5.429   2.533   1.451
 5139TIP3   OH215380   4.693   6.644   3.847
 5139TIP3    H115381   4.770   6.637   3.902
 5139TIP3    H215382   4.628   6.688   3.902
 5140TIP3   OH215383   6.626   2.764   3.985
 5140TIP3    H115384   6.564   2.717   4.041
 5140TIP3    H215385   6.702   2.780   4.041
 5141TIP3   OH215386   5.714   3.950   3.527
 5141TIP3    H115387   5.681   4.017   3.587
 5141TIP3    H215388   5.760   3.888   3.583
 5142TIP3   OH215389   4.867   3.350   1.846
 5142TIP3    H115390   4.853   3.415   1.777
 5142TIP3    H215391   4.784   3.347   1.894
 5143TIP3   OH215392   0.878   2.784   4.681
 5143TIP3    H115393   0.836   2.806   4.598
 5143TIP3    H215394   0.806   2.774   4.743
 5144TIP3   OH215395   2.718   4.469   3.166
 5144TIP3    H115396   2.691   4.383   3.132
 5144TIP3    H215397   2.637   4.521   3.166
 5145TIP3   OH215398   2.865   0.721   2.926
 5145TIP3    H115399   2.776   0.687   2.917
 5145TIP3    H215400   2.858   0.813   2.901
 5146TIP3   OH215401   4.500   2.858   4.656
 5146TIP3    H115402   4.436   2.906   4.708
 5146TIP3    H215403   4.581   2.861   4.707
 5147TIP3   OH215404   3.984   6.253   3.678
 5147TIP3    H115405   4.060   6.274   3.623
 5147TIP3    H215406   3.908   6.269   3.621
 5148TIP3   OH215407   4.212   3.229   5.108
 5148TIP3    H115408   4.129   3.276   5.117
 5148TIP3    H215409   4.271   3.273   5.169
 5149TIP3   OH215410   6.431   4.176   5.565
 5149TIP3    H115411   6.464   4.239   5.629
 5149TIP3    H215412   6.372   4.226   5.510
 5150TIP3   OH215413   3.007   6.174   4.060
 5150TIP3    H115414   2.989   6.147   4.150
 5150TIP3    H215415   2.944   6.125   4.007
 5151TIP3   OH215416   6.546   2.373   1.963
 5151TIP3    H115417   6.534   2.299   2.022
 5151TIP3    H215418   6.514   2.341   1.878
 5152TIP3   OH215419   7.006   6.718   1.779
 5152TIP3    H115420   6.950   6.710   1.857
 5152TIP3    H215421   6.948   6.756   1.713
 5153TIP3   OH215422   6.821   0.047   1.436
 5153TIP3    H115423   6.799  -0.002   1.357
 5153TIP3    H215424   6.821   0.139   1.409
 5154TIP3   OH215425   1.076   2.859   2.643
 5154TIP3    H115426   1.041   2.810   2.717
 5154TIP3    H215427   1.055   2.805   2.567
 5155TIP3   OH215428   2.259   0.806   3.699
 5155TIP3    H115429   2.223   0.874   3.641
 5155TIP3    H215430   2.224   0.724   3.665
 5156TIP3   OH215431   3.860   2.776   4.639
 5156TIP3    H115432   3.770   2.754   4.662
 5156TIP3    H215433   3.873   2.864   4.675
 5157TIP3   OH215434   6.940   2.606   1.273
 5157TIP3    H115435   6.943   2.532   1.334
 5157TIP3    H215436   6.846   2.618   1.255
 5158TIP3   OH215437   1.686   0.650   0.637
 5158TIP3    H115438   1.770   0.621   0.673
 5158TIP3    H215439   1.691   0.745   0.637
 5159TIP3   OH215440   2.735   3.539   2.578
 5159TIP3    H115441   2.795   3.464   2.588
 5159TIP3    H215442   2.739   3.584   2.662
 5160TIP3   OH215443   4.007   6.234   0.162
 5160TIP3    H115444   4.045   6.164   0.214
 5160TIP3    H215445   4.069   6.306   0.168
 5161TIP3   OH215446   6.921   4.452   4.263
 5161TIP3    H115447   6.849   4.388   4.258
 5161TIP3    H215448   6.999   4.401   4.239
 5162TIP3   OH215449   6.376   2.003   5.652
 5162TIP3    H115450   6.392   2.097   5.663
 5162TIP3    H215451   6.289   1.988   5.688
 5163TIP3   OH215452   6.831   2.981   4.627
 5163TIP3    H115453   6.841   2.978   4.722
 5163TIP3    H215454   6.760   3.044   4.613
 5164TIP3   OH215455   1.684   0.223   4.514
 5164TIP3    H115456   1.625   0.294   4.539
 5164TIP3    H215457   1.647   0.145   4.554
 5165TIP3   OH215458   0.832   4.202   4.007
 5165TIP3    H115459   0.804   4.112   3.989
 5165TIP3    H215460   0.783   4.255   3.944
 5166TIP3   OH215461   1.392   0.236   4.720
 5166TIP3    H115462   1.400   0.317   4.669
 5166TIP3    H215463   1.448   0.250   4.796
 5167TIP3   OH215464   3.310   1.076   3.878
 5167TIP3    H115465   3.258   1.016   3.932
 5167TIP3    H215466   3.401   1.058   3.904
 5168TIP3   OH215467   5.231   2.637   0.599
 5168TIP3    H115468   5.269   2.698   0.663
 5168TIP3    H215469   5.165   2.589   0.648
 5169TIP3   OH215470   6.077   6.082   5.037
 5169TIP3    H115471   6.025   6.160   5.054
 5169TIP3    H215472   6.151   6.089   5.099
 5170TIP3   OH215473   3.066   6.683   4.650
 5170TIP3    H115474   3.041   6.634   4.729
 5170TIP3    H215475   3.091   6.769   4.682
 5171TIP3   OH215476   2.757   5.344   4.098
 5171TIP3    H115477   2.759   5.270   4.159
 5171TIP3    H215478   2.847   5.376   4.095
 5172TIP3   OH215479   0.340   4.583   3.320
 5172TIP3    H115480   0.390   4.607   3.242
 5172TIP3    H215481   0.362   4.650   3.385
 5173TIP3   OH215482   4.501   5.481   0.120
 5173TIP3    H115483   4.508   5.398   0.168
 5173TIP3    H215484   4.420   5.473   0.070
 5174TIP3   OH215485   1.311   4.771   1.886
 5174TIP3    H115486   1.319   4.728   1.971
 5174TIP3    H215487   1.399   4.764   1.847
 5175TIP3   OH215488   6.736   5.044   3.744
 5175TIP3    H115489   6.794   4.994   3.801
 5175TIP3    H215490   6.748   5.135   3.773
 5176TIP3   OH215491   3.322   2.862   3.910
 5176TIP3    H115492   3.311   2.768   3.891
 5176TIP3    H215493   3.271   2.875   3.990
 5177TIP3   OH215494   2.629   0.402   0.761
 5177TIP3    H115495   2.702   0.395   0.823
 5177TIP3    H215496   2.571   0.329   0.783
 5178TIP3   OH215497   2.781   2.355   3.672
 5178TIP3    H115498   2.739   2.436   3.644
 5178TIP3    H215499   2.759   2.291   3.604
 5179TIP3   OH215500   0.086   2.105   2.104
 5179TIP3    H115501   0.126   2.079   2.021
 5179TIP3    H215502   0.160   2.130   2.159
 5180TIP3   OH215503   3.082   4.647   3.506
 5180TIP3    H115504   3.119   4.726   3.546
 5180TIP3    H215505   3.129   4.637   3.424
 5181TIP3   OH215506   1.230   2.432   0.051
 5181TIP3    H115507   1.307   2.387   0.087
 5181TIP3    H215508   1.196   2.372  -0.015
 5182TIP3   OH215509   5.523   1.019   2.941
 5182TIP3    H115510   5.540   0.962   2.866
 5182TIP3    H215511   5.451   0.977   2.988
 5183TIP3   OH215512   1.417   4.805   5.729
 5183TIP3    H115513   1.414   4.817   5.635
 5183TIP3    H215514   1.378   4.718   5.743
 5184TIP3   OH215515   4.648   3.810   5.902
 5184TIP3    H115516   4.581   3.876   5.885
 5184TIP3    H215517   4.697   3.805   5.819
 5185TIP3   OH215518   6.290   6.217   0.535
 5185TIP3    H115519   6.306   6.311   0.534
 5185TIP3    H215520   6.310   6.190   0.624
 5186TIP3   OH215521   5.561   2.801   3.765
 5186TIP3    H115522   5.478   2.759   3.785
 5186TIP3    H215523   5.627   2.740   3.798
 5187TIP3   OH215524   6.702   4.289   4.274
 5187TIP3    H115525   6.690   4.214   4.216
 5187TIP3    H215526   6.641   4.355   4.241
 5188TIP3   OH215527   1.590   2.002   5.784
 5188TIP3    H115528   1.537   2.077   5.812
 5188TIP3    H215529   1.560   1.984   5.695
 5189TIP3   OH215530   5.668   4.169   5.526
 5189TIP3    H115531   5.724   4.242   5.550
 5189TIP3    H215532   5.589   4.210   5.491
 5190TIP3   OH215533   5.759   1.440   3.733
 5190TIP3    H115534   5.815   1.476   3.801
 5190TIP3    H215535   5.732   1.355   3.766
 5191TIP3   OH215536   7.163   2.716   0.610
 5191TIP3    H115537   7.086   2.686   0.658
 5191TIP3    H215538   7.235   2.710   0.673
 5192TIP3   OH215539   0.284   5.035   3.828
 5192TIP3    H115540   0.293   4.956   3.882
 5192TIP3    H215541   0.194   5.030   3.794
 5193TIP3   OH215542   1.223   1.657   5.533
 5193TIP3    H115543   1.165   1.702   5.595
 5193TIP3    H215544   1.191   1.567   5.532
 5194TIP3   OH215545   0.590   6.753   0.478
 5194TIP3    H115546   0.541   6.828   0.511
 5194TIP3    H215547   0.650   6.730   0.548
 5195TIP3   OH215548   6.180   3.883   2.284
 5195TIP3    H115549   6.166   3.830   2.205
 5195TIP3    H215550   6.165   3.973   2.256
 5196TIP3   OH215551   2.649   0.309   3.764
 5196TIP3    H115552   2.632   0.310   3.858
 5196TIP3    H215553   2.738   0.341   3.755
 5197TIP3   OH215554   7.156   2.513   4.979
 5197TIP3    H115555   7.092   2.513   4.909
 5197TIP3    H215556   7.216   2.442   4.958
 5198TIP3   OH215557   0.176   2.251   3.131
 5198TIP3    H115558   0.122   2.186   3.176
 5198TIP3    H215559   0.262   2.210   3.123
 5199TIP3   OH215560   5.675   1.748   4.875
 5199TIP3    H115561   5.663   1.840   4.898
 5199TIP3    H215562   5.717   1.750   4.789
 5200TIP3   OH215563   4.761   6.717   0.619
 5200TIP3    H115564   4.770   6.794   0.675
 5200TIP3    H215565   4.699   6.744   0.550
 5201TIP3   OH215566   4.453   2.508   0.954
 5201TIP3    H115567   4.531   2.561   0.939
 5201TIP3    H215568   4.394   2.530   0.882
 5202TIP3   OH215569   5.492   5.206   4.325
 5202TIP3    H115570   5.513   5.298   4.309
 5202TIP3    H215571   5.445   5.179   4.246
 5203TIP3   OH215572   5.327   4.373   3.054
 5203TIP3    H115573   5.376   4.306   3.008
 5203TIP3    H215574   5.278   4.326   3.122
 5204TIP3   OH215575   2.576   3.058   0.542
 5204TIP3    H115576   2.526   2.976   0.543
 5204TIP3    H215577   2.666   3.031   0.560
 5205TIP3   OH215578   2.645   5.752   0.673
 5205TIP3    H115579   2.651   5.689   0.602
 5205TIP3    H215580   2.557   5.739   0.709
 5206TIP3   OH215581   2.311   0.030   4.147
 5206TIP3    H115582   2.284   0.110   4.102
 5206TIP3    H215583   2.329   0.057   4.237
 5207TIP3   OH215584   6.651   3.039   5.726
 5207TIP3    H115585   6.563   3.073   5.743
 5207TIP3    H215586   6.637   2.949   5.696
 5208TIP3   OH215587   2.574   0.743   0.527
 5208TIP3    H115588   2.617   0.668   0.488
 5208TIP3    H215589   2.482   0.736   0.500
 5209TIP3   OH215590   7.195   4.489   5.756
 5209TIP3    H115591   7.234   4.544   5.687
 5209TIP3    H215592   7.104   4.518   5.761
 5210TIP3   OH215593   7.124   3.196   4.651
 5210TIP3    H115594   7.155   3.287   4.656
 5210TIP3    H215595   7.075   3.183   4.732
 5211TIP3   OH215596   3.995   5.585   3.127
 5211TIP3    H115597   4.072   5.549   3.083
 5211TIP3    H215598   3.980   5.670   3.084
 5212TIP3   OH215599   2.536   4.957   3.651
 5212TIP3    H115600   2.498   5.042   3.626
 5212TIP3    H215601   2.626   4.978   3.674
 5213TIP3   OH215602   6.824   0.255   0.844
 5213TIP3    H115603   6.917   0.232   0.845
 5213TIP3    H215604   6.795   0.243   0.934
 5214TIP3   OH215605   6.916   4.865   2.806
 5214TIP3    H115606   6.822   4.858   2.820
 5214TIP3    H215607   6.934   4.959   2.810
 5215TIP3   OH215608   5.622   2.845   0.081
 5215TIP3    H115609   5.536   2.868   0.045
 5215TIP3    H215610   5.605   2.831   0.175
 5216TIP3   OH215611   0.489   4.085   3.892
 5216TIP3    H115612   0.404   4.104   3.933
 5216TIP3    H215613   0.520   4.170   3.861
 5217TIP3   OH215614   1.639   2.778   2.165
 5217TIP3    H115615   1.701   2.714   2.198
 5217TIP3    H215616   1.691   2.856   2.147
 5218TIP3   OH215617   5.423   5.752   5.218
 5218TIP3    H115618   5.373   5.711   5.147
 5218TIP3    H215619   5.370   5.827   5.244
 5219TIP3   OH215620   5.018   6.168   1.866
 5219TIP3    H115621   5.005   6.262   1.857
 5219TIP3    H215622   4.934   6.129   1.841
 5220TIP3   OH215623   6.995   2.633   4.357
 5220TIP3    H115624   6.908   2.597   4.336
 5220TIP3    H215625   7.043   2.558   4.392
 5221TIP3   OH215626   0.393   3.660   0.209
 5221TIP3    H115627   0.340   3.607   0.270
 5221TIP3    H215628   0.433   3.727   0.264
 5222TIP3   OH215629   0.548   5.172   1.335
 5222TIP3    H115630   0.511   5.253   1.372
 5222TIP3    H215631   0.628   5.157   1.386
 5223TIP3   OH215632   4.812   3.845   2.065
 5223TIP3    H115633   4.841   3.929   2.100
 5223TIP3    H215634   4.857   3.838   1.981
 5224TIP3   OH215635   3.053   0.834   4.782
 5224TIP3    H115636   3.137   0.851   4.825
 5224TIP3    H215637   2.993   0.814   4.854
 5225TIP3   OH215638   5.812   1.750   3.816
 5225TIP3    H115639   5.856   1.677   3.857
 5225TIP3    H215640   5.827   1.824   3.875
 5226TIP3   OH215641   1.010   6.072   0.564
 5226TIP3    H115642   1.090   6.121   0.544
 5226TIP3    H215643   0.972   6.053   0.478
 5227TIP3   OH215644   3.822   1.617   2.658
 5227TIP3    H115645   3.790   1.703   2.686
 5227TIP3    H215646   3.898   1.600   2.714
 5228TIP3   OH215647   7.081   6.602   5.574
 5228TIP3    H115648   7.105   6.511   5.557
 5228TIP3    H215649   7.138   6.630   5.645
 5229TIP3   OH215650   6.813   6.764   3.584
 5229TIP3    H115651   6.736   6.814   3.613
 5229TIP3    H215652   6.834   6.708   3.659
 5230TIP3   OH215653   4.191   1.318   2.188
 5230TIP3    H115654   4.234   1.253   2.133
 5230TIP3    H215655   4.213   1.402   2.148
 5231TIP3   OH215656   0.997   3.745   2.984
 5231TIP3    H115657   0.944   3.824   2.977
 5231TIP3    H215658   0.983   3.715   3.074
 5232TIP3   OH215659   3.781   6.492   4.333
 5232TIP3    H115660   3.815   6.410   4.298
 5232TIP3    H215661   3.858   6.544   4.353
 5233TIP3   OH215662   2.827   2.306   2.886
 5233TIP3    H115663   2.891   2.238   2.909
 5233TIP3    H215664   2.861   2.385   2.927
 5234TIP3   OH215665   6.751   1.004   2.494
 5234TIP3    H115666   6.827   0.962   2.535
 5234TIP3    H215667   6.691   1.019   2.567
 5235TIP3   OH215668   4.283   2.267   0.994
 5235TIP3    H115669   4.208   2.313   0.956
 5235TIP3    H215670   4.358   2.323   0.974
 5236TIP3   OH215671   2.648   0.650   3.232
 5236TIP3    H115672   2.646   0.728   3.176
 5236TIP3    H215673   2.555   0.629   3.246
 5237TIP3   OH215674   7.012   1.693   0.755
 5237TIP3    H115675   7.029   1.658   0.668
 5237TIP3    H215676   7.093   1.675   0.804
 5238TIP3   OH215677   0.542   5.614   3.981
 5238TIP3    H115678   0.550   5.587   3.890
 5238TIP3    H215679   0.492   5.544   4.023
 5239TIP3   OH215680   3.564   4.953   4.653
 5239TIP3    H115681   3.651   4.991   4.651
 5239TIP3    H215682   3.577   4.862   4.626
 5240TIP3   OH215683   6.623   3.848   1.903
 5240TIP3    H115684   6.546   3.796   1.926
 5240TIP3    H215685   6.684   3.834   1.976
 5241TIP3   OH215686   0.054   2.491   1.180
 5241TIP3    H115687  -0.007   2.418   1.192
 5241TIP3    H215688  -0.002   2.565   1.157
 5242TIP3   OH215689   5.636   2.491   3.282
 5242TIP3    H115690   5.694   2.555   3.324
 5242TIP3    H215691   5.600   2.441   3.355
 5243TIP3   OH215692   0.932   6.620   5.858
 5243TIP3    H115693   0.986   6.606   5.935
 5243TIP3    H215694   0.857   6.562   5.871
 5244TIP3   OH215695   2.409   1.143   1.056
 5244TIP3    H115696   2.385   1.236   1.049
 5244TIP3    H215697   2.481   1.132   0.995
 5245TIP3   OH215698   0.903  -0.017   5.661
 5245TIP3    H115699   0.812   0.010   5.656
 5245TIP3    H215700   0.953   0.062   5.637
 5246TIP3   OH215701   3.117   4.357   2.841
 5246TIP3    H115702   3.125   4.264   2.864
 5246TIP3    H215703   3.075   4.397   2.917
 5247TIP3   OH215704   4.388   0.163   5.549
 5247TIP3    H115705   4.337   0.241   5.569
 5247TIP3    H215706   4.326   0.105   5.504
 5248TIP3   OH215707   4.248   5.194   0.833
 5248TIP3    H115708   4.313   5.128   0.807
 5248TIP3    H215709   4.183   5.145   0.883
 5249TIP3   OH215710   1.141   4.454   0.585
 5249TIP3    H115711   1.209   4.516   0.558
 5249TIP3    H215712   1.069   4.510   0.614
 5250TIP3   OH215713   5.053   6.492   5.200
 5250TIP3    H115714   5.138   6.474   5.160
 5250TIP3    H215715   5.020   6.407   5.226
 5251TIP3   OH215716   1.188   4.008   0.158
 5251TIP3    H115717   1.254   4.034   0.223
 5251TIP3    H215718   1.158   3.922   0.188
 5252TIP3   OH215719   2.174   1.432   1.172
 5252TIP3    H115720   2.141   1.353   1.214
 5252TIP3    H215721   2.203   1.487   1.246
 5253TIP3   OH215722   0.230   1.131   5.808
 5253TIP3    H115723   0.235   1.041   5.840
 5253TIP3    H215724   0.309   1.174   5.842
 5254TIP3   OH215725   0.851   4.742   5.463
 5254TIP3    H115726   0.929   4.776   5.420
 5254TIP3    H215727   0.857   4.774   5.553
 5255TIP3   OH215728   0.395   0.843   3.993
 5255TIP3    H115729   0.356   0.882   3.915
 5255TIP3    H215730   0.480   0.886   4.001
 5256TIP3   OH215731   1.176   6.485   2.909
 5256TIP3    H115732   1.254   6.511   2.859
 5256TIP3    H215733   1.112   6.554   2.892
 5257TIP3   OH215734   4.255   3.265   1.294
 5257TIP3    H115735   4.211   3.216   1.225
 5257TIP3    H215736   4.255   3.206   1.369
 5258TIP3   OH215737   1.432   1.260   2.598
 5258TIP3    H115738   1.528   1.261   2.605
 5258TIP3    H215739   1.413   1.321   2.527
 5259TIP3   OH215740   4.722   5.304   4.715
 5259TIP3    H115741   4.773   5.305   4.634
 5259TIP3    H215742   4.689   5.394   4.722
 5260TIP3   OH215743   6.636   3.979   1.132
 5260TIP3    H115744   6.646   4.031   1.211
 5260TIP3    H215745   6.542   3.968   1.122
 5261TIP3   OH215746   1.172   0.329   4.029
 5261TIP3    H115747   1.245   0.303   4.085
 5261TIP3    H215748   1.177   0.425   4.025
 5262TIP3   OH215749   6.114   4.218   2.399
 5262TIP3    H115750   6.134   4.125   2.409
 5262TIP3    H215751   6.153   4.259   2.477
 5263TIP3   OH215752   2.245   4.713   1.665
 5263TIP3    H115753   2.160   4.723   1.624
 5263TIP3    H215754   2.308   4.719   1.593
 5264TIP3   OH215755   1.971   0.204   3.003
 5264TIP3    H115756   2.052   0.198   3.054
 5264TIP3    H215757   1.993   0.166   2.918
 5265TIP3   OH215758   6.309   0.045   4.725
 5265TIP3    H115759   6.369   0.076   4.793
 5265TIP3    H215760   6.358   0.056   4.643
 5266TIP3   OH215761   1.035   4.855   4.994
 5266TIP3    H115762   1.028   4.943   5.029
 5266TIP3    H215763   1.063   4.867   4.903
 5267TIP3   OH215764   5.524   0.324   4.696
 5267TIP3    H115765   5.518   0.300   4.604
 5267TIP3    H215766   5.615   0.306   4.720
 5268TIP3   OH215767   1.516   1.788   5.057
 5268TIP3    H115768   1.539   1.787   5.150
 5268TIP3    H215769   1.456   1.714   5.046
 5269TIP3   OH215770   6.554   3.552   1.979
 5269TIP3    H115771   6.549   3.457   1.978
 5269TIP3    H215772   6.596   3.574   2.062
 5270TIP3   OH215773   3.753   2.488   1.858
 5270TIP3    H115774   3.678   2.475   1.800
 5270TIP3    H215775   3.815   2.538   1.806
 5271TIP3   OH215776   6.527   1.583   0.868
 5271TIP3    H115777   6.546   1.643   0.941
 5271TIP3    H215778   6.518   1.640   0.792
 5272TIP3   OH215779   5.660   3.190   2.448
 5272TIP3    H115780   5.750   3.167   2.426
 5272TIP3    H215781   5.668   3.272   2.497
 5273TIP3   OH215782   0.282   2.484   0.218
 5273TIP3    H115783   0.331   2.457   0.296
 5273TIP3    H215784   0.190   2.473   0.242
 5274TIP3   OH215785   7.171   5.539   3.215
 5274TIP3    H115786   7.135   5.593   3.145
 5274TIP3    H215787   7.107   5.469   3.227
 5275TIP3   OH215788   0.904   2.514   2.003
 5275TIP3    H115789   0.815   2.516   1.967
 5275TIP3    H215790   0.958   2.479   1.931
 5276TIP3   OH215791   5.935   3.135   0.149
 5276TIP3    H115792   5.937   3.128   0.244
 5276TIP3    H215793   6.008   3.192   0.127
 5277TIP3   OH215794   2.322   4.154   1.018
 5277TIP3    H115795   2.343   4.220   1.084
 5277TIP3    H215796   2.407   4.126   0.985
 5278TIP3   OH215797   2.093   4.612   4.829
 5278TIP3    H115798   2.165   4.552   4.849
 5278TIP3    H215799   2.129   4.699   4.846
 5279TIP3   OH215800   4.417   1.466   4.530
 5279TIP3    H115801   4.437   1.545   4.580
 5279TIP3    H215802   4.322   1.468   4.521
 5280TIP3   OH215803   3.394   2.442   1.693
 5280TIP3    H115804   3.405   2.398   1.777
 5280TIP3    H215805   3.474   2.421   1.644
 5281TIP3   OH215806   7.028   2.500   1.015
 5281TIP3    H115807   6.981   2.529   1.094
 5281TIP3    H215808   7.053   2.581   0.971
 5282TIP3   OH215809   7.107   0.627   1.619
 5282TIP3    H115810   7.191   0.589   1.592
 5282TIP3    H215811   7.088   0.585   1.703
 5283TIP3   OH215812   3.031   5.025   0.851
 5283TIP3    H115813   3.084   5.013   0.772
 5283TIP3    H215814   2.998   5.114   0.845
 5284TIP3   OH215815   6.794   4.784   0.872
 5284TIP3    H115816   6.725   4.739   0.920
 5284TIP3    H215817   6.747   4.848   0.819
 5285TIP3   OH215818   5.087   1.712   0.652
 5285TIP3    H115819   5.000   1.743   0.677
 5285TIP3    H215820   5.145   1.746   0.719
 5286TIP3   OH215821   5.500   3.852   4.904
 5286TIP3    H115822   5.588   3.827   4.876
 5286TIP3    H215823   5.512   3.938   4.945
 5287TIP3   OH215824   5.455   2.185   2.338
 5287TIP3    H115825   5.376   2.222   2.378
 5287TIP3    H215826   5.510   2.260   2.318
 5288TIP3   OH215827   2.110   4.300   1.760
 5288TIP3    H115828   2.077   4.313   1.849
 5288TIP3    H215829   2.195   4.257   1.771
 5289TIP3   OH215830   0.474   2.653   1.333
 5289TIP3    H115831   0.500   2.568   1.369
 5289TIP3    H215832   0.510   2.653   1.244
 5290TIP3   OH215833   0.748   5.436   4.320
 5290TIP3    H115834   0.691   5.373   4.277
 5290TIP3    H215835   0.688   5.494   4.368
 5291TIP3   OH215836   1.656   2.359   1.169
 5291TIP3    H115837   1.626   2.402   1.249
 5291TIP3    H215838   1.580   2.309   1.138
 5292TIP3   OH215839   0.139   6.723   4.665
 5292TIP3    H115840   0.117   6.736   4.758
 5292TIP3    H215841   0.231   6.746   4.658
 5293TIP3   OH215842   7.045   2.769   5.026
 5293TIP3    H115843   7.086   2.818   4.955
 5293TIP3    H215844   7.114   2.711   5.058
 5294TIP3   OH215845   5.115   3.128   0.824
 5294TIP3    H115846   5.189   3.078   0.792
 5294TIP3    H215847   5.052   3.062   0.854
 5295TIP3   OH215848   5.244   5.250   1.633
 5295TIP3    H115849   5.327   5.237   1.588
 5295TIP3    H215850   5.211   5.162   1.649
 5296TIP3   OH215851   6.072   1.770   3.667
 5296TIP3    H115852   6.010   1.728   3.727
 5296TIP3    H215853   6.068   1.863   3.690
 5297TIP3   OH215854   2.640   0.776   3.963
 5297TIP3    H115855   2.714   0.835   3.976
 5297TIP3    H215856   2.680   0.689   3.957
 5298TIP3   OH215857   0.791   4.755   3.954
 5298TIP3    H115858   0.773   4.722   4.042
 5298TIP3    H215859   0.866   4.704   3.924
 5299TIP3   OH215860   2.250   1.895   4.957
 5299TIP3    H115861   2.180   1.830   4.956
 5299TIP3    H215862   2.309   1.866   5.025
 5300TIP3   OH215863   7.057   6.764   0.730
 5300TIP3    H115864   7.018   6.677   0.728
 5300TIP3    H215865   7.096   6.775   0.644
 5301TIP3   OH215866   5.160   4.626   3.995
 5301TIP3    H115867   5.148   4.531   4.003
 5301TIP3    H215868   5.181   4.655   4.084
 5302TIP3   OH215869   5.454   5.421   2.734
 5302TIP3    H115870   5.515   5.370   2.681
 5302TIP3    H215871   5.390   5.358   2.765
 5303TIP3   OH215872   1.283   4.242   4.004
 5303TIP3    H115873   1.358   4.299   3.986
 5303TIP3    H215874   1.209   4.301   4.010
 5304TIP3   OH215875   4.868   2.270   2.569
 5304TIP3    H115876   4.956   2.252   2.602
 5304TIP3    H215877   4.838   2.187   2.532
 5305TIP3   OH215878   0.551   5.760   0.963
 5305TIP3    H115879   0.550   5.667   0.981
 5305TIP3    H215880   0.501   5.800   1.034
 5306TIP3   OH215881   0.297   6.070   5.408
 5306TIP3    H115882   0.348   6.004   5.362
 5306TIP3    H215883   0.290   6.143   5.346
 5307TIP3   OH215884   5.119   3.851   4.283
 5307TIP3    H115885   5.104   3.894   4.367
 5307TIP3    H215886   5.148   3.763   4.306
 5308TIP3   OH215887   5.510   0.200   5.500
 5308TIP3    H115888   5.504   0.136   5.429
 5308TIP3    H215889   5.568   0.159   5.564
 5309TIP3   OH215890   4.618   1.272   5.830
 5309TIP3    H115891   4.592   1.254   5.740
 5309TIP3    H215892   4.705   1.312   5.824
 5310TIP3   OH215893   0.531   1.030   2.561
 5310TIP3    H115894   0.522   1.078   2.479
 5310TIP3    H215895   0.465   1.069   2.619
 5311TIP3   OH215896   6.618   5.195   4.542
 5311TIP3    H115897   6.524   5.180   4.551
 5311TIP3    H215898   6.630   5.221   4.451
 5312TIP3   OH215899   4.220   6.408   0.183
 5312TIP3    H115900   4.291   6.372   0.130
 5312TIP3    H215901   4.257   6.418   0.270
 5313TIP3   OH215902   1.343   1.758   1.853
 5313TIP3    H115903   1.365   1.742   1.945
 5313TIP3    H215904   1.427   1.750   1.807
 5314TIP3   OH215905   0.647   0.953   5.215
 5314TIP3    H115906   0.603   0.869   5.200
 5314TIP3    H215907   0.698   0.939   5.294
 5315TIP3   OH215908   0.715   6.173   2.817
 5315TIP3    H115909   0.711   6.079   2.832
 5315TIP3    H215910   0.766   6.207   2.890
 5316TIP3   OH215911   3.826   3.560   4.896
 5316TIP3    H115912   3.747   3.564   4.950
 5316TIP3    H215913   3.821   3.475   4.853
 5317TIP3   OH215914   2.422   5.173   4.376
 5317TIP3    H115915   2.501   5.194   4.427
 5317TIP3    H215916   2.413   5.078   4.384
 5318TIP3   OH215917   6.340   2.522   1.141
 5318TIP3    H115918   6.310   2.433   1.156
 5318TIP3    H215919   6.261   2.569   1.114
 5319TIP3   OH215920   2.262   1.257   3.328
 5319TIP3    H115921   2.270   1.293   3.417
 5319TIP3    H215922   2.169   1.262   3.309
 5320TIP3   OH215923   2.143   4.258   2.540
 5320TIP3    H115924   2.121   4.168   2.516
 5320TIP3    H215925   2.173   4.298   2.458
 5321TIP3   OH215926   2.587   5.610   5.663
 5321TIP3    H115927   2.638   5.676   5.616
 5321TIP3    H215928   2.549   5.659   5.737
 5322TIP3   OH215929   5.368   5.641   1.488
 5322TIP3    H115930   5.414   5.717   1.524
 5322TIP3    H215931   5.402   5.566   1.537
 5323TIP3   OH215932   1.114   3.970   0.545
 5323TIP3    H115933   1.103   4.000   0.636
 5323TIP3    H215934   1.086   4.045   0.493
 5324TIP3   OH215935   0.907   1.376   0.023
 5324TIP3    H115936   0.996   1.354   0.050
 5324TIP3    H215937   0.853   1.358   0.100
 5325TIP3   OH215938   5.099   1.664   2.175
 5325TIP3    H115939   5.136   1.606   2.242
 5325TIP3    H215940   5.169   1.726   2.155
 5326TIP3   OH215941   3.169   4.145   1.110
 5326TIP3    H115942   3.193   4.210   1.176
 5326TIP3    H215943   3.180   4.061   1.155
 5327TIP3   OH215944   1.703   0.512   5.245
 5327TIP3    H115945   1.720   0.602   5.217
 5327TIP3    H215946   1.790   0.474   5.256
 5328TIP3   OH215947   6.558   5.771   0.645
 5328TIP3    H115948   6.533   5.810   0.561
 5328TIP3    H215949   6.574   5.846   0.703
 5329TIP3   OH215950   5.292   0.318   2.803
 5329TIP3    H115951   5.263   0.409   2.806
 5329TIP3    H215952   5.386   0.322   2.819
 5330TIP3   OH215953   6.705   5.389   3.578
 5330TIP3    H115954   6.622   5.373   3.534
 5330TIP3    H215955   6.680   5.408   3.669
 5331TIP3   OH215956   4.705   2.506   3.384
 5331TIP3    H115957   4.717   2.425   3.433
 5331TIP3    H215958   4.662   2.565   3.445
 5332TIP3   OH215959   2.024   4.833   2.871
 5332TIP3    H115960   2.060   4.804   2.955
 5332TIP3    H215961   1.991   4.753   2.830
 5333TIP3   OH215962   1.485   4.629   0.288
 5333TIP3    H115963   1.483   4.603   0.380
 5333TIP3    H215964   1.418   4.697   0.281
 5334TIP3   OH215965   2.056   5.967   4.281
 5334TIP3    H115966   2.083   6.056   4.255
 5334TIP3    H215967   2.005   5.980   4.360
 5335TIP3   OH215968   5.811   2.166   5.752
 5335TIP3    H115969   5.890   2.205   5.713
 5335TIP3    H215970   5.792   2.090   5.696
 5336TIP3   OH215971   4.055   3.624   3.001
 5336TIP3    H115972   3.968   3.662   2.990
 5336TIP3    H215973   4.042   3.531   2.987
 5337TIP3   OH215974   4.250   1.887   2.295
 5337TIP3    H115975   4.325   1.874   2.237
 5337TIP3    H215976   4.205   1.802   2.297
 5338TIP3   OH215977   1.545   3.207   3.815
 5338TIP3    H115978   1.458   3.242   3.796
 5338TIP3    H215979   1.549   3.124   3.767
 5339TIP3   OH215980   0.332   5.266   2.899
 5339TIP3    H115981   0.254   5.210   2.897
 5339TIP3    H215982   0.304   5.344   2.947
 5340TIP3   OH215983   3.889   5.678   5.839
 5340TIP3    H115984   3.826   5.612   5.866
 5340TIP3    H215985   3.881   5.681   5.744
 5341TIP3   OH215986   3.247   1.964   0.841
 5341TIP3    H115987   3.172   1.992   0.788
 5341TIP3    H215988   3.312   2.034   0.830
 5342TIP3   OH215989   0.134   5.163   5.794
 5342TIP3    H115990   0.155   5.193   5.705
 5342TIP3    H215991   0.176   5.077   5.800
 5343TIP3   OH215992   6.379   2.601   2.043
 5343TIP3    H115993   6.327   2.653   2.104
 5343TIP3    H215994   6.319   2.583   1.970
 5344TIP3   OH215995   6.335   3.369   2.984
 5344TIP3    H115996   6.320   3.305   3.053
 5344TIP3    H215997   6.427   3.359   2.961
 5345TIP3   OH215998   1.891   6.415   3.128
 5345TIP3    H115999   1.951   6.340   3.129
 5345TIP3    H216000   1.804   6.375   3.128
 5346TIP3   OH216001   2.848   6.667   5.581
 5346TIP3    H116002   2.895   6.673   5.665
 5346TIP3    H216003   2.909   6.620   5.524
 5347TIP3   OH216004   1.874   4.282   3.356
 5347TIP3    H116005   1.848   4.338   3.430
 5347TIP3    H216006   1.896   4.198   3.397
 5348TIP3   OH216007   4.606   2.687   5.623
 5348TIP3    H116008   4.583   2.750   5.555
 5348TIP3    H216009   4.523   2.647   5.648
 5349TIP3   OH216010   0.537   5.583   0.074
 5349TIP3    H116011   0.543   5.621   0.162
 5349TIP3    H216012   0.533   5.658   0.015
 5350TIP3   OH216013   0.514   4.152   2.814
 5350TIP3    H116014   0.541   4.065   2.785
 5350TIP3    H216015   0.587   4.209   2.789
 5351TIP3   OH216016   6.246   5.682   3.732
 5351TIP3    H116017   6.288   5.747   3.676
 5351TIP3    H216018   6.309   5.667   3.803
 5352TIP3   OH216019   4.442   6.455   4.126
 5352TIP3    H116020   4.508   6.411   4.073
 5352TIP3    H216021   4.401   6.517   4.066
 5353TIP3   OH216022   4.843   6.143   4.752
 5353TIP3    H116023   4.905   6.202   4.794
 5353TIP3    H216024   4.891   6.104   4.679
 5354TIP3   OH216025   0.945   1.000   1.907
 5354TIP3    H116026   0.928   0.968   1.996
 5354TIP3    H216027   0.942   1.095   1.915
 5355TIP3   OH216028   2.033   2.470   0.628
 5355TIP3    H116029   1.973   2.431   0.565
 5355TIP3    H216030   2.120   2.451   0.593
 5356TIP3   OH216031   3.149   6.357   1.948
 5356TIP3    H116032   3.080   6.296   1.970
 5356TIP3    H216033   3.109   6.417   1.884
 5357TIP3   OH216034   3.595   5.233   2.996
 5357TIP3    H116035   3.690   5.246   2.996
 5357TIP3    H216036   3.560   5.315   2.962
 5358TIP3   OH216037   0.548   5.494   1.001
 5358TIP3    H116038   0.515   5.407   1.023
 5358TIP3    H216039   0.638   5.494   1.033
 5359TIP3   OH216040   0.507   0.714   5.394
 5359TIP3    H116041   0.488   0.802   5.427
 5359TIP3    H216042   0.603   0.710   5.391
 5360TIP3   OH216043   4.288   5.592   1.303
 5360TIP3    H116044   4.289   5.516   1.362
 5360TIP3    H216045   4.275   5.554   1.216
 5361TIP3   OH216046   4.611   0.570   3.496
 5361TIP3    H116047   4.697   0.556   3.534
 5361TIP3    H216048   4.552   0.574   3.572
 5362TIP3   OH216049  -0.028   0.357   5.208
 5362TIP3    H116050   0.005   0.433   5.161
 5362TIP3    H216051  -0.014   0.283   5.148
 5363TIP3   OH216052   7.138   6.023   2.940
 5363TIP3    H116053   7.129   6.025   3.035
 5363TIP3    H216054   7.143   6.115   2.914
 5364TIP3   OH216055   6.939   0.795   4.965
 5364TIP3    H116056   6.927   0.770   4.873
 5364TIP3    H216057   6.854   0.829   4.992
 5365TIP3   OH216058   3.100   4.425   3.677
 5365TIP3    H116059   3.193   4.405   3.661
 5365TIP3    H216060   3.085   4.507   3.630
 5366TIP3   OH216061   1.399   2.287   4.453
 5366TIP3    H116062   1.482   2.267   4.495
 5366TIP3    H216063   1.347   2.207   4.461
 5367TIP3   OH216064   5.109   4.599   5.380
 5367TIP3    H116065   5.091   4.506   5.368
 5367TIP3    H216066   5.174   4.602   5.451
 5368TIP3   OH216067   7.019   2.441   2.028
 5368TIP3    H116068   7.049   2.479   1.945
 5368TIP3    H216069   7.063   2.493   2.095
 5369TIP3   OH216070   3.186   6.133   2.676
 5369TIP3    H116071   3.135   6.084   2.740
 5369TIP3    H216072   3.124   6.153   2.606
 5370TIP3   OH216073   1.943   2.380   0.024
 5370TIP3    H116074   1.928   2.315   0.093
 5370TIP3    H216075   1.873   2.366  -0.039
 5371TIP3   OH216076   6.810   3.828   0.145
 5371TIP3    H116077   6.781   3.741   0.173
 5371TIP3    H216078   6.804   3.827   0.050
 5372TIP3   OH216079   3.275   6.121   3.412
 5372TIP3    H116080   3.183   6.109   3.438
 5372TIP3    H216081   3.284   6.216   3.403
 5373TIP3   OH216082   3.733   2.292   2.790
 5373TIP3    H116083   3.765   2.204   2.770
 5373TIP3    H216084   3.786   2.350   2.736
 5374TIP3   OH216085   5.903   2.677   0.737
 5374TIP3    H116086   5.840   2.697   0.806
 5374TIP3    H216087   5.855   2.622   0.675
 5375TIP3   OH216088   6.423   4.354   2.357
 5375TIP3    H116089   6.499   4.401   2.391
 5375TIP3    H216090   6.383   4.314   2.435
 5376TIP3   OH216091   0.252   1.015   4.377
 5376TIP3    H116092   0.163   1.047   4.391
 5376TIP3    H216093   0.305   1.095   4.367
 5377TIP3   OH216094   6.469   5.337   1.815
 5377TIP3    H116095   6.548   5.284   1.807
 5377TIP3    H216096   6.400   5.283   1.774
 5378TIP3   OH216097   4.191   5.858   1.357
 5378TIP3    H116098   4.202   5.764   1.344
 5378TIP3    H216099   4.148   5.889   1.276
 5379TIP3   OH216100   5.391   2.805   4.265
 5379TIP3    H116101   5.355   2.818   4.178
 5379TIP3    H216102   5.316   2.782   4.319
 5380TIP3   OH216103   6.512   1.917   2.075
 5380TIP3    H116104   6.602   1.941   2.056
 5380TIP3    H216105   6.466   2.001   2.081
 5381TIP3   OH216106   6.732   1.747   5.090
 5381TIP3    H116107   6.815   1.700   5.081
 5381TIP3    H216108   6.736   1.786   5.177
 5382TIP3   OH216109   6.010   1.016   3.989
 5382TIP3    H116110   6.003   0.992   3.897
 5382TIP3    H216111   6.099   1.049   3.999
 5383TIP3   OH216112   1.857   2.640   3.841
 5383TIP3    H116113   1.836   2.642   3.748
 5383TIP3    H216114   1.794   2.578   3.878
 5384TIP3   OH216115   5.754   0.565   0.376
 5384TIP3    H116116   5.817   0.529   0.438
 5384TIP3    H216117   5.694   0.617   0.430
 5385TIP3   OH216118   3.753   4.857   1.246
 5385TIP3    H116119   3.831   4.832   1.197
 5385TIP3    H216120   3.773   4.834   1.337
 5386TIP3   OH216121   5.631   1.536   1.257
 5386TIP3    H116122   5.563   1.479   1.292
 5386TIP3    H216123   5.708   1.479   1.249
 5387TIP3   OH216124   5.885   2.783   5.340
 5387TIP3    H116125   5.888   2.701   5.291
 5387TIP3    H216126   5.948   2.773   5.411
 5388TIP3   OH216127   2.880   3.844   0.735
 5388TIP3    H116128   2.968   3.878   0.750
 5388TIP3    H216129   2.848   3.894   0.660
 5389TIP3   OH216130   0.548   2.888   0.146
 5389TIP3    H116131   0.582   2.905   0.058
 5389TIP3    H216132   0.586   2.803   0.170
 5390TIP3   OH216133   1.996   3.278   5.348
 5390TIP3    H116134   1.902   3.285   5.362
 5390TIP3    H216135   2.026   3.369   5.343
 5391TIP3   OH216136   4.651   6.442   5.377
 5391TIP3    H116137   4.743   6.461   5.392
 5391TIP3    H216138   4.642   6.440   5.282
 5392TIP3   OH216139   4.023   3.398   3.450
 5392TIP3    H116140   4.027   3.308   3.417
 5392TIP3    H216141   3.969   3.444   3.386
 5393TIP3   OH216142   3.139   3.092   3.269
 5393TIP3    H116143   3.225   3.105   3.310
 5393TIP3    H216144   3.149   3.012   3.217
 5394TIP3   OH216145   1.922   3.355   2.059
 5394TIP3    H116146   1.856   3.286   2.062
 5394TIP3    H216147   2.002   3.311   2.030
 5395TIP3   OH216148   6.234   3.597   5.253
 5395TIP3    H116149   6.176   3.540   5.303
 5395TIP3    H216150   6.313   3.545   5.239
 5396TIP3   OH216151   1.105   1.747   1.711
 5396TIP3    H116152   1.149   1.785   1.635
 5396TIP3    H216153   1.169   1.756   1.782
 5397TIP3   OH216154   5.615   2.250   1.253
 5397TIP3    H116155   5.631   2.344   1.259
 5397TIP3    H216156   5.520   2.243   1.241
 5398TIP3   OH216157   5.704   1.305   0.376
 5398TIP3    H116158   5.643   1.250   0.327
 5398TIP3    H216159   5.746   1.359   0.309
 5399TIP3   OH216160   2.783   6.488   2.413
 5399TIP3    H116161   2.838   6.545   2.361
 5399TIP3    H216162   2.733   6.438   2.349
 5400TIP3   OH216163   4.352   0.834   3.654
 5400TIP3    H116164   4.265   0.798   3.669
 5400TIP3    H216165   4.412   0.763   3.677
 5401TIP3   OH216166   0.224   3.944   4.794
 5401TIP3    H116167   0.248   4.018   4.738
 5401TIP3    H216168   0.132   3.959   4.816
 5402TIP3   OH216169   4.454   2.321   0.085
 5402TIP3    H116170   4.469   2.283  -0.002
 5402TIP3    H216171   4.514   2.395   0.090
 5403TIP3   OH216172   4.798   2.618   0.296
 5403TIP3    H116173   4.842   2.561   0.233
 5403TIP3    H216174   4.833   2.592   0.381
 5404TIP3   OH216175   3.946   5.554   5.354
 5404TIP3    H116176   4.041   5.548   5.360
 5404TIP3    H216177   3.930   5.585   5.264
 5405TIP3   OH216178   6.134   4.568   3.952
 5405TIP3    H116179   6.219   4.562   3.908
 5405TIP3    H216180   6.142   4.511   4.028
 5406TIP3   OH216181   5.815   5.534   1.235
 5406TIP3    H116182   5.736   5.587   1.246
 5406TIP3    H216183   5.848   5.556   1.148
 5407TIP3   OH216184   2.199   3.653   4.680
 5407TIP3    H116185   2.207   3.648   4.585
 5407TIP3    H216186   2.107   3.634   4.697
 5408TIP3   OH216187   3.210   0.014   1.464
 5408TIP3    H116188   3.196   0.107   1.478
 5408TIP3    H216189   3.152  -0.009   1.391
 5409TIP3   OH216190   4.660   5.310   3.143
 5409TIP3    H116191   4.742   5.266   3.164
 5409TIP3    H216192   4.653   5.380   3.208
 5410TIP3   OH216193   2.364   6.808   0.839
 5410TIP3    H116194   2.305   6.754   0.786
 5410TIP3    H216195   2.440   6.823   0.782
 5411TIP3   OH216196   6.931   6.622   4.077
 5411TIP3    H116197   6.993   6.683   4.118
 5411TIP3    H216198   6.962   6.535   4.105
 5412TIP3   OH216199   2.456   3.158   4.652
 5412TIP3    H116200   2.405   3.078   4.636
 5412TIP3    H216201   2.389   3.226   4.665
 5413TIP3   OH216202   6.658   6.007   5.138
 5413TIP3    H116203   6.599   5.938   5.166
 5413TIP3    H216204   6.602   6.070   5.093
 5414TIP3   OH216205   5.988   0.175   4.010
 5414TIP3    H116206   6.006   0.263   4.044
 5414TIP3    H216207   6.025   0.116   4.076
 5415TIP3   OH216208   4.043   6.056   5.028
 5415TIP3    H116209   4.055   5.963   5.047
 5415TIP3    H216210   3.952   6.064   4.999
 5416TIP3   OH216211   3.024   4.122   0.740
 5416TIP3    H116212   3.082   4.055   0.705
 5416TIP3    H216213   3.083   4.185   0.783
 5417TIP3   OH216214   5.761   5.540   3.304
 5417TIP3    H116215   5.765   5.507   3.394
 5417TIP3    H216216   5.850   5.528   3.271
 5418TIP3   OH216217   3.618   3.913   1.404
 5418TIP3    H116218   3.639   3.909   1.311
 5418TIP3    H216219   3.697   3.884   1.448
 5419TIP3   OH216220   0.774   5.906   3.308
 5419TIP3    H116221   0.706   5.859   3.260
 5419TIP3    H216222   0.761   5.882   3.400
 5420TIP3   OH216223   6.447   2.445   4.772
 5420TIP3    H116224   6.383   2.513   4.792
 5420TIP3    H216225   6.532   2.488   4.786
 5421TIP3   OH216226   3.123   4.914   2.174
 5421TIP3    H116227   3.184   4.872   2.235
 5421TIP3    H216228   3.175   4.983   2.133
 5422TIP3   OH216229   6.132   3.607   4.113
 5422TIP3    H116230   6.197   3.550   4.072
 5422TIP3    H216231   6.173   3.638   4.193
 5423TIP3   OH216232   4.115   5.081   2.595
 5423TIP3    H116233   4.174   5.141   2.550
 5423TIP3    H216234   4.066   5.037   2.525
 5424TIP3   OH216235   3.305   0.888   1.339
 5424TIP3    H116236   3.252   0.964   1.364
 5424TIP3    H216237   3.373   0.924   1.282
 5425TIP3   OH216238   4.618   3.463   2.628
 5425TIP3    H116239   4.690   3.468   2.691
 5425TIP3    H216240   4.649   3.401   2.562
 5426TIP3   OH216241   4.996   6.582   0.664
 5426TIP3    H116242   5.039   6.636   0.730
 5426TIP3    H216243   4.910   6.624   0.651
 5427TIP3   OH216244   2.372   2.734   2.254
 5427TIP3    H116245   2.434   2.663   2.237
 5427TIP3    H216246   2.414   2.812   2.218
 5428TIP3   OH216247   1.560   0.481   3.225
 5428TIP3    H116248   1.629   0.475   3.158
 5428TIP3    H216249   1.599   0.439   3.301
 5429TIP3   OH216250   0.115   1.842   2.505
 5429TIP3    H116251   0.072   1.759   2.525
 5429TIP3    H216252   0.045   1.898   2.470
 5430TIP3   OH216253   3.350   0.854   5.236
 5430TIP3    H116254   3.407   0.908   5.291
 5430TIP3    H216255   3.373   0.764   5.260
 5431TIP3   OH216256   6.660   4.372   0.861
 5431TIP3    H116257   6.729   4.428   0.823
 5431TIP3    H216258   6.707   4.294   0.892
 5432TIP3   OH216259   2.268   3.318   4.941
 5432TIP3    H116260   2.259   3.320   4.846
 5432TIP3    H216261   2.254   3.409   4.968
 5433TIP3   OH216262   6.103   4.893   1.526
 5433TIP3    H116263   6.011   4.912   1.543
 5433TIP3    H216264   6.132   4.965   1.470
 5434TIP3   OH216265   5.412   3.999   3.751
 5434TIP3    H116266   5.318   3.988   3.739
 5434TIP3    H216267   5.424   4.094   3.754
 5435TIP3   OH216268   5.699   6.248   3.594
 5435TIP3    H116269   5.611   6.218   3.571
 5435TIP3    H216270   5.718   6.205   3.678
 5436TIP3   OH216271   1.218   0.905   0.736
 5436TIP3    H116272   1.205   0.999   0.736
 5436TIP3    H216273   1.294   0.891   0.679
 5437TIP3   OH216274   6.197   0.517   4.333
 5437TIP3    H116275   6.196   0.427   4.364
 5437TIP3    H216276   6.190   0.570   4.413
 5438TIP3   OH216277   2.197   5.627   0.338
 5438TIP3    H116278   2.102   5.639   0.340
 5438TIP3    H216279   2.208   5.532   0.339
 5439TIP3   OH216280   3.132   3.359   3.243
 5439TIP3    H116281   3.121   3.266   3.259
 5439TIP3    H216282   3.217   3.366   3.199
 5440TIP3   OH216283   6.178   1.279   1.045
 5440TIP3    H116284   6.142   1.277   1.134
 5440TIP3    H216285   6.272   1.266   1.057
 5441TIP3   OH216286   7.149   5.787   0.462
 5441TIP3    H116287   7.099   5.729   0.520
 5441TIP3    H216288   7.203   5.838   0.521
 5442TIP3   OH216289   0.768   3.066   2.910
 5442TIP3    H116290   0.787   3.026   2.825
 5442TIP3    H216291   0.760   2.991   2.969
 5443TIP3   OH216292   2.897   0.298   5.434
 5443TIP3    H116293   2.902   0.359   5.508
 5443TIP3    H216294   2.806   0.302   5.406
 5444TIP3   OH216295   6.036   0.872   2.842
 5444TIP3    H116296   6.013   0.832   2.926
 5444TIP3    H216297   5.990   0.956   2.842
 5445TIP3   OH216298   2.787   6.477   0.268
 5445TIP3    H116299   2.721   6.490   0.336
 5445TIP3    H216300   2.789   6.561   0.221
 5446TIP3   OH216301   6.513   0.607   2.862
 5446TIP3    H116302   6.444   0.667   2.890
 5446TIP3    H216303   6.540   0.562   2.942
 5447TIP3   OH216304   2.688   5.159   4.489
 5447TIP3    H116305   2.687   5.077   4.538
 5447TIP3    H216306   2.707   5.134   4.399
 5448TIP3   OH216307   5.791   3.978   5.312
 5448TIP3    H116308   5.849   3.904   5.298
 5448TIP3    H216309   5.755   3.965   5.399
 5449TIP3   OH216310   2.441   2.109   1.455
 5449TIP3    H116311   2.450   2.180   1.392
 5449TIP3    H216312   2.531   2.086   1.479
 5450TIP3   OH216313   1.321   2.395   4.205
 5450TIP3    H116314   1.226   2.410   4.207
 5450TIP3    H216315   1.346   2.388   4.297
 5451TIP3   OH216316   4.410   4.898   1.430
 5451TIP3    H116317   4.492   4.924   1.386
 5451TIP3    H216318   4.426   4.808   1.458
 5452TIP3   OH216319   3.916   6.786   1.880
 5452TIP3    H116320   3.835   6.749   1.846
 5452TIP3    H216321   3.928   6.867   1.829
 5453TIP3   OH216322   1.833   6.506   2.373
 5453TIP3    H116323   1.800   6.536   2.458
 5453TIP3    H216324   1.796   6.418   2.362
 5454TIP3   OH216325   5.850   0.329   1.146
 5454TIP3    H116326   5.780   0.392   1.162
 5454TIP3    H216327   5.836   0.299   1.056
 5455TIP3   OH216328   0.777   5.520   3.536
 5455TIP3    H116329   0.847   5.461   3.565
 5455TIP3    H216330   0.751   5.487   3.451
 5456TIP3   OH216331   3.498   0.463   3.526
 5456TIP3    H116332   3.403   0.449   3.530
 5456TIP3    H216333   3.508   0.549   3.485
 5457TIP3   OH216334   4.475   4.382   3.078
 5457TIP3    H116335   4.492   4.293   3.048
 5457TIP3    H216336   4.553   4.407   3.127
 5458TIP3   OH216337   0.517   3.835   4.456
 5458TIP3    H116338   0.499   3.825   4.550
 5458TIP3    H216339   0.438   3.804   4.413
 5459TIP3   OH216340   4.665   6.650   4.601
 5459TIP3    H116341   4.663   6.719   4.535
 5459TIP3    H216342   4.631   6.690   4.680
 5460TIP3   OH216343   3.638   5.389   5.399
 5460TIP3    H116344   3.585   5.332   5.344
 5460TIP3    H216345   3.633   5.475   5.355
 5461TIP3   OH216346   4.660   3.600   0.741
 5461TIP3    H116347   4.677   3.512   0.775
 5461TIP3    H216348   4.687   3.659   0.811
 5462TIP3   OH216349   0.870   3.872   4.826
 5462TIP3    H116350   0.845   3.785   4.796
 5462TIP3    H216351   0.904   3.858   4.915
 5463TIP3   OH216352   2.503   3.755   0.524
 5463TIP3    H116353   2.534   3.800   0.603
 5463TIP3    H216354   2.433   3.698   0.555
 5464TIP3   OH216355   4.299   2.996   5.217
 5464TIP3    H116356   4.263   3.079   5.186
 5464TIP3    H216357   4.259   2.930   5.162
 5465TIP3   OH216358   2.872   1.309   3.025
 5465TIP3    H116359   2.918   1.382   2.984
 5465TIP3    H216360   2.844   1.254   2.952
 5466TIP3   OH216361   0.522   2.882   4.294
 5466TIP3    H116362   0.585   2.908   4.226
 5466TIP3    H216363   0.512   2.788   4.283
 5467TIP3   OH216364   1.468   5.501   1.967
 5467TIP3    H116365   1.420   5.568   2.016
 5467TIP3    H216366   1.553   5.541   1.949
 5468TIP3   OH216367   2.628   6.372   2.166
 5468TIP3    H116368   2.573   6.431   2.114
 5468TIP3    H216369   2.598   6.284   2.141
 5469TIP3   OH216370   2.670  -0.004   4.264
 5469TIP3    H116371   2.730  -0.079   4.261
 5469TIP3    H216372   2.728   0.072   4.275
 5470TIP3   OH216373   3.779   2.224   3.750
 5470TIP3    H116374   3.727   2.282   3.694
 5470TIP3    H216375   3.837   2.179   3.689
 5471TIP3   OH216376   2.085   6.579   3.168
 5471TIP3    H116377   2.047   6.665   3.189
 5471TIP3    H216378   2.010   6.523   3.152
 5472TIP3   OH216379   5.541   0.737   3.286
 5472TIP3    H116380   5.559   0.778   3.370
 5472TIP3    H216381   5.601   0.781   3.225
 5473TIP3   OH216382   6.894   4.583   2.822
 5473TIP3    H116383   6.909   4.667   2.778
 5473TIP3    H216384   6.915   4.599   2.914
 5474TIP3   OH216385   0.057   6.304   0.184
 5474TIP3    H116386  -0.015   6.242   0.196
 5474TIP3    H216387   0.045   6.368   0.254
 5475TIP3   OH216388   2.820   1.289   1.449
 5475TIP3    H116389   2.865   1.216   1.491
 5475TIP3    H216390   2.733   1.255   1.429
 5476TIP3   OH216391   4.546   4.583   5.656
 5476TIP3    H116392   4.455   4.555   5.643
 5476TIP3    H216393   4.589   4.563   5.573
 5477TIP3   OH216394   6.340   0.222   0.085
 5477TIP3    H116395   6.415   0.174   0.050
 5477TIP3    H216396   6.293   0.255   0.008
 5478TIP3   OH216397   5.443   0.946   4.192
 5478TIP3    H116398   5.386   0.954   4.115
 5478TIP3    H216399   5.440   0.854   4.215
 5479TIP3   OH216400   0.761   6.800   0.733
 5479TIP3    H116401   0.789   6.717   0.694
 5479TIP3    H216402   0.840   6.835   0.775
 5480TIP3   OH216403   5.318   3.809   3.143
 5480TIP3    H116404   5.357   3.894   3.121
 5480TIP3    H216405   5.305   3.767   3.058
 5481TIP3   OH216406   6.483   2.655   0.935
 5481TIP3    H116407   6.437   2.614   1.009
 5481TIP3    H216408   6.509   2.581   0.880
 5482TIP3   OH216409   3.424   5.383   5.641
 5482TIP3    H116410   3.448   5.301   5.598
 5482TIP3    H216411   3.345   5.412   5.595
 5483TIP3   OH216412   3.215   3.984   3.960
 5483TIP3    H116413   3.240   4.052   3.897
 5483TIP3    H216414   3.207   3.904   3.907
 5484TIP3   OH216415   6.556   4.308   4.818
 5484TIP3    H116416   6.525   4.217   4.822
 5484TIP3    H216417   6.555   4.328   4.725
 5485TIP3   OH216418   4.602   0.228   0.664
 5485TIP3    H116419   4.572   0.257   0.578
 5485TIP3    H216420   4.692   0.198   0.650
 5486TIP3   OH216421   4.447   5.554   5.230
 5486TIP3    H116422   4.395   5.633   5.215
 5486TIP3    H216423   4.434   5.502   5.151
 5487TIP3   OH216424   6.573   1.825   3.135
 5487TIP3    H116425   6.503   1.778   3.089
 5487TIP3    H216426   6.565   1.797   3.226
 5488TIP3   OH216427   6.444   2.140   0.232
 5488TIP3    H116428   6.373   2.190   0.273
 5488TIP3    H216429   6.524   2.173   0.273
 5489TIP3   OH216430   5.646   5.360   5.063
 5489TIP3    H116431   5.687   5.353   5.150
 5489TIP3    H216432   5.553   5.341   5.079
 5490TIP3   OH216433   3.398   2.761   4.326
 5490TIP3    H116434   3.473   2.731   4.377
 5490TIP3    H216435   3.436   2.799   4.247
 5491TIP3   OH216436   1.477   4.566   3.024
 5491TIP3    H116437   1.468   4.619   3.103
 5491TIP3    H216438   1.388   4.540   3.002
 5492TIP3   OH216439   7.080   5.455   3.754
 5492TIP3    H116440   7.107   5.471   3.664
 5492TIP3    H216441   6.995   5.500   3.762
 5493TIP3   OH216442   5.247   3.189   2.095
 5493TIP3    H116443   5.310   3.148   2.155
 5493TIP3    H216444   5.257   3.140   2.013
 5494TIP3   OH216445   5.559   2.563   0.335
 5494TIP3    H116446   5.506   2.643   0.331
 5494TIP3    H216447   5.564   2.533   0.245
 5495TIP3   OH216448   4.645   0.224   4.909
 5495TIP3    H116449   4.676   0.304   4.952
 5495TIP3    H216450   4.660   0.155   4.973
 5496TIP3   OH216451   5.720   4.350   5.280
 5496TIP3    H116452   5.787   4.290   5.313
 5496TIP3    H216453   5.705   4.411   5.352
 5497TIP3   OH216454   7.092   0.218   1.222
 5497TIP3    H116455   7.104   0.267   1.304
 5497TIP3    H216456   7.179   0.216   1.182
 5498TIP3   OH216457   4.111   1.638   4.931
 5498TIP3    H116458   4.174   1.584   4.884
 5498TIP3    H216459   4.159   1.719   4.950
 5499TIP3   OH216460   7.054   5.612   0.007
 5499TIP3    H116461   7.118   5.607   0.077
 5499TIP3    H216462   7.083   5.546  -0.057
 5500TIP3   OH216463   4.373   5.755   0.937
 5500TIP3    H116464   4.384   5.848   0.919
 5500TIP3    H216465   4.280   5.738   0.918
 5501TIP3   OH216466   1.539   0.497   0.437
 5501TIP3    H116467   1.600   0.524   0.506
 5501TIP3    H216468   1.475   0.569   0.433
 5502TIP3   OH216469   1.569   2.760   0.425
 5502TIP3    H116470   1.600   2.846   0.452
 5502TIP3    H216471   1.527   2.775   0.340
 5503TIP3   OH216472   4.288   0.528   1.881
 5503TIP3    H116473   4.235   0.537   1.802
 5503TIP3    H216474   4.367   0.482   1.852
 5504TIP3   OH216475   5.539   3.947   2.413
 5504TIP3    H116476   5.506   3.903   2.334
 5504TIP3    H216477   5.568   3.876   2.470
 5505TIP3   OH216478   2.765   5.992   4.041
 5505TIP3    H116479   2.749   6.079   4.079
 5505TIP3    H216480   2.685   5.973   3.992
 5506TIP3   OH216481   0.653   3.858   3.591
 5506TIP3    H116482   0.720   3.868   3.523
 5506TIP3    H216483   0.697   3.808   3.660
 5507TIP3   OH216484   6.042   4.847   3.998
 5507TIP3    H116485   5.958   4.849   3.952
 5507TIP3    H216486   6.071   4.757   3.991
 5508TIP3   OH216487   3.152   0.244   3.695
 5508TIP3    H116488   3.155   0.325   3.643
 5508TIP3    H216489   3.239   0.206   3.686
 5509TIP3   OH216490   5.870   6.696   3.363
 5509TIP3    H116491   5.909   6.717   3.278
 5509TIP3    H216492   5.860   6.601   3.362
 5510TIP3   OH216493   0.680   4.202   1.955
 5510TIP3    H116494   0.621   4.164   2.019
 5510TIP3    H216495   0.664   4.296   1.960
 5511TIP3   OH216496   0.791   5.347   1.478
 5511TIP3    H116497   0.877   5.306   1.473
 5511TIP3    H216498   0.764   5.335   1.569
 5512TIP3   OH216499   7.156   2.419   4.411
 5512TIP3    H116500   7.203   2.406   4.328
 5512TIP3    H216501   7.091   2.349   4.413
 5513TIP3   OH216502   3.200   4.299   0.883
 5513TIP3    H116503   3.130   4.361   0.903
 5513TIP3    H216504   3.192   4.232   0.951
 5514TIP3   OH216505   6.167   2.620   4.249
 5514TIP3    H116506   6.138   2.705   4.216
 5514TIP3    H216507   6.237   2.641   4.311
 5515TIP3   OH216508   5.172   2.386   0.984
 5515TIP3    H116509   5.085   2.344   0.987
 5515TIP3    H216510   5.233   2.312   0.983
 5516TIP3   OH216511   6.466   0.050   5.002
 5516TIP3    H116512   6.548   0.002   4.992
 5516TIP3    H216513   6.492   0.142   5.009
 5517TIP3   OH216514   6.794   2.976   1.072
 5517TIP3    H116515   6.700   2.957   1.074
 5517TIP3    H216516   6.822   2.965   1.163
 5518TIP3   OH216517   3.598   2.507   0.882
 5518TIP3    H116518   3.650   2.517   0.961
 5518TIP3    H216519   3.656   2.534   0.811
 5519TIP3   OH216520   0.705   4.343   1.616
 5519TIP3    H116521   0.712   4.329   1.522
 5519TIP3    H216522   0.783   4.393   1.639
 5520TIP3   OH216523   1.566   0.088   2.505
 5520TIP3    H116524   1.474   0.065   2.495
 5520TIP3    H216525   1.585   0.146   2.431
 5521TIP3   OH216526   2.259   5.681   2.206
 5521TIP3    H116527   2.202   5.755   2.226
 5521TIP3    H216528   2.282   5.645   2.292
 5522TIP3   OH216529   3.597   1.225   4.684
 5522TIP3    H116530   3.571   1.294   4.746
 5522TIP3    H216531   3.689   1.208   4.705
 5523TIP3   OH216532   5.407   6.188   3.658
 5523TIP3    H116533   5.357   6.268   3.671
 5523TIP3    H216534   5.342   6.120   3.641
 5524TIP3   OH216535   0.377   2.669   5.505
 5524TIP3    H116536   0.436   2.715   5.445
 5524TIP3    H216537   0.326   2.739   5.546
 5525TIP3   OH216538   7.063   5.638   0.950
 5525TIP3    H116539   7.093   5.551   0.976
 5525TIP3    H216540   7.057   5.687   1.032
 5526TIP3   OH216541   6.504   0.880   0.166
 5526TIP3    H116542   6.591   0.841   0.166
 5526TIP3    H216543   6.519   0.973   0.181
 5527TIP3   OH216544   5.010   1.958   5.123
 5527TIP3    H116545   5.085   2.003   5.163
 5527TIP3    H216546   5.048   1.905   5.053
 5528TIP3   OH216547   7.032   0.028   5.235
 5528TIP3    H116548   7.106  -0.018   5.193
 5528TIP3    H216549   7.037   0.002   5.327
 5529TIP3   OH216550   3.872   5.253   5.274
 5529TIP3    H116551   3.953   5.262   5.324
 5529TIP3    H216552   3.809   5.308   5.320
 5530TIP3   OH216553   2.560   2.416   4.462
 5530TIP3    H116554   2.466   2.419   4.473
 5530TIP3    H216555   2.573   2.400   4.368
 5531TIP3   OH216556   2.162   5.788   4.523
 5531TIP3    H116557   2.168   5.763   4.615
 5531TIP3    H216558   2.195   5.712   4.476
 5532TIP3   OH216559   6.699   2.880   0.492
 5532TIP3    H116560   6.665   2.869   0.581
 5532TIP3    H216561   6.624   2.863   0.435
 5533TIP3   OH216562   3.233   3.526   3.597
 5533TIP3    H116563   3.164   3.539   3.532
 5533TIP3    H216564   3.274   3.443   3.573
 5534TIP3   OH216565   1.492   3.680   3.083
 5534TIP3    H116566   1.478   3.587   3.099
 5534TIP3    H216567   1.404   3.719   3.086
 5535TIP3   OH216568   0.294   1.143   2.035
 5535TIP3    H116569   0.335   1.081   2.095
 5535TIP3    H216570   0.343   1.134   1.953
 5536TIP3   OH216571   1.021   1.286   5.237
 5536TIP3    H116572   0.972   1.206   5.220
 5536TIP3    H216573   1.112   1.258   5.241
 5537TIP3   OH216574   4.180   2.378   1.499
 5537TIP3    H116575   4.244   2.327   1.449
 5537TIP3    H216576   4.199   2.469   1.477
 5538TIP3   OH216577   2.321   5.472   3.943
 5538TIP3    H116578   2.284   5.456   4.029
 5538TIP3    H216579   2.398   5.527   3.960
 5539TIP3   OH216580   2.404   6.598   4.708
 5539TIP3    H116581   2.395   6.595   4.803
 5539TIP3    H216582   2.350   6.673   4.681
 5540TIP3   OH216583   0.181   5.878   2.330
 5540TIP3    H116584   0.269   5.902   2.302
 5540TIP3    H216585   0.168   5.790   2.295
 5541TIP3   OH216586   5.493   4.530   2.773
 5541TIP3    H116587   5.418   4.523   2.832
 5541TIP3    H216588   5.488   4.619   2.738
 5542TIP3   OH216589   6.996   4.945   1.911
 5542TIP3    H116590   7.078   4.960   1.865
 5542TIP3    H216591   6.932   4.927   1.842
 5543TIP3   OH216592   6.283   3.233   0.311
 5543TIP3    H116593   6.205   3.232   0.368
 5543TIP3    H216594   6.259   3.294   0.241
 5544TIP3   OH216595   6.325   6.313   1.292
 5544TIP3    H116596   6.230   6.322   1.295
 5544TIP3    H216597   6.357   6.402   1.275
 5545TIP3   OH216598   4.342   5.545   4.666
 5545TIP3    H116599   4.334   5.484   4.739
 5545TIP3    H216600   4.343   5.632   4.708
 5546TIP3   OH216601   0.390   5.916   1.923
 5546TIP3    H116602   0.378   5.821   1.924
 5546TIP3    H216603   0.407   5.938   2.015
 5547TIP3   OH216604   3.002   3.621   1.549
 5547TIP3    H116605   2.984   3.651   1.638
 5547TIP3    H216606   2.935   3.663   1.495
 5548TIP3   OH216607   3.777   5.587   1.193
 5548TIP3    H116608   3.725   5.564   1.116
 5548TIP3    H216609   3.860   5.541   1.181
 5549TIP3   OH216610   3.916   3.943   1.385
 5549TIP3    H116611   3.925   4.005   1.458
 5549TIP3    H216612   3.956   3.862   1.417
 5550TIP3   OH216613   0.750   5.785   0.736
 5550TIP3    H116614   0.705   5.741   0.809
 5550TIP3    H216615   0.715   5.875   0.737
 5551TIP3   OH216616   6.094   6.103   0.376
 5551TIP3    H116617   6.077   6.017   0.415
 5551TIP3    H216618   6.153   6.145   0.438
 5552TIP3   OH216619   5.233   4.637   2.478
 5552TIP3    H116620   5.288   4.656   2.402
 5552TIP3    H216621   5.143   4.637   2.444
 5553TIP3   OH216622   6.242   1.306   3.043
 5553TIP3    H116623   6.336   1.288   3.050
 5553TIP3    H216624   6.236   1.387   2.993
 5554TIP3   OH216625   1.756   4.116   5.397
 5554TIP3    H116626   1.851   4.117   5.408
 5554TIP3    H216627   1.742   4.060   5.320
 5555TIP3   OH216628   1.040   0.828   5.630
 5555TIP3    H116629   1.042   0.844   5.535
 5555TIP3    H216630   0.975   0.889   5.663
 5556TIP3   OH216631   6.386   6.669   3.775
 5556TIP3    H116632   6.458   6.728   3.753
 5556TIP3    H216633   6.403   6.590   3.723
 5557TIP3   OH216634   6.902   3.964   1.659
 5557TIP3    H116635   6.875   3.873   1.669
 5557TIP3    H216636   6.821   4.011   1.637
 5558TIP3   OH216637   1.695   1.624   3.218
 5558TIP3    H116638   1.733   1.622   3.305
 5558TIP3    H216639   1.683   1.717   3.198
 5559TIP3   OH216640   4.481   5.802   1.326
 5559TIP3    H116641   4.416   5.732   1.336
 5559TIP3    H216642   4.434   5.882   1.348
 5560TIP3   OH216643   5.035   2.522   2.664
 5560TIP3    H116644   4.978   2.538   2.739
 5560TIP3    H216645   5.084   2.443   2.687
 5561TIP3   OH216646   4.188   3.740   5.035
 5561TIP3    H116647   4.152   3.704   4.954
 5561TIP3    H216648   4.163   3.677   5.102
 5562TIP3   OH216649   4.206   1.698   3.021
 5562TIP3    H116650   4.214   1.731   3.110
 5562TIP3    H216651   4.243   1.768   2.966
 5563TIP3   OH216652   5.238   2.070   2.915
 5563TIP3    H116653   5.147   2.041   2.908
 5563TIP3    H216654   5.239   2.127   2.992
 5564TIP3   OH216655   4.447   4.775   0.955
 5564TIP3    H116656   4.506   4.746   0.886
 5564TIP3    H216657   4.504   4.808   1.024
 5565TIP3   OH216658   1.700   5.408   2.511
 5565TIP3    H116659   1.643   5.394   2.586
 5565TIP3    H216660   1.641   5.433   2.440
 5566TIP3   OH216661   5.758   1.814   4.596
 5566TIP3    H116662   5.754   1.903   4.559
 5566TIP3    H216663   5.845   1.782   4.573
 5567TIP3   OH216664   6.126   2.764   3.453
 5567TIP3    H116665   6.200   2.772   3.514
 5567TIP3    H216666   6.061   2.713   3.502
 5568TIP3   OH216667   1.153   6.466   5.511
 5568TIP3    H116668   1.228   6.431   5.463
 5568TIP3    H216669   1.082   6.405   5.491
 5569TIP3   OH216670   2.617   0.272   3.257
 5569TIP3    H116671   2.654   0.189   3.229
 5569TIP3    H216672   2.553   0.295   3.189
 5570TIP3   OH216673   7.178   6.422   5.250
 5570TIP3    H116674   7.084   6.440   5.251
 5570TIP3    H216675   7.185   6.328   5.261
 5571TIP3   OH216676   7.180   6.327   5.549
 5571TIP3    H116677   7.210   6.306   5.460
 5571TIP3    H216678   7.108   6.266   5.564
 5572TIP3   OH216679   0.879   3.744   1.389
 5572TIP3    H116680   0.850   3.655   1.409
 5572TIP3    H216681   0.906   3.740   1.297
 5573TIP3   OH216682   0.092   4.238   5.690
 5573TIP3    H116683   0.160   4.239   5.757
 5573TIP3    H216684   0.060   4.328   5.687
 5574TIP3   OH216685   4.685   2.468   5.476
 5574TIP3    H116686   4.648   2.418   5.549
 5574TIP3    H216687   4.687   2.559   5.508
 5575TIP3   OH216688   1.809   6.135   3.467
 5575TIP3    H116689   1.746   6.085   3.518
 5575TIP3    H216690   1.795   6.107   3.376
 5576TIP3   OH216691   5.543   6.773   1.094
 5576TIP3    H116692   5.470   6.747   1.150
 5576TIP3    H216693   5.591   6.838   1.146
 5577TIP3   OH216694   0.047   0.008   1.514
 5577TIP3    H116695   0.025  -0.007   1.422
 5577TIP3    H216696   0.044   0.103   1.525
 5578TIP3   OH216697   2.833   2.952   1.586
 5578TIP3    H116698   2.856   2.989   1.671
 5578TIP3    H216699   2.744   2.981   1.570
 5579TIP3   OH216700   2.976   2.967   1.104
 5579TIP3    H116701   2.969   3.056   1.069
 5579TIP3    H216702   2.962   2.977   1.198
 5580TIP3   OH216703   3.253   0.747   0.916
 5580TIP3    H116704   3.190   0.684   0.880
 5580TIP3    H216705   3.334   0.696   0.927
 5581TIP3   OH216706   4.820   2.138   5.215
 5581TIP3    H116707   4.767   2.074   5.263
 5581TIP3    H216708   4.859   2.088   5.143
 5582TIP3   OH216709   0.792   2.094   0.484
 5582TIP3    H116710   0.787   2.178   0.531
 5582TIP3    H216711   0.722   2.099   0.419
 5583TIP3   OH216712   2.018   4.582   4.578
 5583TIP3    H116713   2.093   4.618   4.530
 5583TIP3    H216714   2.047   4.581   4.670
 5584TIP3   OH216715   6.598   5.617   3.356
 5584TIP3    H116716   6.550   5.685   3.403
 5584TIP3    H216717   6.646   5.665   3.288
 5585TIP3   OH216718   4.698   1.977   3.144
 5585TIP3    H116719   4.780   2.008   3.183
 5585TIP3    H216720   4.635   2.047   3.161
 5586TIP3   OH216721   0.404   1.760   2.601
 5586TIP3    H116722   0.460   1.789   2.529
 5586TIP3    H216723   0.317   1.794   2.578
 5587TIP3   OH216724   3.338   2.467   2.449
 5587TIP3    H116725   3.322   2.561   2.449
 5587TIP3    H216726   3.315   2.439   2.360
 5588TIP3   OH216727   2.560   1.767   1.381
 5588TIP3    H116728   2.637   1.736   1.333
 5588TIP3    H216729   2.507   1.810   1.314
 5589TIP3   OH216730   3.256   5.258   1.262
 5589TIP3    H116731   3.339   5.307   1.263
 5589TIP3    H216732   3.256   5.211   1.179
 5590TIP3   OH216733   5.920   1.143   1.444
 5590TIP3    H116734   5.904   1.051   1.420
 5590TIP3    H216735   5.935   1.141   1.539
 5591TIP3   OH216736   3.233   6.480   1.636
 5591TIP3    H116737   3.270   6.557   1.592
 5591TIP3    H216738   3.148   6.509   1.669
 5592TIP3   OH216739   3.544   0.841   4.088
 5592TIP3    H116740   3.529   0.762   4.036
 5592TIP3    H216741   3.604   0.894   4.036
 5593TIP3   OH216742   6.856   1.854   3.644
 5593TIP3    H116743   6.796   1.815   3.707
 5593TIP3    H216744   6.943   1.827   3.673
 5594TIP3   OH216745   1.082   0.554   5.209
 5594TIP3    H116746   1.096   0.503   5.129
 5594TIP3    H216747   1.168   0.591   5.229
 5595TIP3   OH216748   1.633   5.952   1.771
 5595TIP3    H116749   1.557   5.985   1.723
 5595TIP3    H216750   1.599   5.929   1.857
 5596TIP3   OH216751   0.504   5.814   5.822
 5596TIP3    H116752   0.554   5.742   5.783
 5596TIP3    H216753   0.560   5.891   5.812
 5597TIP3   OH216754   2.611   3.374   2.355
 5597TIP3    H116755   2.705   3.362   2.369
 5597TIP3    H216756   2.589   3.451   2.408
 5598TIP3   OH216757   1.281   4.745   3.475
 5598TIP3    H116758   1.192   4.734   3.508
 5598TIP3    H216759   1.323   4.803   3.538
 5599TIP3   OH216760   5.788   3.557   2.074
 5599TIP3    H116761   5.696   3.531   2.077
 5599TIP3    H216762   5.801   3.607   2.154
 5600TIP3   OH216763   4.473   5.871   3.490
 5600TIP3    H116764   4.425   5.928   3.550
 5600TIP3    H216765   4.529   5.931   3.440
 5601TIP3   OH216766   1.007   2.359   1.275
 5601TIP3    H116767   1.055   2.382   1.354
 5601TIP3    H216768   0.951   2.435   1.258
 5602TIP3   OH216769   3.605   5.796   4.455
 5602TIP3    H116770   3.668   5.799   4.526
 5602TIP3    H216771   3.616   5.709   4.417
 5603TIP3   OH216772   1.519   3.059   2.541
 5603TIP3    H116773   1.532   2.977   2.590
 5603TIP3    H216774   1.535   3.035   2.450
 5604TIP3   OH216775   4.824   4.333   4.190
 5604TIP3    H116776   4.785   4.380   4.116
 5604TIP3    H216777   4.749   4.310   4.245
 5605TIP3   OH216778   6.329   1.463   4.324
 5605TIP3    H116779   6.238   1.481   4.300
 5605TIP3    H216780   6.343   1.372   4.299
 5606TIP3   OH216781   0.973   0.523   5.491
 5606TIP3    H116782   0.985   0.498   5.400
 5606TIP3    H216783   1.053   0.572   5.513
 5607TIP3   OH216784   1.777   1.681   1.975
 5607TIP3    H116785   1.725   1.606   2.003
 5607TIP3    H216786   1.745   1.754   2.029
 5608TIP3   OH216787   2.117   1.747   0.218
 5608TIP3    H116788   2.193   1.794   0.252
 5608TIP3    H216789   2.137   1.733   0.125
 5609TIP3   OH216790   2.363   4.967   1.203
 5609TIP3    H116791   2.377   4.991   1.294
 5609TIP3    H216792   2.436   4.909   1.181
 5610TIP3   OH216793   6.386   6.222   3.359
 5610TIP3    H116794   6.392   6.253   3.268
 5610TIP3    H216795   6.295   6.196   3.369
 5611TIP3   OH216796   0.881   2.205   2.267
 5611TIP3    H116797   0.808   2.181   2.210
 5611TIP3    H216798   0.933   2.125   2.274
 5612TIP3   OH216799   4.688   5.907   1.705
 5612TIP3    H116800   4.710   5.832   1.650
 5612TIP3    H216801   4.744   5.977   1.675
 5613TIP3   OH216802   4.518   6.003   0.916
 5613TIP3    H116803   4.481   6.077   0.965
 5613TIP3    H216804   4.571   5.956   0.981
 5614TIP3   OH216805   6.357   4.867   2.163
 5614TIP3    H116806   6.343   4.773   2.160
 5614TIP3    H216807   6.287   4.904   2.111
 5615TIP3   OH216808   5.517   0.566   1.920
 5615TIP3    H116809   5.438   0.618   1.907
 5615TIP3    H216810   5.580   0.626   1.958
 5616TIP3   OH216811   1.081   4.979   0.138
 5616TIP3    H116812   1.145   4.979   0.209
 5616TIP3    H216813   1.014   5.041   0.167
 5617TIP3   OH216814   5.575   5.094   0.896
 5617TIP3    H116815   5.499   5.132   0.940
 5617TIP3    H216816   5.544   5.009   0.863
 5618TIP3   OH216817   0.562   2.564   5.232
 5618TIP3    H116818   0.500   2.591   5.164
 5618TIP3    H216819   0.645   2.603   5.206
 5619TIP3   OH216820   6.119   1.570   3.280
 5619TIP3    H116821   6.166   1.593   3.361
 5619TIP3    H216822   6.186   1.576   3.212
 5620TIP3   OH216823   2.549   1.421   4.379
 5620TIP3    H116824   2.600   1.482   4.325
 5620TIP3    H216825   2.459   1.431   4.348
 5621TIP3   OH216826   2.033   4.004   2.577
 5621TIP3    H116827   1.978   3.935   2.615
 5621TIP3    H216828   2.110   3.958   2.545
 5622TIP3   OH216829   4.855   5.922   4.292
 5622TIP3    H116830   4.918   5.944   4.224
 5622TIP3    H216831   4.808   5.846   4.257
 5623TIP3   OH216832   3.706   1.991   5.046
 5623TIP3    H116833   3.638   1.928   5.069
 5623TIP3    H216834   3.779   1.971   5.105
 5624TIP3   OH216835   6.424   4.205   0.878
 5624TIP3    H116836   6.509   4.249   0.870
 5624TIP3    H216837   6.365   4.272   0.913
 5625TIP3   OH216838   1.332   4.765   1.070
 5625TIP3    H116839   1.357   4.792   1.159
 5625TIP3    H216840   1.306   4.847   1.027
 5626TIP3   OH216841   3.888   4.394   4.360
 5626TIP3    H116842   3.884   4.488   4.372
 5626TIP3    H216843   3.874   4.381   4.266
 5627TIP3   OH216844   2.323   2.446   0.568
 5627TIP3    H116845   2.340   2.376   0.631
 5627TIP3    H216846   2.405   2.496   0.565
 5628TIP3   OH216847   2.837   6.336   0.714
 5628TIP3    H116848   2.828   6.295   0.800
 5628TIP3    H216849   2.794   6.421   0.723
 5629TIP3   OH216850   3.625   2.804   4.795
 5629TIP3    H116851   3.644   2.712   4.814
 5629TIP3    H216852   3.663   2.852   4.869
 5630TIP3   OH216853   6.056   2.909   0.651
 5630TIP3    H116854   6.081   2.953   0.732
 5630TIP3    H216855   6.025   2.823   0.679
 5631TIP3   OH216856   3.961   3.482   0.140
 5631TIP3    H116857   3.897   3.554   0.136
 5631TIP3    H216858   4.001   3.490   0.226
 5632TIP3   OH216859   0.667   4.318   4.840
 5632TIP3    H116860   0.735   4.263   4.803
 5632TIP3    H216861   0.607   4.257   4.883
 5633TIP3   OH216862   1.862   2.359   5.017
 5633TIP3    H116863   1.864   2.450   4.988
 5633TIP3    H216864   1.953   2.338   5.036
 5634TIP3   OH216865   5.604   6.079   1.028
 5634TIP3    H116866   5.609   5.991   0.990
 5634TIP3    H216867   5.634   6.068   1.118
 5635TIP3   OH216868   4.254   2.889   1.894
 5635TIP3    H116869   4.250   2.815   1.955
 5635TIP3    H216870   4.166   2.895   1.858
 5636TIP3   OH216871   5.831   3.723   4.524
 5636TIP3    H116872   5.893   3.797   4.532
 5636TIP3    H216873   5.856   3.681   4.442
 5637TIP3   OH216874   3.635   1.742   4.824
 5637TIP3    H116875   3.708   1.681   4.812
 5637TIP3    H216876   3.665   1.824   4.786
 5638TIP3   OH216877   6.720   2.060   3.510
 5638TIP3    H116878   6.758   2.139   3.549
 5638TIP3    H216879   6.771   1.988   3.548
 5639TIP3   OH216880   1.988   2.168   1.393
 5639TIP3    H116881   1.951   2.168   1.305
 5639TIP3    H216882   1.989   2.260   1.418
 5640TIP3   OH216883   6.589   3.793   3.671
 5640TIP3    H116884   6.555   3.879   3.646
 5640TIP3    H216885   6.611   3.803   3.764
 5641TIP3   OH216886   0.923   4.107   3.076
 5641TIP3    H116887   0.929   4.029   3.131
 5641TIP3    H216888   0.909   4.073   2.988
 5642TIP3   OH216889   4.735   4.934   3.447
 5642TIP3    H116890   4.677   4.928   3.372
 5642TIP3    H216891   4.678   4.958   3.520
 5643TIP3   OH216892   0.881   4.387   1.323
 5643TIP3    H116893   0.901   4.294   1.309
 5643TIP3    H216894   0.966   4.430   1.326
 5644TIP3   OH216895   2.709   5.615   4.664
 5644TIP3    H116896   2.627   5.646   4.702
 5644TIP3    H216897   2.737   5.545   4.723
 5645TIP3   OH216898   0.770   4.885   5.034
 5645TIP3    H116899   0.848   4.870   4.981
 5645TIP3    H216900   0.796   4.954   5.096
 5646TIP3   OH216901   3.969   1.658   5.161
 5646TIP3    H116902   4.032   1.604   5.210
 5646TIP3    H216903   4.001   1.655   5.071
 5647TIP3   OH216904   6.268   5.834   0.747
 5647TIP3    H116905   6.313   5.897   0.689
 5647TIP3    H216906   6.318   5.838   0.829
 5648TIP3   OH216907   5.271   5.839   2.749
 5648TIP3    H116908   5.264   5.794   2.665
 5648TIP3    H216909   5.353   5.887   2.745
 5649TIP3   OH216910   7.115   2.759   0.992
 5649TIP3    H116911   7.172   2.773   1.068
 5649TIP3    H216912   7.114   2.843   0.947
 5650TIP3   OH216913   6.297   3.453   1.612
 5650TIP3    H116914   6.360   3.398   1.657
 5650TIP3    H216915   6.339   3.538   1.605
 5651TIP3   OH216916   0.506   5.320   5.007
 5651TIP3    H116917   0.421   5.277   5.015
 5651TIP3    H216918   0.509   5.349   4.915
 5652TIP3   OH216919   2.995   1.198   5.645
 5652TIP3    H116920   3.088   1.216   5.662
 5652TIP3    H216921   2.981   1.225   5.555
 5653TIP3   OH216922   4.514   0.912   3.958
 5653TIP3    H116923   4.510   0.974   3.885
 5653TIP3    H216924   4.572   0.843   3.927
 5654TIP3   OH216925   2.464   2.536   2.794
 5654TIP3    H116926   2.522   2.468   2.759
 5654TIP3    H216927   2.471   2.608   2.732
 5655TIP3   OH216928   4.167   0.724   3.109
 5655TIP3    H116929   4.082   0.749   3.145
 5655TIP3    H216930   4.178   0.633   3.138
 5656TIP3   OH216931   0.262   1.919   5.219
 5656TIP3    H116932   0.307   1.848   5.265
 5656TIP3    H216933   0.186   1.938   5.273
 5657TIP3   OH216934   1.588   1.472   5.540
 5657TIP3    H116935   1.605   1.378   5.554
 5657TIP3    H216936   1.638   1.494   5.462
 5658TIP3   OH216937   4.780   4.477   2.144
 5658TIP3    H116938   4.722   4.405   2.120
 5658TIP3    H216939   4.748   4.552   2.094
 5659TIP3   OH216940   1.050   1.264   1.562
 5659TIP3    H116941   1.060   1.260   1.657
 5659TIP3    H216942   1.033   1.356   1.544
 5660TIP3   OH216943   3.530   1.249   5.536
 5660TIP3    H116944   3.596   1.244   5.605
 5660TIP3    H216945   3.508   1.342   5.531
 5661TIP3   OH216946   4.394   0.154   2.349
 5661TIP3    H116947   4.473   0.106   2.372
 5661TIP3    H216948   4.414   0.245   2.368
 5662TIP3   OH216949   6.943   1.617   1.051
 5662TIP3    H116950   6.965   1.654   0.965
 5662TIP3    H216951   7.027   1.605   1.094
 5663TIP3   OH216952   1.575   3.317   4.337
 5663TIP3    H116953   1.659   3.346   4.301
 5663TIP3    H216954   1.582   3.221   4.341
 5664TIP3   OH216955   0.154   0.549   1.501
 5664TIP3    H116956   0.202   0.630   1.520
 5664TIP3    H216957   0.107   0.567   1.420
 5665TIP3   OH216958   1.753   1.642   5.721
 5665TIP3    H116959   1.712   1.715   5.675
 5665TIP3    H216960   1.835   1.626   5.674
 5666TIP3   OH216961   5.233   1.552   1.516
 5666TIP3    H116962   5.214   1.583   1.428
 5666TIP3    H216963   5.150   1.562   1.564
 5667TIP3   OH216964   1.680   5.037   3.793
 5667TIP3    H116965   1.692   4.950   3.829
 5667TIP3    H216966   1.756   5.087   3.822
 5668TIP3   OH216967   5.433   5.524   0.692
 5668TIP3    H116968   5.497   5.510   0.761
 5668TIP3    H216969   5.455   5.610   0.656
 5669TIP3   OH216970   2.169   5.752   4.181
 5669TIP3    H116971   2.111   5.683   4.211
 5669TIP3    H216972   2.129   5.833   4.213
 5670TIP3   OH216973   5.545   5.477   0.935
 5670TIP3    H116974   5.511   5.502   1.020
 5670TIP3    H216975   5.593   5.395   0.951
 5671TIP3   OH216976   2.191   3.220   4.003
 5671TIP3    H116977   2.105   3.258   4.017
 5671TIP3    H216978   2.178   3.155   3.934
 5672TIP3   OH216979   3.778   4.801   0.924
 5672TIP3    H116980   3.856   4.804   0.981
 5672TIP3    H216981   3.713   4.753   0.976
 5673TIP3   OH216982   4.753   4.300   1.848
 5673TIP3    H116983   4.701   4.274   1.924
 5673TIP3    H216984   4.748   4.224   1.789
 5674TIP3   OH216985   0.519   6.187   1.558
 5674TIP3    H116986   0.518   6.147   1.645
 5674TIP3    H216987   0.579   6.261   1.566
 5675TIP3   OH216988   2.575   3.885   5.500
 5675TIP3    H116989   2.543   3.893   5.590
 5675TIP3    H216990   2.640   3.814   5.504
 5676TIP3   OH216991   1.026   4.997   3.194
 5676TIP3    H116992   0.955   4.998   3.258
 5676TIP3    H216993   1.064   4.910   3.201
 5677TIP3   OH216994   6.640   3.193   4.570
 5677TIP3    H116995   6.700   3.248   4.621
 5677TIP3    H216996   6.563   3.247   4.557
 5678TIP3   OH216997   5.589   1.019   1.196
 5678TIP3    H116998   5.681   1.030   1.219
 5678TIP3    H216999   5.570   0.927   1.215
 5679TIP3   OH217000   2.402   5.078   4.838
 5679TIP3    H117001   2.484   5.101   4.794
 5679TIP3    H217002   2.406   5.126   4.921
 5680TIP3   OH217003   5.404   5.010   5.541
 5680TIP3    H117004   5.367   4.954   5.610
 5680TIP3    H217005   5.492   5.031   5.572
 5681TIP3   OH217006   1.728   5.420   0.868
 5681TIP3    H117007   1.737   5.355   0.937
 5681TIP3    H217008   1.783   5.493   0.896
 5682TIP3   OH217009   0.523   3.904   5.250
 5682TIP3    H117010   0.514   3.932   5.341
 5682TIP3    H217011   0.447   3.942   5.206
 5683TIP3   OH217012   0.224   5.681   0.084
 5683TIP3    H117013   0.253   5.593   0.106
 5683TIP3    H217014   0.288   5.712   0.020
 5684TIP3   OH217015   3.124   4.283   3.267
 5684TIP3    H117016   3.219   4.297   3.274
 5684TIP3    H217017   3.101   4.231   3.345
 5685TIP3   OH217018   1.852   4.724   5.693
 5685TIP3    H117019   1.932   4.686   5.658
 5685TIP3    H217020   1.787   4.712   5.623
 5686TIP3   OH217021   5.007   2.527   0.795
 5686TIP3    H117022   5.068   2.465   0.837
 5686TIP3    H217023   4.928   2.521   0.849
 5687TIP3   OH217024   5.108   6.065   1.095
 5687TIP3    H117025   5.071   6.112   1.021
 5687TIP3    H217026   5.161   5.996   1.056
 5688TIP3   OH217027   3.144   2.634   4.665
 5688TIP3    H117028   3.166   2.541   4.676
 5688TIP3    H217029   3.184   2.677   4.740
 5689TIP3   OH217030   3.372   3.311   0.026
 5689TIP3    H117031   3.354   3.329  -0.066
 5689TIP3    H217032   3.363   3.396   0.069
 5690TIP3   OH217033   6.543   5.372   0.126
 5690TIP3    H117034   6.570   5.456   0.163
 5690TIP3    H217035   6.447   5.374   0.127
 5691TIP3   OH217036   6.825   2.813   5.500
 5691TIP3    H117037   6.880   2.837   5.425
 5691TIP3    H217038   6.871   2.740   5.542
 5692TIP3   OH217039   1.331   4.779   4.834
 5692TIP3    H117040   1.301   4.822   4.914
 5692TIP3    H217041   1.426   4.792   4.835
 5693TIP3   OH217042   6.891   0.073   1.872
 5693TIP3    H117043   6.953   0.124   1.819
 5693TIP3    H217044   6.807   0.087   1.829
 5694TIP3   OH217045   3.001   4.881   2.996
 5694TIP3    H117046   2.964   4.961   2.957
 5694TIP3    H217047   3.018   4.824   2.921
 5695TIP3   OH217048   7.021   2.399   0.718
 5695TIP3    H117049   6.992   2.490   0.722
 5695TIP3    H217050   6.974   2.356   0.789
 5696TIP3   OH217051   6.441   3.432   5.795
 5696TIP3    H117052   6.511   3.389   5.747
 5696TIP3    H217053   6.397   3.488   5.730
 5697TIP3   OH217054   0.327   0.332   5.035
 5697TIP3    H117055   0.349   0.242   5.056
 5697TIP3    H217056   0.339   0.380   5.116
 5698TIP3   OH217057   4.075   4.550   2.703
 5698TIP3    H117058   4.036   4.548   2.791
 5698TIP3    H217059   4.154   4.603   2.713
 5699TIP3   OH217060   4.309   5.617   4.405
 5699TIP3    H117061   4.215   5.624   4.387
 5699TIP3    H217062   4.314   5.575   4.491
 5700TIP3   OH217063   4.002   0.948   2.503
 5700TIP3    H117064   3.919   0.980   2.541
 5700TIP3    H217065   4.038   1.024   2.457
 5701TIP3   OH217066   3.771   1.157   1.187
 5701TIP3    H117067   3.828   1.192   1.255
 5701TIP3    H217068   3.803   1.195   1.105
 5702TIP3   OH217069   3.809   6.651   2.481
 5702TIP3    H117070   3.784   6.719   2.419
 5702TIP3    H217071   3.904   6.645   2.474
 5703TIP3   OH217072   3.741   1.029   4.456
 5703TIP3    H117073   3.712   1.058   4.542
 5703TIP3    H217074   3.796   0.953   4.474
 5704TIP3   OH217075   2.769   0.888   4.209
 5704TIP3    H117076   2.809   0.945   4.143
 5704TIP3    H217077   2.675   0.898   4.195
 5705TIP3   OH217078   0.658   2.632   0.536
 5705TIP3    H117079   0.569   2.610   0.509
 5705TIP3    H217080   0.663   2.727   0.530
 5706TIP3   OH217081   3.228   0.031   2.811
 5706TIP3    H117082   3.195  -0.057   2.796
 5706TIP3    H217083   3.156   0.089   2.783
 5707TIP3   OH217084   1.395   2.129   1.552
 5707TIP3    H117085   1.346   2.088   1.623
 5707TIP3    H217086   1.331   2.141   1.481
 5708TIP3   OH217087   5.838   4.341   5.687
 5708TIP3    H117088   5.891   4.273   5.645
 5708TIP3    H217089   5.876   4.349   5.775
 5709TIP3   OH217090   4.076   3.629   4.821
 5709TIP3    H117091   3.990   3.611   4.859
 5709TIP3    H217092   4.064   3.611   4.727
 5710TIP3   OH217093   4.717   6.385   2.563
 5710TIP3    H117094   4.715   6.291   2.544
 5710TIP3    H217095   4.804   6.413   2.536
 5711TIP3   OH217096   0.952   0.537   3.185
 5711TIP3    H117097   0.990   0.459   3.226
 5711TIP3    H217098   0.937   0.597   3.258
 5712TIP3   OH217099   3.510   2.693   1.410
 5712TIP3    H117100   3.488   2.760   1.345
 5712TIP3    H217101   3.483   2.611   1.369
 5713TIP3   OH217102   3.299   3.936   1.249
 5713TIP3    H117103   3.357   4.002   1.289
 5713TIP3    H217104   3.345   3.853   1.262
 5714TIP3   OH217105   6.331   1.707   1.803
 5714TIP3    H117106   6.346   1.634   1.863
 5714TIP3    H217107   6.240   1.732   1.818
 5715TIP3   OH217108   4.626   6.109   3.899
 5715TIP3    H117109   4.669   6.193   3.883
 5715TIP3    H217110   4.672   6.073   3.975
 5716TIP3   OH217111   0.416   5.771   2.687
 5716TIP3    H117112   0.393   5.724   2.767
 5716TIP3    H217113   0.405   5.706   2.617
 5717TIP3   OH217114   4.283   2.831   1.197
 5717TIP3    H117115   4.259   2.783   1.117
 5717TIP3    H217116   4.330   2.908   1.164
 5718TIP3   OH217117   4.064   1.733   0.289
 5718TIP3    H117118   4.027   1.796   0.227
 5718TIP3    H217119   4.076   1.653   0.238
 5719TIP3   OH217120   3.466   2.992   2.442
 5719TIP3    H117121   3.414   3.052   2.495
 5719TIP3    H217122   3.404   2.926   2.411
 5720TIP3   OH217123   3.562   0.712   2.109
 5720TIP3    H117124   3.626   0.649   2.140
 5720TIP3    H217125   3.487   0.659   2.081
 5721TIP3   OH217126   0.329   0.863   5.863
 5721TIP3    H117127   0.313   0.770   5.875
 5721TIP3    H217128   0.414   0.867   5.817
 5722TIP3   OH217129   4.526   5.302   4.401
 5722TIP3    H117130   4.533   5.340   4.488
 5722TIP3    H217131   4.617   5.286   4.374
 5723TIP3   OH217132   4.128   6.079   0.606
 5723TIP3    H117133   4.177   6.126   0.673
 5723TIP3    H217134   4.114   6.143   0.536
 5724TIP3   OH217135   5.245   5.430   4.351
 5724TIP3    H117136   5.179   5.499   4.341
 5724TIP3    H217137   5.322   5.476   4.385
 5725TIP3   OH217138   2.178   0.984   0.986
 5725TIP3    H117139   2.231   1.051   1.028
 5725TIP3    H217140   2.146   0.930   1.059
 5726TIP3   OH217141   5.654   5.567   5.293
 5726TIP3    H117142   5.585   5.548   5.230
 5726TIP3    H217143   5.646   5.499   5.359
 5727TIP3   OH217144   1.120   2.573   4.719
 5727TIP3    H117145   1.035   2.616   4.710
 5727TIP3    H217146   1.184   2.644   4.707
 5728TIP3   OH217147   6.128   2.524   3.094
 5728TIP3    H117148   6.067   2.523   3.167
 5728TIP3    H217149   6.072   2.522   3.016
 5729TIP3   OH217150   6.631   0.425   3.743
 5729TIP3    H117151   6.552   0.477   3.757
 5729TIP3    H217152   6.703   0.489   3.746
 5730TIP3   OH217153   0.029   0.039   4.819
 5730TIP3    H117154  -0.030   0.107   4.850
 5730TIP3    H217155   0.068   0.002   4.898
 5731TIP3   OH217156   2.080   6.441   5.415
 5731TIP3    H117157   2.082   6.357   5.370
 5731TIP3    H217158   2.034   6.424   5.496
 5732TIP3   OH217159   6.872   4.956   4.402
 5732TIP3    H117160   6.896   5.034   4.353
 5732TIP3    H217161   6.867   4.887   4.335
 5733TIP3   OH217162   6.565   1.027   2.724
 5733TIP3    H117163   6.476   1.009   2.753
 5733TIP3    H217164   6.560   1.113   2.681
 5734TIP3   OH217165   5.242   2.140   2.045
 5734TIP3    H117166   5.253   2.064   2.102
 5734TIP3    H217167   5.330   2.157   2.011
 5735TIP3   OH217168   0.070   5.883   1.962
 5735TIP3    H117169   0.144   5.825   1.946
 5735TIP3    H217170   0.072   5.947   1.891
 5736TIP3   OH217171   6.829   2.017   2.248
 5736TIP3    H117172   6.857   2.104   2.217
 5736TIP3    H217173   6.768   1.986   2.181
 5737TIP3   OH217174   6.817   4.086   5.256
 5737TIP3    H117175   6.784   4.096   5.345
 5737TIP3    H217176   6.763   4.017   5.218
 5738TIP3   OH217177   6.643   2.679   4.385
 5738TIP3    H117178   6.600   2.603   4.347
 5738TIP3    H217179   6.685   2.646   4.465
 5739TIP3   OH217180   3.463   4.414   4.861
 5739TIP3    H117181   3.538   4.394   4.917
 5739TIP3    H217182   3.456   4.509   4.864
 5740TIP3   OH217183   2.552   0.335   1.672
 5740TIP3    H117184   2.487   0.404   1.654
 5740TIP3    H217185   2.522   0.295   1.753
 5741TIP3   OH217186   2.970   6.718   5.805
 5741TIP3    H117187   2.975   6.799   5.855
 5741TIP3    H217188   2.935   6.653   5.866
 5742TIP3   OH217189   5.266   0.674   4.145
 5742TIP3    H117190   5.307   0.605   4.197
 5742TIP3    H217191   5.287   0.650   4.054
 5743TIP3   OH217192   4.002   3.619   4.135
 5743TIP3    H117193   4.090   3.648   4.158
 5743TIP3    H217194   4.015   3.559   4.062
 5744TIP3   OH217195   6.455   5.871   2.477
 5744TIP3    H117196   6.389   5.937   2.495
 5744TIP3    H217197   6.412   5.809   2.418
 5745TIP3   OH217198   6.290   2.026   3.913
 5745TIP3    H117199   6.274   1.936   3.884
 5745TIP3    H217200   6.385   2.033   3.919
 5746TIP3   OH217201   0.354   4.968   1.402
 5746TIP3    H117202   0.424   5.029   1.427
 5746TIP3    H217203   0.365   4.894   1.462
 5747TIP3   OH217204   6.446   3.128   4.857
 5747TIP3    H117205   6.378   3.081   4.809
 5747TIP3    H217206   6.425   3.114   4.949
 5748TIP3   OH217207   3.933   5.083   5.767
 5748TIP3    H117208   3.954   5.045   5.853
 5748TIP3    H217209   4.009   5.137   5.745
 5749TIP3   OH217210   5.815   5.519   0.622
 5749TIP3    H117211   5.777   5.461   0.688
 5749TIP3    H217212   5.866   5.582   0.671
 5750TIP3   OH217213   2.530   4.462   3.925
 5750TIP3    H117214   2.468   4.468   3.852
 5750TIP3    H217215   2.613   4.441   3.883
 5751TIP3   OH217216   5.201   2.594   5.510
 5751TIP3    H117217   5.224   2.687   5.502
 5751TIP3    H217218   5.179   2.568   5.420
 5752TIP3   OH217219   5.795   4.788   4.566
 5752TIP3    H117220   5.869   4.732   4.542
 5752TIP3    H217221   5.811   4.870   4.519
 5753TIP3   OH217222   0.677   4.830   5.860
 5753TIP3    H117223   0.750   4.783   5.820
 5753TIP3    H217224   0.610   4.764   5.873
 5754TIP3   OH217225   5.253   6.462   3.175
 5754TIP3    H117226   5.193   6.471   3.249
 5754TIP3    H217227   5.265   6.367   3.165
 5755TIP3   OH217228   4.083   6.581   1.236
 5755TIP3    H117229   4.161   6.573   1.292
 5755TIP3    H217230   4.115   6.619   1.154
 5756TIP3   OH217231   1.056   0.097   4.078
 5756TIP3    H117232   0.977   0.131   4.121
 5756TIP3    H217233   1.103   0.175   4.050
 5757TIP3   OH217234   5.179   0.410   3.781
 5757TIP3    H117235   5.092   0.430   3.818
 5757TIP3    H217236   5.160   0.362   3.701
 5758TIP3   OH217237   5.446   5.948   3.018
 5758TIP3    H117238   5.365   5.997   3.003
 5758TIP3    H217239   5.489   5.994   3.090
 5759TIP3   OH217240   1.587   1.823   1.101
 5759TIP3    H117241   1.491   1.828   1.103
 5759TIP3    H217242   1.616   1.884   1.168
 5760TIP3   OH217243   5.442   3.462   5.626
 5760TIP3    H117244   5.362   3.513   5.631
 5760TIP3    H217245   5.512   3.527   5.617
 5761TIP3   OH217246   4.720   5.956   2.934
 5761TIP3    H117247   4.660   5.938   2.862
 5761TIP3    H217248   4.740   6.050   2.926
 5762TIP3   OH217249   0.451   0.956   0.363
 5762TIP3    H117250   0.479   1.043   0.332
 5762TIP3    H217251   0.421   0.972   0.453
 5763TIP3   OH217252   1.249   1.830   4.802
 5763TIP3    H117253   1.222   1.793   4.886
 5763TIP3    H217254   1.289   1.756   4.756
 5764TIP3   OH217255   5.853   4.589   1.270
 5764TIP3    H117256   5.886   4.635   1.192
 5764TIP3    H217257   5.762   4.619   1.278
 5765TIP3   OH217258   3.581   2.240   0.090
 5765TIP3    H117259   3.623   2.172   0.038
 5765TIP3    H217260   3.584   2.207   0.180
 5766TIP3   OH217261   3.644   2.385   1.619
 5766TIP3    H117262   3.734   2.414   1.604
 5766TIP3    H217263   3.652   2.291   1.636
 5767TIP3   OH217264   5.362   5.851   4.154
 5767TIP3    H117265   5.330   5.765   4.125
 5767TIP3    H217266   5.347   5.850   4.249
 5768TIP3   OH217267   0.442   1.863   1.334
 5768TIP3    H117268   0.522   1.890   1.288
 5768TIP3    H217269   0.389   1.942   1.336
 5769TIP3   OH217270   1.632   4.764   3.964
 5769TIP3    H117271   1.603   4.789   4.052
 5769TIP3    H217272   1.707   4.707   3.979
 5770TIP3   OH217273   1.363   2.448   1.954
 5770TIP3    H117274   1.374   2.368   2.006
 5770TIP3    H217275   1.346   2.517   2.018
 5771TIP3   OH217276   0.655   6.104   4.495
 5771TIP3    H117277   0.563   6.080   4.503
 5771TIP3    H217278   0.659   6.195   4.525
 5772TIP3   OH217279   3.447   3.428   4.508
 5772TIP3    H117280   3.443   3.478   4.427
 5772TIP3    H217281   3.357   3.397   4.522
 5773TIP3   OH217282   5.703   5.976   4.284
 5773TIP3    H117283   5.797   5.968   4.295
 5773TIP3    H217284   5.666   5.928   4.358
 5774TIP3   OH217285   3.654   3.618   1.307
 5774TIP3    H117286   3.637   3.545   1.367
 5774TIP3    H217287   3.743   3.603   1.275
 5775TIP3   OH217288   5.589   5.746   1.873
 5775TIP3    H117289   5.677   5.775   1.850
 5775TIP3    H217290   5.600   5.656   1.905
 5776TIP3   OH217291   0.771   2.871   2.719
 5776TIP3    H117292   0.809   2.802   2.665
 5776TIP3    H217293   0.706   2.826   2.774
 5777TIP3   OH217294   3.673   4.335   5.275
 5777TIP3    H117295   3.584   4.309   5.301
 5777TIP3    H217296   3.660   4.399   5.206
 5778TIP3   OH217297   4.011   5.006   5.233
 5778TIP3    H117298   3.930   5.057   5.236
 5778TIP3    H217299   4.056   5.038   5.155
 5779TIP3   OH217300   6.210   2.902   2.600
 5779TIP3    H117301   6.176   2.818   2.569
 5779TIP3    H217302   6.247   2.882   2.686
 5780TIP3   OH217303   6.218   1.939   2.985
 5780TIP3    H117304   6.179   1.978   3.063
 5780TIP3    H217305   6.145   1.927   2.925
 5781TIP3   OH217306   4.320   5.264   2.825
 5781TIP3    H117307   4.338   5.264   2.919
 5781TIP3    H217308   4.291   5.353   2.806
 5782TIP3   OH217309   0.130   1.182   3.318
 5782TIP3    H117310   0.132   1.259   3.375
 5782TIP3    H217311   0.050   1.136   3.342
 5783TIP3   OH217312   0.907   0.477   1.108
 5783TIP3    H117313   0.906   0.544   1.040
 5783TIP3    H217314   0.843   0.507   1.173
 5784TIP3   OH217315   2.980   5.943   0.458
 5784TIP3    H117316   2.987   6.028   0.502
 5784TIP3    H217317   2.983   5.963   0.365
 5785TIP3   OH217318   6.728   2.806   2.234
 5785TIP3    H117319   6.761   2.842   2.316
 5785TIP3    H217320   6.772   2.721   2.226
 5786TIP3   OH217321   1.535   3.382   2.871
 5786TIP3    H117322   1.483   3.459   2.849
 5786TIP3    H217323   1.623   3.402   2.838
 5787TIP3   OH217324   5.535   4.291   1.290
 5787TIP3    H117325   5.481   4.213   1.280
 5787TIP3    H217326   5.596   4.268   1.360
 5788TIP3   OH217327   5.334   5.599   5.432
 5788TIP3    H117328   5.277   5.673   5.451
 5788TIP3    H217329   5.350   5.605   5.338
 5789TIP3   OH217330   5.792   2.363   3.515
 5789TIP3    H117331   5.807   2.293   3.578
 5789TIP3    H217332   5.706   2.398   3.539
 5790TIP3   OH217333   1.361   2.870   2.850
 5790TIP3    H117334   1.435   2.819   2.883
 5790TIP3    H217335   1.329   2.819   2.775
 5791TIP3   OH217336   6.775   4.908   3.484
 5791TIP3    H117337   6.748   4.936   3.571
 5791TIP3    H217338   6.869   4.925   3.481
 5792TIP3   OH217339   4.469   4.032   3.443
 5792TIP3    H117340   4.454   3.997   3.355
 5792TIP3    H217341   4.527   4.107   3.428
 5793TIP3   OH217342   6.781   5.656   5.255
 5793TIP3    H117343   6.749   5.716   5.323
 5793TIP3    H217344   6.838   5.711   5.201
 5794TIP3   OH217345   7.125   1.113   0.199
 5794TIP3    H117346   7.202   1.168   0.216
 5794TIP3    H217347   7.082   1.104   0.284
 5795TIP3   OH217348   4.861   1.861   0.164
 5795TIP3    H117349   4.903   1.847   0.079
 5795TIP3    H217350   4.917   1.815   0.226
 5796TIP3   OH217351   1.157   0.404   5.007
 5796TIP3    H117352   1.139   0.319   5.047
 5796TIP3    H217353   1.247   0.424   5.033
 5797TIP3   OH217354   6.597   4.644   4.689
 5797TIP3    H117355   6.563   4.610   4.771
 5797TIP3    H217356   6.660   4.712   4.715
 5798TIP3   OH217357   6.843   3.096   0.429
 5798TIP3    H117358   6.783   3.031   0.466
 5798TIP3    H217359   6.789   3.145   0.367
 5799TIP3   OH217360   5.770   5.501   0.342
 5799TIP3    H117361   5.709   5.575   0.339
 5799TIP3    H217362   5.792   5.493   0.435
 5800TIP3   OH217363   1.008   1.150   1.168
 5800TIP3    H117364   1.098   1.153   1.135
 5800TIP3    H217365   1.009   1.209   1.243
 5801TIP3   OH217366   2.340   3.886   5.078
 5801TIP3    H117367   2.358   3.836   5.158
 5801TIP3    H217368   2.341   3.977   5.105
 5802TIP3   OH217369   6.956   4.300   4.523
 5802TIP3    H117370   7.047   4.300   4.496
 5802TIP3    H217371   6.928   4.391   4.515
 5803TIP3   OH217372   3.512   4.140   3.544
 5803TIP3    H117373   3.516   4.215   3.484
 5803TIP3    H217374   3.460   4.075   3.497
 5804TIP3   OH217375   1.855   5.050   2.984
 5804TIP3    H117376   1.918   4.994   2.940
 5804TIP3    H217377   1.867   5.033   3.077
 5805TIP3   OH217378   2.009   6.592   1.849
 5805TIP3    H117379   1.946   6.612   1.918
 5805TIP3    H217380   2.056   6.515   1.881
 5806TIP3   OH217381   5.606   4.945   1.721
 5806TIP3    H117382   5.545   4.964   1.792
 5806TIP3    H217383   5.571   4.867   1.679
 5807TIP3   OH217384   2.886   2.417   1.661
 5807TIP3    H117385   2.864   2.510   1.659
 5807TIP3    H217386   2.808   2.373   1.628
 5808TIP3   OH217387   0.949   4.177   4.253
 5808TIP3    H117388   1.037   4.143   4.272
 5808TIP3    H217389   0.936   4.159   4.160
 5809TIP3   OH217390   6.687   5.150   0.226
 5809TIP3    H117391   6.624   5.218   0.203
 5809TIP3    H217392   6.762   5.198   0.263
 5810TIP3   OH217393   2.172   0.752   5.192
 5810TIP3    H117394   2.184   0.701   5.272
 5810TIP3    H217395   2.142   0.837   5.222
 5811TIP3   OH217396   6.880   3.230   1.524
 5811TIP3    H117397   6.850   3.316   1.496
 5811TIP3    H217398   6.910   3.243   1.614
 5812TIP3   OH217399   1.515   2.909   4.929
 5812TIP3    H117400   1.485   2.993   4.892
 5812TIP3    H217401   1.481   2.909   5.019
 5813TIP3   OH217402  -0.041   0.055   2.898
 5813TIP3    H117403   0.048   0.028   2.921
 5813TIP3    H217404  -0.037   0.075   2.805
 5814TIP3   OH217405   1.341   2.218   5.580
 5814TIP3    H117406   1.335   2.312   5.568
 5814TIP3    H217407   1.374   2.207   5.669
 5815TIP3   OH217408   1.501   4.508   4.464
 5815TIP3    H117409   1.418   4.541   4.498
 5815TIP3    H217410   1.567   4.567   4.499
 5816TIP3   OH217411   0.426   4.435   5.503
 5816TIP3    H117412   0.462   4.405   5.586
 5816TIP3    H217413   0.481   4.510   5.479
 5817TIP3   OH217414   6.539   4.168   0.084
 5817TIP3    H117415   6.504   4.193   0.170
 5817TIP3    H217416   6.531   4.073   0.082
 5818TIP3   OH217417   2.375   5.537   1.855
 5818TIP3    H117418   2.462   5.549   1.895
 5818TIP3    H217419   2.351   5.624   1.824
 5819TIP3   OH217420   1.023   6.211   3.228
 5819TIP3    H117421   1.052   6.184   3.141
 5819TIP3    H217422   1.055   6.142   3.286
 5820TIP3   OH217423   4.201   1.762   0.777
 5820TIP3    H117424   4.196   1.838   0.834
 5820TIP3    H217425   4.174   1.794   0.691
 5821TIP3   OH217426   0.314   3.773   4.278
 5821TIP3    H117427   0.308   3.832   4.203
 5821TIP3    H217428   0.301   3.686   4.242
 5822TIP3   OH217429   1.629   0.297   3.918
 5822TIP3    H117430   1.580   0.375   3.891
 5822TIP3    H217431   1.705   0.295   3.861
 5823TIP3   OH217432   0.619   1.493   4.310
 5823TIP3    H117433   0.585   1.484   4.221
 5823TIP3    H217434   0.696   1.436   4.313
 5824TIP3   OH217435   6.992   2.113   5.466
 5824TIP3    H117436   6.943   2.159   5.535
 5824TIP3    H217437   7.049   2.180   5.428
 5825TIP3   OH217438   0.060   0.995   0.663
 5825TIP3    H117439   0.070   1.050   0.585
 5825TIP3    H217440   0.018   0.915   0.630
 5826TIP3   OH217441   7.003   1.963   1.172
 5826TIP3    H117442   6.933   1.898   1.170
 5826TIP3    H217443   7.081   1.914   1.195
 5827TIP3   OH217444   1.347   5.194   2.488
 5827TIP3    H117445   1.362   5.241   2.570
 5827TIP3    H217446   1.277   5.243   2.445
 5828TIP3   OH217447   2.316   5.398   0.464
 5828TIP3    H117448   2.251   5.343   0.508
 5828TIP3    H217449   2.335   5.353   0.382
 5829TIP3   OH217450   0.083   4.714   1.142
 5829TIP3    H117451   0.132   4.721   1.224
 5829TIP3    H217452   0.128   4.646   1.092
 5830TIP3   OH217453   4.563   6.212   1.666
 5830TIP3    H117454   4.562   6.132   1.719
 5830TIP3    H217455   4.471   6.230   1.647
 5831TIP3   OH217456   4.941   1.517   5.296
 5831TIP3    H117457   4.965   1.606   5.270
 5831TIP3    H217458   4.965   1.463   5.221
 5832TIP3   OH217459   4.165   6.551   0.693
 5832TIP3    H117460   4.142   6.527   0.603
 5832TIP3    H217461   4.081   6.574   0.733
 5833TIP3   OH217462   4.748   3.613   1.170
 5833TIP3    H117463   4.785   3.526   1.155
 5833TIP3    H217464   4.746   3.653   1.083
 5834TIP3   OH217465   4.992   4.565   2.327
 5834TIP3    H117466   4.947   4.526   2.252
 5834TIP3    H217467   4.987   4.499   2.395
 5835TIP3   OH217468   6.494   1.613   4.997
 5835TIP3    H117469   6.415   1.638   5.045
 5835TIP3    H217470   6.557   1.682   5.018
 5836TIP3   OH217471   2.234   2.239   2.079
 5836TIP3    H117472   2.168   2.174   2.103
 5836TIP3    H217473   2.278   2.202   2.003
 5837TIP3   OH217474   4.642   5.951   1.180
 5837TIP3    H117475   4.558   5.951   1.225
 5837TIP3    H217476   4.698   6.009   1.233
 5838TIP3   OH217477   5.758   6.194   1.529
 5838TIP3    H117478   5.850   6.221   1.534
 5838TIP3    H217479   5.759   6.102   1.556
 5839TIP3   OH217480   3.026   6.093   5.084
 5839TIP3    H117481   3.051   6.015   5.033
 5839TIP3    H217482   2.933   6.082   5.100
 5840TIP3   OH217483   3.694   3.886   4.749
 5840TIP3    H117484   3.626   3.825   4.722
 5840TIP3    H217485   3.771   3.859   4.698
 5841TIP3   OH217486   3.691   0.638   4.548
 5841TIP3    H117487   3.653   0.692   4.479
 5841TIP3    H217488   3.708   0.554   4.506
 5842TIP3   OH217489   2.489   1.337   4.863
 5842TIP3    H117490   2.583   1.320   4.876
 5842TIP3    H217491   2.483   1.375   4.776
 5843TIP3   OH217492   5.776   3.707   2.311
 5843TIP3    H117493   5.827   3.788   2.301
 5843TIP3    H217494   5.793   3.679   2.401
 5844TIP3   OH217495   1.130   1.502   2.117
 5844TIP3    H117496   1.187   1.438   2.075
 5844TIP3    H217497   1.059   1.515   2.054
 5845TIP3   OH217498   3.351   2.426   4.458
 5845TIP3    H117499   3.446   2.416   4.454
 5845TIP3    H217500   3.332   2.442   4.551
 5846TIP3   OH217501   0.182   2.238   3.895
 5846TIP3    H117502   0.198   2.326   3.931
 5846TIP3    H217503   0.194   2.248   3.801
 5847TIP3   OH217504   1.730   1.568   3.504
 5847TIP3    H117505   1.689   1.488   3.535
 5847TIP3    H217506   1.665   1.637   3.521
 5848TIP3   OH217507   0.214   4.803   4.287
 5848TIP3    H117508   0.170   4.786   4.203
 5848TIP3    H217509   0.304   4.774   4.273
 5849TIP3   OH217510   2.221   0.596   1.061
 5849TIP3    H117511   2.292   0.655   1.035
 5849TIP3    H217512   2.249   0.509   1.032
 5850TIP3   OH217513   6.431   0.199   0.679
 5850TIP3    H117514   6.430   0.272   0.617
 5850TIP3    H217515   6.453   0.123   0.626
 5851TIP3   OH217516   6.763   4.158   5.857
 5851TIP3    H117517   6.677   4.200   5.862
 5851TIP3    H217518   6.801   4.171   5.944
 5852TIP3   OH217519   7.144   0.233   2.136
 5852TIP3    H117520   7.059   0.211   2.173
 5852TIP3    H217521   7.133   0.223   2.042
 5853TIP3   OH217522   1.401   4.350   0.487
 5853TIP3    H117523   1.334   4.380   0.548
 5853TIP3    H217524   1.474   4.411   0.498
 5854TIP3   OH217525   2.898   0.066   4.107
 5854TIP3    H117526   2.845   0.019   4.043
 5854TIP3    H217527   2.986   0.068   4.068
 5855TIP3   OH217528   5.812   6.242   0.077
 5855TIP3    H117529   5.849   6.287   0.001
 5855TIP3    H217530   5.813   6.149   0.053
 5856TIP3   OH217531   2.272   0.975   0.209
 5856TIP3    H117532   2.315   0.916   0.271
 5856TIP3    H217533   2.234   1.044   0.263
 5857TIP3   OH217534   6.098   2.260   4.910
 5857TIP3    H117535   6.040   2.191   4.879
 5857TIP3    H217536   6.069   2.278   4.999
 5858TIP3   OH217537   1.292   4.468   1.024
 5858TIP3    H117538   1.226   4.529   0.992
 5858TIP3    H217539   1.313   4.414   0.948
 5859TIP3   OH217540   1.145   2.438   1.505
 5859TIP3    H117541   1.191   2.395   1.577
 5859TIP3    H217542   1.169   2.531   1.514
 5860TIP3   OH217543   1.170   3.276   1.493
 5860TIP3    H117544   1.161   3.366   1.461
 5860TIP3    H217545   1.080   3.242   1.496
 5861TIP3   OH217546   6.382   4.535   2.768
 5861TIP3    H117547   6.472   4.513   2.744
 5861TIP3    H217548   6.374   4.509   2.859
 5862TIP3   OH217549   2.260   0.469   4.003
 5862TIP3    H117550   2.194   0.453   4.070
 5862TIP3    H217551   2.339   0.425   4.035
 5863TIP3   OH217552   2.115   2.969   5.162
 5863TIP3    H117553   2.031   3.013   5.157
 5863TIP3    H217554   2.101   2.896   5.223
 5864TIP3   OH217555   0.962   6.316   2.104
 5864TIP3    H117556   0.885   6.293   2.051
 5864TIP3    H217557   0.988   6.403   2.073
 5865TIP3   OH217558   3.474   2.415   2.832
 5865TIP3    H117559   3.408   2.347   2.845
 5865TIP3    H217560   3.538   2.376   2.772
 5866TIP3   OH217561   0.040   4.599   5.527
 5866TIP3    H117562   0.093   4.666   5.483
 5866TIP3    H217563   0.043   4.523   5.469
 5867TIP3   OH217564   6.235   1.179   1.623
 5867TIP3    H117565   6.199   1.094   1.598
 5867TIP3    H217566   6.329   1.166   1.625
 5868TIP3   OH217567   5.770   3.533   4.945
 5868TIP3    H117568   5.739   3.443   4.937
 5868TIP3    H217569   5.777   3.547   5.040
 5869TIP3   OH217570   6.335   5.035   4.632
 5869TIP3    H117571   6.274   5.065   4.700
 5869TIP3    H217572   6.354   4.944   4.656
 5870TIP3   OH217573   4.907   1.103   2.758
 5870TIP3    H117574   4.823   1.129   2.794
 5870TIP3    H217575   4.890   1.089   2.665
 5871TIP3   OH217576   5.224   0.620   2.826
 5871TIP3    H117577   5.278   0.638   2.749
 5871TIP3    H217578   5.280   0.644   2.900
 5872TIP3   OH217579   0.884   4.148   4.875
 5872TIP3    H117580   0.860   4.055   4.876
 5872TIP3    H217581   0.979   4.147   4.891
 5873TIP3   OH217582   0.352   2.430   1.620
 5873TIP3    H117583   0.405   2.505   1.648
 5873TIP3    H217584   0.327   2.452   1.530
 5874TIP3   OH217585   0.842   1.705   5.353
 5874TIP3    H117586   0.816   1.629   5.301
 5874TIP3    H217587   0.788   1.777   5.319
 5875TIP3   OH217588   2.320   2.320   0.319
 5875TIP3    H117589   2.403   2.286   0.286
 5875TIP3    H217590   2.343   2.364   0.401
 5876TIP3   OH217591   3.677   1.470   0.939
 5876TIP3    H117592   3.746   1.432   0.884
 5876TIP3    H217593   3.724   1.508   1.014
 5877TIP3   OH217594   4.388   0.145   2.946
 5877TIP3    H117595   4.449   0.118   2.878
 5877TIP3    H217596   4.317   0.081   2.943
 5878TIP3   OH217597   5.035   3.391   1.329
 5878TIP3    H117598   5.081   3.409   1.411
 5878TIP3    H217599   5.071   3.307   1.299
 5879TIP3   OH217600   6.580   3.532   2.916
 5879TIP3    H117601   6.671   3.563   2.924
 5879TIP3    H217602   6.527   3.608   2.943
 5880TIP3   OH217603   4.756   3.799   5.198
 5880TIP3    H117604   4.833   3.768   5.246
 5880TIP3    H217605   4.697   3.831   5.267
 5881TIP3   OH217606   0.137   5.900   4.766
 5881TIP3    H117607   0.106   5.902   4.676
 5881TIP3    H217608   0.073   5.847   4.813
 5882TIP3   OH217609   5.495   0.912   1.630
 5882TIP3    H117610   5.463   0.823   1.643
 5882TIP3    H217611   5.560   0.905   1.561
 5883TIP3   OH217612   4.498   3.266   4.918
 5883TIP3    H117613   4.521   3.359   4.920
 5883TIP3    H217614   4.581   3.221   4.938
 5884TIP3   OH217615   5.010   4.507   1.894
 5884TIP3    H117616   5.086   4.455   1.919
 5884TIP3    H217617   4.936   4.448   1.910
 5885TIP3   OH217618   6.211   0.470   2.901
 5885TIP3    H117619   6.219   0.382   2.937
 5885TIP3    H217620   6.122   0.498   2.924
 5886TIP3   OH217621   4.103   5.057   1.017
 5886TIP3    H117622   4.108   5.122   1.087
 5886TIP3    H217623   4.055   4.984   1.055
 5887TIP3   OH217624   3.172   1.786   4.073
 5887TIP3    H117625   3.177   1.718   4.005
 5887TIP3    H217626   3.087   1.770   4.116
 5888TIP3   OH217627   6.829   6.309   5.237
 5888TIP3    H117628   6.822   6.388   5.184
 5888TIP3    H217629   6.892   6.254   5.191
 5889TIP3   OH217630   4.770   4.971   0.764
 5889TIP3    H117631   4.797   4.892   0.811
 5889TIP3    H217632   4.847   5.028   0.766
 5890TIP3   OH217633   7.040   1.339   3.251
 5890TIP3    H117634   7.056   1.254   3.293
 5890TIP3    H217635   6.993   1.390   3.318
 5891TIP3   OH217636   5.636   6.436   1.518
 5891TIP3    H117637   5.603   6.447   1.429
 5891TIP3    H217638   5.693   6.359   1.514
 5892TIP3   OH217639   5.974   1.797   4.819
 5892TIP3    H117640   5.953   1.888   4.839
 5892TIP3    H217641   5.945   1.748   4.896
 5893TIP3   OH217642   1.967   3.818   4.391
 5893TIP3    H117643   1.905   3.794   4.461
 5893TIP3    H217644   1.958   3.913   4.384
 5894TIP3   OH217645   0.062   4.836   3.788
 5894TIP3    H117646  -0.008   4.901   3.784
 5894TIP3    H217647   0.083   4.817   3.697
 5895TIP3   OH217648   1.984   5.245   1.489
 5895TIP3    H117649   2.022   5.221   1.573
 5895TIP3    H217650   2.054   5.227   1.425
 5896TIP3   OH217651   5.170   3.482   3.719
 5896TIP3    H117652   5.098   3.464   3.658
 5896TIP3    H217653   5.187   3.576   3.708
 5897TIP3   OH217654   7.014   5.326   3.210
 5897TIP3    H117655   6.983   5.265   3.143
 5897TIP3    H217656   6.935   5.357   3.253
 5898TIP3   OH217657   2.410   4.850   3.405
 5898TIP3    H117658   2.488   4.864   3.459
 5898TIP3    H217659   2.394   4.934   3.363
 5899TIP3   OH217660   0.839   0.304   5.266
 5899TIP3    H117661   0.912   0.362   5.287
 5899TIP3    H217662   0.877   0.216   5.271
 5900TIP3   OH217663   6.837   2.815   4.206
 5900TIP3    H117664   6.904   2.758   4.243
 5900TIP3    H217665   6.776   2.830   4.278
 5901TIP3   OH217666   0.506   3.914   1.241
 5901TIP3    H117667   0.423   3.916   1.193
 5901TIP3    H217668   0.556   3.844   1.199
 5902TIP3   OH217669   0.466   5.868   5.291
 5902TIP3    H117670   0.506   5.803   5.349
 5902TIP3    H217671   0.458   5.823   5.206
 5903TIP3   OH217672   1.428   5.412   5.030
 5903TIP3    H117673   1.387   5.349   4.971
 5903TIP3    H217674   1.510   5.435   4.987
 5904TIP3   OH217675   0.134   5.855   5.194
 5904TIP3    H117676   0.172   5.792   5.133
 5904TIP3    H217677   0.208   5.908   5.223
 5905TIP3   OH217678   5.729   0.252   5.860
 5905TIP3    H117679   5.686   0.338   5.864
 5905TIP3    H217680   5.815   0.270   5.823
 5906TIP3   OH217681   3.836   1.391   1.432
 5906TIP3    H117682   3.764   1.381   1.494
 5906TIP3    H217683   3.879   1.305   1.431
 5907TIP3   OH217684   2.336   4.998   5.845
 5907TIP3    H117685   2.273   4.926   5.853
 5907TIP3    H217686   2.283   5.077   5.853
 5908TIP3   OH217687   4.794   3.323   0.099
 5908TIP3    H117688   4.739   3.379   0.044
 5908TIP3    H217689   4.856   3.384   0.140
 5909TIP3   OH217690   0.642   5.569   5.727
 5909TIP3    H117691   0.634   5.503   5.796
 5909TIP3    H217692   0.734   5.595   5.729
 5910TIP3   OH217693   0.092   2.402   4.168
 5910TIP3    H117694   0.081   2.492   4.137
 5910TIP3    H217695   0.186   2.394   4.184
 5911TIP3   OH217696   0.708   4.955   0.180
 5911TIP3    H117697   0.663   4.946   0.096
 5911TIP3    H217698   0.764   5.033   0.168
 5912TIP3   OH217699   2.193   4.930   5.462
 5912TIP3    H117700   2.160   4.976   5.538
 5912TIP3    H217701   2.174   4.988   5.388
 5913TIP3   OH217702   0.893   3.337   3.978
 5913TIP3    H117703   0.946   3.339   4.057
 5913TIP3    H217704   0.937   3.396   3.917
 5914TIP3   OH217705   0.508   0.728   5.062
 5914TIP3    H117706   0.420   0.709   5.029
 5914TIP3    H217707   0.560   0.651   5.038
 5915TIP3   OH217708   5.464   0.836   0.884
 5915TIP3    H117709   5.497   0.924   0.868
 5915TIP3    H217710   5.377   0.835   0.844
 5916TIP3   OH217711   2.010   5.404   5.787
 5916TIP3    H117712   2.080   5.376   5.729
 5916TIP3    H217713   1.947   5.447   5.730
 5917TIP3   OH217714   5.787   0.866   1.799
 5917TIP3    H117715   5.772   0.866   1.704
 5917TIP3    H217716   5.881   0.849   1.808
 5918TIP3   OH217717   6.043   5.414   0.389
 5918TIP3    H117718   6.009   5.493   0.347
 5918TIP3    H217719   5.965   5.365   0.414
 5919TIP3   OH217720   6.797   5.444   3.330
 5919TIP3    H117721   6.750   5.520   3.297
 5919TIP3    H217722   6.786   5.449   3.425
 5920TIP3   OH217723   2.858   1.793   5.636
 5920TIP3    H117724   2.929   1.830   5.583
 5920TIP3    H217725   2.791   1.861   5.638
 5921TIP3   OH217726   2.341   5.180   3.860
 5921TIP3    H117727   2.342   5.274   3.876
 5921TIP3    H217728   2.427   5.149   3.890
 5922TIP3   OH217729   6.093   4.068   0.680
 5922TIP3    H117730   6.113   3.978   0.703
 5922TIP3    H217731   6.055   4.106   0.760
 5923TIP3   OH217732   1.387   3.518   3.345
 5923TIP3    H117733   1.351   3.489   3.261
 5923TIP3    H217734   1.403   3.437   3.393
 5924TIP3   OH217735   4.219   5.115   2.216
 5924TIP3    H117736   4.229   5.197   2.263
 5924TIP3    H217737   4.135   5.080   2.246
 5925TIP3   OH217738   3.494   1.142   5.801
 5925TIP3    H117739   3.473   1.234   5.789
 5925TIP3    H217740   3.579   1.131   5.761
 5926TIP3   OH217741   3.024   2.217   4.554
 5926TIP3    H117742   3.103   2.267   4.572
 5926TIP3    H217743   2.955   2.263   4.602
 5927TIP3   OH217744   7.139   4.441   5.243
 5927TIP3    H117745   7.178   4.355   5.258
 5927TIP3    H217746   7.058   4.439   5.294
 5928TIP3   OH217747   2.351   3.615   1.960
 5928TIP3    H117748   2.302   3.632   2.041
 5928TIP3    H217749   2.439   3.592   1.990
 5929TIP3   OH217750   0.753   1.379   0.569
 5929TIP3    H117751   0.706   1.441   0.624
 5929TIP3    H217752   0.735   1.293   0.609
 5930TIP3   OH217753   2.233   3.321   2.487
 5930TIP3    H117754   2.310   3.326   2.544
 5930TIP3    H217755   2.160   3.350   2.541
 5931TIP3   OH217756   2.535   1.710   0.131
 5931TIP3    H117757   2.570   1.634   0.084
 5931TIP3    H217758   2.473   1.749   0.070
 5932TIP3   OH217759   1.799   0.141   1.269
 5932TIP3    H117760   1.796   0.220   1.323
 5932TIP3    H217761   1.886   0.144   1.229
 5933TIP3   OH217762   5.840   3.374   5.728
 5933TIP3    H117763   5.863   3.317   5.654
 5933TIP3    H217764   5.852   3.463   5.694
 5934TIP3   OH217765   7.009   0.186   1.614
 5934TIP3    H117766   6.966   0.119   1.560
 5934TIP3    H217767   7.057   0.239   1.551
 5935TIP3   OH217768   1.437   3.833   4.357
 5935TIP3    H117769   1.421   3.906   4.297
 5935TIP3    H217770   1.466   3.761   4.300
 5936TIP3   OH217771   1.380   0.623   1.959
 5936TIP3    H117772   1.362   0.608   2.052
 5936TIP3    H217773   1.294   0.639   1.921
 5937TIP3   OH217774   1.761   0.741   3.564
 5937TIP3    H117775   1.815   0.820   3.570
 5937TIP3    H217776   1.705   0.756   3.488
 5938TIP3   OH217777   3.018   3.751   5.369
 5938TIP3    H117778   2.987   3.834   5.333
 5938TIP3    H217779   3.112   3.750   5.351
 5939TIP3   OH217780   2.546   0.267   0.275
 5939TIP3    H117781   2.580   0.296   0.360
 5939TIP3    H217782   2.453   0.286   0.279
 5940TIP3   OH217783   4.245   3.592   3.468
 5940TIP3    H117784   4.172   3.559   3.520
 5940TIP3    H217785   4.204   3.626   3.389
 5941TIP3   OH217786   4.133   0.311   3.949
 5941TIP3    H117787   4.196   0.241   3.929
 5941TIP3    H217788   4.188   0.388   3.963
 5942TIP3   OH217789   1.692   5.242   5.393
 5942TIP3    H117790   1.683   5.276   5.481
 5942TIP3    H217791   1.609   5.263   5.350
 5943TIP3   OH217792   7.164   5.652   5.181
 5943TIP3    H117793   7.206   5.593   5.244
 5943TIP3    H217794   7.188   5.740   5.210
 5944TIP3   OH217795   0.961   3.295   4.308
 5944TIP3    H117796   0.901   3.220   4.316
 5944TIP3    H217797   0.904   3.371   4.313
 5945TIP3   OH217798   4.509   6.066   2.665
 5945TIP3    H117799   4.511   6.148   2.714
 5945TIP3    H217800   4.531   6.091   2.575
 5946TIP3   OH217801   2.373   3.593   5.680
 5946TIP3    H117802   2.365   3.559   5.769
 5946TIP3    H217803   2.467   3.601   5.664
 5947TIP3   OH217804   0.645   0.261   0.026
 5947TIP3    H117805   0.706   0.253   0.099
 5947TIP3    H217806   0.643   0.354   0.006
 5948TIP3   OH217807   4.923   1.813   3.030
 5948TIP3    H117808   4.850   1.874   3.038
 5948TIP3    H217809   4.884   1.733   2.996
 5949TIP3   OH217810   1.229   5.495   1.518
 5949TIP3    H117811   1.175   5.549   1.576
 5949TIP3    H217812   1.282   5.442   1.577
 5950TIP3   OH217813   4.904   6.406   4.327
 5950TIP3    H117814   4.901   6.399   4.422
 5950TIP3    H217815   4.930   6.496   4.310
 5951TIP3   OH217816   4.604   3.509   5.396
 5951TIP3    H117817   4.594   3.589   5.449
 5951TIP3    H217818   4.699   3.502   5.381
 5952TIP3   OH217819   4.613   1.290   2.079
 5952TIP3    H117820   4.666   1.211   2.088
 5952TIP3    H217821   4.523   1.260   2.078
 5953TIP3   OH217822   4.765   5.361   2.113
 5953TIP3    H117823   4.800   5.347   2.025
 5953TIP3    H217824   4.705   5.434   2.104
 5954TIP3   OH217825   6.170   0.748   2.643
 5954TIP3    H117826   6.109   0.772   2.574
 5954TIP3    H217827   6.117   0.702   2.708
 5955TIP3   OH217828   5.918   1.840   2.069
 5955TIP3    H117829   5.883   1.755   2.095
 5955TIP3    H217830   5.849   1.903   2.092
 5956TIP3   OH217831   3.016   6.646   1.268
 5956TIP3    H117832   2.970   6.596   1.201
 5956TIP3    H217833   2.989   6.737   1.253
 5957TIP3   OH217834   5.182   5.651   0.621
 5957TIP3    H117835   5.194   5.740   0.588
 5957TIP3    H217836   5.252   5.641   0.687
 5958TIP3   OH217837   1.474   3.407   2.448
 5958TIP3    H117838   1.394   3.441   2.488
 5958TIP3    H217839   1.524   3.484   2.424
 5959TIP3   OH217840   7.036   5.331   1.959
 5959TIP3    H117841   7.098   5.275   1.911
 5959TIP3    H217842   7.082   5.414   1.970
 5960TIP3   OH217843   4.854   1.743   3.914
 5960TIP3    H117844   4.807   1.666   3.947
 5960TIP3    H217845   4.901   1.711   3.837
 5961TIP3   OH217846   5.288   4.183   3.255
 5961TIP3    H117847   5.231   4.121   3.300
 5961TIP3    H217848   5.341   4.129   3.197
 5962TIP3   OH217849   1.851   4.863   5.263
 5962TIP3    H117850   1.935   4.842   5.222
 5962TIP3    H217851   1.786   4.836   5.198
 5963TIP3   OH217852   6.461   2.032   2.928
 5963TIP3    H117853   6.481   2.032   3.022
 5963TIP3    H217854   6.371   2.001   2.923
 5964TIP3   OH217855   6.436   4.310   1.671
 5964TIP3    H117856   6.383   4.259   1.732
 5964TIP3    H217857   6.503   4.352   1.726
 5965TIP3   OH217858   7.186   5.588   2.002
 5965TIP3    H117859   7.131   5.652   2.046
 5965TIP3    H217860   7.267   5.636   1.984
 5966TIP3   OH217861   4.639   5.698   5.423
 5966TIP3    H117862   4.596   5.641   5.360
 5966TIP3    H217863   4.573   5.713   5.491
 5967TIP3   OH217864   5.742   0.692   3.648
 5967TIP3    H117865   5.764   0.607   3.609
 5967TIP3    H217866   5.777   0.756   3.586
 5968TIP3   OH217867   1.644   2.963   3.714
 5968TIP3    H117868   1.686   2.878   3.730
 5968TIP3    H217869   1.630   2.965   3.620
 5969TIP3   OH217870   2.243   3.582   4.994
 5969TIP3    H117871   2.337   3.592   5.007
 5969TIP3    H217872   2.222   3.640   4.920
 5970TIP3   OH217873   2.786   5.475   1.216
 5970TIP3    H117874   2.869   5.428   1.223
 5970TIP3    H217875   2.719   5.406   1.215
 5971TIP3   OH217876   6.327   1.092   5.394
 5971TIP3    H117877   6.404   1.035   5.389
 5971TIP3    H217878   6.356   1.167   5.446
 5972TIP3   OH217879   0.580   6.103   1.813
 5972TIP3    H117880   0.514   6.039   1.837
 5972TIP3    H217881   0.647   6.053   1.767
 5973TIP3   OH217882   6.471   6.260   4.346
 5973TIP3    H117883   6.519   6.322   4.292
 5973TIP3    H217884   6.539   6.211   4.393
 5974TIP3   OH217885   4.870   6.254   3.976
 5974TIP3    H117886   4.821   6.226   4.053
 5974TIP3    H217887   4.954   6.283   4.010
 5975TIP3   OH217888   2.174   5.117   0.191
 5975TIP3    H117889   2.139   5.160   0.269
 5975TIP3    H217890   2.242   5.176   0.159
 5976TIP3   OH217891   5.384   3.042   5.624
 5976TIP3    H117892   5.366   3.065   5.715
 5976TIP3    H217893   5.297   3.030   5.586
 5977TIP3   OH217894   7.041   1.631   4.730
 5977TIP3    H117895   7.011   1.646   4.641
 5977TIP3    H217896   7.037   1.717   4.772
 5978TIP3   OH217897   3.078   3.532   0.165
 5978TIP3    H117898   3.108   3.447   0.195
 5978TIP3    H217899   3.117   3.594   0.227
 5979TIP3   OH217900   0.073   0.885   4.953
 5979TIP3    H117901   0.080   0.956   4.889
 5979TIP3    H217902  -0.017   0.854   4.946
 5980TIP3   OH217903   1.154   1.309   0.150
 5980TIP3    H117904   1.220   1.371   0.183
 5980TIP3    H217905   1.127   1.261   0.228
 5981TIP3   OH217906   1.152   1.194   2.636
 5981TIP3    H117907   1.114   1.197   2.723
 5981TIP3    H217908   1.242   1.226   2.648
 5982TIP3   OH217909   0.872   5.006   4.008
 5982TIP3    H117910   0.790   5.032   3.966
 5982TIP3    H217911   0.861   4.912   4.026
 5983TIP3   OH217912   5.715   0.923   5.364
 5983TIP3    H117913   5.781   0.970   5.414
 5983TIP3    H217914   5.692   0.848   5.418
 5984TIP3   OH217915   6.272   0.807   4.124
 5984TIP3    H117916   6.255   0.766   4.040
 5984TIP3    H217917   6.352   0.765   4.156
 5985TIP3   OH217918   4.433   4.926   2.249
 5985TIP3    H117919   4.379   4.847   2.249
 5985TIP3    H217920   4.371   4.998   2.260
 5986TIP3   OH217921   2.449   1.225   2.013
 5986TIP3    H117922   2.389   1.178   2.072
 5986TIP3    H217923   2.532   1.179   2.022
 5987TIP3   OH217924   5.097   0.069   5.298
 5987TIP3    H117925   5.059   0.028   5.375
 5987TIP3    H217926   5.117  -0.004   5.239
 5988TIP3   OH217927   6.397   4.069   4.803
 5988TIP3    H117928   6.354   4.089   4.720
 5988TIP3    H217929   6.326   4.059   4.866
 5989TIP3   OH217930   1.198   0.599   5.799
 5989TIP3    H117931   1.117   0.548   5.807
 5989TIP3    H217932   1.192   0.640   5.713
 5990TIP3   OH217933   0.882   2.524   3.552
 5990TIP3    H117934   0.972   2.557   3.554
 5990TIP3    H217935   0.867   2.501   3.460
 5991TIP3   OH217936   6.754   6.485   0.782
 5991TIP3    H117937   6.847   6.462   0.788
 5991TIP3    H217938   6.716   6.450   0.863
 5992TIP3   OH217939   2.403   1.417   3.822
 5992TIP3    H117940   2.356   1.495   3.853
 5992TIP3    H217941   2.344   1.344   3.841
 5993TIP3   OH217942   6.529   2.495   1.485
 5993TIP3    H117943   6.535   2.402   1.507
 5993TIP3    H217944   6.470   2.499   1.410
 5994TIP3   OH217945   5.331   1.293   0.341
 5994TIP3    H117946   5.352   1.364   0.401
 5994TIP3    H217947   5.401   1.229   0.355
 5995TIP3   OH217948   2.492   2.223   1.019
 5995TIP3    H117949   2.507   2.317   1.003
 5995TIP3    H217950   2.470   2.218   1.112
 5996TIP3   OH217951   3.670   6.760   0.161
 5996TIP3    H117952   3.675   6.802   0.075
 5996TIP3    H217953   3.626   6.677   0.144
 5997TIP3   OH217954   0.938   5.990   2.018
 5997TIP3    H117955   0.959   6.076   2.054
 5997TIP3    H217956   0.926   5.934   2.094
 5998TIP3   OH217957   3.392   5.002   3.006
 5998TIP3    H117958   3.358   5.003   2.917
 5998TIP3    H217959   3.429   5.089   3.020
 5999TIP3   OH217960   0.868   4.350   2.931
 5999TIP3    H117961   0.864   4.285   3.002
 5999TIP3    H217962   0.902   4.429   2.974
 6000TIP3   OH217963   2.395   6.275   4.896
 6000TIP3    H117964   2.328   6.337   4.925
 6000TIP3    H217965   2.349   6.192   4.889
 6001TIP3   OH217966   0.584   3.626   3.424
 6001TIP3    H117967   0.645   3.552   3.419
 6001TIP3    H217968   0.632   3.693   3.474
 6002TIP3   OH217969   3.451   5.823   4.715
 6002TIP3    H117970   3.478   5.733   4.732
 6002TIP3    H217971   3.390   5.844   4.785
 6003TIP3   OH217972   5.372   6.205   5.763
 6003TIP3    H117973   5.328   6.213   5.847
 6003TIP3    H217974   5.306   6.228   5.698
 6004TIP3   OH217975   0.201   1.425   2.766
 6004TIP3    H117976   0.106   1.430   2.757
 6004TIP3    H217977   0.215   1.402   2.858
 6005TIP3   OH217978   1.986   5.429   2.744
 6005TIP3    H117979   1.954   5.465   2.826
 6005TIP3    H217980   1.945   5.342   2.738
 6006TIP3   OH217981   5.251   2.945   3.812
 6006TIP3    H117982   5.232   3.029   3.769
 6006TIP3    H217983   5.228   2.879   3.747
 6007TIP3   OH217984   5.442   1.266   2.552
 6007TIP3    H117985   5.371   1.208   2.578
 6007TIP3    H217986   5.405   1.321   2.483
 6008TIP3   OH217987   0.817   0.930   2.519
 6008TIP3    H117988   0.731   0.962   2.548
 6008TIP3    H217989   0.797   0.854   2.465
 6009TIP3   OH217990   4.062   6.535   4.039
 6009TIP3    H117991   4.078   6.544   4.133
 6009TIP3    H217992   3.985   6.589   4.023
 6010TIP3   OH217993   3.709   2.973   1.286
 6010TIP3    H117994   3.697   2.982   1.191
 6010TIP3    H217995   3.793   2.928   1.295
 6011TIP3   OH217996   2.292   6.598   5.733
 6011TIP3    H117997   2.278   6.659   5.661
 6011TIP3    H217998   2.320   6.517   5.690
 6012TIP3   OH217999   5.793   2.908   2.250
 6012TIP3    H118000   5.840   2.847   2.194
 6012TIP3    H218001   5.857   2.977   2.270
 6013TIP3   OH218002   5.323   0.825   0.303
 6013TIP3    H118003   5.370   0.753   0.261
 6013TIP3    H218004   5.240   0.832   0.255
 6014TIP3   OH218005   2.601   3.849   3.105
 6014TIP3    H118006   2.555   3.884   3.029
 6014TIP3    H218007   2.606   3.922   3.167
 6015TIP3   OH218008   0.600   3.492   0.559
 6015TIP3    H118009   0.631   3.402   0.551
 6015TIP3    H218010   0.646   3.539   0.490
 6016TIP3   OH218011   5.334   5.733   4.756
 6016TIP3    H118012   5.290   5.816   4.772
 6016TIP3    H218013   5.422   5.745   4.791
 6017TIP3   OH218014   4.773   5.302   2.429
 6017TIP3    H118015   4.853   5.306   2.378
 6017TIP3    H218016   4.791   5.239   2.498
 6018TIP3   OH218017   6.363   4.281   0.293
 6018TIP3    H118018   6.379   4.289   0.387
 6018TIP3    H218019   6.286   4.224   0.287
 6019TIP3   OH218020   7.034   1.673   2.329
 6019TIP3    H118021   6.949   1.639   2.356
 6019TIP3    H218022   7.044   1.645   2.238
 6020TIP3   OH218023   6.247   4.000   3.888
 6020TIP3    H118024   6.304   3.936   3.931
 6020TIP3    H218025   6.166   3.999   3.938
 6021TIP3   OH218026   1.368   6.340   5.371
 6021TIP3    H118027   1.388   6.278   5.301
 6021TIP3    H218028   1.400   6.297   5.450
 6022TIP3   OH218029   4.628   1.287   4.599
 6022TIP3    H118030   4.577   1.367   4.587
 6022TIP3    H218031   4.709   1.315   4.640
 6023TIP3   OH218032   2.877   6.270   1.960
 6023TIP3    H118033   2.832   6.354   1.953
 6023TIP3    H218034   2.833   6.214   1.896
 6024TIP3   OH218035   2.207   6.700   1.674
 6024TIP3    H118036   2.146   6.639   1.716
 6024TIP3    H218037   2.153   6.775   1.651
 6025TIP3   OH218038   1.750   5.608   4.593
 6025TIP3    H118039   1.816   5.650   4.647
 6025TIP3    H218040   1.756   5.652   4.508
 6026TIP3   OH218041   5.923   6.634   4.029
 6026TIP3    H118042   5.922   6.726   4.058
 6026TIP3    H218043   5.888   6.585   4.103
 6027TIP3   OH218044   1.126   2.639   3.512
 6027TIP3    H118045   1.163   2.630   3.424
 6027TIP3    H218046   1.127   2.734   3.529
 6028TIP3   OH218047   5.184   2.248   1.430
 6028TIP3    H118048   5.265   2.211   1.465
 6028TIP3    H218049   5.117   2.222   1.493
 6029TIP3   OH218050   6.091   0.409   2.433
 6029TIP3    H118051   6.143   0.337   2.469
 6029TIP3    H218052   6.048   0.448   2.509
 6030TIP3   OH218053   4.634   1.668   0.109
 6030TIP3    H118054   4.566   1.722   0.148
 6030TIP3    H218055   4.713   1.722   0.114
 6031TIP3   OH218056   2.094   2.697   5.640
 6031TIP3    H118057   2.164   2.633   5.627
 6031TIP3    H218058   2.135   2.767   5.691
 6032TIP3   OH218059   2.167   1.078   4.686
 6032TIP3    H118060   2.165   1.157   4.739
 6032TIP3    H218061   2.128   1.103   4.602
 6033TIP3   OH218062   7.024   1.027   3.123
 6033TIP3    H118063   7.036   1.043   3.216
 6033TIP3    H218064   6.955   0.961   3.118
 6034TIP3   OH218065   2.972   6.275   2.866
 6034TIP3    H118066   2.971   6.371   2.860
 6034TIP3    H218067   2.899   6.247   2.810
 6035TIP3   OH218068   1.369   5.878   4.153
 6035TIP3    H118069   1.434   5.824   4.107
 6035TIP3    H218070   1.312   5.815   4.197
 6036TIP3   OH218071   0.724   3.959   3.996
 6036TIP3    H118072   0.681   3.952   4.082
 6036TIP3    H218073   0.652   3.975   3.935
 6037TIP3   OH218074   5.545   5.787   4.941
 6037TIP3    H118075   5.547   5.773   5.035
 6037TIP3    H218076   5.527   5.881   4.931
 6038TIP3   OH218077   5.138   6.411   2.499
 6038TIP3    H118078   5.166   6.341   2.557
 6038TIP3    H218079   5.062   6.374   2.453
 6039TIP3   OH218080   5.108   4.282   2.463
 6039TIP3    H118081   5.083   4.288   2.556
 6039TIP3    H218082   5.191   4.329   2.457
 6040TIP3   OH218083   5.737   4.007   3.262
 6040TIP3    H118084   5.809   4.063   3.234
 6040TIP3    H218085   5.762   3.977   3.349
 6041TIP3   OH218086   4.816   0.608   4.530
 6041TIP3    H118087   4.870   0.604   4.609
 6041TIP3    H218088   4.766   0.527   4.532
 6042TIP3   OH218089   3.630   3.595   3.400
 6042TIP3    H118090   3.602   3.540   3.473
 6042TIP3    H218091   3.640   3.682   3.438
 6043TIP3   OH218092   3.182   4.925   0.442
 6043TIP3    H118093   3.130   4.881   0.376
 6043TIP3    H218094   3.183   4.864   0.516
 6044TIP3   OH218095   4.988   5.059   4.826
 6044TIP3    H118096   5.052   5.007   4.875
 6044TIP3    H218097   4.929   5.094   4.893
 6045TIP3   OH218098   4.526   1.571   1.962
 6045TIP3    H118099   4.527   1.599   1.871
 6045TIP3    H218100   4.557   1.480   1.960
 6046TIP3   OH218101   1.745   6.374   0.482
 6046TIP3    H118102   1.686   6.391   0.556
 6046TIP3    H218103   1.738   6.452   0.428
 6047TIP3   OH218104   6.132   3.461   2.259
 6047TIP3    H118105   6.214   3.423   2.291
 6047TIP3    H218106   6.159   3.540   2.212
 6048TIP3   OH218107   2.737   2.046   5.578
 6048TIP3    H118108   2.685   2.105   5.524
 6048TIP3    H218109   2.762   2.099   5.654
 6049TIP3   OH218110   2.599   4.066   1.230
 6049TIP3    H118111   2.648   4.047   1.150
 6049TIP3    H218112   2.531   3.999   1.232
 6050TIP3   OH218113   0.286   2.907   4.450
 6050TIP3    H118114   0.346   2.891   4.377
 6050TIP3    H218115   0.210   2.852   4.431
 6051TIP3   OH218116   0.076   5.310   2.717
 6051TIP3    H118117   0.002   5.318   2.657
 6051TIP3    H218118   0.145   5.272   2.664
 6052TIP3   OH218119   6.399   3.953   0.734
 6052TIP3    H118120   6.383   4.031   0.788
 6052TIP3    H218121   6.361   3.881   0.785
 6053TIP3   OH218122   5.465   4.952   3.276
 6053TIP3    H118123   5.435   4.929   3.188
 6053TIP3    H218124   5.427   4.885   3.332
 6054TIP3   OH218125   4.790   2.149   1.814
 6054TIP3    H118126   4.783   2.058   1.787
 6054TIP3    H218127   4.876   2.155   1.856
 6055TIP3   OH218128   2.108   1.979   1.024
 6055TIP3    H118129   2.020   1.982   0.988
 6055TIP3    H218130   2.163   1.952   0.950
 6056TIP3   OH218131   1.851   5.837   4.068
 6056TIP3    H118132   1.931   5.792   4.040
 6056TIP3    H218133   1.865   5.928   4.043
 6057TIP3   OH218134   0.605   6.438   1.572
 6057TIP3    H118135   0.531   6.492   1.602
 6057TIP3    H218136   0.682   6.482   1.608
 6058TIP3   OH218137   3.219   1.397   2.369
 6058TIP3    H118138   3.265   1.372   2.449
 6058TIP3    H218139   3.195   1.313   2.329
 6059TIP3   OH218140   5.202   5.043   3.902
 6059TIP3    H118141   5.185   5.041   3.808
 6059TIP3    H218142   5.134   4.986   3.939
 6060TIP3   OH218143   3.626   2.417   4.526
 6060TIP3    H118144   3.639   2.435   4.620
 6060TIP3    H218145   3.636   2.322   4.519
 6061TIP3   OH218146   2.504   1.193   2.729
 6061TIP3    H118147   2.453   1.230   2.802
 6061TIP3    H218148   2.562   1.129   2.771
 6062TIP3   OH218149   2.993   0.700   1.948
 6062TIP3    H118150   2.985   0.756   2.025
 6062TIP3    H218151   2.908   0.656   1.942
 6063TIP3   OH218152   4.917   2.451   5.697
 6063TIP3    H118153   4.929   2.541   5.664
 6063TIP3    H218154   4.825   2.432   5.680
 6064TIP3   OH218155   6.222   4.996   0.179
 6064TIP3    H118156   6.129   5.015   0.193
 6064TIP3    H218157   6.223   4.947   0.097
 6065TIP3   OH218158   5.845   1.212   0.590
 6065TIP3    H118159   5.768   1.167   0.624
 6065TIP3    H218160   5.818   1.243   0.503
 6066TIP3   OH218161   0.896   0.911   2.145
 6066TIP3    H118162   0.902   0.936   2.237
 6066TIP3    H218163   0.925   0.820   2.143
 6067TIP3   OH218164   6.449   1.294   5.532
 6067TIP3    H118165   6.488   1.316   5.617
 6067TIP3    H218166   6.491   1.355   5.471
 6068TIP3   OH218167   7.044   1.922   4.775
 6068TIP3    H118168   7.135   1.934   4.749
 6068TIP3    H218169   7.029   1.989   4.842
 6069TIP3   OH218170   2.999   4.282   5.121
 6069TIP3    H118171   2.912   4.249   5.097
 6069TIP3    H218172   3.037   4.310   5.038
 6070TIP3   OH218173   1.221   4.200   3.226
 6070TIP3    H118174   1.199   4.163   3.312
 6070TIP3    H218175   1.277   4.275   3.246
 6071TIP3   OH218176   0.128   0.420   5.740
 6071TIP3    H118177   0.217   0.385   5.744
 6071TIP3    H218178   0.139   0.515   5.733
 6072TIP3   OH218179   6.835   4.677   3.848
 6072TIP3    H118180   6.812   4.598   3.896
 6072TIP3    H218181   6.750   4.713   3.820
 6073TIP3   OH218182   5.967   4.608   3.428
 6073TIP3    H118183   5.904   4.675   3.400
 6073TIP3    H218184   6.047   4.657   3.447
 6074TIP3   OH218185   3.453   1.797   0.902
 6074TIP3    H118186   3.471   1.786   0.995
 6074TIP3    H218187   3.374   1.850   0.899
 6075TIP3   OH218188   0.573   2.705   1.078
 6075TIP3    H118189   0.596   2.683   0.988
 6075TIP3    H218190   0.551   2.798   1.075
 6076TIP3   OH218191   2.372   6.263   0.689
 6076TIP3    H118192   2.301   6.260   0.754
 6076TIP3    H218193   2.447   6.225   0.734
 6077TIP3   OH218194   2.309   4.506   2.689
 6077TIP3    H118195   2.286   4.537   2.602
 6077TIP3    H218196   2.225   4.497   2.734
 6078TIP3   OH218197   4.791   1.109   3.015
 6078TIP3    H118198   4.772   1.136   3.105
 6078TIP3    H218199   4.885   1.094   3.014
 6079TIP3   OH218200   3.085   4.024   2.455
 6079TIP3    H118201   3.012   4.007   2.515
 6079TIP3    H218202   3.094   3.943   2.405
 6080TIP3   OH218203   2.126   1.958   1.301
 6080TIP3    H118204   2.085   2.038   1.334
 6080TIP3    H218205   2.104   1.956   1.208
 6081TIP3   OH218206   3.632   6.670   4.788
 6081TIP3    H118207   3.649   6.634   4.701
 6081TIP3    H218208   3.661   6.602   4.848
 6082TIP3   OH218209   2.716   1.835   4.305
 6082TIP3    H118210   2.692   1.886   4.382
 6082TIP3    H218211   2.764   1.896   4.249
 6083TIP3   OH218212   2.456   4.974   0.415
 6083TIP3    H118213   2.387   4.953   0.478
 6083TIP3    H218214   2.536   4.941   0.455
 6084TIP3   OH218215   2.294   6.429   2.431
 6084TIP3    H118216   2.291   6.497   2.365
 6084TIP3    H218217   2.381   6.436   2.470
 6085TIP3   OH218218   6.615   3.866   4.838
 6085TIP3    H118219   6.527   3.904   4.841
 6085TIP3    H218220   6.616   3.814   4.757
 6086TIP3   OH218221   1.492   3.889   2.896
 6086TIP3    H118222   1.524   3.968   2.940
 6086TIP3    H218223   1.516   3.817   2.955
 6087TIP3   OH218224   6.640   5.158   1.333
 6087TIP3    H118225   6.681   5.072   1.322
 6087TIP3    H218226   6.653   5.202   1.249
 6088TIP3   OH218227   5.707   4.350   2.835
 6088TIP3    H118228   5.637   4.413   2.819
 6088TIP3    H218229   5.787   4.396   2.810
 6089TIP3   OH218230   3.697   5.093   1.012
 6089TIP3    H118231   3.603   5.078   1.004
 6089TIP3    H218232   3.737   5.008   0.996
 6090TIP3   OH218233   0.657   6.023   5.736
 6090TIP3    H118234   0.713   6.020   5.658
 6090TIP3    H218235   0.718   6.016   5.809
 6091TIP3   OH218236   1.319   2.251   5.139
 6091TIP3    H118237   1.391   2.188   5.135
 6091TIP3    H218238   1.363   2.336   5.150
 6092TIP3   OH218239   3.183   6.398   3.322
 6092TIP3    H118240   3.138   6.445   3.392
 6092TIP3    H218241   3.114   6.370   3.262
 6093TIP3   OH218242   2.163   2.930   3.948
 6093TIP3    H118243   2.068   2.925   3.944
 6093TIP3    H218244   2.185   2.916   4.040
 6094TIP3   OH218245   6.947   2.994   1.307
 6094TIP3    H118246   6.930   3.054   1.380
 6094TIP3    H218247   7.013   2.934   1.341
 6095TIP3   OH218248   4.090   0.527   4.276
 6095TIP3    H118249   4.144   0.605   4.262
 6095TIP3    H218250   4.149   0.454   4.260
 6096TIP3   OH218251   4.687   2.034   2.468
 6096TIP3    H118252   4.609   1.979   2.473
 6096TIP3    H218253   4.760   1.973   2.478
 6097TIP3   OH218254   0.871   6.499   4.610
 6097TIP3    H118255   0.917   6.582   4.594
 6097TIP3    H218256   0.851   6.501   4.704
 6098TIP3   OH218257   6.131   4.290   3.763
 6098TIP3    H118258   6.091   4.214   3.719
 6098TIP3    H218259   6.113   4.276   3.856
 6099TIP3   OH218260   3.723   3.527   2.789
 6099TIP3    H118261   3.764   3.504   2.706
 6099TIP3    H218262   3.655   3.460   2.802
 6100TIP3   OH218263   2.015   2.439   1.363
 6100TIP3    H118264   1.950   2.506   1.386
 6100TIP3    H218265   2.093   2.462   1.414
 6101TIP3   OH218266   0.037   3.868   1.302
 6101TIP3    H118267   0.039   3.898   1.393
 6101TIP3    H218268   0.030   3.773   1.308
 6102TIP3   OH218269   4.608   0.066   2.104
 6102TIP3    H118270   4.686   0.095   2.057
 6102TIP3    H218271   4.539   0.064   2.038
 6103TIP3   OH218272   6.160   0.357   0.477
 6103TIP3    H118273   6.218   0.392   0.409
 6103TIP3    H218274   6.207   0.372   0.559
 6104TIP3   OH218275   1.009   4.328   1.074
 6104TIP3    H118276   1.034   4.270   1.002
 6104TIP3    H218277   0.999   4.414   1.033
 6105TIP3   OH218278   4.017   0.796   4.817
 6105TIP3    H118279   3.986   0.849   4.891
 6105TIP3    H218280   4.062   0.859   4.761
 6106TIP3   OH218281   6.725   6.031   3.210
 6106TIP3    H118282   6.631   6.012   3.209
 6106TIP3    H218283   6.767   5.946   3.223
 6107TIP3   OH218284   5.371   3.231   3.889
 6107TIP3    H118285   5.432   3.163   3.914
 6107TIP3    H218286   5.377   3.235   3.793
 6108TIP3   OH218287   2.510   0.954   4.234
 6108TIP3    H118288   2.459   0.876   4.214
 6108TIP3    H218289   2.469   0.990   4.313
 6109TIP3   OH218290   4.555   4.058   4.490
 6109TIP3    H118291   4.643   4.054   4.454
 6109TIP3    H218292   4.562   4.013   4.574
 6110TIP3   OH218293   7.027   2.909   5.287
 6110TIP3    H118294   7.099   2.903   5.350
 6110TIP3    H218295   7.062   2.872   5.206
 6111TIP3   OH218296   0.659   4.472   1.933
 6111TIP3    H118297   0.724   4.457   1.865
 6111TIP3    H218298   0.614   4.552   1.906
 6112TIP3   OH218299   5.656   2.826   0.581
 6112TIP3    H118300   5.631   2.879   0.656
 6112TIP3    H218301   5.676   2.740   0.619
 6113TIP3   OH218302   0.770   2.389   5.222
 6113TIP3    H118303   0.714   2.455   5.261
 6113TIP3    H218304   0.859   2.413   5.249
 6114TIP3   OH218305   4.538   0.139   2.705
 6114TIP3    H118306   4.487   0.218   2.690
 6114TIP3    H218307   4.577   0.119   2.620
 6115TIP3   OH218308   2.953   3.959   2.719
 6115TIP3    H118309   2.964   3.999   2.805
 6115TIP3    H218310   2.905   3.878   2.735
 6116TIP3   OH218311   1.946   1.629   5.488
 6116TIP3    H118312   2.039   1.604   5.484
 6116TIP3    H218313   1.947   1.724   5.486
 6117TIP3   OH218314   0.014   2.580   2.657
 6117TIP3    H118315   0.043   2.663   2.694
 6117TIP3    H218316   0.091   2.523   2.661
 6118TIP3   OH218317   6.492   3.406   4.262
 6118TIP3    H118318   6.570   3.394   4.317
 6118TIP3    H218319   6.422   3.424   4.325
 6119TIP3   OH218320   6.587   2.811   4.727
 6119TIP3    H118321   6.603   2.881   4.790
 6119TIP3    H218322   6.492   2.812   4.714
 6120TIP3   OH218323   1.680   3.744   0.736
 6120TIP3    H118324   1.655   3.761   0.827
 6120TIP3    H218325   1.695   3.649   0.733
 6121TIP3   OH218326   0.289   5.514   2.596
 6121TIP3    H118327   0.229   5.451   2.555
 6121TIP3    H218328   0.262   5.517   2.687
 6122TIP3   OH218329   3.056   5.022   0.164
 6122TIP3    H118330   3.050   5.029   0.069
 6122TIP3    H218331   2.966   5.029   0.195
 6123TIP3   OH218332   6.100   5.161   5.264
 6123TIP3    H118333   6.004   5.157   5.270
 6123TIP3    H218334   6.126   5.076   5.231
 6124TIP3   OH218335   5.965   4.991   4.718
 6124TIP3    H118336   5.973   5.047   4.640
 6124TIP3    H218337   6.047   5.003   4.765
 6125TIP3   OH218338   5.124   5.084   5.673
 6125TIP3    H118339   5.176   5.025   5.726
 6125TIP3    H218340   5.179   5.162   5.664
 6126TIP3   OH218341   5.920   1.276   0.948
 6126TIP3    H118342   5.907   1.331   0.871
 6126TIP3    H218343   6.005   1.303   0.984
 6127TIP3   OH218344   6.450   5.250   1.029
 6127TIP3    H118345   6.467   5.323   0.969
 6127TIP3    H218346   6.420   5.292   1.110
 6128TIP3   OH218347   2.478   2.845   4.075
 6128TIP3    H118348   2.387   2.865   4.098
 6128TIP3    H218349   2.527   2.859   4.155
 6129TIP3   OH218350   2.566   0.113   2.474
 6129TIP3    H118351   2.643   0.092   2.422
 6129TIP3    H218352   2.538   0.030   2.512
 6130TIP3   OH218353   4.319   0.708   3.407
 6130TIP3    H118354   4.252   0.657   3.454
 6130TIP3    H218355   4.382   0.732   3.475
 6131TIP3   OH218356   3.613   3.283   3.307
 6131TIP3    H118357   3.665   3.265   3.228
 6131TIP3    H218358   3.625   3.205   3.361
 6132TIP3   OH218359   5.205   5.282   2.848
 6132TIP3    H118360   5.110   5.276   2.835
 6132TIP3    H218361   5.217   5.277   2.943
 6133TIP3   OH218362   1.635   0.458   2.037
 6133TIP3    H118363   1.614   0.422   2.123
 6133TIP3    H218364   1.560   0.513   2.015
 6134TIP3   OH218365   5.015   2.490   1.378
 6134TIP3    H118366   4.926   2.503   1.411
 6134TIP3    H218367   5.020   2.396   1.361
 6135TIP3   OH218368   4.238   2.768   0.357
 6135TIP3    H118369   4.209   2.747   0.268
 6135TIP3    H218370   4.200   2.854   0.375
 6136TIP3   OH218371   5.729   4.930   4.024
 6136TIP3    H118372   5.658   4.914   4.086
 6136TIP3    H218373   5.742   4.847   3.979
 6137TIP3   OH218374   6.969   6.395   4.281
 6137TIP3    H118375   6.886   6.366   4.242
 6137TIP3    H218376   6.943   6.441   4.361
 6138TIP3   OH218377   2.944   3.820   0.356
 6138TIP3    H118378   2.871   3.759   0.365
 6138TIP3    H218379   2.903   3.903   0.330
 6139TIP3   OH218380   4.096   4.661   4.178
 6139TIP3    H118381   4.047   4.635   4.100
 6139TIP3    H218382   4.031   4.665   4.248
 6140TIP3   OH218383   3.178   6.067   0.856
 6140TIP3    H118384   3.109   6.041   0.917
 6140TIP3    H218385   3.227   6.135   0.901
 6141TIP3   OH218386   0.607   6.703   5.257
 6141TIP3    H118387   0.611   6.607   5.263
 6141TIP3    H218388   0.563   6.730   5.337
 6142TIP3   OH218389   1.730   4.028   0.967
 6142TIP3    H118390   1.823   4.006   0.960
 6142TIP3    H218391   1.689   3.945   0.991
 6143TIP3   OH218392   4.217   6.749   1.031
 6143TIP3    H118393   4.291   6.810   1.033
 6143TIP3    H218394   4.152   6.793   0.976
 6144TIP3   OH218395   6.243   0.169   2.542
 6144TIP3    H118396   6.203   0.101   2.596
 6144TIP3    H218397   6.253   0.244   2.602
 6145TIP3   OH218398   6.693   4.759   1.962
 6145TIP3    H118399   6.624   4.733   1.901
 6145TIP3    H218400   6.705   4.682   2.017
 6146TIP3   OH218401   6.000   3.611   5.100
 6146TIP3    H118402   6.057   3.654   5.163
 6146TIP3    H218403   5.942   3.680   5.068
 6147TIP3   OH218404   2.410   3.540   1.155
 6147TIP3    H118405   2.394   3.605   1.224
 6147TIP3    H218406   2.324   3.524   1.117
 6148TIP3   OH218407   5.215   6.732   1.752
 6148TIP3    H118408   5.277   6.662   1.775
 6148TIP3    H218409   5.203   6.723   1.658
 6149TIP3   OH218410   0.641   2.310   3.954
 6149TIP3    H118411   0.695   2.280   3.881
 6149TIP3    H218412   0.584   2.235   3.974
 6150TIP3   OH218413   2.589   3.878   4.574
 6150TIP3    H118414   2.622   3.792   4.548
 6150TIP3    H218415   2.510   3.859   4.624
 6151TIP3   OH218416   3.187   1.996   0.050
 6151TIP3    H118417   3.117   2.046   0.010
 6151TIP3    H218418   3.161   1.904   0.039
 6152TIP3   OH218419   6.581   2.672   3.159
 6152TIP3    H118420   6.574   2.587   3.115
 6152TIP3    H218421   6.652   2.716   3.112
 6153TIP3   OH218422   3.960   1.360   3.002
 6153TIP3    H118423   3.973   1.276   3.046
 6153TIP3    H218424   3.965   1.426   3.072
 6154TIP3   OH218425   0.882   4.095   1.289
 6154TIP3    H118426   0.905   4.058   1.374
 6154TIP3    H218427   0.955   4.072   1.231
 6155TIP3   OH218428   2.220   4.777   3.584
 6155TIP3    H118429   2.287   4.790   3.517
 6155TIP3    H218430   2.247   4.835   3.656
 6156TIP3   OH218431   6.531   3.247   3.526
 6156TIP3    H118432   6.467   3.317   3.512
 6156TIP3    H218433   6.482   3.179   3.573
 6157TIP3   OH218434   4.728   2.920   2.251
 6157TIP3    H118435   4.650   2.974   2.241
 6157TIP3    H218436   4.800   2.983   2.258
 6158TIP3   OH218437   1.445   3.980   0.588
 6158TIP3    H118438   1.422   4.023   0.505
 6158TIP3    H218439   1.451   3.887   0.566
 6159TIP3   OH218440   4.719   4.005   1.056
 6159TIP3    H118441   4.681   4.090   1.033
 6159TIP3    H218442   4.703   3.997   1.150
 6160TIP3   OH218443   2.812   2.625   3.814
 6160TIP3    H118444   2.882   2.567   3.782
 6160TIP3    H218445   2.835   2.711   3.781
 6161TIP3   OH218446   3.626   0.619   3.137
 6161TIP3    H118447   3.607   0.525   3.144
 6161TIP3    H218448   3.637   0.634   3.043
 6162TIP3   OH218449   3.617   4.611   3.504
 6162TIP3    H118450   3.677   4.673   3.545
 6162TIP3    H218451   3.672   4.540   3.472
 6163TIP3   OH218452   3.482   2.899   0.883
 6163TIP3    H118453   3.459   2.982   0.842
 6163TIP3    H218454   3.399   2.851   0.888
 6164TIP3   OH218455   4.462   2.227   3.632
 6164TIP3    H118456   4.394   2.172   3.672
 6164TIP3    H218457   4.492   2.283   3.702
 6165TIP3   OH218458   7.170   0.595   0.155
 6165TIP3    H118459   7.188   0.689   0.143
 6165TIP3    H218460   7.081   0.583   0.123
 6166TIP3   OH218461   5.593   0.278   2.772
 6166TIP3    H118462   5.655   0.328   2.825
 6166TIP3    H218463   5.624   0.188   2.778
 6167TIP3   OH218464   3.511   4.597   0.352
 6167TIP3    H118465   3.543   4.521   0.305
 6167TIP3    H218466   3.576   4.612   0.421
 6168TIP3   OH218467   6.118   3.790   0.735
 6168TIP3    H118468   6.195   3.734   0.746
 6168TIP3    H218469   6.065   3.746   0.669
 6169TIP3   OH218470   0.978   0.452   4.258
 6169TIP3    H118471   1.022   0.517   4.202
 6169TIP3    H218472   1.010   0.473   4.346
 6170TIP3   OH218473   2.509   3.182   4.927
 6170TIP3    H118474   2.516   3.220   4.840
 6170TIP3    H218475   2.431   3.224   4.965
 6171TIP3   OH218476   1.394   3.172   5.733
 6171TIP3    H118477   1.326   3.105   5.733
 6171TIP3    H218478   1.356   3.245   5.782
 6172TIP3   OH218479   3.534   5.620   3.870
 6172TIP3    H118480   3.530   5.703   3.824
 6172TIP3    H218481   3.612   5.577   3.834
 6173TIP3   OH218482   4.049   3.039   2.385
 6173TIP3    H118483   4.106   3.100   2.339
 6173TIP3    H218484   4.061   3.059   2.478
 6174TIP3   OH218485   1.020   4.406   4.029
 6174TIP3    H118486   0.968   4.328   4.008
 6174TIP3    H218487   0.987   4.434   4.115
 6175TIP3   OH218488   1.886   2.909   1.684
 6175TIP3    H118489   1.818   2.866   1.734
 6175TIP3    H218490   1.843   2.937   1.603
 6176TIP3   OH218491   0.481   1.591   0.049
 6176TIP3    H118492   0.461   1.569  -0.042
 6176TIP3    H218493   0.512   1.681   0.046
 6177TIP3   OH218494   6.030   3.532   0.352
 6177TIP3    H118495   6.080   3.451   0.367
 6177TIP3    H218496   5.953   3.504   0.303
 6178TIP3   OH218497   0.001   1.779   1.119
 6178TIP3    H118498  -0.007   1.722   1.196
 6178TIP3    H218499   0.073   1.838   1.141
 6179TIP3   OH218500   6.755   0.651   2.494
 6179TIP3    H118501   6.667   0.628   2.523
 6179TIP3    H218502   6.742   0.714   2.424
 6180TIP3   OH218503   2.072   5.678   3.896
 6180TIP3    H118504   2.147   5.650   3.843
 6180TIP3    H218505   2.105   5.676   3.986
 6181TIP3   OH218506   6.045   4.237   0.895
 6181TIP3    H118507   6.089   4.301   0.950
 6181TIP3    H218508   5.955   4.235   0.928
 6182TIP3   OH218509   1.585   1.839   4.629
 6182TIP3    H118510   1.613   1.769   4.688
 6182TIP3    H218511   1.559   1.910   4.688
 6183TIP3   OH218512   2.323   2.140   5.382
 6183TIP3    H118513   2.312   2.060   5.332
 6183TIP3    H218514   2.295   2.210   5.323
 6184TIP3   OH218515   1.464   5.634   3.322
 6184TIP3    H118516   1.542   5.648   3.376
 6184TIP3    H218517   1.410   5.575   3.374
 6185TIP3   OH218518   1.600   1.138   1.992
 6185TIP3    H118519   1.523   1.186   2.021
 6185TIP3    H218520   1.573   1.046   1.993
 6186TIP3   OH218521   5.667   0.727   0.584
 6186TIP3    H118522   5.640   0.817   0.602
 6186TIP3    H218523   5.601   0.673   0.626
 6187TIP3   OH218524   2.205   5.717   1.719
 6187TIP3    H118525   2.255   5.727   1.638
 6187TIP3    H218526   2.147   5.794   1.721
 6188TIP3   OH218527   6.231   1.566   2.064
 6188TIP3    H118528   6.270   1.492   2.018
 6188TIP3    H218529   6.305   1.611   2.103
 6189TIP3   OH218530   3.419   6.704   2.365
 6189TIP3    H118531   3.414   6.660   2.450
 6189TIP3    H218532   3.460   6.639   2.307
 6190TIP3   OH218533   0.416   0.631   2.854
 6190TIP3    H118534   0.420   0.684   2.934
 6190TIP3    H218535   0.325   0.602   2.850
 6191TIP3   OH218536   1.567   0.916   0.983
 6191TIP3    H118537   1.649   0.868   0.995
 6191TIP3    H218538   1.498   0.851   0.995
 6192TIP3   OH218539   5.596   2.412   1.766
 6192TIP3    H118540   5.558   2.433   1.681
 6192TIP3    H218541   5.632   2.495   1.799
 6193TIP3   OH218542   0.637   3.532   2.325
 6193TIP3    H118543   0.732   3.524   2.336
 6193TIP3    H218544   0.626   3.589   2.249
 6194TIP3   OH218545   6.936   2.501   5.171
 6194TIP3    H118546   6.890   2.585   5.171
 6194TIP3    H218547   7.007   2.512   5.108
 6195TIP3   OH218548   1.647   4.072   3.188
 6195TIP3    H118549   1.627   4.045   3.278
 6195TIP3    H218550   1.634   4.167   3.189
 6196TIP3   OH218551   3.165   1.950   5.882
 6196TIP3    H118552   3.078   1.974   5.915
 6196TIP3    H218553   3.161   1.967   5.788
 6197TIP3   OH218554   1.556   4.327   3.147
 6197TIP3    H118555   1.512   4.341   3.230
 6197TIP3    H218556   1.548   4.410   3.101
 6198TIP3   OH218557   0.729   6.198   3.852
 6198TIP3    H118558   0.756   6.174   3.763
 6198TIP3    H218559   0.785   6.272   3.874
 6199TIP3   OH218560   0.771   2.710   5.709
 6199TIP3    H118561   0.788   2.763   5.631
 6199TIP3    H218562   0.704   2.647   5.681
 6200TIP3   OH218563   0.545   5.143   2.155
 6200TIP3    H118564   0.606   5.185   2.217
 6200TIP3    H218565   0.461   5.186   2.171
 6201TIP3   OH218566   0.171   1.993   1.190
 6201TIP3    H118567   0.125   1.967   1.269
 6201TIP3    H218568   0.188   2.086   1.202
 6202TIP3   OH218569   2.789   0.540   3.999
 6202TIP3    H118570   2.833   0.537   3.914
 6202TIP3    H218571   2.776   0.448   4.023
 6203TIP3   OH218572   6.127   2.059   3.220
 6203TIP3    H118573   6.118   2.100   3.306
 6203TIP3    H218574   6.076   1.979   3.226
 6204TIP3   OH218575   3.672   5.855   1.492
 6204TIP3    H118576   3.723   5.774   1.497
 6204TIP3    H218577   3.593   5.837   1.544
 6205TIP3   OH218578   4.617   0.022   4.713
 6205TIP3    H118579   4.623   0.087   4.783
 6205TIP3    H218580   4.619   0.074   4.633
 6206TIP3   OH218581   6.928   4.575   5.817
 6206TIP3    H118582   6.961   4.664   5.828
 6206TIP3    H218583   6.896   4.550   5.903
 6207TIP3   OH218584   0.428   0.094   5.143
 6207TIP3    H118585   0.519   0.081   5.170
 6207TIP3    H218586   0.420   0.044   5.062
 6208TIP3   OH218587   5.861   3.095   1.795
 6208TIP3    H118588   5.788   3.148   1.828
 6208TIP3    H218589   5.935   3.121   1.850
 6209TIP3   OH218590   3.816   2.695   3.048
 6209TIP3    H118591   3.751   2.662   3.110
 6209TIP3    H218592   3.861   2.616   3.018
 6210TIP3   OH218593   0.089   3.806   5.758
 6210TIP3    H118594   0.022   3.871   5.739
 6210TIP3    H218595   0.116   3.772   5.673
 6211TIP3   OH218596   5.710   5.286   0.770
 6211TIP3    H118597   5.689   5.193   0.784
 6211TIP3    H218598   5.751   5.313   0.852
 6212TIP3   OH218599   0.476   4.564   0.204
 6212TIP3    H118600   0.406   4.531   0.261
 6212TIP3    H218601   0.537   4.608   0.264
 6213TIP3   OH218602   2.126   4.092   4.676
 6213TIP3    H118603   2.184   4.099   4.600
 6213TIP3    H218604   2.185   4.086   4.751
 6214TIP3   OH218605   0.433   2.662   1.708
 6214TIP3    H118606   0.380   2.692   1.781
 6214TIP3    H218607   0.506   2.723   1.704
 6215TIP3   OH218608   0.455   5.228   1.080
 6215TIP3    H118609   0.460   5.197   1.171
 6215TIP3    H218610   0.536   5.197   1.040
 6216TIP3   OH218611   0.537   2.964   0.975
 6216TIP3    H118612   0.500   3.052   0.980
 6216TIP3    H218613   0.475   2.915   0.922
 6217TIP3   OH218614   7.059   4.304   0.857
 6217TIP3    H118615   6.969   4.286   0.833
 6217TIP3    H218616   7.082   4.236   0.920
 6218TIP3   OH218617   3.100   3.210   1.373
 6218TIP3    H118618   3.007   3.231   1.367
 6218TIP3    H218619   3.103   3.125   1.417
 6219TIP3   OH218620   6.899   5.897   2.798
 6219TIP3    H118621   6.868   5.980   2.833
 6219TIP3    H218622   6.992   5.895   2.820
 6220TIP3   OH218623   6.547   3.929   0.191
 6220TIP3    H118624   6.599   3.854   0.163
 6220TIP3    H218625   6.456   3.902   0.179
 6221TIP3   OH218626   2.142   5.770   0.067
 6221TIP3    H118627   2.061   5.734   0.103
 6221TIP3    H218628   2.208   5.753   0.133
 6222TIP3   OH218629   3.149   5.934   2.437
 6222TIP3    H118630   3.061   5.941   2.475
 6222TIP3    H218631   3.158   6.013   2.384
 6223TIP3   OH218632   3.846   5.316   0.906
 6223TIP3    H118633   3.800   5.238   0.939
 6223TIP3    H218634   3.880   5.358   0.985
 6224TIP3   OH218635   1.938   5.978   0.344
 6224TIP3    H118636   2.029   5.979   0.314
 6224TIP3    H218637   1.892   5.925   0.278
 6225TIP3   OH218638   0.291   4.527   0.452
 6225TIP3    H118639   0.354   4.499   0.519
 6225TIP3    H218640   0.227   4.579   0.501
 6226TIP3   OH218641   0.447   4.773   1.173
 6226TIP3    H118642   0.397   4.822   1.238
 6226TIP3    H218643   0.446   4.682   1.204
 6227TIP3   OH218644   2.866   4.433   0.633
 6227TIP3    H118645   2.913   4.504   0.677
 6227TIP3    H218646   2.805   4.477   0.574
 6228TIP3   OH218647   2.861   3.603   2.253
 6228TIP3    H118648   2.848   3.517   2.293
 6228TIP3    H218649   2.828   3.593   2.164
 6229TIP3   OH218650   3.999   6.547   3.646
 6229TIP3    H118651   4.030   6.494   3.573
 6229TIP3    H218652   3.949   6.487   3.701
 6230TIP3   OH218653   5.453   1.486   2.780
 6230TIP3    H118654   5.489   1.424   2.716
 6230TIP3    H218655   5.424   1.561   2.727
 6231TIP3   OH218656   4.428   2.956   3.421
 6231TIP3    H118657   4.481   2.930   3.346
 6231TIP3    H218658   4.488   3.006   3.477
 6232TIP3   OH218659   2.879   4.062   1.974
 6232TIP3    H118660   2.942   3.996   2.005
 6232TIP3    H218661   2.889   4.063   1.879
 6233TIP3   OH218662   4.043   3.179   5.544
 6233TIP3    H118663   3.979   3.193   5.614
 6233TIP3    H218664   4.073   3.267   5.522
 6234TIP3   OH218665   6.273   2.157   3.635
 6234TIP3    H118666   6.294   2.176   3.544
 6234TIP3    H218667   6.356   2.125   3.673
 6235TIP3   OH218668   5.797   5.196   2.964
 6235TIP3    H118669   5.730   5.141   2.922
 6235TIP3    H218670   5.817   5.150   3.046
 6236TIP3   OH218671   2.092   6.018  -0.001
 6236TIP3    H118672   2.132   6.079   0.061
 6236TIP3    H218673   2.112   5.931   0.034
 6237TIP3   OH218674   6.530   3.055   4.046
 6237TIP3    H118675   6.573   3.077   4.129
 6237TIP3    H218676   6.582   2.984   4.010
 6238TIP3   OH218677   3.612   3.328   0.347
 6238TIP3    H118678   3.525   3.290   0.360
 6238TIP3    H218679   3.611   3.361   0.257
 6239TIP3   OH218680   6.471   5.297   5.828
 6239TIP3    H118681   6.476   5.389   5.802
 6239TIP3    H218682   6.390   5.290   5.879
 6240TIP3   OH218683   5.072   1.981   1.276
 6240TIP3    H118684   5.086   1.971   1.182
 6240TIP3    H218685   5.159   1.971   1.314
 6241TIP3   OH218686   4.415   6.248   4.812
 6241TIP3    H118687   4.428   6.253   4.717
 6241TIP3    H218688   4.326   6.278   4.826
 6242TIP3   OH218689   2.737   5.783   2.059
 6242TIP3    H118690   2.792   5.858   2.036
 6242TIP3    H218691   2.673   5.818   2.121
 6243TIP3   OH218692   6.671   2.132   4.855
 6243TIP3    H118693   6.580   2.161   4.852
 6243TIP3    H218694   6.672   2.051   4.804
 6244TIP3   OH218695   7.132   3.192   0.139
 6244TIP3    H118696   7.126   3.212   0.045
 6244TIP3    H218697   7.132   3.096   0.142
 6245TIP3   OH218698   4.667   5.365   3.957
 6245TIP3    H118699   4.591   5.322   3.920
 6245TIP3    H218700   4.703   5.417   3.886
 6246TIP3   OH218701   0.302   1.990   3.485
 6246TIP3    H118702   0.395   2.012   3.499
 6246TIP3    H218703   0.287   1.914   3.540
 6247TIP3   OH218704   6.833   5.579   1.759
 6247TIP3    H118705   6.880   5.546   1.682
 6247TIP3    H218706   6.849   5.513   1.827
 6248TIP3   OH218707   6.764   1.053   4.530
 6248TIP3    H118708   6.671   1.040   4.544
 6248TIP3    H218709   6.805   0.974   4.566
 6249TIP3   OH218710   2.056   0.429   1.216
 6249TIP3    H118711   2.114   0.492   1.174
 6249TIP3    H218712   2.051   0.458   1.307
 6250TIP3   OH218713   4.028   4.915   1.651
 6250TIP3    H118714   4.119   4.945   1.655
 6250TIP3    H218715   3.982   4.971   1.714
 6251TIP3   OH218716   4.544   4.372   2.668
 6251TIP3    H118717   4.476   4.411   2.613
 6251TIP3    H218718   4.611   4.441   2.676
 6252TIP3   OH218719   2.002   6.612   5.191
 6252TIP3    H118720   2.046   6.684   5.236
 6252TIP3    H218721   2.021   6.535   5.245
 6253TIP3   OH218722   1.863   5.617   1.002
 6253TIP3    H118723   1.935   5.677   0.983
 6253TIP3    H218724   1.794   5.672   1.039
 6254TIP3   OH218725   5.163   1.837   4.950
 6254TIP3    H118726   5.252   1.860   4.975
 6254TIP3    H218727   5.153   1.872   4.862
 6255TIP3   OH218728   6.178   5.716   4.106
 6255TIP3    H118729   6.108   5.742   4.046
 6255TIP3    H218730   6.143   5.738   4.193
 6256TIP3   OH218731   1.333   1.096   4.473
 6256TIP3    H118732   1.361   1.188   4.477
 6256TIP3    H218733   1.262   1.090   4.537
 6257TIP3   OH218734   2.033   4.324   4.119
 6257TIP3    H118735   2.072   4.410   4.134
 6257TIP3    H218736   1.950   4.327   4.166
 6258TIP3   OH218737   3.581   0.734   2.841
 6258TIP3    H118738   3.620   0.686   2.768
 6258TIP3    H218739   3.597   0.826   2.822
 6259TIP3   OH218740   3.474   4.856   3.446
 6259TIP3    H118741   3.390   4.881   3.486
 6259TIP3    H218742   3.492   4.769   3.481
 6260TIP3   OH218743   0.544   3.436   5.290
 6260TIP3    H118744   0.560   3.386   5.371
 6260TIP3    H218745   0.558   3.372   5.220
 6261TIP3   OH218746   1.555   1.216   4.256
 6261TIP3    H118747   1.557   1.253   4.344
 6261TIP3    H218748   1.512   1.131   4.266
 6262TIP3   OH218749   4.760   3.313   5.702
 6262TIP3    H118750   4.842   3.269   5.722
 6262TIP3    H218751   4.716   3.255   5.640
 6263TIP3   OH218752   4.862   5.881   3.237
 6263TIP3    H118753   4.950   5.892   3.202
 6263TIP3    H218754   4.811   5.847   3.163
 6264TIP3   OH218755   2.983   4.473   0.955
 6264TIP3    H118756   2.893   4.469   0.925
 6264TIP3    H218757   2.979   4.456   1.049
 6265TIP3   OH218758   5.118   4.753   3.761
 6265TIP3    H118759   5.099   4.741   3.854
 6265TIP3    H218760   5.069   4.832   3.736
 6266TIP3   OH218761   4.397   0.023   3.285
 6266TIP3    H118762   4.305   0.022   3.313
 6266TIP3    H218763   4.420   0.116   3.282
 6267TIP3   OH218764   7.002   1.010   0.476
 6267TIP3    H118765   7.068   0.941   0.473
 6267TIP3    H218766   6.920   0.966   0.455
 6268TIP3   OH218767   4.050   0.195   3.503
 6268TIP3    H118768   4.108   0.242   3.563
 6268TIP3    H218769   4.095   0.199   3.418
 6269TIP3   OH218770   5.851   0.960   5.683
 6269TIP3    H118771   5.854   0.958   5.779
 6269TIP3    H218772   5.767   0.922   5.660
 6270TIP3   OH218773   3.922   3.633   5.753
 6270TIP3    H118774   3.917   3.551   5.802
 6270TIP3    H218775   4.010   3.631   5.713
 6271TIP3   OH218776   6.332   0.915   2.830
 6271TIP3    H118777   6.350   0.886   2.919
 6271TIP3    H218778   6.248   0.875   2.808
 6272TIP3   OH218779   0.770   5.306   3.893
 6272TIP3    H118780   0.721   5.245   3.947
 6272TIP3    H218781   0.703   5.363   3.854
 6273TIP3   OH218782   5.280   5.739   5.897
 6273TIP3    H118783   5.352   5.798   5.875
 6273TIP3    H218784   5.279   5.674   5.826
 6274TIP3   OH218785   2.104   2.626   3.994
 6274TIP3    H118786   2.022   2.665   3.967
 6274TIP3    H218787   2.170   2.693   3.977
 6275TIP3   OH218788   4.065   1.296   3.727
 6275TIP3    H118789   4.016   1.378   3.739
 6275TIP3    H218790   4.153   1.325   3.703
 6276TIP3   OH218791   2.403   0.371   3.598
 6276TIP3    H118792   2.473   0.374   3.663
 6276TIP3    H218793   2.414   0.286   3.555
 6277TIP3   OH218794   6.260   3.007   0.164
 6277TIP3    H118795   6.271   3.091   0.208
 6277TIP3    H218796   6.169   2.982   0.183
 6278TIP3   OH218797   1.030   4.312   3.587
 6278TIP3    H118798   1.022   4.218   3.606
 6278TIP3    H218799   0.993   4.322   3.499
 6279TIP3   OH218800   2.053   3.526   5.205
 6279TIP3    H118801   2.103   3.549   5.283
 6279TIP3    H218802   2.106   3.557   5.132
 6280TIP3   OH218803   4.349   0.322   2.646
 6280TIP3    H118804   4.289   0.357   2.711
 6280TIP3    H218805   4.297   0.261   2.595
 6281TIP3   OH218806   1.375   4.192   1.914
 6281TIP3    H118807   1.290   4.150   1.923
 6281TIP3    H218808   1.438   4.121   1.929
 6282TIP3   OH218809   4.602   0.850   3.171
 6282TIP3    H118810   4.694   0.837   3.146
 6282TIP3    H218811   4.596   0.813   3.259
 6283TIP3   OH218812   3.995   5.421   1.130
 6283TIP3    H118813   4.066   5.459   1.079
 6283TIP3    H218814   4.035   5.348   1.177
 6284TIP3   OH218815   6.253   2.910   1.918
 6284TIP3    H118816   6.318   2.889   1.986
 6284TIP3    H218817   6.301   2.901   1.836
 6285TIP3   OH218818   4.571   4.043   5.631
 6285TIP3    H118819   4.633   4.098   5.678
 6285TIP3    H218820   4.581   4.069   5.539
 6286TIP3   OH218821   4.650   6.709   3.578
 6286TIP3    H118822   4.640   6.685   3.670
 6286TIP3    H218823   4.572   6.761   3.559
 6287TIP3   OH218824   2.283   5.369   3.159
 6287TIP3    H118825   2.267   5.410   3.073
 6287TIP3    H218826   2.199   5.377   3.205
 6288TIP3   OH218827   0.127   0.137   3.296
 6288TIP3    H118828   0.095   0.192   3.368
 6288TIP3    H218829   0.064   0.152   3.225
 6289TIP3   OH218830   5.820   5.804   0.582
 6289TIP3    H118831   5.913   5.827   0.584
 6289TIP3    H218832   5.805   5.770   0.494
 6290TIP3   OH218833   5.350   2.216   1.187
 6290TIP3    H118834   5.268   2.204   1.235
 6290TIP3    H218835   5.364   2.133   1.141
 6291TIP3   OH218836   3.829   5.621   2.764
 6291TIP3    H118837   3.767   5.664   2.822
 6291TIP3    H218838   3.799   5.642   2.675
 6292TIP3   OH218839   4.394   2.431   1.225
 6292TIP3    H118840   4.377   2.502   1.287
 6292TIP3    H218841   4.422   2.476   1.145
 6293TIP3   OH218842   5.710   0.408   2.544
 6293TIP3    H118843   5.669   0.367   2.620
 6293TIP3    H218844   5.759   0.336   2.502
 6294TIP3   OH218845   4.493   1.826   2.529
 6294TIP3    H118846   4.416   1.774   2.553
 6294TIP3    H218847   4.567   1.774   2.559
 6295TIP3   OH218848   2.505   2.894   3.042
 6295TIP3    H118849   2.577   2.867   2.985
 6295TIP3    H218850   2.436   2.922   2.982
 6296TIP3   OH218851   2.313   6.617   2.231
 6296TIP3    H118852   2.391   6.618   2.176
 6296TIP3    H218853   2.263   6.694   2.204
 6297TIP3   OH218854   0.672   6.358   2.622
 6297TIP3    H118855   0.687   6.277   2.672
 6297TIP3    H218856   0.738   6.354   2.553
 6298TIP3   OH218857   7.016   3.621   2.615
 6298TIP3    H118858   6.944   3.684   2.609
 6298TIP3    H218859   7.061   3.644   2.696
 6299TIP3   OH218860   1.195   2.903   0.167
 6299TIP3    H118861   1.276   2.926   0.212
 6299TIP3    H218862   1.177   2.813   0.195
 6300TIP3   OH218863   5.383   1.876   4.478
 6300TIP3    H118864   5.337   1.868   4.395
 6300TIP3    H218865   5.429   1.960   4.472
 6301TIP3   OH218866   0.462   1.759   5.871
 6301TIP3    H118867   0.494   1.758   5.781
 6301TIP3    H218868   0.513   1.827   5.914
 6302TIP3   OH218869   4.669   5.054   4.715
 6302TIP3    H118870   4.593   5.051   4.772
 6302TIP3    H218871   4.702   5.144   4.724
 6303TIP3   OH218872   4.376   0.787   1.952
 6303TIP3    H118873   4.360   0.716   1.890
 6303TIP3    H218874   4.305   0.849   1.936
 6304TIP3   OH218875   4.934   0.216   4.392
 6304TIP3    H118876   4.999   0.201   4.461
 6304TIP3    H218877   4.949   0.307   4.365
 6305TIP3   OH218878   5.901   4.401   1.627
 6305TIP3    H118879   5.915   4.492   1.602
 6305TIP3    H218880   5.979   4.377   1.676
 6306TIP3   OH218881   5.025   2.284   5.363
 6306TIP3    H118882   4.955   2.245   5.311
 6306TIP3    H218883   5.001   2.266   5.454
 6307TIP3   OH218884   1.420   0.615   4.939
 6307TIP3    H118885   1.467   0.532   4.944
 6307TIP3    H218886   1.379   0.615   4.853
 6308TIP3   OH218887   1.791   2.150   0.523
 6308TIP3    H118888   1.750   2.213   0.464
 6308TIP3    H218889   1.805   2.072   0.470
 6309TIP3   OH218890   6.651   5.803   1.092
 6309TIP3    H118891   6.633   5.792   1.185
 6309TIP3    H218892   6.729   5.750   1.076
 6310TIP3   OH218893   5.697   6.765   0.793
 6310TIP3    H118894   5.610   6.772   0.833
 6310TIP3    H218895   5.751   6.828   0.842
 6311TIP3   OH218896   5.680   6.399   4.099
 6311TIP3    H118897   5.684   6.468   4.033
 6311TIP3    H218898   5.610   6.341   4.069
 6312TIP3   OH218899   2.332   3.147   5.174
 6312TIP3    H118900   2.259   3.086   5.172
 6312TIP3    H218901   2.316   3.207   5.101
 6313TIP3   OH218902   0.310   0.805   3.050
 6313TIP3    H118903   0.231   0.830   3.098
 6313TIP3    H218904   0.358   0.747   3.109
 6314TIP3   OH218905   5.699   0.909   2.401
 6314TIP3    H118906   5.667   0.828   2.363
 6314TIP3    H218907   5.750   0.882   2.477
 6315TIP3   OH218908   2.580   5.263   0.639
 6315TIP3    H118909   2.490   5.235   0.658
 6315TIP3    H218910   2.591   5.344   0.688
 6316TIP3   OH218911   4.534   3.322   0.556
 6316TIP3    H118912   4.545   3.277   0.641
 6316TIP3    H218913   4.624   3.330   0.523
 6317TIP3   OH218914   2.878   1.825   2.674
 6317TIP3    H118915   2.848   1.838   2.764
 6317TIP3    H218916   2.890   1.730   2.667
 6318TIP3   OH218917   2.665   4.466   2.298
 6318TIP3    H118918   2.671   4.375   2.325
 6318TIP3    H218919   2.648   4.515   2.378
 6319TIP3   OH218920   5.978   5.297   4.560
 6319TIP3    H118921   6.045   5.237   4.526
 6319TIP3    H218922   5.909   5.295   4.494
 6320TIP3   OH218923   4.010   4.562   1.132
 6320TIP3    H118924   4.014   4.535   1.040
 6320TIP3    H218925   4.023   4.481   1.181
 6321TIP3   OH218926   4.997   4.974   2.619
 6321TIP3    H118927   5.006   4.884   2.652
 6321TIP3    H218928   5.085   4.997   2.590
 6322TIP3   OH218929   3.904   0.611   3.493
 6322TIP3    H118930   3.919   0.578   3.405
 6322TIP3    H218931   3.960   0.556   3.549
 6323TIP3   OH218932   7.164   0.859   0.113
 6323TIP3    H118933   7.171   0.949   0.146
 6323TIP3    H218934   7.123   0.869   0.027
 6324TIP3   OH218935   2.300   4.031   1.726
 6324TIP3    H118936   2.379   3.987   1.696
 6324TIP3    H218937   2.259   4.064   1.646
 6325TIP3   OH218938   5.068   5.442   1.920
 6325TIP3    H118939   5.007   5.368   1.916
 6325TIP3    H218940   5.081   5.467   1.829
 6326TIP3   OH218941   1.841   5.243   2.287
 6326TIP3    H118942   1.807   5.267   2.373
 6326TIP3    H218943   1.934   5.265   2.291
 6327TIP3   OH218944   6.884   3.342   2.571
 6327TIP3    H118945   6.974   3.320   2.545
 6327TIP3    H218946   6.896   3.408   2.640
 6328TIP3   OH218947   1.138   4.248   0.832
 6328TIP3    H118948   1.179   4.163   0.820
 6328TIP3    H218949   1.206   4.311   0.808
 6329TIP3   OH218950   2.242   1.136   5.142
 6329TIP3    H118951   2.202   1.077   5.079
 6329TIP3    H218952   2.337   1.122   5.131
 6330TIP3   OH218953   3.183   1.595   1.069
 6330TIP3    H118954   3.229   1.520   1.032
 6330TIP3    H218955   3.118   1.557   1.128
 6331TIP3   OH218956   2.055   1.358   1.490
 6331TIP3    H118957   1.996   1.426   1.457
 6331TIP3    H218958   2.036   1.282   1.435
 6332TIP3   OH218959   0.066   4.007   4.052
 6332TIP3    H118960  -0.024   3.975   4.050
 6332TIP3    H218961   0.118   3.934   4.020
 6333TIP3   OH218962   7.160   1.728   5.728
 6333TIP3    H118963   7.221   1.700   5.796
 6333TIP3    H218964   7.115   1.647   5.701
 6334TIP3   OH218965   0.161   3.146   1.384
 6334TIP3    H118966   0.092   3.211   1.372
 6334TIP3    H218967   0.132   3.071   1.333
 6335TIP3   OH218968   6.205   1.926   0.835
 6335TIP3    H118969   6.133   1.911   0.896
 6335TIP3    H218970   6.202   1.851   0.776
 6336TIP3   OH218971   3.972   2.454   2.964
 6336TIP3    H118972   3.925   2.376   2.996
 6336TIP3    H218973   3.929   2.476   2.881
 6337TIP3   OH218974   5.136   1.472   0.064
 6337TIP3    H118975   5.177   1.557   0.050
 6337TIP3    H218976   5.061   1.472   0.004
 6338TIP3   OH218977   4.291   6.481   1.960
 6338TIP3    H118978   4.236   6.555   1.935
 6338TIP3    H218979   4.345   6.514   2.031
 6339TIP3   OH218980   6.640   4.084   0.688
 6339TIP3    H118981   6.672   4.035   0.611
 6339TIP3    H218982   6.572   4.028   0.725
 6340TIP3   OH218983   4.312   1.050   0.770
 6340TIP3    H118984   4.300   0.963   0.807
 6340TIP3    H218985   4.400   1.048   0.732
 6341TIP3   OH218986   5.794   4.778   0.721
 6341TIP3    H118987   5.867   4.758   0.662
 6341TIP3    H218988   5.798   4.709   0.787
 6342TIP3   OH218989   1.291   5.174   3.346
 6342TIP3    H118990   1.365   5.232   3.359
 6342TIP3    H218991   1.330   5.088   3.332
 6343TIP3   OH218992   1.244   1.073   1.466
 6343TIP3    H118993   1.209   1.005   1.408
 6343TIP3    H218994   1.167   1.109   1.510
 6344TIP3   OH218995   2.996   1.932   5.167
 6344TIP3    H118996   2.998   1.997   5.097
 6344TIP3    H218997   3.088   1.925   5.195
 6345TIP3   OH218998   2.925   2.835   0.789
 6345TIP3    H118999   2.938   2.741   0.779
 6345TIP3    H219000   2.931   2.850   0.883
 6346TIP3   OH219001   7.161   1.633   2.563
 6346TIP3    H119002   7.160   1.544   2.599
 6346TIP3    H219003   7.098   1.630   2.491
 6347TIP3   OH219004   2.538   5.165   5.921
 6347TIP3    H119005   2.463   5.112   5.893
 6347TIP3    H219006   2.585   5.185   5.840
 6348TIP3   OH219007   0.857   5.080   4.843
 6348TIP3    H119008   0.936   5.033   4.815
 6348TIP3    H219009   0.787   5.045   4.789
 6349TIP3   OH219010   1.767   1.532   0.343
 6349TIP3    H119011   1.771   1.595   0.416
 6349TIP3    H219012   1.754   1.448   0.386
 6350TIP3   OH219013   3.303   0.955   2.314
 6350TIP3    H119014   3.397   0.956   2.299
 6350TIP3    H219015   3.267   0.904   2.242
 6351TIP3   OH219016   2.982   2.404   0.388
 6351TIP3    H119017   3.041   2.455   0.332
 6351TIP3    H219018   2.898   2.409   0.344
 6352TIP3   OH219019   5.434   6.614   5.437
 6352TIP3    H119020   5.364   6.565   5.479
 6352TIP3    H219021   5.512   6.594   5.488
 6353TIP3   OH219022   0.106   2.992   5.881
 6353TIP3    H119023   0.054   3.045   5.942
 6353TIP3    H219024   0.061   2.908   5.878
 6354TIP3   OH219025   2.240   2.631   5.255
 6354TIP3    H119026   2.276   2.656   5.169
 6354TIP3    H219027   2.271   2.700   5.314
 6355TIP3   OH219028   4.309   4.386   2.224
 6355TIP3    H119029   4.250   4.342   2.285
 6355TIP3    H219030   4.397   4.364   2.256
 6356TIP3   OH219031   6.285   1.370   1.870
 6356TIP3    H119032   6.315   1.281   1.889
 6356TIP3    H219033   6.197   1.358   1.834
 6357TIP3   OH219034   5.866   5.784   1.826
 6357TIP3    H119035   5.929   5.840   1.872
 6357TIP3    H219036   5.916   5.704   1.806
 6358TIP3   OH219037   5.195   5.934   2.460
 6358TIP3    H119038   5.174   5.863   2.522
 6358TIP3    H219039   5.250   5.994   2.510
 6359TIP3   OH219040   4.090   4.457   1.758
 6359TIP3    H119041   4.081   4.451   1.663
 6359TIP3    H219042   4.025   4.396   1.792
 6360TIP3   OH219043   5.101   0.795   4.509
 6360TIP3    H119044   5.047   0.769   4.584
 6360TIP3    H219045   5.163   0.723   4.498
 6361TIP3   OH219046   2.442   5.720   1.101
 6361TIP3    H119047   2.381   5.778   1.146
 6361TIP3    H219048   2.528   5.744   1.136
 6362TIP3   OH219049   1.098   2.857   1.153
 6362TIP3    H119050   1.135   2.898   1.232
 6362TIP3    H219051   1.003   2.864   1.165
 6363TIP3   OH219052   1.714   5.833   1.031
 6363TIP3    H119053   1.675   5.860   0.948
 6363TIP3    H219054   1.641   5.797   1.081
 6364TIP3   OH219055   7.150   2.613   1.845
 6364TIP3    H119056   7.077   2.640   1.788
 6364TIP3    H219057   7.187   2.696   1.876
 6365TIP3   OH219058   2.125   3.661   5.878
 6365TIP3    H119059   2.139   3.576   5.838
 6365TIP3    H219060   2.030   3.673   5.875
 6366TIP3   OH219061   7.160   0.495   4.320
 6366TIP3    H119062   7.247   0.481   4.283
 6366TIP3    H219063   7.165   0.579   4.365
 6367TIP3   OH219064   6.146   4.305   1.788
 6367TIP3    H119065   6.086   4.232   1.802
 6367TIP3    H219066   6.162   4.340   1.875
 6368TIP3   OH219067   6.999   6.297   3.953
 6368TIP3    H119068   7.050   6.219   3.976
 6368TIP3    H219069   7.017   6.309   3.859
 6369TIP3   OH219070   3.775   3.676   0.695
 6369TIP3    H119071   3.729   3.702   0.775
 6369TIP3    H219072   3.707   3.673   0.628
 6370TIP3   OH219073   5.664   0.028   4.005
 6370TIP3    H119074   5.751   0.031   4.044
 6370TIP3    H219075   5.604   0.014   4.079
 6371TIP3   OH219076   6.658   0.890   4.803
 6371TIP3    H119077   6.686   0.805   4.771
 6371TIP3    H219078   6.737   0.944   4.802
 6372TIP3   OH219079   7.129   5.443   4.748
 6372TIP3    H119080   7.079   5.362   4.751
 6372TIP3    H219081   7.124   5.478   4.837
 6373TIP3   OH219082   4.081   6.802   3.613
 6373TIP3    H119083   4.040   6.716   3.610
 6373TIP3    H219084   4.084   6.824   3.706
 6374TIP3   OH219085   0.717   6.557   2.802
 6374TIP3    H119086   0.674   6.495   2.745
 6374TIP3    H219087   0.729   6.510   2.885
 6375TIP3   OH219088   6.678   3.437   1.620
 6375TIP3    H119089   6.598   3.391   1.644
 6375TIP3    H219090   6.748   3.388   1.663
 6376TIP3   OH219091   1.884   1.541   4.590
 6376TIP3    H119092   1.859   1.541   4.497
 6376TIP3    H219093   1.807   1.577   4.635
 6377TIP3   OH219094   6.354   4.717   5.583
 6377TIP3    H119095   6.414   4.787   5.558
 6377TIP3    H219096   6.320   4.744   5.668
 6378TIP3   OH219097   4.914   0.448   3.861
 6378TIP3    H119098   4.850   0.399   3.810
 6378TIP3    H219099   4.862   0.498   3.923
 6379TIP3   OH219100   3.150   2.539   4.308
 6379TIP3    H119101   3.112   2.613   4.356
 6379TIP3    H219102   3.216   2.503   4.368
 6380TIP3   OH219103   5.052   4.307   3.465
 6380TIP3    H119104   5.049   4.343   3.554
 6380TIP3    H219105   5.082   4.218   3.476
 6381TIP3   OH219106   3.317   2.760   2.471
 6381TIP3    H119107   3.381   2.744   2.540
 6381TIP3    H219108   3.233   2.762   2.517
 6382TIP3   OH219109   3.209   6.160   2.246
 6382TIP3    H119110   3.183   6.095   2.182
 6382TIP3    H219111   3.281   6.208   2.205
 6383TIP3   OH219112   1.860   3.638   1.308
 6383TIP3    H119113   1.888   3.546   1.310
 6383TIP3    H219114   1.793   3.644   1.376
 6384TIP3   OH219115   1.239   3.257   5.502
 6384TIP3    H119116   1.291   3.334   5.475
 6384TIP3    H219117   1.165   3.294   5.550
 6385TIP3   OH219118   3.042   3.099   4.811
 6385TIP3    H119119   3.071   3.184   4.844
 6385TIP3    H219120   2.947   3.098   4.825
 6386TIP3   OH219121   2.574   5.543   2.441
 6386TIP3    H119122   2.480   5.527   2.451
 6386TIP3    H219123   2.601   5.481   2.373
 6387TIP3   OH219124   2.072   3.043   0.829
 6387TIP3    H119125   2.080   2.990   0.750
 6387TIP3    H219126   2.037   2.983   0.895
 6388TIP3   OH219127   6.134   2.775   5.122
 6388TIP3    H119128   6.104   2.802   5.036
 6388TIP3    H219129   6.061   2.727   5.160
 6389TIP3   OH219130   3.197   5.579   3.526
 6389TIP3    H119131   3.282   5.623   3.520
 6389TIP3    H219132   3.196   5.519   3.451
 6390TIP3   OH219133   6.399   4.165   0.536
 6390TIP3    H119134   6.480   4.157   0.585
 6390TIP3    H219135   6.355   4.080   0.547
 6391TIP3   OH219136   4.012   0.381   0.204
 6391TIP3    H119137   3.935   0.437   0.208
 6391TIP3    H219138   3.981   0.299   0.165
 6392TIP3   OH219139   2.306   1.379   3.574
 6392TIP3    H119140   2.353   1.462   3.571
 6392TIP3    H219141   2.304   1.356   3.667
 6393TIP3   OH219142   1.627   6.454   1.731
 6393TIP3    H119143   1.592   6.398   1.799
 6393TIP3    H219144   1.678   6.520   1.778
 6394TIP3   OH219145   0.208   3.452   0.380
 6394TIP3    H119146   0.173   3.388   0.442
 6394TIP3    H219147   0.131   3.483   0.332
 6395TIP3   OH219148   4.261   5.136   5.599
 6395TIP3    H119149   4.308   5.115   5.680
 6395TIP3    H219150   4.229   5.051   5.568
 6396TIP3   OH219151   0.701   4.212   5.775
 6396TIP3    H119152   0.635   4.153   5.811
 6396TIP3    H219153   0.747   4.160   5.709
 6397TIP3   OH219154   2.877   0.059   2.284
 6397TIP3    H119155   2.909  -0.009   2.343
 6397TIP3    H219156   2.923   0.043   2.201
 6398TIP3   OH219157   5.774   4.657   1.561
 6398TIP3    H119158   5.696   4.613   1.529
 6398TIP3    H219159   5.814   4.695   1.483
 6399TIP3   OH219160   6.182   4.752   1.251
 6399TIP3    H119161   6.121   4.826   1.257
 6399TIP3    H219162   6.266   4.792   1.229
 6400TIP3   OH219163   1.250   1.105   1.027
 6400TIP3    H119164   1.272   1.012   1.036
 6400TIP3    H219165   1.280   1.128   0.939
 6401TIP3   OH219166   3.746   4.989   3.089
 6401TIP3    H119167   3.661   5.032   3.074
 6401TIP3    H219168   3.735   4.944   3.173
 6402TIP3   OH219169   3.016   0.575   0.173
 6402TIP3    H119170   3.020   0.512   0.101
 6402TIP3    H219171   3.103   0.615   0.175
 6403TIP3   OH219172   6.721   6.779   4.033
 6403TIP3    H119173   6.788   6.718   4.061
 6403TIP3    H219174   6.679   6.808   4.114
 6404TIP3   OH219175   2.562   4.452   5.337
 6404TIP3    H119176   2.654   4.468   5.315
 6404TIP3    H219177   2.519   4.443   5.252
 6405TIP3   OH219178   1.203   5.480   1.851
 6405TIP3    H119179   1.298   5.476   1.867
 6405TIP3    H219180   1.181   5.572   1.868
 6406TIP3   OH219181   0.495   6.213   3.027
 6406TIP3    H119182   0.466   6.134   2.981
 6406TIP3    H219183   0.583   6.191   3.059
 6407TIP3   OH219184   1.655   4.059   2.392
 6407TIP3    H119185   1.667   3.965   2.408
 6407TIP3    H219186   1.676   4.100   2.475
 6408TIP3   OH219187   1.162   1.539   5.205
 6408TIP3    H119188   1.093   1.605   5.216
 6408TIP3    H219189   1.115   1.457   5.192
 6409TIP3   OH219190   4.907   2.020   5.832
 6409TIP3    H119191   4.864   1.940   5.864
 6409TIP3    H219192   4.961   2.049   5.905
 6410TIP3   OH219193   6.189   3.681   2.084
 6410TIP3    H119194   6.251   3.693   2.012
 6410TIP3    H219195   6.104   3.676   2.040
 6411TIP3   OH219196   2.190   4.949   3.905
 6411TIP3    H119197   2.218   5.030   3.862
 6411TIP3    H219198   2.271   4.898   3.916
 6412TIP3   OH219199   4.573   4.429   1.047
 6412TIP3    H119200   4.617   4.399   1.127
 6412TIP3    H219201   4.490   4.467   1.079
 6413TIP3   OH219202   2.978   6.331   3.134
 6413TIP3    H119203   2.985   6.292   3.047
 6413TIP3    H219204   2.944   6.261   3.190
 6414TIP3   OH219205   1.921   0.489   3.328
 6414TIP3    H119206   1.966   0.427   3.271
 6414TIP3    H219207   1.969   0.571   3.316
 6415TIP3   OH219208   7.092   2.545   2.261
 6415TIP3    H119209   7.091   2.621   2.320
 6415TIP3    H219210   7.076   2.470   2.319
 6416TIP3   OH219211   5.515   1.842   0.911
 6416TIP3    H119212   5.550   1.857   0.999
 6416TIP3    H219213   5.549   1.757   0.885
 6417TIP3   OH219214   4.755   5.155   3.748
 6417TIP3    H119215   4.782   5.191   3.833
 6417TIP3    H219216   4.749   5.232   3.691
 6418TIP3   OH219217   3.120   1.236   3.187
 6418TIP3    H119218   3.046   1.281   3.146
 6418TIP3    H219219   3.086   1.150   3.212
 6419TIP3   OH219220   0.528   3.389   2.691
 6419TIP3    H119221   0.617   3.354   2.695
 6419TIP3    H219222   0.537   3.480   2.719
 6420TIP3   OH219223   5.866   6.732   4.358
 6420TIP3    H119224   5.791   6.762   4.307
 6420TIP3    H219225   5.881   6.642   4.328
 6421TIP3   OH219226   5.842   6.511   0.127
 6421TIP3    H119227   5.811   6.422   0.107
 6421TIP3    H219228   5.890   6.502   0.209
 6422TIP3   OH219229   5.599   2.709   2.337
 6422TIP3    H119230   5.533   2.755   2.389
 6422TIP3    H219231   5.639   2.777   2.283
 6423TIP3   OH219232   1.163   4.905   5.801
 6423TIP3    H119233   1.165   4.963   5.877
 6423TIP3    H219234   1.206   4.955   5.732
 6424TIP3   OH219235   0.349   3.144   0.808
 6424TIP3    H119236   0.266   3.120   0.767
 6424TIP3    H219237   0.327   3.157   0.900
 6425TIP3   OH219238   4.286   6.626   3.156
 6425TIP3    H119239   4.253   6.636   3.245
 6425TIP3    H219240   4.378   6.650   3.162
 6426TIP3   OH219241   4.965   1.082   3.850
 6426TIP3    H119242   4.889   1.141   3.849
 6426TIP3    H219243   4.976   1.059   3.943
 6427TIP3   OH219244   2.632   1.838   3.928
 6427TIP3    H119245   2.611   1.766   3.868
 6427TIP3    H219246   2.725   1.856   3.913
 6428TIP3   OH219247   6.459   0.282   1.071
 6428TIP3    H119248   6.429   0.211   1.013
 6428TIP3    H219249   6.462   0.242   1.158
 6429TIP3   OH219250   7.135   6.019   3.219
 6429TIP3    H119251   7.063   6.002   3.280
 6429TIP3    H219252   7.206   6.052   3.273
 6430TIP3   OH219253   0.209   5.468   3.085
 6430TIP3    H119254   0.142   5.484   3.151
 6430TIP3    H219255   0.292   5.479   3.131
 6431TIP3   OH219256   0.048   3.654   3.371
 6431TIP3    H119257   0.089   3.629   3.454
 6431TIP3    H219258  -0.045   3.665   3.392
 6432TIP3   OH219259   4.502   1.154   3.783
 6432TIP3    H119260   4.473   1.141   3.692
 6432TIP3    H219261   4.597   1.156   3.778
 6433TIP3   OH219262   5.798   5.989   5.557
 6433TIP3    H119263   5.719   5.935   5.561
 6433TIP3    H219264   5.777   6.059   5.496
 6434TIP3   OH219265   6.849   4.377   1.470
 6434TIP3    H119266   6.755   4.362   1.474
 6434TIP3    H219267   6.866   4.402   1.379
 6435TIP3   OH219268   0.155   0.073   2.221
 6435TIP3    H119269   0.081   0.133   2.223
 6435TIP3    H219270   0.116  -0.014   2.214
 6436TIP3   OH219271   4.257   4.207   4.221
 6436TIP3    H119272   4.211   4.239   4.299
 6436TIP3    H219273   4.211   4.127   4.197
 6437TIP3   OH219274   4.917   4.949   1.088
 6437TIP3    H119275   4.876   5.022   1.135
 6437TIP3    H219276   4.993   4.926   1.141
 6438TIP3   OH219277   1.228   3.698   0.748
 6438TIP3    H119278   1.313   3.663   0.723
 6438TIP3    H219279   1.194   3.737   0.667
 6439TIP3   OH219280   6.626   5.402   4.723
 6439TIP3    H119281   6.584   5.343   4.785
 6439TIP3    H219282   6.646   5.346   4.648
 6440TIP3   OH219283   5.990   3.723   3.076
 6440TIP3    H119284   5.966   3.808   3.038
 6440TIP3    H219285   5.968   3.731   3.169
 6441TIP3   OH219286   1.109   3.143   4.663
 6441TIP3    H119287   1.079   3.105   4.746
 6441TIP3    H219288   1.035   3.198   4.635
 6442TIP3   OH219289   6.158   1.549   4.959
 6442TIP3    H119290   6.078   1.600   4.959
 6442TIP3    H219291   6.141   1.476   5.018
 6443TIP3   OH219292   5.103   5.492   1.642
 6443TIP3    H119293   5.033   5.502   1.577
 6443TIP3    H219294   5.132   5.401   1.632
 6444TIP3   OH219295   1.470   2.329   3.953
 6444TIP3    H119296   1.453   2.355   4.043
 6444TIP3    H219297   1.529   2.253   3.961
 6445TIP3   OH219298   0.352   6.518   4.552
 6445TIP3    H119299   0.257   6.520   4.555
 6445TIP3    H219300   0.380   6.604   4.583
 6446TIP3   OH219301   5.497   6.115   1.538
 6446TIP3    H119302   5.570   6.141   1.482
 6446TIP3    H219303   5.480   6.191   1.592
 6447TIP3   OH219304   3.232   3.164   2.487
 6447TIP3    H119305   3.154   3.124   2.526
 6447TIP3    H219306   3.207   3.179   2.396
 6448TIP3   OH219307   5.164   4.182   2.901
 6448TIP3    H119308   5.141   4.233   2.824
 6448TIP3    H219309   5.231   4.233   2.946
 6449TIP3   OH219310   2.712   4.350   0.323
 6449TIP3    H119311   2.667   4.431   0.302
 6449TIP3    H219312   2.642   4.286   0.336
 6450TIP3   OH219313   2.158   2.101   4.167
 6450TIP3    H119314   2.246   2.138   4.163
 6450TIP3    H219315   2.100   2.176   4.157
 6451TIP3   OH219316   6.400   1.139   0.674
 6451TIP3    H119317   6.418   1.075   0.604
 6451TIP3    H219318   6.398   1.086   0.754
 6452TIP3   OH219319   3.129   4.362   0.408
 6452TIP3    H119320   3.080   4.354   0.326
 6452TIP3    H219321   3.063   4.375   0.475
 6453TIP3   OH219322   0.045   5.526   5.402
 6453TIP3    H119323   0.076   5.454   5.457
 6453TIP3    H219324   0.099   5.601   5.428
 6454TIP3   OH219325   0.239   1.845   4.088
 6454TIP3    H119326   0.323   1.823   4.049
 6454TIP3    H219327   0.187   1.765   4.080
 6455TIP3   OH219328   0.609   1.967   4.748
 6455TIP3    H119329   0.673   1.928   4.807
 6455TIP3    H219330   0.653   2.044   4.712
 6456TIP3   OH219331   3.538   1.183   1.408
 6456TIP3    H119332   3.528   1.268   1.451
 6456TIP3    H219333   3.482   1.189   1.331
 6457TIP3   OH219334   1.112   5.906   3.928
 6457TIP3    H119335   1.023   5.923   3.958
 6457TIP3    H219336   1.165   5.970   3.975
 6458TIP3   OH219337   2.939   2.514   1.285
 6458TIP3    H119338   2.958   2.568   1.208
 6458TIP3    H219339   3.022   2.510   1.332
 6459TIP3   OH219340   3.377   2.052   0.287
 6459TIP3    H119341   3.350   2.111   0.357
 6459TIP3    H219342   3.305   2.055   0.224
 6460TIP3   OH219343   5.330   3.294   5.057
 6460TIP3    H119344   5.356   3.385   5.071
 6460TIP3    H219345   5.282   3.295   4.974
 6461TIP3   OH219346   5.102   2.510   3.099
 6461TIP3    H119347   5.087   2.532   3.191
 6461TIP3    H219348   5.172   2.569   3.071
 6462TIP3   OH219349   6.985   3.905   2.955
 6462TIP3    H119350   7.020   3.852   3.026
 6462TIP3    H219351   7.049   3.897   2.884
 6463TIP3   OH219352   4.930   0.223   4.030
 6463TIP3    H119353   4.935   0.300   3.974
 6463TIP3    H219354   4.843   0.227   4.069
 6464TIP3   OH219355   0.423   0.194   1.055
 6464TIP3    H119356   0.479   0.198   0.978
 6464TIP3    H219357   0.438   0.108   1.092
 6465TIP3   OH219358   2.922   1.542   0.505
 6465TIP3    H119359   2.872   1.480   0.452
 6465TIP3    H219360   2.871   1.623   0.502
 6466TIP3   OH219361   1.196   4.587   2.096
 6466TIP3    H119362   1.255   4.512   2.103
 6466TIP3    H219363   1.179   4.613   2.186
 6467TIP3   OH219364   5.165   0.756   5.266
 6467TIP3    H119365   5.094   0.820   5.261
 6467TIP3    H219366   5.135   0.690   5.328
 6468TIP3   OH219367   3.351   6.788   3.585
 6468TIP3    H119368   3.439   6.785   3.623
 6468TIP3    H219369   3.304   6.717   3.629
 6469TIP3   OH219370   2.471   6.491   1.983
 6469TIP3    H119371   2.389   6.444   1.999
 6469TIP3    H219372   2.444   6.571   1.936
 6470TIP3   OH219373   5.969   2.711   0.380
 6470TIP3    H119374   5.913   2.674   0.449
 6470TIP3    H219375   5.948   2.659   0.303
 6471TIP3   OH219376   2.961   5.279   0.784
 6471TIP3    H119377   3.040   5.319   0.750
 6471TIP3    H219378   2.901   5.352   0.798
 6472TIP3   OH219379   0.024   5.829   2.555
 6472TIP3    H119380   0.030   5.738   2.585
 6472TIP3    H219381   0.088   5.835   2.483
 6473TIP3   OH219382   5.538   3.950   1.196
 6473TIP3    H119383   5.581   3.913   1.119
 6473TIP3    H219384   5.446   3.924   1.188
 6474TIP3   OH219385   6.842   1.762   5.703
 6474TIP3    H119386   6.800   1.847   5.690
 6474TIP3    H219387   6.849   1.725   5.615
 6475TIP3   OH219388   2.757   2.552   4.188
 6475TIP3    H119389   2.723   2.599   4.112
 6475TIP3    H219390   2.747   2.613   4.261
 6476TIP3   OH219391   5.323   4.608   5.594
 6476TIP3    H119392   5.278   4.562   5.665
 6476TIP3    H219393   5.327   4.699   5.622
 6477TIP3   OH219394   2.768   6.037   5.192
 6477TIP3    H119395   2.793   6.040   5.284
 6477TIP3    H219396   2.711   6.113   5.180
 6478TIP3   OH219397   1.209   0.500   4.753
 6478TIP3    H119398   1.163   0.469   4.831
 6478TIP3    H219399   1.183   0.592   4.745
 6479TIP3   OH219400   4.463   2.272   4.919
 6479TIP3    H119401   4.496   2.361   4.911
 6479TIP3    H219402   4.373   2.277   4.888
 6480TIP3   OH219403   6.709   1.598   1.172
 6480TIP3    H119404   6.670   1.666   1.118
 6480TIP3    H219405   6.789   1.573   1.125
 6481TIP3   OH219406   1.772   3.458   2.768
 6481TIP3    H119407   1.818   3.467   2.851
 6481TIP3    H219408   1.752   3.548   2.742
 6482TIP3   OH219409   5.401   0.081   4.932
 6482TIP3    H119410   5.489   0.045   4.924
 6482TIP3    H219411   5.363   0.035   5.007
 6483TIP3   OH219412   7.086   0.527   3.851
 6483TIP3    H119413   7.168   0.504   3.895
 6483TIP3    H219414   7.108   0.523   3.757
 6484TIP3   OH219415   4.701   0.910   5.383
 6484TIP3    H119416   4.779   0.906   5.328
 6484TIP3    H219417   4.715   0.985   5.440
 6485TIP3   OH219418   0.027   4.058   1.007
 6485TIP3    H119419   0.106   4.091   1.049
 6485TIP3    H219420   0.059   4.016   0.927
 6486TIP3   OH219421   0.267   4.916   3.335
 6486TIP3    H119422   0.252   4.962   3.252
 6486TIP3    H219423   0.358   4.887   3.330
 6487TIP3   OH219424   1.307   1.211   5.133
 6487TIP3    H119425   1.291   1.229   5.041
 6487TIP3    H219426   1.384   1.264   5.155
 6488TIP3   OH219427   6.571   0.192   2.138
 6488TIP3    H119428   6.594   0.261   2.200
 6488TIP3    H219429   6.582   0.231   2.052
 6489TIP3   OH219430   0.305   6.307   0.504
 6489TIP3    H119431   0.329   6.240   0.440
 6489TIP3    H219432   0.384   6.361   0.513
 6490TIP3   OH219433   0.991   4.201   2.736
 6490TIP3    H119434   0.999   4.271   2.671
 6490TIP3    H219435   0.941   4.241   2.807
 6491TIP3   OH219436   3.321   1.065   2.573
 6491TIP3    H119437   3.316   1.010   2.495
 6491TIP3    H219438   3.342   1.004   2.644
 6492TIP3   OH219439   3.652   4.078   5.699
 6492TIP3    H119440   3.645   4.021   5.622
 6492TIP3    H219441   3.564   4.114   5.710
 6493TIP3   OH219442   1.348   4.440   1.692
 6493TIP3    H119443   1.395   4.359   1.713
 6493TIP3    H219444   1.403   4.509   1.729
 6494TIP3   OH219445   6.209   5.725   5.057
 6494TIP3    H119446   6.140   5.691   5.113
 6494TIP3    H219447   6.290   5.695   5.097
 6495TIP3   OH219448   0.076   1.926   3.782
 6495TIP3    H119449   0.030   1.921   3.698
 6495TIP3    H219450   0.160   1.967   3.760
 6496TIP3   OH219451   6.062   6.384   5.374
 6496TIP3    H119452   6.063   6.388   5.278
 6496TIP3    H219453   6.146   6.421   5.400
 6497TIP3   OH219454   5.037   4.920   0.479
 6497TIP3    H119455   4.978   4.951   0.410
 6497TIP3    H219456   5.061   5.000   0.527
 6498TIP3   OH219457   2.228   5.897   1.113
 6498TIP3    H119458   2.161   5.894   1.045
 6498TIP3    H219459   2.273   5.980   1.098
 6499TIP3   OH219460   3.052   3.024   4.541
 6499TIP3    H119461   3.134   2.975   4.544
 6499TIP3    H219462   3.044   3.063   4.628
 6500TIP3   OH219463   6.103   1.278   1.317
 6500TIP3    H119464   6.053   1.208   1.358
 6500TIP3    H219465   6.123   1.338   1.390
 6501TIP3   OH219466   2.826   6.425   5.012
 6501TIP3    H119467   2.790   6.343   5.047
 6501TIP3    H219468   2.856   6.403   4.924
 6502TIP3   OH219469   5.480   6.063   4.964
 6502TIP3    H119470   5.458   6.096   5.051
 6502TIP3    H219471   5.567   6.099   4.946
 6503TIP3   OH219472   0.344   3.753   3.328
 6503TIP3    H119473   0.430   3.751   3.371
 6503TIP3    H219474   0.316   3.661   3.327
 6504TIP3   OH219475   4.459   2.443   1.671
 6504TIP3    H119476   4.460   2.392   1.752
 6504TIP3    H219477   4.478   2.380   1.602
 6505TIP3   OH219478   0.114   5.870   3.550
 6505TIP3    H119479   0.070   5.858   3.466
 6505TIP3    H219480   0.065   5.814   3.610
 6506TIP3   OH219481   2.442   1.091   3.235
 6506TIP3    H119482   2.386   1.161   3.268
 6506TIP3    H219483   2.504   1.135   3.177
 6507TIP3   OH219484   7.190   4.884   0.831
 6507TIP3    H119485   7.215   4.912   0.919
 6507TIP3    H219486   7.124   4.816   0.845
 6508TIP3   OH219487   3.504   2.690   2.668
 6508TIP3    H119488   3.495   2.598   2.694
 6508TIP3    H219489   3.595   2.698   2.640
 6509TIP3   OH219490   3.550   2.298   3.191
 6509TIP3    H119491   3.562   2.283   3.285
 6509TIP3    H219492   3.456   2.312   3.181
 6510TIP3   OH219493   0.862   5.680   0.498
 6510TIP3    H119494   0.838   5.729   0.419
 6510TIP3    H219495   0.817   5.724   0.569
 6511TIP3   OH219496   4.797   1.129   2.442
 6511TIP3    H119497   4.840   1.043   2.437
 6511TIP3    H219498   4.724   1.115   2.503
 6512TIP3   OH219499   1.562   1.466   2.062
 6512TIP3    H119500   1.495   1.398   2.051
 6512TIP3    H219501   1.513   1.543   2.088
 6513TIP3   OH219502   1.929   4.358   4.395
 6513TIP3    H119503   2.014   4.392   4.425
 6513TIP3    H219504   1.915   4.279   4.447
 6514TIP3   OH219505   0.456   5.709   1.244
 6514TIP3    H119506   0.466   5.803   1.258
 6514TIP3    H219507   0.373   5.687   1.286
 6515TIP3   OH219508   4.701   1.944   5.455
 6515TIP3    H119509   4.688   1.914   5.365
 6515TIP3    H219510   4.769   1.887   5.490
 6516TIP3   OH219511   5.626   5.628   3.788
 6516TIP3    H119512   5.675   5.547   3.807
 6516TIP3    H219513   5.643   5.685   3.863
 6517TIP3   OH219514   5.555   5.708   3.273
 6517TIP3    H119515   5.576   5.680   3.184
 6517TIP3    H219516   5.620   5.664   3.328
 6518TIP3   OH219517   2.955   4.384   2.323
 6518TIP3    H119518   2.885   4.324   2.298
 6518TIP3    H219519   2.954   4.382   2.419
 6519TIP3   OH219520   0.423   2.038   0.301
 6519TIP3    H119521   0.369   1.997   0.368
 6519TIP3    H219522   0.497   1.978   0.291
 6520TIP3   OH219523   1.404   2.645   5.283
 6520TIP3    H119524   1.369   2.616   5.198
 6520TIP3    H219525   1.496   2.619   5.281
 6521TIP3   OH219526   3.500   6.093   4.874
 6521TIP3    H119527   3.476   6.022   4.816
 6521TIP3    H219528   3.537   6.160   4.817
 6522TIP3   OH219529   2.165   0.625   4.948
 6522TIP3    H119530   2.177   0.659   5.037
 6522TIP3    H219531   2.232   0.670   4.897
 6523TIP3   OH219532   4.492   5.011   3.301
 6523TIP3    H119533   4.507   5.102   3.327
 6523TIP3    H219534   4.438   4.974   3.370
 6524TIP3   OH219535   1.727   3.104   5.779
 6524TIP3    H119536   1.652   3.050   5.757
 6524TIP3    H219537   1.691   3.192   5.790
 6525TIP3   OH219538   6.985   4.640   1.850
 6525TIP3    H119539   7.036   4.707   1.805
 6525TIP3    H219540   6.918   4.690   1.898
 6526TIP3   OH219541   6.298   3.625   4.364
 6526TIP3    H119542   6.374   3.604   4.420
 6526TIP3    H219543   6.223   3.617   4.423
 6527TIP3   OH219544   4.046   3.939   5.224
 6527TIP3    H119545   3.959   3.980   5.233
 6527TIP3    H219546   4.044   3.900   5.137
 6528TIP3   OH219547   1.779   6.097   0.546
 6528TIP3    H119548   1.769   6.190   0.522
 6528TIP3    H219549   1.811   6.055   0.466
 6529TIP3   OH219550   1.615   2.482   5.807
 6529TIP3    H119551   1.519   2.490   5.799
 6529TIP3    H219552   1.649   2.534   5.734
 6530TIP3   OH219553   1.559   4.263   4.757
 6530TIP3    H119554   1.616   4.190   4.780
 6530TIP3    H219555   1.614   4.320   4.703
 6531TIP3   OH219556   2.747   3.252   5.035
 6531TIP3    H119557   2.792   3.167   5.040
 6531TIP3    H219558   2.655   3.230   5.021
 6532TIP3   OH219559   3.171   6.333   5.087
 6532TIP3    H119560   3.255   6.299   5.117
 6532TIP3    H219561   3.114   6.257   5.083
 6533TIP3   OH219562   3.227   0.165   4.227
 6533TIP3    H119563   3.164   0.156   4.156
 6533TIP3    H219564   3.281   0.087   4.221
 6534TIP3   OH219565   3.574   1.130   3.706
 6534TIP3    H119566   3.658   1.163   3.672
 6534TIP3    H219567   3.558   1.049   3.658
 6535TIP3   OH219568   3.925   2.066   4.605
 6535TIP3    H119569   3.941   2.064   4.510
 6535TIP3    H219570   3.832   2.047   4.615
 6536TIP3   OH219571   4.315   1.873   2.853
 6536TIP3    H119572   4.410   1.877   2.858
 6536TIP3    H219573   4.297   1.823   2.774
 6537TIP3   OH219574   2.919   1.280   3.693
 6537TIP3    H119575   2.880   1.200   3.728
 6537TIP3    H219576   2.985   1.306   3.758
 6538TIP3   OH219577   2.697   6.553   3.920
 6538TIP3    H119578   2.644   6.476   3.940
 6538TIP3    H219579   2.787   6.524   3.932
 6539TIP3   OH219580   2.492   2.894   4.346
 6539TIP3    H119581   2.544   2.813   4.355
 6539TIP3    H219582   2.446   2.902   4.429
 6540TIP3   OH219583   1.910   3.355   1.190
 6540TIP3    H119584   2.004   3.340   1.178
 6540TIP3    H219585   1.888   3.304   1.269
 6541TIP3   OH219586   2.718   3.991   2.606
 6541TIP3    H119587   2.745   3.916   2.553
 6541TIP3    H219588   2.797   4.015   2.655
 6542TIP3   OH219589   0.260   4.189   0.283
 6542TIP3    H119590   0.353   4.189   0.260
 6542TIP3    H219591   0.229   4.277   0.260
 6543TIP3   OH219592   1.440   6.626   2.019
 6543TIP3    H119593   1.534   6.617   2.002
 6543TIP3    H219594   1.417   6.546   2.066
 6544TIP3   OH219595   2.817   2.848   4.129
 6544TIP3    H119596   2.823   2.870   4.222
 6544TIP3    H219597   2.886   2.900   4.087
 6545TIP3   OH219598   5.627   2.511   0.059
 6545TIP3    H119599   5.713   2.524   0.021
 6545TIP3    H219600   5.607   2.419   0.043
 6546TIP3   OH219601   5.211   1.505   2.357
 6546TIP3    H119602   5.247   1.545   2.436
 6546TIP3    H219603   5.283   1.452   2.322
 6547TIP3   OH219604   0.716   3.291   1.591
 6547TIP3    H119605   0.788   3.246   1.635
 6547TIP3    H219606   0.638   3.243   1.617
 6548TIP3   OH219607   5.307   4.774   3.405
 6548TIP3    H119608   5.317   4.681   3.384
 6548TIP3    H219609   5.212   4.789   3.403
 6549TIP3   OH219610   6.940   0.820   3.918
 6549TIP3    H119611   6.993   0.760   3.970
 6549TIP3    H219612   7.000   0.851   3.850
 6550TIP3   OH219613   3.043   0.158   3.120
 6550TIP3    H119614   3.080   0.125   3.201
 6550TIP3    H219615   3.053   0.253   3.125
 6551TIP3   OH219616   4.574   1.280   3.537
 6551TIP3    H119617   4.607   1.312   3.453
 6551TIP3    H219618   4.513   1.209   3.514
 6552TIP3   OH219619   1.462   5.961   1.402
 6552TIP3    H119620   1.554   5.972   1.377
 6552TIP3    H219621   1.463   5.891   1.468
 6553TIP3   OH219622   7.041   0.648   5.676
 6553TIP3    H119623   7.134   0.667   5.669
 6553TIP3    H219624   7.001   0.696   5.603
 6554TIP3   OH219625   5.296   1.867   2.186
 6554TIP3    H119626   5.358   1.824   2.128
 6554TIP3    H219627   5.336   1.862   2.273
 6555TIP3   OH219628   0.104   4.194   0.665
 6555TIP3    H119629   0.166   4.123   0.679
 6555TIP3    H219630   0.031   4.154   0.618
 6556TIP3   OH219631   0.482   3.008   3.714
 6556TIP3    H119632   0.564   3.042   3.750
 6556TIP3    H219633   0.507   2.970   3.630
 6557TIP3   OH219634   2.650   1.352   5.793
 6557TIP3    H119635   2.652   1.256   5.785
 6557TIP3    H219636   2.712   1.382   5.727
 6558TIP3   OH219637   3.432   4.736   4.007
 6558TIP3    H119638   3.410   4.723   4.099
 6558TIP3    H219639   3.349   4.731   3.961
 6559TIP3   OH219640   0.488   2.226   4.901
 6559TIP3    H119641   0.414   2.235   4.841
 6559TIP3    H219642   0.564   2.251   4.850
 6560TIP3   OH219643   0.427   2.379   0.774
 6560TIP3    H119644   0.455   2.303   0.825
 6560TIP3    H219645   0.332   2.380   0.785
 6561TIP3   OH219646   6.918   3.085   5.537
 6561TIP3    H119647   6.878   2.999   5.549
 6561TIP3    H219648   6.857   3.131   5.479
 6562TIP3   OH219649   3.590   3.010   3.758
 6562TIP3    H119650   3.674   2.967   3.750
 6562TIP3    H219651   3.539   2.955   3.817
 6563TIP3   OH219652   3.959   5.738   2.164
 6563TIP3    H119653   3.960   5.787   2.081
 6563TIP3    H219654   4.038   5.769   2.210
 6564TIP3   OH219655   3.651   0.754   0.173
 6564TIP3    H119656   3.609   0.783   0.254
 6564TIP3    H219657   3.726   0.812   0.163
 6565TIP3   OH219658   3.761   1.147   0.389
 6565TIP3    H119659   3.743   1.192   0.307
 6565TIP3    H219660   3.699   1.185   0.452
 6566TIP3   OH219661   2.965   4.325   1.564
 6566TIP3    H119662   2.924   4.412   1.569
 6566TIP3    H219663   3.031   4.334   1.496
 6567TIP3   OH219664   0.892   6.745   3.071
 6567TIP3    H119665   0.836   6.796   3.013
 6567TIP3    H219666   0.837   6.724   3.146
 6568TIP3   OH219667   1.809   3.528   3.370
 6568TIP3    H119668   1.791   3.492   3.456
 6568TIP3    H219669   1.735   3.586   3.352
 6569TIP3   OH219670   3.499   6.646   3.967
 6569TIP3    H119671   3.423   6.601   4.004
 6569TIP3    H219672   3.559   6.656   4.040
 6570TIP3   OH219673   3.287   2.899   5.272
 6570TIP3    H119674   3.346   2.926   5.201
 6570TIP3    H219675   3.339   2.908   5.352
 6571TIP3   OH219676   0.289   5.672   5.464
 6571TIP3    H119677   0.381   5.648   5.475
 6571TIP3    H219678   0.271   5.734   5.534
 6572TIP3   OH219679   6.613   6.591   0.593
 6572TIP3    H119680   6.659   6.565   0.673
 6572TIP3    H219681   6.622   6.686   0.590
 6573TIP3   OH219682   5.918   3.798   0.217
 6573TIP3    H119683   5.996   3.749   0.187
 6573TIP3    H219684   5.939   3.825   0.306
 6574TIP3   OH219685   5.547   3.474   1.936
 6574TIP3    H119686   5.509   3.477   1.848
 6574TIP3    H219687   5.473   3.489   1.995
 6575TIP3   OH219688   5.273   1.771   0.256
 6575TIP3    H119689   5.268   1.776   0.161
 6575TIP3    H219690   5.183   1.760   0.285
 6576TIP3   OH219691   5.759   1.154   4.410
 6576TIP3    H119692   5.786   1.063   4.405
 6576TIP3    H219693   5.689   1.155   4.475
 6577TIP3   OH219694   1.129   4.149   2.137
 6577TIP3    H119695   1.105   4.230   2.183
 6577TIP3    H219696   1.212   4.123   2.177
 6578TIP3   OH219697   3.989   2.244   1.811
 6578TIP3    H119698   4.078   2.241   1.846
 6578TIP3    H219699   3.935   2.276   1.884
 6579TIP3   OH219700   6.711   0.187   2.994
 6579TIP3    H119701   6.776   0.231   3.047
 6579TIP3    H219702   6.753   0.105   2.968
 6580TIP3   OH219703   0.418   0.321   3.058
 6580TIP3    H119704   0.484   0.267   3.102
 6580TIP3    H219705   0.468   0.391   3.016
 6581TIP3   OH219706   0.912   5.129   2.600
 6581TIP3    H119707   0.914   5.149   2.506
 6581TIP3    H219708   0.823   5.151   2.627
 6582TIP3   OH219709   4.795   1.599   4.980
 6582TIP3    H119710   4.745   1.533   4.932
 6582TIP3    H219711   4.887   1.574   4.967
 6583TIP3   OH219712   2.912   3.482   3.893
 6583TIP3    H119713   2.958   3.429   3.958
 6583TIP3    H219714   2.849   3.422   3.853
 6584TIP3   OH219715   2.190   4.319   4.416
 6584TIP3    H119716   2.223   4.297   4.329
 6584TIP3    H219717   2.262   4.298   4.475
 6585TIP3   OH219718   7.017   0.521   5.363
 6585TIP3    H119719   7.046   0.454   5.300
 6585TIP3    H219720   7.097   0.549   5.406
 6586TIP3   OH219721   4.730   1.787   2.687
 6586TIP3    H119722   4.703   1.701   2.721
 6586TIP3    H219723   4.813   1.768   2.642
 6587TIP3   OH219724   3.598   2.994   1.804
 6587TIP3    H119725   3.506   3.011   1.786
 6587TIP3    H219726   3.643   3.075   1.780
 6588TIP3   OH219727   5.531   5.558   1.218
 6588TIP3    H119728   5.499   5.488   1.275
 6588TIP3    H219729   5.480   5.635   1.244
 6589TIP3   OH219730   6.179  -0.021   3.578
 6589TIP3    H119731   6.110   0.000   3.641
 6589TIP3    H219732   6.253  -0.051   3.631
 6590TIP3   OH219733   0.166   2.265   4.585
 6590TIP3    H119734   0.146   2.180   4.545
 6590TIP3    H219735   0.092   2.283   4.641
 6591TIP3   OH219736   6.892   5.174   2.997
 6591TIP3    H119737   6.838   5.234   2.945
 6591TIP3    H219738   6.964   5.150   2.938
 6592TIP3   OH219739   3.388   1.326   3.679
 6592TIP3    H119740   3.464   1.274   3.705
 6592TIP3    H219741   3.336   1.334   3.759
 6593TIP3   OH219742   3.344   0.585   4.243
 6593TIP3    H119743   3.329   0.511   4.301
 6593TIP3    H219744   3.432   0.617   4.267
 6594TIP3   OH219745   2.895   6.265   4.473
 6594TIP3    H119746   2.800   6.276   4.485
 6594TIP3    H219747   2.904   6.179   4.432
 6595TIP3   OH219748   4.281   5.361   1.471
 6595TIP3    H119749   4.186   5.365   1.482
 6595TIP3    H219750   4.316   5.363   1.560
 6596TIP3   OH219751   5.885   0.283   5.506
 6596TIP3    H119752   5.899   0.320   5.593
 6596TIP3    H219753   5.818   0.215   5.519
 6597TIP3   OH219754   6.184   0.242   3.248
 6597TIP3    H119755   6.253   0.241   3.314
 6597TIP3    H219756   6.149   0.331   3.251
 6598TIP3   OH219757   5.311   2.697   3.017
 6598TIP3    H119758   5.360   2.773   2.984
 6598TIP3    H219759   5.376   2.627   3.022
 6599TIP3   OH219760   4.540   3.614   5.130
 6599TIP3    H119761   4.542   3.571   5.215
 6599TIP3    H219762   4.615   3.673   5.131
 6600TIP3   OH219763   6.705   6.404   1.301
 6600TIP3    H119764   6.750   6.466   1.244
 6600TIP3    H219765   6.756   6.403   1.381
 6601TIP3   OH219766   0.208   0.510   4.219
 6601TIP3    H119767   0.238   0.600   4.235
 6601TIP3    H219768   0.257   0.457   4.282
 6602TIP3   OH219769   2.336   0.543   1.845
 6602TIP3    H119770   2.278   0.618   1.850
 6602TIP3    H219771   2.423   0.580   1.834
 6603TIP3   OH219772   6.645   6.138   1.387
 6603TIP3    H119773   6.655   6.228   1.356
 6603TIP3    H219774   6.573   6.143   1.451
 6604TIP3   OH219775   3.140   6.756   0.544
 6604TIP3    H119776   3.081   6.776   0.471
 6604TIP3    H219777   3.082   6.719   0.611
 6605TIP3   OH219778   3.470   0.781   1.539
 6605TIP3    H119779   3.401   0.783   1.472
 6605TIP3    H219780   3.500   0.872   1.544
 6606TIP3   OH219781   2.935   1.714   3.850
 6606TIP3    H119782   2.871   1.668   3.904
 6606TIP3    H219783   2.936   1.804   3.885
 6607TIP3   OH219784   2.493   2.325   1.283
 6607TIP3    H119785   2.421   2.382   1.309
 6607TIP3    H219786   2.571   2.380   1.293
 6608TIP3   OH219787   3.352   4.336   0.216
 6608TIP3    H119788   3.341   4.248   0.252
 6608TIP3    H219789   3.303   4.393   0.275
 6609TIP3   OH219790   2.166   0.249   2.719
 6609TIP3    H119791   2.247   0.215   2.680
 6609TIP3    H219792   2.159   0.338   2.684
 6610TIP3   OH219793   6.716   4.944   4.635
 6610TIP3    H119794   6.794   4.941   4.579
 6610TIP3    H219795   6.668   5.021   4.604
 6611TIP3   OH219796   2.994   6.518   1.738
 6611TIP3    H119797   2.931   6.472   1.682
 6611TIP3    H219798   2.945   6.539   1.817
 6612TIP3   OH219799   2.991   2.143   3.011
 6612TIP3    H119800   3.053   2.145   3.084
 6612TIP3    H219801   3.043   2.119   2.935
 6613TIP3   OH219802   3.965   0.499   5.356
 6613TIP3    H119803   3.968   0.530   5.266
 6613TIP3    H219804   3.910   0.563   5.402
 6614TIP3   OH219805   5.504   4.589   3.369
 6614TIP3    H119806   5.437   4.520   3.375
 6614TIP3    H219807   5.522   4.613   3.460
 6615TIP3   OH219808   6.271   0.438   0.227
 6615TIP3    H119809   6.339   0.491   0.185
 6615TIP3    H219810   6.282   0.350   0.190
 6616TIP3   OH219811   5.151   6.188   3.152
 6616TIP3    H119812   5.158   6.147   3.066
 6616TIP3    H219813   5.061   6.219   3.158
 6617TIP3   OH219814   6.977   2.420   1.464
 6617TIP3    H119815   6.939   2.430   1.551
 6617TIP3    H219816   7.071   2.428   1.477
 6618TIP3   OH219817   3.861   2.327   4.753
 6618TIP3    H119818   3.841   2.303   4.844
 6618TIP3    H219819   3.840   2.248   4.703
 6619TIP3   OH219820   5.588   0.595   1.590
 6619TIP3    H119821   5.582   0.506   1.554
 6619TIP3    H219822   5.507   0.606   1.639
 6620TIP3   OH219823   3.671   1.536   3.621
 6620TIP3    H119824   3.660   1.474   3.549
 6620TIP3    H219825   3.583   1.545   3.658
 6621TIP3   OH219826   3.234   5.227   3.686
 6621TIP3    H119827   3.213   5.135   3.700
 6621TIP3    H219828   3.307   5.226   3.624
 6622TIP3   OH219829   0.381   0.007   3.336
 6622TIP3    H119830   0.305   0.064   3.321
 6622TIP3    H219831   0.343  -0.080   3.347
 6623TIP3   OH219832   6.139   3.209   1.120
 6623TIP3    H119833   6.109   3.288   1.163
 6623TIP3    H219834   6.157   3.148   1.191
 6624TIP3   OH219835   5.208   0.433   0.553
 6624TIP3    H119836   5.185   0.366   0.617
 6624TIP3    H219837   5.301   0.452   0.571
 6625TIP3   OH219838   5.994   6.116   1.850
 6625TIP3    H119839   6.063   6.171   1.886
 6625TIP3    H219840   6.028   6.027   1.856
 6626TIP3   OH219841   0.860   0.660   0.914
 6626TIP3    H119842   0.820   0.735   0.871
 6626TIP3    H219843   0.942   0.646   0.866
 6627TIP3   OH219844   5.626   4.781   5.637
 6627TIP3    H119845   5.623   4.714   5.569
 6627TIP3    H219846   5.663   4.736   5.713
 6628TIP3   OH219847   3.389   6.488   4.924
 6628TIP3    H119848   3.401   6.513   5.015
 6628TIP3    H219849   3.479   6.480   4.890
 6629TIP3   OH219850   0.697   4.008   0.571
 6629TIP3    H119851   0.733   4.062   0.641
 6629TIP3    H219852   0.673   4.070   0.502
 6630TIP3   OH219853   6.144   2.564   4.879
 6630TIP3    H119854   6.067   2.615   4.855
 6630TIP3    H219855   6.130   2.478   4.839
 6631TIP3   OH219856   7.111   2.858   0.382
 6631TIP3    H119857   7.047   2.809   0.330
 6631TIP3    H219858   7.119   2.807   0.463
 6632TIP3   OH219859   3.268   5.500   2.253
 6632TIP3    H119860   3.257   5.410   2.221
 6632TIP3    H219861   3.180   5.537   2.251
 6633TIP3   OH219862   3.950   6.528   5.600
 6633TIP3    H119863   4.018   6.481   5.648
 6633TIP3    H219864   3.985   6.536   5.511
 6634TIP3   OH219865   2.111   3.903   0.598
 6634TIP3    H119866   2.015   3.902   0.602
 6634TIP3    H219867   2.136   3.986   0.640
 6635TIP3   OH219868   4.393   5.094   1.084
 6635TIP3    H119869   4.309   5.048   1.073
 6635TIP3    H219870   4.398   5.152   1.009
 6636TIP3   OH219871   1.855   1.276   5.136
 6636TIP3    H119872   1.901   1.282   5.219
 6636TIP3    H219873   1.833   1.367   5.114
 6637TIP3   OH219874   6.662   2.116   4.440
 6637TIP3    H119875   6.597   2.181   4.467
 6637TIP3    H219876   6.724   2.112   4.513
 6638TIP3   OH219877   3.465   5.730   1.594
 6638TIP3    H119878   3.394   5.734   1.657
 6638TIP3    H219879   3.495   5.639   1.597
 6639TIP3   OH219880   6.515   4.414   4.111
 6639TIP3    H119881   6.439   4.356   4.124
 6639TIP3    H219882   6.535   4.406   4.018
 6640TIP3   OH219883   4.575   3.631   4.190
 6640TIP3    H119884   4.595   3.577   4.266
 6640TIP3    H219885   4.624   3.712   4.205
 6641TIP3   OH219886   5.073   4.743   4.498
 6641TIP3    H119887   5.015   4.808   4.538
 6641TIP3    H219888   5.028   4.659   4.511
 6642TIP3   OH219889   0.158   1.159   4.093
 6642TIP3    H119890   0.085   1.204   4.051
 6642TIP3    H219891   0.170   1.205   4.176
 6643TIP3   OH219892   6.830   6.648   1.222
 6643TIP3    H119893   6.924   6.630   1.217
 6643TIP3    H219894   6.804   6.667   1.131
 6644TIP3   OH219895   2.964   2.687   1.077
 6644TIP3    H119896   2.960   2.780   1.096
 6644TIP3    H219897   2.874   2.663   1.053
 6645TIP3   OH219898   0.158   2.982   0.084
 6645TIP3    H119899   0.198   2.910   0.133
 6645TIP3    H219900   0.172   3.059   0.138
 6646TIP3   OH219901   6.233   6.722   5.131
 6646TIP3    H119902   6.267   6.739   5.219
 6646TIP3    H219903   6.310   6.725   5.074
 6647TIP3   OH219904   6.588   2.270   5.748
 6647TIP3    H119905   6.585   2.361   5.718
 6647TIP3    H219906   6.639   2.273   5.829
 6648TIP3   OH219907   0.384   0.404   1.605
 6648TIP3    H119908   0.298   0.407   1.562
 6648TIP3    H219909   0.443   0.366   1.540
 6649TIP3   OH219910   2.851   4.108   2.270
 6649TIP3    H119911   2.881   4.108   2.179
 6649TIP3    H219912   2.929   4.084   2.320
 6650TIP3   OH219913   5.486   2.903   1.258
 6650TIP3    H119914   5.560   2.963   1.264
 6650TIP3    H219915   5.526   2.817   1.246
 6651TIP3   OH219916   6.600   3.810   2.546
 6651TIP3    H119917   6.644   3.851   2.620
 6651TIP3    H219918   6.525   3.765   2.585
 6652TIP3   OH219919   4.138   2.038   1.558
 6652TIP3    H119920   4.073   2.057   1.626
 6652TIP3    H219921   4.165   2.124   1.527
 6653TIP3   OH219922   0.465   1.935   3.041
 6653TIP3    H119923   0.386   1.964   2.996
 6653TIP3    H219924   0.532   1.932   2.973
 6654TIP3   OH219925   2.456   1.732   3.269
 6654TIP3    H119926   2.432   1.648   3.231
 6654TIP3    H219927   2.425   1.797   3.206
 6655TIP3   OH219928   6.931   6.070   3.435
 6655TIP3    H119929   6.866   6.078   3.505
 6655TIP3    H219930   6.880   6.076   3.355
 6656TIP3   OH219931   3.189   1.682   2.679
 6656TIP3    H119932   3.220   1.592   2.693
 6656TIP3    H219933   3.159   1.710   2.766
 6657TIP3   OH219934   0.408   6.107   5.664
 6657TIP3    H119935   0.455   6.029   5.694
 6657TIP3    H219936   0.367   6.081   5.582
 6658TIP3   OH219937   0.648   2.884   5.875
 6658TIP3    H119938   0.625   2.837   5.955
 6658TIP3    H219939   0.704   2.823   5.827
 6659TIP3   OH219940   5.581   4.681   5.201
 6659TIP3    H119941   5.627   4.635   5.131
 6659TIP3    H219942   5.538   4.612   5.251
 6660TIP3   OH219943   0.181   0.308   1.116
 6660TIP3    H119944   0.160   0.401   1.128
 6660TIP3    H219945   0.264   0.308   1.067
 6661TIP3   OH219946   0.973   5.760   3.660
 6661TIP3    H119947   1.038   5.724   3.600
 6661TIP3    H219948   1.013   5.752   3.747
 6662TIP3   OH219949   5.842   6.104   5.239
 6662TIP3    H119950   5.915   6.088   5.300
 6662TIP3    H219951   5.841   6.027   5.182
 6663TIP3   OH219952   4.627   5.503   2.364
 6663TIP3    H119953   4.591   5.498   2.275
 6663TIP3    H219954   4.685   5.428   2.371
 6664TIP3   OH219955   6.754   3.103   2.619
 6664TIP3    H119956   6.812   3.179   2.614
 6664TIP3    H219957   6.666   3.138   2.603
 6665TIP3   OH219958   1.381   1.338   1.720
 6665TIP3    H119959   1.421   1.423   1.734
 6665TIP3    H219960   1.356   1.307   1.807
 6666TIP3   OH219961   4.370   2.708   3.131
 6666TIP3    H119962   4.322   2.700   3.048
 6666TIP3    H219963   4.373   2.619   3.166
 6667TIP3   OH219964   7.049   5.921   5.328
 6667TIP3    H119965   6.988   5.945   5.398
 6667TIP3    H219966   6.994   5.879   5.263
 6668TIP3   OH219967   6.742   4.638   1.330
 6668TIP3    H119968   6.825   4.592   1.321
 6668TIP3    H219969   6.679   4.584   1.282
 6669TIP3   OH219970   6.247   1.869   5.417
 6669TIP3    H119971   6.297   1.919   5.481
 6669TIP3    H219972   6.257   1.918   5.335
 6670TIP3   OH219973   0.904   6.342   0.697
 6670TIP3    H119974   0.836   6.290   0.740
 6670TIP3    H219975   0.970   6.358   0.765
 6671TIP3   OH219976   2.521   1.839   0.582
 6671TIP3    H119977   2.459   1.903   0.546
 6671TIP3    H219978   2.562   1.885   0.656
 6672TIP3   OH219979   0.903   1.949   2.809
 6672TIP3    H119980   0.975   1.962   2.871
 6672TIP3    H219981   0.834   1.906   2.860
 6673TIP3   OH219982   2.976   3.219   0.495
 6673TIP3    H119983   2.967   3.167   0.575
 6673TIP3    H219984   2.930   3.300   0.514
 6674TIP3   OH219985   4.230   2.019   0.888
 6674TIP3    H119986   4.144   2.045   0.855
 6674TIP3    H219987   4.255   2.091   0.947
 6675TIP3   OH219988   1.424   2.568   4.447
 6675TIP3    H119989   1.486   2.555   4.375
 6675TIP3    H219990   1.411   2.481   4.484
 6676TIP3   OH219991   5.236   3.077   3.371
 6676TIP3    H119992   5.238   2.981   3.375
 6676TIP3    H219993   5.256   3.105   3.460
 6677TIP3   OH219994   5.266   4.136   0.161
 6677TIP3    H119995   5.203   4.201   0.190
 6677TIP3    H219996   5.246   4.122   0.068
 6678TIP3   OH219997   0.458   5.510   1.856
 6678TIP3    H119998   0.466   5.454   1.778
 6678TIP3    H219999   0.527   5.478   1.915
 6679TIP3   OH220000   1.133   5.320   2.120
 6679TIP3    H120001   1.067   5.251   2.114
 6679TIP3    H220002   1.086   5.400   2.097
 6680TIP3   OH220003   1.796   6.784   3.942
 6680TIP3    H120004   1.834   6.720   4.002
 6680TIP3    H220005   1.867   6.844   3.922
 6681TIP3   OH220006   3.247   5.047   1.419
 6681TIP3    H120007   3.241   5.135   1.384
 6681TIP3    H220008   3.157   5.016   1.424
 6682TIP3   OH220009   1.603   3.683   2.750
 6682TIP3    H120010   1.509   3.667   2.749
 6682TIP3    H220011   1.612   3.778   2.748
 6683TIP3   OH220012   0.177   2.375   4.937
 6683TIP3    H120013   0.214   2.319   5.004
 6683TIP3    H220014   0.142   2.314   4.871
 6684TIP3   OH220015   1.643   2.387   2.912
 6684TIP3    H120016   1.729   2.355   2.883
 6684TIP3    H220017   1.583   2.359   2.844
 6685TIP3   OH220018   0.442   2.597   3.564
 6685TIP3    H120019   0.424   2.686   3.535
 6685TIP3    H220020   0.534   2.599   3.593
 6686TIP3   OH220021   6.237   4.588   0.117
 6686TIP3    H120022   6.179   4.588   0.194
 6686TIP3    H220023   6.310   4.644   0.141
 6687TIP3   OH220024   0.292   2.478   2.681
 6687TIP3    H120025   0.291   2.514   2.769
 6687TIP3    H220026   0.311   2.385   2.693
 6688TIP3   OH220027   6.604   5.235   3.919
 6688TIP3    H120028   6.513   5.259   3.938
 6688TIP3    H220029   6.640   5.312   3.874
 6689TIP3   OH220030   1.584   4.479   5.858
 6689TIP3    H120031   1.498   4.512   5.830
 6689TIP3    H220032   1.566   4.391   5.891
 6690TIP3   OH220033   1.857   0.929   1.892
 6690TIP3    H120034   1.919   0.977   1.838
 6690TIP3    H220035   1.787   0.904   1.832
 6691TIP3   OH220036   0.900   0.055   3.783
 6691TIP3    H120037   0.948   0.042   3.702
 6691TIP3    H220038   0.931   0.139   3.816
 6692TIP3   OH220039   1.920   5.721   1.803
 6692TIP3    H120040   2.000   5.683   1.840
 6692TIP3    H220041   1.938   5.815   1.798
 6693TIP3   OH220042   0.361   4.893   0.430
 6693TIP3    H120043   0.312   4.898   0.512
 6693TIP3    H220044   0.441   4.942   0.447
 6694TIP3   OH220045   2.824   1.451   3.944
 6694TIP3    H120046   2.894   1.468   4.007
 6694TIP3    H220047   2.758   1.404   3.995
 6695TIP3   OH220048   3.292   0.769   2.649
 6695TIP3    H120049   3.279   0.681   2.615
 6695TIP3    H220050   3.385   0.787   2.635
 6696TIP3   OH220051   0.682   5.882   2.628
 6696TIP3    H120052   0.736   5.803   2.639
 6696TIP3    H220053   0.601   5.862   2.674
 6697TIP3   OH220054   6.710   1.836   2.627
 6697TIP3    H120055   6.673   1.835   2.538
 6697TIP3    H220056   6.703   1.745   2.656
 6698TIP3   OH220057   1.647   0.511   1.341
 6698TIP3    H120058   1.701   0.471   1.409
 6698TIP3    H220059   1.563   0.528   1.383
 6699TIP3   OH220060   4.616   2.498   3.094
 6699TIP3    H120061   4.641   2.416   3.051
 6699TIP3    H220062   4.642   2.486   3.185
 6700TIP3   OH220063   2.176   4.676   0.629
 6700TIP3    H120064   2.239   4.612   0.596
 6700TIP3    H220065   2.228   4.732   0.687
 6701TIP3   OH220066   6.173   2.347   2.762
 6701TIP3    H120067   6.114   2.323   2.690
 6701TIP3    H220068   6.141   2.296   2.836
 6702TIP3   OH220069   6.251   5.409   0.002
 6702TIP3    H120070   6.237   5.345   0.072
 6702TIP3    H220071   6.180   5.472   0.012
 6703TIP3   OH220072   4.040   3.241   4.074
 6703TIP3    H120073   4.059   3.321   4.025
 6703TIP3    H220074   4.028   3.174   4.006
 6704TIP3   OH220075   1.462   3.884   5.535
 6704TIP3    H120076   1.410   3.904   5.457
 6704TIP3    H220077   1.446   3.957   5.594
 6705TIP3   OH220078   3.962   6.045   3.002
 6705TIP3    H120079   3.953   6.080   2.913
 6705TIP3    H220080   3.874   6.016   3.025
 6706TIP3   OH220081   1.518   0.862   1.294
 6706TIP3    H120082   1.459   0.839   1.223
 6706TIP3    H220083   1.489   0.809   1.368
 6707TIP3   OH220084   4.428   3.647   3.920
 6707TIP3    H120085   4.445   3.740   3.909
 6707TIP3    H220086   4.457   3.627   4.009
 6708TIP3   OH220087   1.332   6.790   5.298
 6708TIP3    H120088   1.425   6.776   5.282
 6708TIP3    H220089   1.329   6.863   5.360
 6709TIP3   OH220090   0.831   3.722   2.176
 6709TIP3    H120091   0.896   3.702   2.108
 6709TIP3    H220092   0.883   3.740   2.254
 6710TIP3   OH220093   2.118   0.414   4.241
 6710TIP3    H120094   2.053   0.441   4.305
 6710TIP3    H220095   2.072   0.352   4.185
 6711TIP3   OH220096   3.092   0.659   3.797
 6711TIP3    H120097   3.179   0.680   3.763
 6711TIP3    H220098   3.107   0.644   3.890
 6712TIP3   OH220099   1.900   5.634   5.746
 6712TIP3    H120100   1.931   5.601   5.831
 6712TIP3    H220101   1.805   5.645   5.758
 6713TIP3   OH220102   5.783   6.644   2.081
 6713TIP3    H120103   5.748   6.570   2.130
 6713TIP3    H220104   5.799   6.609   1.993
 6714TIP3   OH220105   1.584   3.032   3.139
 6714TIP3    H120106   1.552   3.062   3.055
 6714TIP3    H220107   1.527   3.074   3.204
 6715TIP3   OH220108   2.442   4.205   3.521
 6715TIP3    H120109   2.417   4.116   3.499
 6715TIP3    H220110   2.363   4.244   3.560
 6716TIP3   OH220111   5.951   1.820   1.614
 6716TIP3    H120112   5.906   1.753   1.562
 6716TIP3    H220113   6.037   1.828   1.573
 6717TIP3   OH220114   6.424   1.612   2.633
 6717TIP3    H120115   6.395   1.583   2.546
 6717TIP3    H220116   6.413   1.707   2.631
 6718TIP3   OH220117   2.899   2.085   1.812
 6718TIP3    H120118   2.915   1.993   1.833
 6718TIP3    H220119   2.896   2.088   1.716
 6719TIP3   OH220120   6.212   5.318   5.470
 6719TIP3    H120121   6.202   5.259   5.395
 6719TIP3    H220122   6.135   5.376   5.466
 6720TIP3   OH220123   2.383   0.347   3.068
 6720TIP3    H120124   2.326   0.424   3.080
 6720TIP3    H220125   2.385   0.334   2.974
 6721TIP3   OH220126   0.314   1.134   2.715
 6721TIP3    H120127   0.270   1.197   2.658
 6721TIP3    H220128   0.256   1.125   2.791
 6722TIP3   OH220129   2.050   5.166   4.107
 6722TIP3    H120130   1.988   5.197   4.041
 6722TIP3    H220131   2.133   5.158   4.059
 6723TIP3   OH220132   4.864   1.388   0.686
 6723TIP3    H120133   4.953   1.375   0.652
 6723TIP3    H220134   4.877   1.431   0.770
 6724TIP3   OH220135   3.197   0.498   2.585
 6724TIP3    H120136   3.132   0.501   2.655
 6724TIP3    H220137   3.239   0.413   2.595
 6725TIP3   OH220138   4.295   5.652   0.068
 6725TIP3    H120139   4.305   5.739   0.029
 6725TIP3    H220140   4.305   5.666   0.162
 6726TIP3   OH220141   0.696   6.706   0.005
 6726TIP3    H120142   0.632   6.737   0.069
 6726TIP3    H220143   0.693   6.773  -0.064
 6727TIP3   OH220144   1.386   4.873   0.133
 6727TIP3    H120145   1.363   4.884   0.040
 6727TIP3    H220146   1.464   4.928   0.144
 6728TIP3   OH220147   0.288   4.993   4.840
 6728TIP3    H120148   0.351   5.054   4.803
 6728TIP3    H220149   0.240   4.959   4.764
 6729TIP3   OH220150   3.598   2.696   3.908
 6729TIP3    H120151   3.577   2.669   3.819
 6729TIP3    H220152   3.620   2.615   3.954
 6730TIP3   OH220153   5.579   0.961   5.656
 6730TIP3    H120154   5.539   0.907   5.725
 6730TIP3    H220155   5.505   1.003   5.612
 6731TIP3   OH220156   2.690   0.032   3.692
 6731TIP3    H120157   2.674   0.124   3.712
 6731TIP3    H220158   2.775   0.031   3.648
 6732TIP3   OH220159   0.955   3.532   2.829
 6732TIP3    H120160   0.948   3.610   2.885
 6732TIP3    H220161   1.020   3.477   2.872
 6733TIP3   OH220162   2.575   6.749   4.280
 6733TIP3    H120163   2.559   6.830   4.327
 6733TIP3    H220164   2.638   6.773   4.211
 6734TIP3   OH220165   2.685   5.423   1.955
 6734TIP3    H120166   2.665   5.362   1.885
 6734TIP3    H220167   2.781   5.423   1.961
 6735TIP3   OH220168   4.981   4.700   2.685
 6735TIP3    H120169   4.892   4.666   2.674
 6735TIP3    H220170   5.026   4.630   2.732
 6736TIP3   OH220171   6.153   5.328   4.181
 6736TIP3    H120172   6.140   5.262   4.249
 6736TIP3    H220173   6.214   5.391   4.220
 6737TIP3   OH220174   6.850   3.225   3.715
 6737TIP3    H120175   6.885   3.146   3.756
 6737TIP3    H220176   6.762   3.234   3.752
 6738TIP3   OH220177   4.342   6.506   1.014
 6738TIP3    H120178   4.273   6.571   1.027
 6738TIP3    H220179   4.414   6.554   0.973
 6739TIP3   OH220180   0.374   2.848   2.691
 6739TIP3    H120181   0.437   2.781   2.666
 6739TIP3    H220182   0.370   2.843   2.787
 6740TIP3   OH220183   6.167   6.581   1.458
 6740TIP3    H120184   6.199   6.633   1.385
 6740TIP3    H220185   6.242   6.573   1.517
 6741TIP3   OH220186   0.712   4.796   1.918
 6741TIP3    H120187   0.730   4.890   1.927
 6741TIP3    H220188   0.782   4.753   1.967
 6742TIP3   OH220189   5.121   2.669   1.199
 6742TIP3    H120190   5.091   2.631   1.281
 6742TIP3    H220191   5.054   2.644   1.135
 6743TIP3   OH220192   6.524   1.050   4.252
 6743TIP3    H120193   6.438   1.093   4.246
 6743TIP3    H220194   6.520   1.000   4.334
 6744TIP3   OH220195   0.910   2.525   0.802
 6744TIP3    H120196   0.832   2.570   0.835
 6744TIP3    H220197   0.978   2.545   0.867
 6745TIP3   OH220198   5.988   4.208   4.224
 6745TIP3    H120199   5.982   4.272   4.154
 6745TIP3    H220200   6.024   4.130   4.182
 6746TIP3   OH220201   0.699   0.418   5.657
 6746TIP3    H120202   0.632   0.389   5.595
 6746TIP3    H220203   0.718   0.340   5.710
 6747TIP3   OH220204   5.209   4.974   1.666
 6747TIP3    H120205   5.282   4.939   1.616
 6747TIP3    H220206   5.201   4.915   1.742
 6748TIP3   OH220207   3.243   3.761   2.808
 6748TIP3    H120208   3.256   3.817   2.885
 6748TIP3    H220209   3.273   3.675   2.835
 6749TIP3   OH220210   4.367   6.512   2.914
 6749TIP3    H120211   4.309   6.436   2.916
 6749TIP3    H220212   4.338   6.567   2.987
 6750TIP3   OH220213   2.847   2.686   1.594
 6750TIP3    H120214   2.940   2.693   1.573
 6750TIP3    H220215   2.812   2.774   1.580
 6751TIP3   OH220216   6.769   5.332   1.889
 6751TIP3    H120217   6.857   5.322   1.926
 6751TIP3    H220218   6.742   5.244   1.866
 6752TIP3   OH220219   5.621   2.515   5.895
 6752TIP3    H120220   5.599   2.465   5.817
 6752TIP3    H220221   5.634   2.605   5.863
 6753TIP3   OH220222   3.566   5.023   4.209
 6753TIP3    H120223   3.574   5.034   4.114
 6753TIP3    H220224   3.471   5.026   4.225
 6754TIP3   OH220225   4.794   2.987   4.664
 6754TIP3    H120226   4.751   2.951   4.741
 6754TIP3    H220227   4.826   2.910   4.616
 6755TIP3   OH220228   0.212   1.538   4.374
 6755TIP3    H120229   0.262   1.615   4.403
 6755TIP3    H220230   0.124   1.571   4.359
 6756TIP3   OH220231   0.649   2.969   3.514
 6756TIP3    H120232   0.640   2.946   3.422
 6756TIP3    H220233   0.742   2.986   3.527
 6757TIP3   OH220234   1.766   4.348   2.935
 6757TIP3    H120235   1.855   4.350   2.899
 6757TIP3    H220236   1.778   4.354   3.029
 6758TIP3   OH220237   3.771   5.302   5.633
 6758TIP3    H120238   3.755   5.212   5.605
 6758TIP3    H220239   3.730   5.355   5.564
 6759TIP3   OH220240   0.945   1.717   5.747
 6759TIP3    H120241   0.882   1.789   5.747
 6759TIP3    H220242   1.029   1.758   5.768
 6760TIP3   OH220243   0.144   2.715   4.897
 6760TIP3    H120244   0.112   2.655   4.964
 6760TIP3    H220245   0.204   2.663   4.844
 6761TIP3   OH220246   3.583   3.897   3.938
 6761TIP3    H120247   3.612   3.936   3.855
 6761TIP3    H220248   3.600   3.804   3.928
 6762TIP3   OH220249   5.675   3.304   5.246
 6762TIP3    H120250   5.714   3.381   5.287
 6762TIP3    H220251   5.594   3.290   5.295
 6763TIP3   OH220252   1.609   4.795   1.497
 6763TIP3    H120253   1.611   4.702   1.473
 6763TIP3    H220254   1.530   4.828   1.455
 6764TIP3   OH220255   3.989   0.594   5.114
 6764TIP3    H120256   3.983   0.683   5.079
 6764TIP3    H220257   4.006   0.539   5.037
 6765TIP3   OH220258   3.369   3.186   1.608
 6765TIP3    H120259   3.418   3.160   1.530
 6765TIP3    H220260   3.322   3.265   1.582
 6766TIP3   OH220261   2.652   1.054   1.967
 6766TIP3    H120262   2.677   0.963   1.982
 6766TIP3    H220263   2.672   1.069   1.875
 6767TIP3   OH220264   4.165   4.176   0.587
 6767TIP3    H120265   4.197   4.253   0.635
 6767TIP3    H220266   4.069   4.185   0.590
 6768TIP3   OH220267   0.569   4.675   0.429
 6768TIP3    H120268   0.531   4.760   0.405
 6768TIP3    H220269   0.556   4.669   0.524
 6769TIP3   OH220270   6.143   0.633   4.582
 6769TIP3    H120271   6.087   0.559   4.603
 6769TIP3    H220272   6.095   0.710   4.613
 6770TIP3   OH220273   3.103   6.822   5.294
 6770TIP3    H120274   3.095   6.746   5.236
 6770TIP3    H220275   3.110   6.897   5.235
 6771TIP3   OH220276   4.030   6.290   2.356
 6771TIP3    H120277   4.042   6.385   2.347
 6771TIP3    H220278   4.094   6.264   2.422
 6772TIP3   OH220279   2.341   1.133   5.781
 6772TIP3    H120280   2.318   1.052   5.736
 6772TIP3    H220281   2.290   1.201   5.737
 6773TIP3   OH220282   3.431   0.577   2.359
 6773TIP3    H120283   3.448   0.669   2.339
 6773TIP3    H220284   3.414   0.536   2.274
 6774TIP3   OH220285   6.979   6.121   5.054
 6774TIP3    H120286   7.038   6.130   5.130
 6774TIP3    H220287   7.035   6.140   4.979
 6775TIP3   OH220288   1.017   2.988   4.868
 6775TIP3    H120289   1.072   2.948   4.936
 6775TIP3    H220290   0.991   2.914   4.812
 6776TIP3   OH220291   1.933   3.434   0.344
 6776TIP3    H120292   1.893   3.382   0.274
 6776TIP3    H220293   2.005   3.380   0.376
 6777TIP3   OH220294   4.467   2.783   3.912
 6777TIP3    H120295   4.477   2.705   3.858
 6777TIP3    H220296   4.456   2.855   3.849
 6778TIP3   OH220297   6.217   1.265   3.320
 6778TIP3    H120298   6.230   1.290   3.228
 6778TIP3    H220299   6.122   1.250   3.327
 6779TIP3   OH220300   0.775   0.677   5.692
 6779TIP3    H120301   0.846   0.692   5.629
 6779TIP3    H220302   0.752   0.585   5.681
 6780TIP3   OH220303   4.476   3.205   0.318
 6780TIP3    H120304   4.466   3.118   0.357
 6780TIP3    H220305   4.498   3.262   0.391
 6781TIP3   OH220306   1.905   3.709   1.661
 6781TIP3    H120307   1.917   3.637   1.722
 6781TIP3    H220308   1.933   3.675   1.576
 6782TIP3   OH220309   5.715   2.925   3.560
 6782TIP3    H120310   5.666   2.888   3.633
 6782TIP3    H220311   5.711   2.858   3.492
 6783TIP3   OH220312   4.159   0.291   2.419
 6783TIP3    H120313   4.232   0.250   2.372
 6783TIP3    H220314   4.091   0.303   2.353
 6784TIP3   OH220315   4.085   2.829   3.105
 6784TIP3    H120316   4.101   2.744   3.147
 6784TIP3    H220317   4.001   2.857   3.141
 6785TIP3   OH220318   4.890   6.225   5.261
 6785TIP3    H120319   4.819   6.163   5.278
 6785TIP3    H220320   4.893   6.280   5.339
 6786TIP3   OH220321   1.377   1.104   2.895
 6786TIP3    H120322   1.420   1.163   2.833
 6786TIP3    H220323   1.304   1.155   2.930
 6787TIP3   OH220324   3.202   5.712   2.613
 6787TIP3    H120325   3.169   5.800   2.594
 6787TIP3    H220326   3.138   5.653   2.574
 6788TIP3   OH220327   0.023   2.257   0.909
 6788TIP3    H120328   0.033   2.305   0.827
 6788TIP3    H220329   0.110   2.219   0.925
 6789TIP3   OH220330   2.686   5.209   2.584
 6789TIP3    H120331   2.732   5.130   2.613
 6789TIP3    H220332   2.596   5.181   2.569
 6790TIP3   OH220333   3.731   0.363   5.102
 6790TIP3    H120334   3.729   0.458   5.114
 6790TIP3    H220335   3.648   0.344   5.057
 6791TIP3   OH220336   6.369   5.805   5.484
 6791TIP3    H120337   6.338   5.822   5.573
 6791TIP3    H220338   6.418   5.884   5.461
 6792TIP3   OH220339   3.285   2.938   3.641
 6792TIP3    H120340   3.312   2.933   3.732
 6792TIP3    H220341   3.343   3.003   3.602
 6793TIP3   OH220342   3.928   4.687   1.773
 6793TIP3    H120343   3.982   4.612   1.746
 6793TIP3    H220344   3.955   4.758   1.715
 6794TIP3   OH220345   3.866   5.370   5.883
 6794TIP3    H120346   3.828   5.351   5.798
 6794TIP3    H220347   3.960   5.353   5.873
 6795TIP3   OH220348   6.073   0.881   4.281
 6795TIP3    H120349   6.151   0.877   4.226
 6795TIP3    H220350   6.104   0.856   4.369
 6796TIP3   OH220351   3.956   6.784   3.193
 6796TIP3    H120352   4.049   6.792   3.215
 6796TIP3    H220353   3.955   6.768   3.099
 6797TIP3   OH220354   0.546   0.334   5.324
 6797TIP3    H120355   0.528   0.244   5.350
 6797TIP3    H220356   0.637   0.332   5.292
 6798TIP3   OH220357   2.272   0.079   3.736
 6798TIP3    H120358   2.294   0.117   3.651
 6798TIP3    H220359   2.223   0.000   3.715
 6799TIP3   OH220360   6.272   1.210   5.126
 6799TIP3    H120361   6.202   1.269   5.154
 6799TIP3    H220362   6.306   1.173   5.208
 6800TIP3   OH220363   0.344   2.567   4.761
 6800TIP3    H120364   0.322   2.479   4.732
 6800TIP3    H220365   0.433   2.560   4.795
 6801TIP3   OH220366   4.097   5.757   5.037
 6801TIP3    H120367   4.010   5.718   5.047
 6801TIP3    H220368   4.129   5.722   4.954
 6802TIP3   OH220369   0.487   0.095   0.543
 6802TIP3    H120370   0.571   0.087   0.497
 6802TIP3    H220371   0.508   0.075   0.634
 6803TIP3   OH220372   6.309   3.791   2.750
 6803TIP3    H120373   6.261   3.865   2.788
 6803TIP3    H220374   6.272   3.781   2.662
 6804TIP3   OH220375   6.512   5.555   4.419
 6804TIP3    H120376   6.424   5.517   4.422
 6804TIP3    H220377   6.548   5.525   4.336
 6805TIP3   OH220378   5.664   1.858   3.335
 6805TIP3    H120379   5.739   1.803   3.359
 6805TIP3    H220380   5.632   1.821   3.253
 6806TIP3   OH220381   6.708   0.138   4.584
 6806TIP3    H120382   6.771   0.139   4.656
 6806TIP3    H220383   6.750   0.086   4.516
 6807TIP3   OH220384   3.429   0.122   3.938
 6807TIP3    H120385   3.470   0.172   4.008
 6807TIP3    H220386   3.501   0.097   3.881
 6808TIP3   OH220387   5.970   4.189   5.486
 6808TIP3    H120388   5.973   4.151   5.398
 6808TIP3    H220389   6.010   4.124   5.542
 6809TIP3   OH220390   5.719   6.156   4.865
 6809TIP3    H120391   5.778   6.214   4.914
 6809TIP3    H220392   5.677   6.214   4.801
 6810TIP3   OH220393   1.485   6.023   5.001
 6810TIP3    H120394   1.438   5.940   4.988
 6810TIP3    H220395   1.564   6.015   4.949
 6811TIP3   OH220396   5.678   2.898   1.690
 6811TIP3    H120397   5.620   2.924   1.762
 6811TIP3    H220398   5.747   2.964   1.690
 6812TIP3   OH220399   5.168   1.194   0.643
 6812TIP3    H120400   5.187   1.138   0.568
 6812TIP3    H220401   5.193   1.282   0.614
 6813TIP3   OH220402   6.416   5.907   0.440
 6813TIP3    H120403   6.424   6.001   0.428
 6813TIP3    H220404   6.341   5.882   0.387
 6814TIP3   OH220405   2.071   2.161   0.631
 6814TIP3    H120406   1.977   2.152   0.613
 6814TIP3    H220407   2.074   2.199   0.719
 6815TIP3   OH220408   3.056   1.648   4.276
 6815TIP3    H120409   3.034   1.563   4.313
 6815TIP3    H220410   3.145   1.666   4.305
 6816TIP3   OH220411   6.365   0.638   1.646
 6816TIP3    H120412   6.412   0.556   1.656
 6816TIP3    H220413   6.309   0.625   1.569
 6817TIP3   OH220414   4.946   3.919   1.382
 6817TIP3    H120415   5.005   3.922   1.458
 6817TIP3    H220416   4.936   4.010   1.356
 6818TIP3   OH220417   7.160   0.096   5.605
 6818TIP3    H120418   7.090   0.161   5.604
 6818TIP3    H220419   7.239   0.146   5.587
 6819TIP3   OH220420   3.847   0.255   4.575
 6819TIP3    H120421   3.870   0.183   4.634
 6819TIP3    H220422   3.887   0.332   4.614
 6820TIP3   OH220423   0.875   6.004   1.273
 6820TIP3    H120424   0.908   5.974   1.357
 6820TIP3    H220425   0.874   5.925   1.218
 6821TIP3   OH220426   4.142   0.577   2.431
 6821TIP3    H120427   4.155   0.483   2.417
 6821TIP3    H220428   4.126   0.612   2.343
 6822TIP3   OH220429   0.482   4.086   3.590
 6822TIP3    H120430   0.513   3.999   3.613
 6822TIP3    H220431   0.444   4.121   3.671
 6823TIP3   OH220432   0.341   0.191   0.173
 6823TIP3    H120433   0.388   0.272   0.153
 6823TIP3    H220434   0.368   0.129   0.105
 6824TIP3   OH220435   6.211   0.151   2.998
 6824TIP3    H120436   6.203   0.160   3.093
 6824TIP3    H220437   6.302   0.175   2.980
 6825TIP3   OH220438   5.229   4.427   0.832
 6825TIP3    H120439   5.150   4.414   0.884
 6825TIP3    H220440   5.216   4.374   0.754
 6826TIP3   OH220441   7.040   5.104   5.650
 6826TIP3    H120442   7.121   5.143   5.617
 6826TIP3    H220443   6.994   5.176   5.693
 6827TIP3   OH220444   6.467   3.122   0.491
 6827TIP3    H120445   6.384   3.155   0.457
 6827TIP3    H220446   6.531   3.146   0.424
 6828TIP3   OH220447   6.597   0.112   0.061
 6828TIP3    H120448   6.581   0.018   0.052
 6828TIP3    H220449   6.633   0.122   0.149
 6829TIP3   OH220450   3.457   6.386   3.003
 6829TIP3    H120451   3.459   6.388   3.098
 6829TIP3    H220452   3.527   6.325   2.979
 6830TIP3   OH220453   2.314   1.947   0.296
 6830TIP3    H120454   2.309   2.000   0.376
 6830TIP3    H220455   2.387   1.887   0.312
 6831TIP3   OH220456   5.750   1.086   4.893
 6831TIP3    H120457   5.682   1.055   4.833
 6831TIP3    H220458   5.817   1.124   4.836
 6832TIP3   OH220459   4.315   6.706   4.328
 6832TIP3    H120460   4.257   6.777   4.301
 6832TIP3    H220461   4.403   6.744   4.323
 6833TIP3   OH220462   1.833   6.536   3.743
 6833TIP3    H120463   1.844   6.505   3.653
 6833TIP3    H220464   1.757   6.594   3.740
 6834TIP3   OH220465   6.246   2.374   3.414
 6834TIP3    H120466   6.161   2.418   3.412
 6834TIP3    H220467   6.256   2.339   3.326
 6835TIP3   OH220468   3.432   5.827   1.086
 6835TIP3    H120469   3.509   5.793   1.132
 6835TIP3    H220470   3.459   5.912   1.053
 6836TIP3   OH220471   2.241   0.314   4.772
 6836TIP3    H120472   2.176   0.383   4.761
 6836TIP3    H220473   2.301   0.326   4.699
 6837TIP3   OH220474   3.826   3.382   5.339
 6837TIP3    H120475   3.836   3.288   5.353
 6837TIP3    H220476   3.733   3.398   5.354
 6838TIP3   OH220477   1.649   2.272   5.223
 6838TIP3    H120478   1.603   2.229   5.150
 6838TIP3    H220479   1.738   2.284   5.191
 6839TIP3   OH220480   5.509   2.194   5.262
 6839TIP3    H120481   5.437   2.243   5.222
 6839TIP3    H220482   5.582   2.257   5.265
 6840TIP3   OH220483   0.091   5.449   4.248
 6840TIP3    H120484   0.034   5.404   4.311
 6840TIP3    H220485   0.148   5.503   4.302
 6841TIP3   OH220486   3.601   3.215   4.653
 6841TIP3    H120487   3.544   3.282   4.615
 6841TIP3    H220488   3.542   3.145   4.680
 6842TIP3   OH220489   3.672   4.754   2.161
 6842TIP3    H120490   3.675   4.736   2.255
 6842TIP3    H220491   3.610   4.689   2.127
 6843TIP3   OH220492   3.037   5.592   1.762
 6843TIP3    H120493   3.008   5.541   1.837
 6843TIP3    H220494   3.070   5.527   1.700
 6844TIP3   OH220495   4.691   4.341   5.011
 6844TIP3    H120496   4.704   4.362   4.918
 6844TIP3    H220497   4.625   4.271   5.010
 6845TIP3   OH220498   6.345   3.727   1.582
 6845TIP3    H120499   6.287   3.711   1.507
 6845TIP3    H220500   6.405   3.795   1.551
 6846TIP3   OH220501   0.334   4.312   5.014
 6846TIP3    H120502   0.292   4.227   5.002
 6846TIP3    H220503   0.302   4.343   5.099
 6847TIP3   OH220504   5.849   4.504   2.067
 6847TIP3    H120505   5.917   4.571   2.077
 6847TIP3    H220506   5.803   4.528   1.987
 6848TIP3   OH220507   0.850   6.613   1.648
 6848TIP3    H120508   0.923   6.664   1.681
 6848TIP3    H220509   0.827   6.655   1.565
 6849TIP3   OH220510   6.365   4.212   2.590
 6849TIP3    H120511   6.335   4.246   2.674
 6849TIP3    H220512   6.431   4.146   2.613
 6850TIP3   OH220513   4.059   4.327   3.728
 6850TIP3    H120514   4.088   4.258   3.669
 6850TIP3    H220515   4.093   4.303   3.813
 6851TIP3   OH220516   0.519   2.101   2.693
 6851TIP3    H120517   0.430   2.080   2.664
 6851TIP3    H220518   0.506   2.162   2.766
 6852TIP3   OH220519   2.566   4.326   5.820
 6852TIP3    H120520   2.568   4.246   5.768
 6852TIP3    H220521   2.549   4.297   5.909
 6853TIP3   OH220522   3.220   3.374   0.994
 6853TIP3    H120523   3.253   3.400   1.080
 6853TIP3    H220524   3.262   3.290   0.976
 6854TIP3   OH220525   0.980   1.497   3.842
 6854TIP3    H120526   0.932   1.535   3.769
 6854TIP3    H220527   1.002   1.571   3.898
 6855TIP3   OH220528   4.674   6.278   3.469
 6855TIP3    H120529   4.694   6.276   3.563
 6855TIP3    H220530   4.660   6.187   3.445
 6856TIP3   OH220531   1.251   0.616   5.518
 6856TIP3    H120532   1.330   0.561   5.520
 6856TIP3    H220533   1.283   0.702   5.490
 6857TIP3   OH220534   3.056   0.362   1.591
 6857TIP3    H120535   3.117   0.335   1.522
 6857TIP3    H220536   3.086   0.315   1.669
 6858TIP3   OH220537   3.522   2.657   2.966
 6858TIP3    H120538   3.532   2.569   2.928
 6858TIP3    H220539   3.554   2.716   2.898
 6859TIP3   OH220540   6.593   6.742   4.297
 6859TIP3    H120541   6.576   6.687   4.374
 6859TIP3    H220542   6.666   6.797   4.323
 6860TIP3   OH220543   6.817   0.208   1.105
 6860TIP3    H120544   6.795   0.242   1.191
 6860TIP3    H220545   6.913   0.213   1.101
 6861TIP3   OH220546   0.156   3.440   2.260
 6861TIP3    H120547   0.133   3.533   2.267
 6861TIP3    H220548   0.226   3.438   2.194
 6862TIP3   OH220549   4.658   1.218   3.259
 6862TIP3    H120550   4.645   1.307   3.226
 6862TIP3    H220551   4.575   1.174   3.242
 6863TIP3   OH220552   1.718   1.868   0.048
 6863TIP3    H120553   1.706   1.860   0.143
 6863TIP3    H220554   1.780   1.799   0.026
 6864TIP3   OH220555   6.282   1.730   5.131
 6864TIP3    H120556   6.261   1.727   5.038
 6864TIP3    H220557   6.267   1.821   5.156
 6865TIP3   OH220558   3.442   6.730   3.307
 6865TIP3    H120559   3.433   6.763   3.396
 6865TIP3    H220560   3.536   6.736   3.288
 6866TIP3   OH220561   2.427   2.183   5.735
 6866TIP3    H120562   2.352   2.229   5.773
 6866TIP3    H220563   2.399   2.158   5.647
 6867TIP3   OH220564   2.304   5.242   0.716
 6867TIP3    H120565   2.281   5.180   0.647
 6867TIP3    H220566   2.223   5.290   0.734
 6868TIP3   OH220567   0.141   5.758   3.844
 6868TIP3    H120568   0.185   5.784   3.926
 6868TIP3    H220569   0.129   5.664   3.853
 6869TIP3   OH220570   2.079   4.830   1.488
 6869TIP3    H120571   2.039   4.880   1.560
 6869TIP3    H220572   2.046   4.872   1.409
 6870TIP3   OH220573   3.755   0.670   0.906
 6870TIP3    H120574   3.792   0.584   0.922
 6870TIP3    H220575   3.808   0.730   0.959
 6871TIP3   OH220576   6.253   0.904   0.221
 6871TIP3    H120577   6.346   0.882   0.211
 6871TIP3    H220578   6.229   0.866   0.305
 6872TIP3   OH220579   7.117   3.881   5.542
 6872TIP3    H120580   7.124   3.912   5.452
 6872TIP3    H220581   7.027   3.902   5.568
 6873TIP3   OH220582   0.431   5.728   5.062
 6873TIP3    H120583   0.381   5.649   5.078
 6873TIP3    H220584   0.513   5.697   5.024
 6874TIP3   OH220585   2.592   3.521   3.950
 6874TIP3    H120586   2.512   3.489   3.908
 6874TIP3    H220587   2.627   3.586   3.890
 6875TIP3   OH220588   6.453   1.410   3.984
 6875TIP3    H120589   6.478   1.388   3.894
 6875TIP3    H220590   6.532   1.392   4.035
 6876TIP3   OH220591   4.734   2.359   1.339
 6876TIP3    H120592   4.656   2.348   1.393
 6876TIP3    H220593   4.773   2.271   1.335
 6877TIP3   OH220594   1.119   1.466   2.582
 6877TIP3    H120595   1.167   1.529   2.528
 6877TIP3    H220596   1.085   1.518   2.655
 6878TIP3   OH220597   1.761   1.063   2.748
 6878TIP3    H120598   1.849   1.035   2.771
 6878TIP3    H220599   1.772   1.151   2.713
 6879TIP3   OH220600   6.171   1.732   0.416
 6879TIP3    H120601   6.193   1.662   0.353
 6879TIP3    H220602   6.254   1.778   0.429
 6880TIP3   OH220603   2.538   5.964   1.319
 6880TIP3    H120604   2.588   6.019   1.379
 6880TIP3    H220605   2.574   5.986   1.232
 6881TIP3   OH220606   1.656   2.997   0.325
 6881TIP3    H120607   1.624   2.985   0.236
 6881TIP3    H220608   1.582   3.034   0.373
 6882TIP3   OH220609   3.581   4.387   1.843
 6882TIP3    H120610   3.612   4.478   1.847
 6882TIP3    H220611   3.514   4.387   1.774
 6883TIP3   OH220612   4.787   5.197   0.465
 6883TIP3    H120613   4.776   5.124   0.403
 6883TIP3    H220614   4.871   5.180   0.507
 6884TIP3   OH220615   1.722   5.683   1.604
 6884TIP3    H120616   1.634   5.720   1.595
 6884TIP3    H220617   1.758   5.726   1.681
 6885TIP3   OH220618   1.631   2.189   3.125
 6885TIP3    H120619   1.599   2.128   3.059
 6885TIP3    H220620   1.660   2.265   3.076
 6886TIP3   OH220621   6.083   5.077   0.469
 6886TIP3    H120622   6.040   5.068   0.383
 6886TIP3    H220623   6.012   5.100   0.528
 6887TIP3   OH220624   0.603   5.018   5.690
 6887TIP3    H120625   0.607   4.954   5.619
 6887TIP3    H220626   0.620   4.968   5.770
 6888TIP3   OH220627   6.767   5.654   2.997
 6888TIP3    H120628   6.690   5.712   2.995
 6888TIP3    H220629   6.737   5.575   2.951
 6889TIP3   OH220630   3.187   4.351   1.361
 6889TIP3    H120631   3.267   4.398   1.337
 6889TIP3    H220632   3.213   4.296   1.435
 6890TIP3   OH220633   1.822   2.181   2.363
 6890TIP3    H120634   1.773   2.112   2.408
 6890TIP3    H220635   1.765   2.207   2.290
 6891TIP3   OH220636   3.271   1.147   5.602
 6891TIP3    H120637   3.361   1.177   5.586
 6891TIP3    H220638   3.269   1.127   5.696
 6892TIP3   OH220639   1.870   5.225   5.196
 6892TIP3    H120640   1.809   5.238   5.268
 6892TIP3    H220641   1.820   5.180   5.129
 6893TIP3   OH220642   5.319   5.764   1.994
 6893TIP3    H120643   5.407   5.794   1.972
 6893TIP3    H220644   5.267   5.783   1.916
 6894TIP3   OH220645   6.718   0.362   5.337
 6894TIP3    H120646   6.743   0.445   5.296
 6894TIP3    H220647   6.624   0.370   5.354
 6895TIP3   OH220648   4.874   0.856   5.177
 6895TIP3    H120649   4.806   0.839   5.112
 6895TIP3    H220650   4.929   0.923   5.137
 6896TIP3   OH220651   4.649   0.023   5.527
 6896TIP3    H120652   4.564   0.065   5.511
 6896TIP3    H220653   4.705   0.093   5.561
 6897TIP3   OH220654   0.932   3.171   5.745
 6897TIP3    H120655   0.992   3.098   5.731
 6897TIP3    H220656   0.863   3.135   5.801
 6898TIP3   OH220657   2.776   6.141   1.256
 6898TIP3    H120658   2.843   6.124   1.323
 6898TIP3    H220659   2.773   6.060   1.205
 6899TIP3   OH220660   4.473   1.171   2.948
 6899TIP3    H120661   4.419   1.249   2.955
 6899TIP3    H220662   4.465   1.128   3.033
 6900TIP3   OH220663   5.871   6.254   2.972
 6900TIP3    H120664   5.931   6.182   2.951
 6900TIP3    H220665   5.893   6.323   2.910
 6901TIP3   OH220666   0.396   2.125   1.887
 6901TIP3    H120667   0.485   2.121   1.853
 6901TIP3    H220668   0.395   2.064   1.961
 6902TIP3   OH220669   5.368   2.648   5.807
 6902TIP3    H120670   5.454   2.617   5.779
 6902TIP3    H220671   5.309   2.575   5.786
 6903TIP3   OH220672   3.604   1.811   2.813
 6903TIP3    H120673   3.545   1.743   2.845
 6903TIP3    H220674   3.568   1.837   2.729
 6904TIP3   OH220675   3.283   2.200   5.141
 6904TIP3    H120676   3.376   2.206   5.164
 6904TIP3    H220677   3.238   2.192   5.225
 6905TIP3   OH220678   2.321   3.759   4.081
 6905TIP3    H120679   2.324   3.677   4.032
 6905TIP3    H220680   2.370   3.741   4.161
 6906TIP3   OH220681   5.725   6.746   0.493
 6906TIP3    H120682   5.800   6.749   0.553
 6906TIP3    H220683   5.651   6.720   0.548
 6907TIP3   OH220684   1.134   6.073   0.839
 6907TIP3    H120685   1.164   6.149   0.789
 6907TIP3    H220686   1.079   6.025   0.778
 6908TIP3   OH220687   6.564   1.828   4.418
 6908TIP3    H120688   6.593   1.915   4.445
 6908TIP3    H220689   6.599   1.817   4.330
 6909TIP3   OH220690   6.157   3.886   3.670
 6909TIP3    H120691   6.090   3.952   3.652
 6909TIP3    H220692   6.216   3.929   3.733
 6910TIP3   OH220693   0.346   5.659   3.665
 6910TIP3    H120694   0.273   5.718   3.682
 6910TIP3    H220695   0.424   5.714   3.672
 6911TIP3   OH220696   5.917   6.719   5.426
 6911TIP3    H120697   5.944   6.763   5.507
 6911TIP3    H220698   5.998   6.687   5.387
 6912TIP3   OH220699   3.864   3.233   4.506
 6912TIP3    H120700   3.897   3.157   4.459
 6912TIP3    H220701   3.769   3.222   4.505
 6913TIP3   OH220702   3.342   1.397   0.193
 6913TIP3    H120703   3.407   1.433   0.253
 6913TIP3    H220704   3.283   1.345   0.248
 6914TIP3   OH220705   3.018   1.541   5.772
 6914TIP3    H120706   2.936   1.545   5.723
 6914TIP3    H220707   3.003   1.598   5.847
 6915TIP3   OH220708   1.146   0.327   0.747
 6915TIP3    H120709   1.090   0.396   0.711
 6915TIP3    H220710   1.235   0.357   0.730
 6916TIP3   OH220711   2.169   3.984   0.058
 6916TIP3    H120712   2.169   4.002  -0.036
 6916TIP3    H220713   2.077   3.980   0.083
 6917TIP3   OH220714   6.538   3.156   1.376
 6917TIP3    H120715   6.615   3.179   1.325
 6917TIP3    H220716   6.481   3.233   1.369
 6918TIP3   OH220717   0.777   0.178   0.634
 6918TIP3    H120718   0.810   0.195   0.545
 6918TIP3    H220719   0.847   0.129   0.676
 6919TIP3   OH220720   2.841   6.525   1.097
 6919TIP3    H120721   2.810   6.514   1.007
 6919TIP3    H220722   2.769   6.566   1.143
 6920TIP3   OH220723   5.009   3.144   1.690
 6920TIP3    H120724   4.969   3.091   1.621
 6920TIP3    H220725   4.938   3.198   1.723
 6921TIP3   OH220726   2.253   0.601   5.402
 6921TIP3    H120727   2.280   0.510   5.393
 6921TIP3    H220728   2.335   0.649   5.418
 6922TIP3   OH220729   3.260   0.917   4.952
 6922TIP3    H120730   3.337   0.964   4.921
 6922TIP3    H220731   3.282   0.892   5.042
 6923TIP3   OH220732   1.020   4.586   4.757
 6923TIP3    H120733   0.948   4.649   4.753
 6923TIP3    H220734   1.019   4.554   4.847
 6924TIP3   OH220735   1.066   3.984   2.369
 6924TIP3    H120736   0.992   4.006   2.426
 6924TIP3    H220737   1.037   4.009   2.281
 6925TIP3   OH220738   6.640   1.149   0.168
 6925TIP3    H120739   6.606   1.156   0.079
 6925TIP3    H220740   6.734   1.161   0.159
 6926TIP3   OH220741   3.460   0.512   5.675
 6926TIP3    H120742   3.415   0.596   5.669
 6926TIP3    H220743   3.481   0.489   5.585
 6927TIP3   OH220744   7.135   6.476   3.710
 6927TIP3    H120745   7.144   6.393   3.663
 6927TIP3    H220746   7.139   6.542   3.642
 6928TIP3   OH220747   1.308   1.547   3.625
 6928TIP3    H120748   1.285   1.633   3.660
 6928TIP3    H220749   1.364   1.565   3.550
 6929TIP3   OH220750   3.007   5.954   1.025
 6929TIP3    H120751   3.061   5.946   1.103
 6929TIP3    H220752   2.974   5.865   1.009
 6930TIP3   OH220753   2.913   0.203   3.579
 6930TIP3    H120754   2.882   0.292   3.561
 6930TIP3    H220755   2.993   0.215   3.630
 6931TIP3   OH220756   5.838   0.177   2.367
 6931TIP3    H120757   5.797   0.092   2.384
 6931TIP3    H220758   5.930   0.164   2.388
 6932TIP3   OH220759   3.283   5.523   1.380
 6932TIP3    H120760   3.243   5.607   1.357
 6932TIP3    H220761   3.355   5.513   1.318
 6933TIP3   OH220762   6.065   4.613   0.337
 6933TIP3    H120763   5.986   4.667   0.343
 6933TIP3    H220764   6.103   4.614   0.424
 6934TIP3   OH220765   2.829   3.776   1.785
 6934TIP3    H120766   2.859   3.687   1.804
 6934TIP3    H220767   2.888   3.833   1.835
 6935TIP3   OH220768   5.586   1.480   3.027
 6935TIP3    H120769   5.553   1.498   2.939
 6935TIP3    H220770   5.519   1.426   3.068
 6936TIP3   OH220771   3.864   3.401   2.309
 6936TIP3    H120772   3.879   3.443   2.393
 6936TIP3    H220773   3.772   3.374   2.311
 6937TIP3   OH220774   0.564   5.697   5.508
 6937TIP3    H120775   0.642   5.691   5.454
 6937TIP3    H220776   0.582   5.642   5.584
 6938TIP3   OH220777   5.204   3.056   1.846
 6938TIP3    H120778   5.228   2.969   1.814
 6938TIP3    H220779   5.137   3.087   1.784
 6939TIP3   OH220780   0.926   4.620   0.680
 6939TIP3    H120781   0.851   4.566   0.703
 6939TIP3    H220782   0.897   4.671   0.604
 6940TIP3   OH220783   5.330   2.411   0.449
 6940TIP3    H120784   5.295   2.498   0.468
 6940TIP3    H220785   5.414   2.428   0.407
 6941TIP3   OH220786   5.356   1.816   2.898
 6941TIP3    H120787   5.340   1.909   2.879
 6941TIP3    H220788   5.342   1.771   2.815
 6942TIP3   OH220789   3.576   6.446   1.136
 6942TIP3    H120790   3.505   6.415   1.192
 6942TIP3    H220791   3.642   6.480   1.197
 6943TIP3   OH220792   4.898   6.278   5.672
 6943TIP3    H120793   4.928   6.187   5.663
 6943TIP3    H220794   4.932   6.305   5.757
 6944TIP3   OH220795   3.775   4.553   4.890
 6944TIP3    H120796   3.767   4.520   4.800
 6944TIP3    H220797   3.869   4.555   4.906
 6945TIP3   OH220798   4.500   0.613   0.478
 6945TIP3    H120799   4.445   0.638   0.553
 6945TIP3    H220800   4.450   0.643   0.402
 6946TIP3   OH220801   1.136   2.964   1.411
 6946TIP3    H120802   1.210   2.998   1.461
 6946TIP3    H220803   1.070   3.033   1.416
 6947TIP3   OH220804   0.108   2.042   4.242
 6947TIP3    H120805   0.155   1.989   4.178
 6947TIP3    H220806   0.097   2.127   4.199
 6948TIP3   OH220807   1.526   2.927   5.661
 6948TIP3    H120808   1.560   2.847   5.622
 6948TIP3    H220809   1.462   2.897   5.726
 6949TIP3   OH220810   1.940   2.275   0.851
 6949TIP3    H120811   1.878   2.329   0.802
 6949TIP3    H220812   1.942   2.314   0.939
 6950TIP3   OH220813   6.281   0.635   1.248
 6950TIP3    H120814   6.282   0.581   1.169
 6950TIP3    H220815   6.348   0.702   1.232
 6951TIP3   OH220816   4.640   1.384   4.901
 6951TIP3    H120817   4.546   1.385   4.886
 6951TIP3    H220818   4.658   1.295   4.933
 6952TIP3   OH220819   4.390   1.213   1.732
 6952TIP3    H120820   4.377   1.118   1.724
 6952TIP3    H220821   4.304   1.247   1.756
 6953TIP3   OH220822   5.749   1.132   0.064
 6953TIP3    H120823   5.705   1.068   0.121
 6953TIP3    H220824   5.715   1.113  -0.023
 6954TIP3   OH220825   3.396   6.167   5.118
 6954TIP3    H120826   3.357   6.080   5.115
 6954TIP3    H220827   3.457   6.169   5.044
 6955TIP3   OH220828   6.290   5.523   3.193
 6955TIP3    H120829   6.302   5.428   3.194
 6955TIP3    H220830   6.208   5.537   3.240
 6956TIP3   OH220831   2.125   0.797   4.057
 6956TIP3    H120832   2.105   0.722   4.001
 6956TIP3    H220833   2.198   0.841   4.014
 6957TIP3   OH220834   0.619   3.203   4.351
 6957TIP3    H120835   0.680   3.135   4.379
 6957TIP3    H220836   0.578   3.168   4.272
 6958TIP3   OH220837   1.901   0.981   4.039
 6958TIP3    H120838   1.885   1.024   4.124
 6958TIP3    H220839   1.993   0.955   4.043
 6959TIP3   OH220840   3.554   6.504   5.192
 6959TIP3    H120841   3.600   6.574   5.147
 6959TIP3    H220842   3.519   6.544   5.272
 6960TIP3   OH220843   1.465   4.916   5.422
 6960TIP3    H120844   1.552   4.955   5.418
 6960TIP3    H220845   1.416   4.957   5.351
 6961TIP3   OH220846   7.149   6.730   3.162
 6961TIP3    H120847   7.132   6.661   3.097
 6961TIP3    H220848   7.080   6.718   3.227
 6962TIP3   OH220849   6.933   4.319   3.228
 6962TIP3    H120850   6.896   4.406   3.244
 6962TIP3    H220851   6.894   4.264   3.296
 6963TIP3   OH220852   0.009   0.936   0.959
 6963TIP3    H120853  -0.018   0.846   0.975
 6963TIP3    H220854   0.041   0.936   0.869
 6964TIP3   OH220855   5.771   5.255   4.392
 6964TIP3    H120856   5.782   5.238   4.298
 6964TIP3    H220857   5.677   5.242   4.407
 6965TIP3   OH220858   2.390   0.842   3.942
 6965TIP3    H120859   2.481   0.819   3.960
 6965TIP3    H220860   2.377   0.819   3.850
 6966TIP3   OH220861   1.627   6.387   0.176
 6966TIP3    H120862   1.605   6.414   0.087
 6966TIP3    H220863   1.665   6.465   0.217
 6967TIP3   OH220864   2.835   2.893   3.677
 6967TIP3    H120865   2.866   2.979   3.648
 6967TIP3    H220866   2.764   2.912   3.739
 6968TIP3   OH220867   1.404   4.100   5.688
 6968TIP3    H120868   1.436   4.169   5.630
 6968TIP3    H220869   1.341   4.144   5.745
 6969TIP3   OH220870   1.277   4.722   4.245
 6969TIP3    H120871   1.258   4.682   4.160
 6969TIP3    H220872   1.301   4.812   4.224
 6970TIP3   OH220873   1.326   0.769   4.133
 6970TIP3    H120874   1.414   0.786   4.100
 6970TIP3    H220875   1.297   0.852   4.170
 6971TIP3   OH220876   6.008   6.148   0.698
 6971TIP3    H120877   6.071   6.206   0.741
 6971TIP3    H220878   5.930   6.153   0.753
 6972TIP3   OH220879   5.899   1.373   3.213
 6972TIP3    H120880   5.971   1.434   3.230
 6972TIP3    H220881   5.884   1.378   3.119
 6973TIP3   OH220882   0.779   5.641   2.012
 6973TIP3    H120883   0.834   5.708   2.054
 6973TIP3    H220884   0.794   5.654   1.918
 6974TIP3   OH220885   1.253   5.086   5.601
 6974TIP3    H120886   1.257   5.142   5.524
 6974TIP3    H220887   1.292   5.139   5.671
 6975TIP3   OH220888   7.229   6.815   2.841
 6975TIP3    H120889   7.237   6.787   2.932
 6975TIP3    H220890   7.144   6.782   2.813
 6976TIP3   OH220891   1.651   4.279   1.386
 6976TIP3    H120892   1.721   4.219   1.361
 6976TIP3    H220893   1.589   4.224   1.435
 6977TIP3   OH220894   2.773   6.263   5.743
 6977TIP3    H120895   2.711   6.308   5.686
 6977TIP3    H220896   2.850   6.249   5.688
 6978TIP3   OH220897   0.812   0.753   1.848
 6978TIP3    H120898   0.817   0.752   1.752
 6978TIP3    H220899   0.868   0.827   1.873
 6979TIP3   OH220900   5.045   6.550   4.729
 6979TIP3    H120901   5.090   6.604   4.794
 6979TIP3    H220902   5.026   6.611   4.657
 6980TIP3   OH220903   3.146   3.874   1.665
 6980TIP3    H120904   3.089   3.917   1.601
 6980TIP3    H220905   3.227   3.857   1.616
 6981TIP3   OH220906   1.316   4.977   4.203
 6981TIP3    H120907   1.367   5.009   4.277
 6981TIP3    H220908   1.244   5.039   4.195
 6982TIP3   OH220909   1.490   5.210   3.673
 6982TIP3    H120910   1.562   5.172   3.723
 6982TIP3    H220911   1.470   5.292   3.718
 6983TIP3   OH220912   1.288   3.423   5.789
 6983TIP3    H120913   1.202   3.417   5.746
 6983TIP3    H220914   1.329   3.500   5.749
 6984TIP3   OH220915   1.551   4.277   5.532
 6984TIP3    H120916   1.595   4.346   5.581
 6984TIP3    H220917   1.619   4.212   5.514
 6985TIP3   OH220918   5.247   4.627   3.138
 6985TIP3    H120919   5.273   4.555   3.081
 6985TIP3    H220920   5.313   4.695   3.122
 6986TIP3   OH220921   0.444   4.698   4.917
 6986TIP3    H120922   0.353   4.668   4.914
 6986TIP3    H220923   0.450   4.760   4.844
 6987TIP3   OH220924   4.324   0.149   4.668
 6987TIP3    H120925   4.239   0.167   4.708
 6987TIP3    H220926   4.380   0.123   4.741
 6988TIP3   OH220927   4.061   2.188   5.766
 6988TIP3    H120928   4.007   2.124   5.812
 6988TIP3    H220929   4.151   2.161   5.783
 6989TIP3   OH220930   0.955   5.581   0.129
 6989TIP3    H120931   0.987   5.601   0.041
 6989TIP3    H220932   0.911   5.662   0.157
 6990TIP3   OH220933   2.029   2.772   2.714
 6990TIP3    H120934   2.075   2.689   2.707
 6990TIP3    H220935   2.091   2.837   2.682
 6991TIP3   OH220936   4.680   0.415   5.427
 6991TIP3    H120937   4.650   0.335   5.386
 6991TIP3    H220938   4.634   0.485   5.381
 6992TIP3   OH220939   5.600   2.902   1.976
 6992TIP3    H120940   5.517   2.948   1.991
 6992TIP3    H220941   5.664   2.951   2.029
 6993TIP3   OH220942   2.831   4.115   4.012
 6993TIP3    H120943   2.877   4.075   3.938
 6993TIP3    H220944   2.746   4.141   3.977
 6994TIP3   OH220945   2.410   2.160   4.299
 6994TIP3    H120946   2.477   2.223   4.274
 6994TIP3    H220947   2.428   2.083   4.245
 6995TIP3   OH220948   5.200   6.719   4.863
 6995TIP3    H120949   5.224   6.811   4.850
 6995TIP3    H220950   5.284   6.673   4.868
 6996TIP3   OH220951   5.738   0.880   4.076
 6996TIP3    H120952   5.708   0.791   4.093
 6996TIP3    H220953   5.781   0.874   3.990
 6997TIP3   OH220954   0.796   2.121   5.343
 6997TIP3    H120955   0.781   2.205   5.301
 6997TIP3    H220956   0.883   2.128   5.381
 6998TIP3   OH220957   5.377   3.572   5.292
 6998TIP3    H120958   5.398   3.507   5.358
 6998TIP3    H220959   5.461   3.595   5.252
 6999TIP3   OH220960   3.333   6.779   5.501
 6999TIP3    H120961   3.314   6.775   5.407
 6999TIP3    H220962   3.354   6.689   5.524
 7000TIP3   OH220963   6.180   1.495   4.003
 7000TIP3    H120964   6.267   1.482   4.041
 7000TIP3    H220965   6.191   1.475   3.910
 7001TIP3   OH220966   6.544   6.290   2.312
 7001TIP3    H120967   6.592   6.240   2.378
 7001TIP3    H220968   6.574   6.380   2.325
 7002TIP3   OH220969   1.328   4.949   3.025
 7002TIP3    H120970   1.410   4.902   3.010
 7002TIP3    H220971   1.351   5.017   3.089
 7003TIP3   OH220972   2.862   1.909   2.967
 7003TIP3    H120973   2.917   1.846   3.014
 7003TIP3    H220974   2.905   1.993   2.979
 7004TIP3   OH220975   2.744   4.325   1.234
 7004TIP3    H120976   2.669   4.265   1.231
 7004TIP3    H220977   2.745   4.359   1.323
 7005TIP3   OH220978   2.072   6.035   3.489
 7005TIP3    H120979   1.989   6.082   3.484
 7005TIP3    H220980   2.050   5.951   3.527
 7006TIP3   OH220981   5.317   0.421   4.841
 7006TIP3    H120982   5.268   0.438   4.761
 7006TIP3    H220983   5.399   0.381   4.811
 7007TIP3   OH220984   6.226   5.952   3.124
 7007TIP3    H120985   6.160   5.985   3.062
 7007TIP3    H220986   6.177   5.892   3.180
 7008TIP3   OH220987   4.657   2.023   2.853
 7008TIP3    H120988   4.669   1.939   2.809
 7008TIP3    H220989   4.654   2.001   2.946
 7009TIP3   OH220990   1.215   1.263   2.343
 7009TIP3    H120991   1.278   1.332   2.363
 7009TIP3    H220992   1.214   1.257   2.248
 7010TIP3   OH220993   6.820   3.857   4.380
 7010TIP3    H120994   6.728   3.832   4.368
 7010TIP3    H220995   6.866   3.773   4.384
 7011TIP3   OH220996   6.685   3.658   4.130
 7011TIP3    H120997   6.693   3.581   4.074
 7011TIP3    H220998   6.745   3.641   4.203
 7012TIP3   OH220999   3.831   0.112   5.072
 7012TIP3    H121000   3.788   0.035   5.035
 7012TIP3    H221001   3.759   0.172   5.092
 7013TIP3   OH221002   3.083   5.744   1.428
 7013TIP3    H121003   3.094   5.802   1.353
 7013TIP3    H221004   3.099   5.801   1.504
 7014TIP3   OH221005   6.529   2.357   2.690
 7014TIP3    H121006   6.447   2.307   2.698
 7014TIP3    H221007   6.583   2.305   2.630
 7015TIP3   OH221008   3.271   2.844   4.931
 7015TIP3    H121009   3.314   2.922   4.964
 7015TIP3    H221010   3.307   2.831   4.844
 7016TIP3   OH221011   6.551   0.355   1.930
 7016TIP3    H121012   6.605   0.361   1.851
 7016TIP3    H221013   6.569   0.436   1.978
 7017TIP3   OH221014   1.341   6.703   0.571
 7017TIP3    H121015   1.302   6.731   0.488
 7017TIP3    H221016   1.400   6.631   0.546
 7018TIP3   OH221017   3.262   1.854   5.069
 7018TIP3    H121018   3.260   1.870   4.974
 7018TIP3    H221019   3.189   1.793   5.084
 7019TIP3   OH221020   1.070   0.514   1.329
 7019TIP3    H121021   1.003   0.531   1.262
 7019TIP3    H221022   1.021   0.481   1.404
 7020TIP3   OH221023   1.987   0.445   5.305
 7020TIP3    H121024   2.075   0.476   5.329
 7020TIP3    H221025   2.003   0.380   5.237
 7021TIP3   OH221026   3.743   0.698   2.463
 7021TIP3    H121027   3.793   0.640   2.406
 7021TIP3    H221028   3.689   0.640   2.516
 7022TIP3   OH221029   3.292   3.868   3.072
 7022TIP3    H121030   3.311   3.781   3.107
 7022TIP3    H221031   3.234   3.908   3.136
 7023TIP3   OH221032   6.928   2.153   4.969
 7023TIP3    H121033   6.896   2.210   5.039
 7023TIP3    H221034   6.873   2.174   4.894
 7024TIP3   OH221035   6.929   1.209   2.047
 7024TIP3    H121036   6.910   1.165   2.130
 7024TIP3    H221037   6.942   1.137   1.985
 7025TIP3   OH221038   3.536   2.288   2.557
 7025TIP3    H121039   3.455   2.331   2.528
 7025TIP3    H221040   3.599   2.305   2.487
 7026TIP3   OH221041   4.552   3.455   3.126
 7026TIP3    H121042   4.489   3.427   3.192
 7026TIP3    H221043   4.586   3.538   3.158
 7027TIP3   OH221044   4.957   0.148   2.557
 7027TIP3    H121045   4.944   0.129   2.465
 7027TIP3    H221046   4.946   0.064   2.602
 7028TIP3   OH221047   3.142   0.122   3.968
 7028TIP3    H121048   3.123   0.175   3.890
 7028TIP3    H221049   3.235   0.100   3.959
 7029TIP3   OH221050   2.426   3.097   0.288
 7029TIP3    H121051   2.337   3.116   0.319
 7029TIP3    H221052   2.479   3.095   0.367
 7030TIP3   OH221053   5.107   1.585   5.055
 7030TIP3    H121054   5.126   1.672   5.021
 7030TIP3    H221055   5.185   1.534   5.035
 7031TIP3   OH221056   3.968   5.959   1.195
 7031TIP3    H121057   3.878   5.969   1.162
 7031TIP3    H221058   4.016   5.924   1.120
 7032TIP3   OH221059   6.197   3.202   1.641
 7032TIP3    H121060   6.206   3.204   1.737
 7032TIP3    H221061   6.241   3.281   1.611
 7033TIP3   OH221062   3.195   3.059   0.904
 7033TIP3    H121063   3.125   3.110   0.946
 7033TIP3    H221064   3.167   3.052   0.812
 7034TIP3   OH221065   2.344   6.366   3.047
 7034TIP3    H121066   2.330   6.455   3.017
 7034TIP3    H221067   2.341   6.372   3.143
 7035TIP3   OH221068   7.047   4.294   4.845
 7035TIP3    H121069   7.108   4.366   4.828
 7035TIP3    H221070   7.074   4.225   4.784
 7036TIP3   OH221071   3.152   1.059   4.631
 7036TIP3    H121072   3.125   0.972   4.660
 7036TIP3    H221073   3.071   1.098   4.597
 7037TIP3   OH221074   4.064   6.144   1.391
 7037TIP3    H121075   3.983   6.194   1.402
 7037TIP3    H221076   4.038   6.068   1.338
 7038TIP3   OH221077   3.990   2.866   5.664
 7038TIP3    H121078   4.016   2.946   5.710
 7038TIP3    H221079   4.000   2.796   5.729
 7039TIP3   OH221080   5.577   1.887   0.634
 7039TIP3    H121081   5.528   1.875   0.716
 7039TIP3    H221082   5.656   1.933   0.660
 7040TIP3   OH221083   4.196   6.476   4.288
 7040TIP3    H121084   4.281   6.432   4.278
 7040TIP3    H221085   4.219   6.567   4.308
 7041TIP3   OH221086   4.539   6.320   2.792
 7041TIP3    H121087   4.584   6.369   2.723
 7041TIP3    H221088   4.489   6.386   2.840
 7042TIP3   OH221089   0.629   0.966   4.773
 7042TIP3    H121090   0.598   0.931   4.856
 7042TIP3    H221091   0.551   0.966   4.717
 7043TIP3   OH221092   4.781   2.602   4.706
 7043TIP3    H121093   4.793   2.669   4.639
 7043TIP3    H221094   4.842   2.532   4.681
 7044TIP3   OH221095   4.977   4.289   4.996
 7044TIP3    H121096   4.992   4.365   4.940
 7044TIP3    H221097   4.883   4.272   4.990
 7045TIP3   OH221098   3.918   2.629   3.467
 7045TIP3    H121099   3.939   2.619   3.560
 7045TIP3    H221100   3.902   2.540   3.436
 7046TIP3   OH221101   6.161   3.695   0.163
 7046TIP3    H121102   6.204   3.643   0.230
 7046TIP3    H221103   6.149   3.635   0.090
 7047TIP3   OH221104   4.359   2.185   1.328
 7047TIP3    H121105   4.274   2.161   1.291
 7047TIP3    H221106   4.381   2.268   1.285
 7048TIP3   OH221107   2.180   2.773   3.363
 7048TIP3    H121108   2.204   2.681   3.363
 7048TIP3    H221109   2.194   2.802   3.453
 7049TIP3   OH221110   6.747   3.385   3.504
 7049TIP3    H121111   6.778   3.356   3.590
 7049TIP3    H221112   6.659   3.347   3.495
 7050TIP3   OH221113   0.494   4.511   2.353
 7050TIP3    H121114   0.582   4.548   2.341
 7050TIP3    H221115   0.467   4.542   2.439
 7051TIP3   OH221116   4.105   6.013   4.714
 7051TIP3    H121117   4.179   5.995   4.656
 7051TIP3    H221118   4.121   5.958   4.791
 7052TIP3   OH221119   0.342   1.680   3.010
 7052TIP3    H121120   0.307   1.697   2.922
 7052TIP3    H221121   0.359   1.586   3.010
 7053TIP3   OH221122   5.597   1.147   2.264
 7053TIP3    H121123   5.660   1.130   2.334
 7053TIP3    H221124   5.640   1.115   2.184
 7054TIP3   OH221125   5.709   3.471   3.207
 7054TIP3    H121126   5.633   3.413   3.206
 7054TIP3    H221127   5.672   3.559   3.198
 7055TIP3   OH221128   7.182   5.909   1.570
 7055TIP3    H121129   7.172   5.977   1.636
 7055TIP3    H221130   7.148   5.949   1.489
 7056TIP3   OH221131   6.208   5.288   3.528
 7056TIP3    H121132   6.221   5.199   3.495
 7056TIP3    H221133   6.279   5.338   3.488
 7057TIP3   OH221134   6.140   4.454   2.622
 7057TIP3    H121135   6.211   4.482   2.681
 7057TIP3    H221136   6.166   4.486   2.536
 7058TIP3   OH221137   7.126   2.899   1.564
 7058TIP3    H121138   7.214   2.874   1.593
 7058TIP3    H221139   7.122   2.993   1.580
 7059TIP3   OH221140   6.963   0.130   3.297
 7059TIP3    H121141   7.020   0.185   3.243
 7059TIP3    H221142   6.881   0.179   3.304
 7060TIP3   OH221143   4.325   3.835   3.625
 7060TIP3    H121144   4.289   3.751   3.596
 7060TIP3    H221145   4.342   3.882   3.543
 7061TIP3   OH221146   0.982   5.222   1.001
 7061TIP3    H121147   0.960   5.148   1.058
 7061TIP3    H221148   0.969   5.189   0.912
 7062TIP3   OH221149   1.721   6.604   0.319
 7062TIP3    H121150   1.675   6.684   0.347
 7062TIP3    H221151   1.789   6.635   0.260
 7063TIP3   OH221152   5.351   1.002   2.304
 7063TIP3    H121153   5.327   1.065   2.235
 7063TIP3    H221154   5.436   1.033   2.335
 7064TIP3   OH221155   6.120   4.107   2.091
 7064TIP3    H121156   6.146   4.052   2.017
 7064TIP3    H221157   6.055   4.055   2.139
 7065TIP3   OH221158   2.126   0.949   4.953
 7065TIP3    H121159   2.062   0.887   4.918
 7065TIP3    H221160   2.161   0.993   4.876
 7066TIP3   OH221161   2.417   1.919   0.926
 7066TIP3    H121162   2.426   2.012   0.947
 7066TIP3    H221163   2.353   1.917   0.854
 7067TIP3   OH221164   2.212   0.154   0.118
 7067TIP3    H121165   2.249   0.209   0.049
 7067TIP3    H221166   2.144   0.208   0.158
 7068TIP3   OH221167   6.800   2.903   3.459
 7068TIP3    H121168   6.841   2.990   3.460
 7068TIP3    H221169   6.814   2.869   3.548
 7069TIP3   OH221170   3.044   5.060   3.862
 7069TIP3    H121171   3.096   5.044   3.783
 7069TIP3    H221172   3.068   5.149   3.888
 7070TIP3   OH221173   4.667   1.607   1.727
 7070TIP3    H121174   4.633   1.579   1.642
 7070TIP3    H221175   4.709   1.528   1.762
 7071TIP3   OH221176   5.717   2.781   2.735
 7071TIP3    H121177   5.767   2.840   2.679
 7071TIP3    H221178   5.703   2.830   2.816
 7072TIP3   OH221179   2.208   2.724   0.733
 7072TIP3    H121180   2.118   2.725   0.765
 7072TIP3    H221181   2.207   2.780   0.656
 7073TIP3   OH221182   2.885   4.722   0.745
 7073TIP3    H121183   2.966   4.771   0.758
 7073TIP3    H221184   2.820   4.767   0.798
 7074TIP3   OH221185   4.382   6.153   4.006
 7074TIP3    H121186   4.447   6.107   3.954
 7074TIP3    H221187   4.416   6.149   4.096
 7075TIP3   OH221188   1.640   3.238   1.158
 7075TIP3    H121189   1.627   3.246   1.064
 7075TIP3    H221190   1.735   3.230   1.168
 7076TIP3   OH221191   5.297   2.286   3.397
 7076TIP3    H121192   5.294   2.244   3.483
 7076TIP3    H221193   5.386   2.269   3.366
 7077TIP3   OH221194   2.913   4.333   4.841
 7077TIP3    H121195   2.914   4.242   4.812
 7077TIP3    H221196   2.997   4.369   4.811
 7078TIP3   OH221197   3.865   4.077   1.134
 7078TIP3    H121198   3.861   4.059   1.228
 7078TIP3    H221199   3.857   3.991   1.093
 7079TIP3   OH221200   0.622   5.848   4.104
 7079TIP3    H121201   0.563   5.854   4.179
 7079TIP3    H221202   0.610   5.758   4.073
 7080TIP3   OH221203   4.600   1.662   0.945
 7080TIP3    H121204   4.529   1.681   0.884
 7080TIP3    H221205   4.595   1.567   0.959
 7081TIP3   OH221206   3.687   0.176   1.262
 7081TIP3    H121207   3.761   0.236   1.246
 7081TIP3    H221208   3.714   0.094   1.221
 7082TIP3   OH221209   3.342   1.363   1.571
 7082TIP3    H121210   3.379   1.377   1.658
 7082TIP3    H221211   3.406   1.402   1.511
 7083TIP3   OH221212   6.800   4.079   3.634
 7083TIP3    H121213   6.769   4.027   3.709
 7083TIP3    H221214   6.845   4.016   3.578
 7084TIP3   OH221215   2.143   0.401   3.725
 7084TIP3    H121216   2.183   0.385   3.810
 7084TIP3    H221217   2.217   0.411   3.665
 7085TIP3   OH221218   5.926   4.484   3.726
 7085TIP3    H121219   6.002   4.427   3.733
 7085TIP3    H221220   5.933   4.523   3.638
 7086TIP3   OH221221   1.165   1.327   4.304
 7086TIP3    H121222   1.246   1.377   4.311
 7086TIP3    H221223   1.123   1.359   4.225
 7087TIP3   OH221224   1.752   2.782   4.713
 7087TIP3    H121225   1.697   2.860   4.702
 7087TIP3    H221226   1.811   2.804   4.785
 7088TIP3   OH221227   3.115   1.545   3.715
 7088TIP3    H121228   3.161   1.497   3.784
 7088TIP3    H221229   3.053   1.601   3.762
 7089TIP3   OH221230   1.006   6.781   0.122
 7089TIP3    H121231   0.988   6.698   0.166
 7089TIP3    H221232   1.016   6.757   0.030
 7090TIP3   OH221233   1.879   4.075   3.027
 7090TIP3    H121234   1.793   4.080   3.070
 7090TIP3    H221235   1.869   4.128   2.948
 7091TIP3   OH221236   5.146   3.693   1.877
 7091TIP3    H121237   5.177   3.738   1.956
 7091TIP3    H221238   5.125   3.604   1.907
 7092TIP3   OH221239   1.708   1.010   1.453
 7092TIP3    H121240   1.662   0.963   1.384
 7092TIP3    H221241   1.648   1.080   1.479
 7093TIP3   OH221242   2.715   3.470   1.532
 7093TIP3    H121243   2.725   3.533   1.460
 7093TIP3    H221244   2.637   3.500   1.579
 7094TIP3   OH221245   0.331   1.800   0.977
 7094TIP3    H121246   0.415   1.845   0.979
 7094TIP3    H221247   0.275   1.849   1.037
 7095TIP3   OH221248   5.320   0.065   1.861
 7095TIP3    H121249   5.285   0.001   1.799
 7095TIP3    H221250   5.273   0.146   1.841
 7096TIP3   OH221251   6.913   3.650   2.366
 7096TIP3    H121252   6.951   3.585   2.425
 7096TIP3    H221253   6.877   3.718   2.423
 7097TIP3   OH221254   0.296   4.301   5.303
 7097TIP3    H121255   0.212   4.276   5.341
 7097TIP3    H221256   0.343   4.344   5.374
 7098TIP3   OH221257   3.535   3.003   2.745
 7098TIP3    H121258   3.536   2.944   2.670
 7098TIP3    H221259   3.608   2.973   2.800
 7099TIP3   OH221260   2.343   0.238   4.358
 7099TIP3    H121261   2.254   0.275   4.354
 7099TIP3    H221262   2.361   0.231   4.452
 7100TIP3   OH221263   4.776   0.561   0.398
 7100TIP3    H121264   4.686   0.593   0.403
 7100TIP3    H221265   4.805   0.557   0.489
 7101TIP3   OH221266   4.706   2.011   0.567
 7101TIP3    H121267   4.640   2.020   0.636
 7101TIP3    H221268   4.655   1.991   0.488
 7102TIP3   OH221269   2.184   2.287   5.776
 7102TIP3    H121270   2.141   2.291   5.861
 7102TIP3    H221271   2.158   2.202   5.740
 7103TIP3   OH221272   1.024   5.696   0.725
 7103TIP3    H121273   0.991   5.681   0.637
 7103TIP3    H221274   0.947   5.716   0.777
 7104TIP3   OH221275   5.786   5.469   2.865
 7104TIP3    H121276   5.786   5.376   2.887
 7104TIP3    H221277   5.833   5.474   2.781
 7105TIP3   OH221278   1.043   0.768   0.390
 7105TIP3    H121279   1.094   0.749   0.311
 7105TIP3    H221280   0.954   0.744   0.367
 7106TIP3   OH221281   2.692   1.805   1.630
 7106TIP3    H121282   2.713   1.718   1.663
 7106TIP3    H221283   2.628   1.789   1.561
 7107TIP3   OH221284   1.086   3.092   3.213
 7107TIP3    H121285   0.991   3.097   3.228
 7107TIP3    H221286   1.095   3.062   3.122
 7108TIP3   OH221287   6.459   0.095   4.502
 7108TIP3    H121288   6.460   0.012   4.454
 7108TIP3    H221289   6.551   0.118   4.513
 7109TIP3   OH221290   6.451   2.007   1.225
 7109TIP3    H121291   6.424   2.002   1.134
 7109TIP3    H221292   6.388   1.950   1.271
 7110TIP3   OH221293   6.094   6.206   2.361
 7110TIP3    H121294   6.078   6.261   2.284
 7110TIP3    H221295   6.046   6.125   2.343
 7111TIP3   OH221296   3.199   3.446   1.250
 7111TIP3    H121297   3.112   3.477   1.225
 7111TIP3    H221298   3.182   3.380   1.317
 7112TIP3   OH221299   5.893   4.882   3.126
 7112TIP3    H121300   5.932   4.820   3.065
 7112TIP3    H221301   5.846   4.827   3.189
 7113TIP3   OH221302   2.381   4.470   5.123
 7113TIP3    H121303   2.374   4.469   5.028
 7113TIP3    H221304   2.380   4.563   5.146
 7114TIP3   OH221305   0.927   3.318   1.993
 7114TIP3    H121306   0.965   3.373   2.061
 7114TIP3    H221307   0.888   3.245   2.041
 7115TIP3   OH221308   6.288   6.084   2.534
 7115TIP3    H121309   6.364   6.143   2.530
 7115TIP3    H221310   6.223   6.125   2.476
 7116TIP3   OH221311   4.412   5.985   2.026
 7116TIP3    H121312   4.374   6.050   2.084
 7116TIP3    H221313   4.354   5.984   1.950
 7117TIP3   OH221314   5.789   2.343   3.092
 7117TIP3    H121315   5.723   2.371   3.155
 7117TIP3    H221316   5.763   2.384   3.009
 7118TIP3   OH221317   4.813   4.020   4.422
 7118TIP3    H121318   4.842   3.929   4.436
 7118TIP3    H221319   4.894   4.067   4.403
 7119TIP3   OH221320   1.159   2.413   1.784
 7119TIP3    H121321   1.128   2.503   1.789
 7119TIP3    H221322   1.229   2.408   1.848
 7120TIP3   OH221323   6.526   5.048   1.567
 7120TIP3    H121324   6.553   5.104   1.494
 7120TIP3    H221325   6.573   4.966   1.553
 7121TIP3   OH221326   2.521   5.467   5.146
 7121TIP3    H121327   2.515   5.425   5.232
 7121TIP3    H221328   2.441   5.519   5.139
 7122TIP3   OH221329   0.529   0.546   3.702
 7122TIP3    H121330   0.622   0.546   3.678
 7122TIP3    H221331   0.490   0.612   3.645
 7123TIP3   OH221332   2.570   2.294   2.478
 7123TIP3    H121333   2.577   2.200   2.498
 7123TIP3    H221334   2.538   2.296   2.388
 7124TIP3   OH221335   3.522   0.913   1.928
 7124TIP3    H121336   3.439   0.897   1.882
 7124TIP3    H221337   3.523   0.849   1.999
 7125TIP3   OH221338   4.990   5.580   5.111
 7125TIP3    H121339   5.042   5.501   5.097
 7125TIP3    H221340   5.043   5.650   5.074
 7126TIP3   OH221341   2.038   4.925   1.244
 7126TIP3    H121342   1.945   4.941   1.233
 7126TIP3    H221343   2.080   4.979   1.177
 7127TIP3   OH221344   6.477   2.763   5.230
 7127TIP3    H121345   6.460   2.846   5.185
 7127TIP3    H221346   6.466   2.784   5.323
 7128TIP3   OH221347   2.774   4.180   3.438
 7128TIP3    H121348   2.859   4.210   3.470
 7128TIP3    H221349   2.720   4.259   3.437
 7129TIP3   OH221350   2.796   0.246   1.641
 7129TIP3    H121351   2.720   0.300   1.663
 7129TIP3    H221352   2.865   0.309   1.620
 7130TIP3   OH221353   0.783   0.352   3.641
 7130TIP3    H121354   0.857   0.359   3.701
 7130TIP3    H221355   0.712   0.317   3.695
 7131TIP3   OH221356   3.558   3.427   3.612
 7131TIP3    H121357   3.515   3.353   3.569
 7131TIP3    H221358   3.542   3.413   3.705
 7132TIP3   OH221359   1.319   2.475   2.344
 7132TIP3    H121360   1.292   2.482   2.436
 7132TIP3    H221361   1.237   2.458   2.297
 7133TIP3   OH221362   1.268   5.298   0.122
 7133TIP3    H121363   1.319   5.373   0.154
 7133TIP3    H221364   1.275   5.303   0.027
 7134TIP3   OH221365   0.687   1.396   5.862
 7134TIP3    H121366   0.754   1.424   5.924
 7134TIP3    H221367   0.716   1.431   5.778
 7135TIP3   OH221368   3.916   1.499   3.225
 7135TIP3    H121369   3.970   1.536   3.296
 7135TIP3    H221370   3.849   1.565   3.210
 7136TIP3   OH221371   6.348   6.736   5.388
 7136TIP3    H121372   6.434   6.733   5.347
 7136TIP3    H221373   6.366   6.761   5.479
 7137TIP3   OH221374   2.100   1.597   3.346
 7137TIP3    H121375   2.055   1.523   3.385
 7137TIP3    H221376   2.135   1.647   3.420
 7138TIP3   OH221377   2.931   2.072   0.916
 7138TIP3    H121378   2.959   2.164   0.923
 7138TIP3    H221379   2.855   2.075   0.858
 7139TIP3   OH221380   1.368   1.575   5.008
 7139TIP3    H121381   1.299   1.566   5.074
 7139TIP3    H221382   1.342   1.515   4.938
 7140TIP3   OH221383   2.732   0.913   1.238
 7140TIP3    H121384   2.811   0.967   1.234
 7140TIP3    H221385   2.698   0.927   1.326
 7141TIP3   OH221386   2.193   3.104   3.594
 7141TIP3    H121387   2.226   3.140   3.512
 7141TIP3    H221388   2.271   3.092   3.648
 7142TIP3   OH221389   3.523   5.266   4.950
 7142TIP3    H121390   3.507   5.352   4.909
 7142TIP3    H221391   3.580   5.221   4.887
 7143TIP3   OH221392   4.591   3.716   4.496
 7143TIP3    H121393   4.678   3.729   4.534
 7143TIP3    H221394   4.582   3.621   4.489
 7144TIP3   OH221395   1.408   0.039   3.467
 7144TIP3    H121396   1.482   0.100   3.468
 7144TIP3    H221397   1.365   0.055   3.383
 7145TIP3   OH221398   5.713   0.756   0.987
 7145TIP3    H121399   5.645   0.813   0.950
 7145TIP3    H221400   5.792   0.776   0.936
 7146TIP3   OH221401   4.839   0.997   3.566
 7146TIP3    H121402   4.874   0.980   3.654
 7146TIP3    H221403   4.900   0.954   3.507
 7147TIP3   OH221404   5.291   2.429   3.712
 7147TIP3    H121405   5.331   2.350   3.749
 7147TIP3    H221406   5.316   2.499   3.773
 7148TIP3   OH221407   6.577   4.476   2.139
 7148TIP3    H121408   6.573   4.393   2.187
 7148TIP3    H221409   6.648   4.524   2.182
 7149TIP3   OH221410   6.766   6.374   0.460
 7149TIP3    H121411   6.723   6.456   0.482
 7149TIP3    H221412   6.829   6.360   0.531
 7150TIP3   OH221413   3.424   3.656   5.331
 7150TIP3    H121414   3.464   3.728   5.381
 7150TIP3    H221415   3.432   3.683   5.240
 7151TIP3   OH221416   6.866   5.628   3.562
 7151TIP3    H121417   6.803   5.561   3.590
 7151TIP3    H221418   6.864   5.694   3.631
 7152TIP3   OH221419   1.661   2.165   1.779
 7152TIP3    H121420   1.732   2.101   1.789
 7152TIP3    H221421   1.593   2.136   1.840
 7153TIP3   OH221422   5.637   0.540   1.177
 7153TIP3    H121423   5.647   0.635   1.191
 7153TIP3    H221424   5.562   0.533   1.118
 7154TIP3   OH221425   6.474   2.885   1.344
 7154TIP3    H121426   6.464   2.976   1.372
 7154TIP3    H221427   6.495   2.890   1.251
 7155TIP3   OH221428   0.866   5.059   5.258
 7155TIP3    H121429   0.825   5.129   5.207
 7155TIP3    H221430   0.899   5.102   5.337
 7156TIP3   OH221431   2.952   5.681   0.494
 7156TIP3    H121432   2.867   5.652   0.459
 7156TIP3    H221433   2.955   5.775   0.475
 7157TIP3   OH221434   1.123   2.187   0.790
 7157TIP3    H121435   1.104   2.281   0.788
 7157TIP3    H221436   1.039   2.145   0.772
 7158TIP3   OH221437   1.763   0.975   5.727
 7158TIP3    H121438   1.706   0.982   5.803
 7158TIP3    H221439   1.851   0.965   5.763
 7159TIP3   OH221440   3.542   0.211   1.980
 7159TIP3    H121441   3.592   0.130   1.990
 7159TIP3    H221442   3.607   0.276   1.952
 7160TIP3   OH221443   0.063   4.193   2.715
 7160TIP3    H121444   0.028   4.262   2.770
 7160TIP3    H221445   0.074   4.233   2.629
 7161TIP3   OH221446   5.151   5.765   1.781
 7161TIP3    H121447   5.063   5.759   1.819
 7161TIP3    H221448   5.164   5.681   1.737
 7162TIP3   OH221449   4.745   5.884   0.145
 7162TIP3    H121450   4.666   5.932   0.170
 7162TIP3    H221451   4.813   5.951   0.140
 7163TIP3   OH221452   0.038   2.438   3.468
 7163TIP3    H121453  -0.017   2.488   3.408
 7163TIP3    H221454   0.126   2.473   3.455
 7164TIP3   OH221455   5.182   1.132   5.188
 7164TIP3    H121456   5.194   1.157   5.279
 7164TIP3    H221457   5.109   1.186   5.158
 7165TIP3   OH221458   6.559   0.039   4.132
 7165TIP3    H121459   6.561   0.004   4.043
 7165TIP3    H221460   6.628   0.105   4.134
 7166TIP3   OH221461   4.581   4.251   2.088
 7166TIP3    H121462   4.587   4.254   2.184
 7166TIP3    H221463   4.522   4.178   2.070
 7167TIP3   OH221464   5.741   4.896   1.398
 7167TIP3    H121465   5.680   4.960   1.360
 7167TIP3    H221466   5.765   4.933   1.483
 7168TIP3   OH221467   3.458   6.367   0.601
 7168TIP3    H121468   3.517   6.439   0.579
 7168TIP3    H221469   3.412   6.397   0.680
 7169TIP3   OH221470   5.342   2.407   2.805
 7169TIP3    H121471   5.383   2.460   2.737
 7169TIP3    H221472   5.323   2.469   2.875
 7170TIP3   OH221473   0.878   1.810   2.351
 7170TIP3    H121474   0.965   1.790   2.316
 7170TIP3    H221475   0.849   1.728   2.392
 7171TIP3   OH221476   1.438   1.733   2.115
 7171TIP3    H121477   1.479   1.721   2.200
 7171TIP3    H221478   1.378   1.806   2.127
 7172TIP3   OH221479   7.094   5.705   3.010
 7172TIP3    H121480   7.152   5.780   2.996
 7172TIP3    H221481   7.017   5.723   2.957
 7173TIP3   OH221482   3.038   4.679   4.386
 7173TIP3    H121483   3.008   4.588   4.389
 7173TIP3    H221484   3.126   4.677   4.424
 7174TIP3   OH221485   4.842   4.072   4.069
 7174TIP3    H121486   4.823   4.126   3.992
 7174TIP3    H221487   4.816   4.126   4.144
 7175TIP3   OH221488   3.102   5.235   0.514
 7175TIP3    H121489   3.148   5.212   0.594
 7175TIP3    H221490   3.131   5.170   0.450
 7176TIP3   OH221491   1.232   3.638   4.369
 7176TIP3    H121492   1.297   3.707   4.379
 7176TIP3    H221493   1.159   3.666   4.424
 7177TIP3   OH221494   6.733   1.195   5.473
 7177TIP3    H121495   6.712   1.189   5.380
 7177TIP3    H221496   6.648   1.191   5.517
 7178TIP3   OH221497   4.010   0.834   2.136
 7178TIP3    H121498   4.016   0.739   2.127
 7178TIP3    H221499   3.918   0.851   2.159
 7179TIP3   OH221500   4.933   6.293   2.364
 7179TIP3    H121501   4.903   6.202   2.369
 7179TIP3    H221502   4.902   6.323   2.278
 7180TIP3   OH221503   2.650   2.795   1.950
 7180TIP3    H121504   2.577   2.797   1.888
 7180TIP3    H221505   2.611   2.824   2.033
 7181TIP3   OH221506   0.428   6.562   2.447
 7181TIP3    H121507   0.500   6.611   2.488
 7181TIP3    H221508   0.468   6.478   2.423
 7182TIP3   OH221509   3.159   3.952   3.313
 7182TIP3    H121510   3.067   3.977   3.304
 7182TIP3    H221511   3.170   3.933   3.406
 7183TIP3   OH221512   0.888   1.840   2.027
 7183TIP3    H121513   0.865   1.795   1.945
 7183TIP3    H221514   0.809   1.835   2.080
 7184TIP3   OH221515   3.180   4.329   4.899
 7184TIP3    H121516   3.191   4.260   4.833
 7184TIP3    H221517   3.260   4.380   4.893
 7185TIP3   OH221518   5.712   6.107   4.007
 7185TIP3    H121519   5.741   6.074   4.092
 7185TIP3    H221520   5.641   6.168   4.028
 7186TIP3   OH221521   1.336   6.410   4.190
 7186TIP3    H121522   1.352   6.319   4.217
 7186TIP3    H221523   1.241   6.415   4.179
 7187TIP3   OH221524   4.284   3.974   3.863
 7187TIP3    H121525   4.306   3.912   3.794
 7187TIP3    H221526   4.270   4.057   3.818
 7188TIP3   OH221527   0.380   5.036   4.157
 7188TIP3    H121528   0.399   5.098   4.227
 7188TIP3    H221529   0.288   5.051   4.135
 7189TIP3   OH221530   5.750   3.707   2.804
 7189TIP3    H121531   5.790   3.621   2.823
 7189TIP3    H221532   5.716   3.736   2.888
 7190TIP3   OH221533   5.474   5.038   1.943
 7190TIP3    H121534   5.416   5.103   1.982
 7190TIP3    H221535   5.562   5.070   1.963
 7191TIP3   OH221536   3.039   2.442   3.741
 7191TIP3    H121537   2.957   2.396   3.755
 7191TIP3    H221538   3.079   2.399   3.665
 7192TIP3   OH221539   2.708   5.231   5.659
 7192TIP3    H121540   2.794   5.271   5.646
 7192TIP3    H221541   2.727   5.142   5.687
 7193TIP3   OH221542   3.418   5.444   0.752
 7193TIP3    H121543   3.496   5.391   0.739
 7193TIP3    H221544   3.401   5.484   0.667
 7194TIP3   OH221545   0.157   3.018   4.675
 7194TIP3    H121546   0.113   3.072   4.609
 7194TIP3    H221547   0.239   2.993   4.634
 7195TIP3   OH221548   3.350   3.151   3.415
 7195TIP3    H121549   3.348   3.206   3.493
 7195TIP3    H221550   3.440   3.120   3.409
 7196TIP3   OH221551   3.600   4.434   0.160
 7196TIP3    H121552   3.526   4.374   0.165
 7196TIP3    H221553   3.635   4.423   0.072
 7197TIP3   OH221554   0.588   0.173   3.239
 7197TIP3    H121555   0.654   0.106   3.220
 7197TIP3    H221556   0.518   0.125   3.283
 7198TIP3   OH221557   1.789   1.285   4.077
 7198TIP3    H121558   1.841   1.245   4.146
 7198TIP3    H221559   1.698   1.280   4.108
 7199TIP3   OH221560   4.124   3.122   4.633
 7199TIP3    H121561   4.184   3.077   4.692
 7199TIP3    H221562   4.104   3.204   4.677
 7200TIP3   OH221563   1.649   0.050   0.669
 7200TIP3    H121564   1.562   0.089   0.683
 7200TIP3    H221565   1.661   0.054   0.574
 7201TIP3   OH221566   5.975   1.823   3.217
 7201TIP3    H121567   5.936   1.872   3.289
 7201TIP3    H221568   6.007   1.743   3.258
 7202TIP3   OH221569   3.660   1.880   5.570
 7202TIP3    H121570   3.586   1.869   5.630
 7202TIP3    H221571   3.733   1.837   5.615
 7203TIP3   OH221572   4.661   2.001   0.305
 7203TIP3    H121573   4.749   1.963   0.297
 7203TIP3    H221574   4.676   2.095   0.302
 7204TIP3   OH221575   1.335   5.191   4.868
 7204TIP3    H121576   1.315   5.123   4.932
 7204TIP3    H221577   1.250   5.216   4.832
 7205TIP3   OH221578   0.938   6.328   2.936
 7205TIP3    H121579   0.873   6.373   2.991
 7205TIP3    H221580   1.019   6.377   2.951
 7206TIP3   OH221581   1.265   6.466   0.351
 7206TIP3    H121582   1.267   6.494   0.259
 7206TIP3    H221583   1.313   6.383   0.352
 7207TIP3   OH221584   4.191   3.931   1.213
 7207TIP3    H121585   4.201   3.849   1.164
 7207TIP3    H221586   4.097   3.945   1.217
 7208TIP3   OH221587   1.586   4.232   4.451
 7208TIP3    H121588   1.545   4.229   4.537
 7208TIP3    H221589   1.577   4.324   4.424
 7209TIP3   OH221590   5.956   5.077   0.787
 7209TIP3    H121591   5.885   5.026   0.826
 7209TIP3    H221592   5.991   5.129   0.860
 7210TIP3   OH221593   1.274   1.782   0.458
 7210TIP3    H121594   1.320   1.787   0.374
 7210TIP3    H221595   1.204   1.847   0.450
 7211TIP3   OH221596   1.901   4.527   2.090
 7211TIP3    H121597   1.959   4.476   2.033
 7211TIP3    H221598   1.919   4.618   2.066
 7212TIP3   OH221599   7.186   4.115   4.697
 7212TIP3    H121600   7.218   4.181   4.635
 7212TIP3    H221601   7.125   4.062   4.645
 7213TIP3   OH221602   4.873   1.521   4.337
 7213TIP3    H121603   4.810   1.468   4.287
 7213TIP3    H221604   4.856   1.611   4.309
 7214TIP3   OH221605   1.342   2.790   0.802
 7214TIP3    H121606   1.289   2.818   0.728
 7214TIP3    H221607   1.309   2.702   0.823
 7215TIP3   OH221608   5.361   6.301   4.748
 7215TIP3    H121609   5.292   6.325   4.686
 7215TIP3    H221610   5.383   6.210   4.726
 7216TIP3   OH221611   0.935   3.128   2.169
 7216TIP3    H121612   1.030   3.143   2.170
 7216TIP3    H221613   0.917   3.084   2.252
 7217TIP3   OH221614   0.173   3.373   4.616
 7217TIP3    H121615   0.221   3.291   4.630
 7217TIP3    H221616   0.240   3.440   4.612
 7218TIP3   OH221617   2.995   4.326   0.156
 7218TIP3    H121618   2.903   4.347   0.171
 7218TIP3    H221619   3.026   4.396   0.098
 7219TIP3   OH221620   5.007   6.693   5.575
 7219TIP3    H121621   4.932   6.733   5.619
 7219TIP3    H221622   5.018   6.745   5.495
 7220TIP3   OH221623   6.544   3.744   5.191
 7220TIP3    H121624   6.476   3.805   5.164
 7220TIP3    H221625   6.625   3.779   5.154
 7221TIP3   OH221626   2.230   2.874   4.236
 7221TIP3    H121627   2.152   2.842   4.282
 7221TIP3    H221628   2.298   2.875   4.303
 7222TIP3   OH221629   5.202   1.057   3.670
 7222TIP3    H121630   5.199   1.112   3.592
 7222TIP3    H221631   5.123   1.081   3.718
 7223TIP3   OH221632   5.974   5.724   4.315
 7223TIP3    H121633   5.999   5.681   4.396
 7223TIP3    H221634   5.883   5.699   4.300
 7224TIP3   OH221635   1.644   1.166   4.524
 7224TIP3    H121636   1.738   1.184   4.525
 7224TIP3    H221637   1.637   1.073   4.547
 7225TIP3   OH221638   1.250   0.816   1.113
 7225TIP3    H121639   1.297   0.760   1.052
 7225TIP3    H221640   1.252   0.767   1.196
 7226TIP3   OH221641   5.795   2.708   3.373
 7226TIP3    H121642   5.849   2.680   3.447
 7226TIP3    H221643   5.857   2.751   3.314
 7227TIP3   OH221644   6.295   4.714   3.743
 7227TIP3    H121645   6.221   4.730   3.802
 7227TIP3    H221646   6.307   4.619   3.744
 7228TIP3   OH221647   6.617   3.589   2.269
 7228TIP3    H121648   6.578   3.672   2.297
 7228TIP3    H221649   6.698   3.583   2.319
 7229TIP3   OH221650   1.752   1.711   3.799
 7229TIP3    H121651   1.826   1.653   3.781
 7229TIP3    H221652   1.754   1.724   3.894
 7230TIP3   OH221653   5.530   3.278   3.250
 7230TIP3    H121654   5.438   3.252   3.241
 7230TIP3    H221655   5.559   3.233   3.330
 7231TIP3   OH221656   4.025   0.860   4.171
 7231TIP3    H121657   4.077   0.940   4.180
 7231TIP3    H221658   4.027   0.820   4.258
 7232TIP3   OH221659   6.747   6.477   5.787
 7232TIP3    H121660   6.815   6.506   5.847
 7232TIP3    H221661   6.665   6.505   5.827
 7233TIP3   OH221662   5.199   3.165   3.630
 7233TIP3    H121663   5.276   3.221   3.627
 7233TIP3    H221664   5.135   3.216   3.681
 7234TIP3   OH221665   3.794   6.584   1.306
 7234TIP3    H121666   3.737   6.614   1.377
 7234TIP3    H221667   3.877   6.628   1.321
 7235TIP3   OH221668   6.345   4.422   3.825
 7235TIP3    H121669   6.275   4.376   3.776
 7235TIP3    H221670   6.424   4.372   3.805
 7236TIP3   OH221671   1.842   3.531   3.014
 7236TIP3    H121672   1.812   3.602   3.072
 7236TIP3    H221673   1.841   3.453   3.070
 7237TIP3   OH221674   1.040   4.583   0.933
 7237TIP3    H121675   1.021   4.659   0.988
 7237TIP3    H221676   0.986   4.595   0.855
 7238TIP3   OH221677   5.027   5.177   0.615
 7238TIP3    H121678   5.013   5.156   0.707
 7238TIP3    H221679   5.078   5.257   0.615
 7239TIP3   OH221680   6.755   3.430   3.975
 7239TIP3    H121681   6.833   3.380   3.950
 7239TIP3    H221682   6.683   3.386   3.931
 7240TIP3   OH221683   2.715   2.361   2.222
 7240TIP3    H121684   2.725   2.402   2.135
 7240TIP3    H221685   2.631   2.315   2.217
 7241TIP3   OH221686   0.591   1.325   0.908
 7241TIP3    H121687   0.604   1.411   0.867
 7241TIP3    H221688   0.512   1.335   0.960
 7242TIP3   OH221689   2.569   2.209   0.306
 7242TIP3    H121690   2.636   2.219   0.374
 7242TIP3    H221691   2.559   2.114   0.296
 7243TIP3   OH221692   6.369   3.740   1.849
 7243TIP3    H121693   6.360   3.728   1.755
 7243TIP3    H221694   6.418   3.663   1.878
 7244TIP3   OH221695   1.327   1.365   1.450
 7244TIP3    H121696   1.308   1.399   1.537
 7244TIP3    H221697   1.344   1.272   1.464
 7245TIP3   OH221698   6.641   1.330   0.957
 7245TIP3    H121699   6.617   1.397   0.893
 7245TIP3    H221700   6.621   1.369   1.042
 7246TIP3   OH221701   6.125   0.103   1.588
 7246TIP3    H121702   6.107   0.168   1.520
 7246TIP3    H221703   6.084   0.139   1.667
 7247TIP3   OH221704   1.022   4.454   2.629
 7247TIP3    H121705   1.039   4.517   2.560
 7247TIP3    H221706   1.030   4.504   2.710
 7248TIP3   OH221707   1.528   4.165   2.905
 7248TIP3    H121708   1.544   4.202   2.992
 7248TIP3    H221709   1.433   4.161   2.898
 7249TIP3   OH221710   4.574   4.175   5.357
 7249TIP3    H121711   4.575   4.269   5.339
 7249TIP3    H221712   4.515   4.139   5.290
 7250TIP3   OH221713   2.378   6.115   1.050
 7250TIP3    H121714   2.404   6.181   1.115
 7250TIP3    H221715   2.442   6.124   0.979
 7251TIP3   OH221716   0.190   0.321   4.569
 7251TIP3    H121717   0.095   0.325   4.580
 7251TIP3    H221718   0.225   0.335   4.656
 7252TIP3   OH221719   0.967   6.222   5.724
 7252TIP3    H121720   0.922   6.222   5.808
 7252TIP3    H221721   1.054   6.258   5.743
 7253TIP3   OH221722   4.086   0.190   5.165
 7253TIP3    H121723   4.006   0.147   5.133
 7253TIP3    H221724   4.057   0.239   5.242
 7254TIP3   OH221725   2.544   4.764   1.193
 7254TIP3    H121726   2.638   4.784   1.193
 7254TIP3    H221727   2.532   4.707   1.117
 7255TIP3   OH221728   0.479   0.085   5.428
 7255TIP3    H121729   0.540   0.011   5.421
 7255TIP3    H221730   0.396   0.050   5.396
 7256TIP3   OH221731   3.808   5.743   0.223
 7256TIP3    H121732   3.731   5.773   0.271
 7256TIP3    H221733   3.880   5.793   0.260
 7257TIP3   OH221734   4.389   0.860   2.996
 7257TIP3    H121735   4.452   0.839   3.064
 7257TIP3    H221736   4.305   0.831   3.032
 7258TIP3   OH221737   4.101   3.963   4.752
 7258TIP3    H121738   4.072   3.902   4.820
 7258TIP3    H221739   4.027   3.969   4.691
 7259TIP3   OH221740   5.245   2.072   5.173
 7259TIP3    H121741   5.301   2.003   5.138
 7259TIP3    H221742   5.274   2.152   5.130
 7260TIP3   OH221743   4.295   2.265   3.412
 7260TIP3    H121744   4.377   2.269   3.461
 7260TIP3    H221745   4.227   2.250   3.478
 7261TIP3   OH221746   0.753   6.463   3.079
 7261TIP3    H121747   0.695   6.391   3.104
 7261TIP3    H221748   0.760   6.517   3.158
 7262TIP3   OH221749   0.386   5.992   2.909
 7262TIP3    H121750   0.326   5.919   2.919
 7262TIP3    H221751   0.401   5.999   2.815
 7263TIP3   OH221752   2.604   0.330   2.225
 7263TIP3    H121753   2.676   0.305   2.167
 7263TIP3    H221754   2.642   0.329   2.313
 7264TIP3   OH221755   4.009   0.387   5.604
 7264TIP3    H121756   4.021   0.400   5.509
 7264TIP3    H221757   4.004   0.292   5.615
 7265TIP3   OH221758   0.992   0.391   2.733
 7265TIP3    H121759   1.086   0.382   2.716
 7265TIP3    H221760   0.984   0.473   2.780
 7266TIP3   OH221761   6.942   5.235   3.531
 7266TIP3    H121762   6.996   5.314   3.533
 7266TIP3    H221763   6.852   5.267   3.536
 7267TIP3   OH221764   1.439   5.745   1.610
 7267TIP3    H121765   1.354   5.702   1.606
 7267TIP3    H221766   1.454   5.759   1.703
 7268TIP3   OH221767   1.668   4.027   4.805
 7268TIP3    H121768   1.749   3.988   4.773
 7268TIP3    H221769   1.617   3.954   4.841
 7269TIP3   OH221770   3.970   2.879   1.338
 7269TIP3    H121771   4.008   2.796   1.308
 7269TIP3    H221772   4.013   2.896   1.422
 7270TIP3   OH221773   3.361   3.477   2.891
 7270TIP3    H121774   3.451   3.474   2.925
 7270TIP3    H221775   3.366   3.433   2.806
 7271TIP3   OH221776   2.254   1.438   0.229
 7271TIP3    H121777   2.207   1.413   0.149
 7271TIP3    H221778   2.190   1.487   0.280
 7272TIP3   OH221779   3.871   2.252   2.051
 7272TIP3    H121780   3.832   2.165   2.055
 7272TIP3    H221781   3.810   2.307   2.101
 7273TIP3   OH221782   4.987   5.899   0.884
 7273TIP3    H121783   5.082   5.888   0.890
 7273TIP3    H221784   4.956   5.821   0.839
 7274TIP3   OH221785   1.983   6.755   4.467
 7274TIP3    H121786   2.037   6.814   4.414
 7274TIP3    H221787   1.937   6.813   4.527
 7275TIP3   OH221788   6.317   2.987   2.225
 7275TIP3    H121789   6.296   3.079   2.210
 7275TIP3    H221790   6.354   2.985   2.313
 7276TIP3   OH221791   1.981   4.535   5.529
 7276TIP3    H121792   1.935   4.464   5.574
 7276TIP3    H221793   2.061   4.494   5.496
 7277TIP3   OH221794   4.844   6.644   5.108
 7277TIP3    H121795   4.775   6.579   5.096
 7277TIP3    H221796   4.922   6.593   5.130
 7278TIP3   OH221797  -0.029   3.760   5.084
 7278TIP3    H121798  -0.048   3.677   5.129
 7278TIP3    H221799   0.060   3.748   5.050
 7279TIP3   OH221800   5.347   6.625   2.718
 7279TIP3    H121801   5.318   6.632   2.809
 7279TIP3    H221802   5.284   6.679   2.669
 7280TIP3   OH221803   2.107   5.887   5.531
 7280TIP3    H121804   2.095   5.975   5.567
 7280TIP3    H221805   2.024   5.869   5.486
 7281TIP3   OH221806   2.084   2.062   3.842
 7281TIP3    H121807   2.089   2.077   3.748
 7281TIP3    H221808   2.056   2.146   3.879
 7282TIP3   OH221809   4.072   4.943   0.540
 7282TIP3    H121810   4.115   4.936   0.626
 7282TIP3    H221811   4.037   4.856   0.523
 7283TIP3   OH221812   6.072   6.595   1.833
 7283TIP3    H121813   6.045   6.651   1.760
 7283TIP3    H221814   6.048   6.645   1.911
 7284TIP3   OH221815   2.885   5.862   4.496
 7284TIP3    H121816   2.810   5.904   4.538
 7284TIP3    H221817   2.887   5.774   4.533
 7285TIP3   OH221818   6.648   2.747   1.529
 7285TIP3    H121819   6.647   2.651   1.523
 7285TIP3    H221820   6.600   2.776   1.452
 7286TIP3   OH221821   6.732   1.452   0.570
 7286TIP3    H121822   6.762   1.372   0.526
 7286TIP3    H221823   6.650   1.475   0.526
 7287TIP3   OH221824   6.606   4.624   0.997
 7287TIP3    H121825   6.511   4.633   0.987
 7287TIP3    H221826   6.619   4.535   1.029
 7288TIP3   OH221827   5.217   1.129   2.630
 7288TIP3    H121828   5.175   1.177   2.558
 7288TIP3    H221829   5.149   1.071   2.663
 7289TIP3   OH221830   2.356   1.634   0.772
 7289TIP3    H121831   2.410   1.597   0.702
 7289TIP3    H221832   2.367   1.729   0.764
 7290TIP3   OH221833   5.509   3.828   4.624
 7290TIP3    H121834   5.491   3.766   4.694
 7290TIP3    H221835   5.569   3.782   4.565
 7291TIP3   OH221836   3.047   5.898   2.046
 7291TIP3    H121837   2.980   5.952   2.089
 7291TIP3    H221838   3.088   5.957   1.983
 7292TIP3   OH221839   3.054   2.493   2.632
 7292TIP3    H121840   3.126   2.510   2.572
 7292TIP3    H221841   2.988   2.450   2.578
 7293TIP3   OH221842   4.553   0.947   2.095
 7293TIP3    H121843   4.643   0.916   2.085
 7293TIP3    H221844   4.499   0.875   2.062
 7294TIP3   OH221845   1.499   1.383   5.275
 7294TIP3    H121846   1.588   1.412   5.296
 7294TIP3    H221847   1.459   1.459   5.232
 7295TIP3   OH221848   4.308   3.142   4.125
 7295TIP3    H121849   4.321   3.048   4.139
 7295TIP3    H221850   4.220   3.149   4.088
 7296TIP3   OH221851   7.108   3.435   5.480
 7296TIP3    H121852   7.136   3.355   5.522
 7296TIP3    H221853   7.187   3.472   5.442
 7297TIP3   OH221854   0.079   3.083   2.391
 7297TIP3    H121855   0.169   3.090   2.358
 7297TIP3    H221856   0.088   3.049   2.480
 7298TIP3   OH221857   1.728   3.959   5.147
 7298TIP3    H121858   1.644   3.932   5.109
 7298TIP3    H221859   1.758   4.030   5.091
 7299TIP3   OH221860   5.854   0.753   5.040
 7299TIP3    H121861   5.765   0.785   5.057
 7299TIP3    H221862   5.895   0.749   5.127
 7300TIP3   OH221863   1.592   0.397   0.888
 7300TIP3    H121864   1.665   0.428   0.942
 7300TIP3    H221865   1.540   0.343   0.948
 7301TIP3   OH221866   1.204   5.249   5.397
 7301TIP3    H121867   1.110   5.242   5.416
 7301TIP3    H221868   1.210   5.316   5.330
 7302TIP3   OH221869   0.142   2.263   0.361
 7302TIP3    H121870   0.143   2.221   0.275
 7302TIP3    H221871   0.134   2.189   0.423
 7303TIP3   OH221872   2.939   6.767   4.407
 7303TIP3    H121873   2.981   6.735   4.487
 7303TIP3    H221874   2.878   6.697   4.382
 7304TIP3   OH221875   4.521   0.576   1.668
 7304TIP3    H121876   4.523   0.601   1.576
 7304TIP3    H221877   4.512   0.659   1.715
 7305TIP3   OH221878   4.104   5.939   3.585
 7305TIP3    H121879   4.165   6.002   3.624
 7305TIP3    H221880   4.145   5.914   3.502
 7306TIP3   OH221881   6.596   3.631   0.162
 7306TIP3    H121882   6.599   3.579   0.081
 7306TIP3    H221883   6.526   3.591   0.213
 7307TIP3   OH221884   1.112   0.640   0.799
 7307TIP3    H121885   1.188   0.594   0.836
 7307TIP3    H221886   1.142   0.730   0.787
 7308TIP3   OH221887   0.037   6.350   1.879
 7308TIP3    H121888  -0.027   6.309   1.937
 7308TIP3    H221889   0.063   6.431   1.924
 7309TIP3   OH221890   5.913   3.532   3.675
 7309TIP3    H121891   5.822   3.561   3.674
 7309TIP3    H221892   5.910   3.440   3.650
 7310TIP3   OH221893   2.806   0.009   3.097
 7310TIP3    H121894   2.786  -0.034   3.014
 7310TIP3    H221895   2.899   0.030   3.091
 7311TIP3   OH221896   2.954   1.816   0.000
 7311TIP3    H121897   2.886   1.882   0.017
 7311TIP3    H221898   2.923   1.738   0.045
 7312TIP3   OH221899   1.018   4.807   3.590
 7312TIP3    H121900   0.990   4.890   3.552
 7312TIP3    H221901   1.040   4.828   3.681
 7313TIP3   OH221902   7.144   0.968   5.809
 7313TIP3    H121903   7.099   0.938   5.888
 7313TIP3    H221904   7.098   1.049   5.785
 7314TIP3   OH221905   6.540   0.349   2.406
 7314TIP3    H121906   6.488   0.410   2.459
 7314TIP3    H221907   6.564   0.279   2.467
 7315TIP3   OH221908   7.200   2.041   3.194
 7315TIP3    H121909   7.161   2.003   3.115
 7315TIP3    H221910   7.125   2.076   3.243
 7316TIP3   OH221911   2.129   1.224   3.058
 7316TIP3    H121912   2.069   1.298   3.047
 7316TIP3    H221913   2.216   1.264   3.057
 7317TIP3   OH221914   6.511   3.519   0.999
 7317TIP3    H121915   6.547   3.477   1.077
 7317TIP3    H221916   6.566   3.597   0.986
 7318TIP3   OH221917   2.281   1.081   0.741
 7318TIP3    H121918   2.334   1.012   0.701
 7318TIP3    H221919   2.258   1.046   0.827
 7319TIP3   OH221920   5.518   6.328   1.025
 7319TIP3    H121921   5.554   6.239   1.026
 7319TIP3    H221922   5.568   6.372   0.956
 7320TIP3   OH221923   4.688   4.334   4.544
 7320TIP3    H121924   4.673   4.312   4.636
 7320TIP3    H221925   4.631   4.274   4.496
 7321TIP3   OH221926   1.378   4.081   3.706
 7321TIP3    H121927   1.373   4.035   3.790
 7321TIP3    H221928   1.432   4.158   3.723
 7322TIP3   OH221929   1.084   1.493   3.434
 7322TIP3    H121930   1.116   1.409   3.402
 7322TIP3    H221931   1.156   1.526   3.488
 7323TIP3   OH221932   4.977   1.128   0.078
 7323TIP3    H121933   4.915   1.118   0.006
 7323TIP3    H221934   5.050   1.176   0.039
 7324TIP3   OH221935   4.270   5.878   4.065
 7324TIP3    H121936   4.309   5.957   4.102
 7324TIP3    H221937   4.336   5.810   4.077
 7325TIP3   OH221938   0.729   4.577   2.485
 7325TIP3    H121939   0.717   4.488   2.517
 7325TIP3    H221940   0.792   4.616   2.545
 7326TIP3   OH221941   4.258   1.505   3.907
 7326TIP3    H121942   4.325   1.442   3.933
 7326TIP3    H221943   4.274   1.520   3.814
 7327TIP3   OH221944   1.763   5.319   2.036
 7327TIP3    H121945   1.773   5.290   2.127
 7327TIP3    H221946   1.841   5.286   1.991
 7328TIP3   OH221947   3.531   4.414   1.452
 7328TIP3    H121948   3.540   4.321   1.470
 7328TIP3    H221949   3.619   4.450   1.464
 7329TIP3   OH221950   0.144   6.232   2.876
 7329TIP3    H121951   0.143   6.250   2.970
 7329TIP3    H221952   0.235   6.207   2.857
 7330TIP3   OH221953   0.395   4.099   0.526
 7330TIP3    H121954   0.335   4.157   0.481
 7330TIP3    H221955   0.356   4.088   0.614
 7331TIP3   OH221956   5.712   3.889   2.076
 7331TIP3    H121957   5.620   3.917   2.081
 7331TIP3    H221958   5.724   3.862   1.985
 7332TIP3   OH221959   5.917   5.132   5.730
 7332TIP3    H121960   5.990   5.095   5.679
 7332TIP3    H221961   5.899   5.066   5.797
 7333TIP3   OH221962   3.063   5.107   5.014
 7333TIP3    H121963   3.076   5.164   4.938
 7333TIP3    H221964   3.129   5.039   5.005
 7334TIP3   OH221965   3.808   1.196   2.637
 7334TIP3    H121966   3.773   1.285   2.643
 7334TIP3    H221967   3.893   1.201   2.681
 7335TIP3   OH221968   5.804   5.930   1.580
 7335TIP3    H121969   5.781   5.842   1.551
 7335TIP3    H221970   5.867   5.916   1.652
 7336TIP3   OH221971   2.807   6.534   3.221
 7336TIP3    H121972   2.844   6.579   3.296
 7336TIP3    H221973   2.875   6.472   3.193
 7337TIP3   OH221974   6.167   5.834   2.300
 7337TIP3    H121975   6.099   5.891   2.336
 7337TIP3    H221976   6.120   5.753   2.279
 7338TIP3   OH221977   5.224   0.527   2.439
 7338TIP3    H121978   5.211   0.437   2.468
 7338TIP3    H221979   5.163   0.538   2.366
 7339TIP3   OH221980   5.060   0.850   4.241
 7339TIP3    H121981   5.148   0.821   4.219
 7339TIP3    H221982   5.048   0.824   4.332
 7340TIP3   OH221983   0.991   5.087   4.385
 7340TIP3    H121984   0.935   5.037   4.325
 7340TIP3    H221985   0.929   5.126   4.447
 7341TIP3   OH221986   2.353   2.907   5.380
 7341TIP3    H121987   2.440   2.876   5.356
 7341TIP3    H221988   2.358   3.002   5.373
 7342TIP3   OH221989   1.654   3.689   5.443
 7342TIP3    H121990   1.721   3.741   5.399
 7342TIP3    H221991   1.592   3.754   5.477
 7343TIP3   OH221992   5.735   4.026   4.121
 7343TIP3    H121993   5.650   3.983   4.111
 7343TIP3    H221994   5.798   3.955   4.108
 7344TIP3   OH221995   1.316   4.649   5.232
 7344TIP3    H121996   1.341   4.741   5.230
 7344TIP3    H221997   1.232   4.646   5.186
 7345TIP3   OH221998   6.509   1.575   0.427
 7345TIP3    H121999   6.513   1.552   0.334
 7345TIP3    H222000   6.553   1.660   0.432
 7346TIP3   OH222001   0.309   6.327   1.451
 7346TIP3    H122002   0.365   6.259   1.489
 7346TIP3    H222003   0.369   6.398   1.430
 7347TIP3   OH222004   0.463   0.443   1.879
 7347TIP3    H122005   0.514   0.364   1.898
 7347TIP3    H222006   0.421   0.425   1.795
 7348TIP3   OH222007   4.889   2.969   4.214
 7348TIP3    H122008   4.818   2.988   4.153
 7348TIP3    H222009   4.912   2.878   4.196
 7349TIP3   OH222010   4.353   1.466   3.078
 7349TIP3    H122011   4.291   1.439   3.145
 7349TIP3    H222012   4.323   1.552   3.050
 7350TIP3   OH222013   0.597   4.640   0.905
 7350TIP3    H122014   0.627   4.705   0.969
 7350TIP3    H222015   0.638   4.667   0.823
 7351TIP3   OH222016   5.919   3.316   3.287
 7351TIP3    H122017   5.858   3.367   3.234
 7351TIP3    H222018   5.908   3.226   3.257
 7352TIP3   OH222019   3.869   2.574   3.741
 7352TIP3    H122020   3.894   2.567   3.834
 7352TIP3    H222021   3.795   2.514   3.731
 7353TIP3   OH222022   4.173   6.504   5.801
 7353TIP3    H122023   4.220   6.563   5.743
 7353TIP3    H222024   4.121   6.562   5.857
 7354TIP3   OH222025   2.022   6.596   5.868
 7354TIP3    H122026   2.064   6.682   5.869
 7354TIP3    H222027   2.087   6.538   5.830
 7355TIP3   OH222028   2.034   6.393   4.879
 7355TIP3    H122029   1.996   6.313   4.841
 7355TIP3    H222030   2.052   6.449   4.803
 7356TIP3   OH222031   3.553   2.188   3.441
 7356TIP3    H122032   3.489   2.207   3.508
 7356TIP3    H222033   3.633   2.164   3.489
 7357TIP3   OH222034   6.009   3.674   1.115
 7357TIP3    H122035   5.996   3.767   1.129
 7357TIP3    H222036   6.096   3.667   1.075
 7358TIP3   OH222037   1.603   5.853   3.099
 7358TIP3    H122038   1.532   5.892   3.149
 7358TIP3    H222039   1.605   5.762   3.128
 7359TIP3   OH222040   4.739   0.185   5.826
 7359TIP3    H122041   4.694   0.267   5.808
 7359TIP3    H222042   4.820   0.190   5.775
 7360TIP3   OH222043   6.620   0.270   3.505
 7360TIP3    H122044   6.524   0.262   3.503
 7360TIP3    H222045   6.639   0.309   3.591
 7361TIP3   OH222046   6.402   3.166   5.353
 7361TIP3    H122047   6.354   3.246   5.372
 7361TIP3    H222048   6.335   3.100   5.335
 7362TIP3   OH222049   1.330   5.549   5.781
 7362TIP3    H122050   1.299   5.590   5.861
 7362TIP3    H222051   1.385   5.616   5.740
 7363TIP3   OH222052   1.578   2.481   0.474
 7363TIP3    H122053   1.537   2.568   0.471
 7363TIP3    H222054   1.504   2.420   0.464
 7364TIP3   OH222055   0.065   6.615   4.302
 7364TIP3    H122056   0.131   6.683   4.298
 7364TIP3    H222057   0.008   6.631   4.227
 7365TIP3   OH222058   1.735   0.439   0.103
 7365TIP3    H122059   1.668   0.461   0.038
 7365TIP3    H222060   1.709   0.353   0.136
 7366TIP3   OH222061   7.004   0.249   4.084
 7366TIP3    H122062   7.005   0.279   3.993
 7366TIP3    H222063   7.077   0.294   4.126
 7367TIP3   OH222064   5.186   1.916   4.699
 7367TIP3    H122065   5.253   1.899   4.633
 7367TIP3    H222066   5.103   1.898   4.655
 7368TIP3   OH222067   0.263   6.658   2.222
 7368TIP3    H122068   0.338   6.692   2.273
 7368TIP3    H222069   0.299   6.640   2.135
 7369TIP3   OH222070   5.611   0.065   1.548
 7369TIP3    H122071   5.523   0.028   1.543
 7369TIP3    H222072   5.643   0.064   1.458
 7370TIP3   OH222073   0.822   5.658   2.440
 7370TIP3    H122074   0.833   5.631   2.531
 7370TIP3    H222075   0.764   5.591   2.402
 7371TIP3   OH222076   3.041   3.970   1.439
 7371TIP3    H122077   2.984   4.023   1.383
 7371TIP3    H222078   3.042   3.883   1.398
 7372TIP3   OH222079   1.491   5.552   4.463
 7372TIP3    H122080   1.544   5.630   4.443
 7372TIP3    H222081   1.463   5.565   4.553
 7373TIP3   OH222082   6.861   2.466   4.137
 7373TIP3    H122083   6.923   2.397   4.113
 7373TIP3    H222084   6.816   2.487   4.055
 7374TIP3   OH222085   1.771   4.595   4.839
 7374TIP3    H122086   1.749   4.559   4.925
 7374TIP3    H222087   1.865   4.615   4.845
 7375TIP3   OH222088   6.436   3.816   0.491
 7375TIP3    H122089   6.401   3.865   0.417
 7375TIP3    H222090   6.446   3.881   0.560
 7376TIP3   OH222091   4.713   2.314   2.914
 7376TIP3    H122092   4.777   2.330   2.844
 7376TIP3    H222093   4.664   2.237   2.885
 7377TIP3   OH222094   3.552   0.966   1.202
 7377TIP3    H122095   3.595   0.933   1.281
 7377TIP3    H222096   3.607   1.039   1.174
 7378TIP3   OH222097   5.035   5.360   3.880
 7378TIP3    H122098   5.108   5.330   3.826
 7378TIP3    H222099   4.962   5.370   3.819
 7379TIP3   OH222100   2.362   4.301   0.475
 7379TIP3    H122101   2.387   4.385   0.516
 7379TIP3    H222102   2.283   4.321   0.426
 7380TIP3   OH222103   4.231   6.242   2.521
 7380TIP3    H122104   4.299   6.309   2.531
 7380TIP3    H222105   4.269   6.164   2.563
 7381TIP3   OH222106   4.661   5.746   2.471
 7381TIP3    H122107   4.643   5.655   2.445
 7381TIP3    H222108   4.710   5.782   2.397
 7382TIP3   OH222109   1.225   1.493   5.803
 7382TIP3    H122110   1.250   1.458   5.888
 7382TIP3    H222111   1.183   1.419   5.759
 7383TIP3   OH222112   0.147   0.853   4.620
 7383TIP3    H122113   0.126   0.941   4.654
 7383TIP3    H222114   0.241   0.843   4.634
 7384TIP3   OH222115   5.333   4.401   3.434
 7384TIP3    H122116   5.278   4.332   3.397
 7384TIP3    H222117   5.274   4.451   3.491
 7385TIP3   OH222118   4.680   3.371   3.761
 7385TIP3    H122119   4.702   3.464   3.753
 7385TIP3    H222120   4.628   3.366   3.841
 7386TIP3   OH222121   0.031   0.457   3.615
 7386TIP3    H122122   0.119   0.440   3.649
 7386TIP3    H222123   0.008   0.376   3.569
 7387TIP3   OH222124   5.597   3.890   0.269
 7387TIP3    H122125   5.590   3.805   0.225
 7387TIP3    H222126   5.524   3.892   0.330
 7388TIP3   OH222127   6.326   0.254   3.525
 7388TIP3    H122128   6.274   0.289   3.597
 7388TIP3    H222129   6.318   0.159   3.534
 7389TIP3   OH222130   6.776   0.608   0.500
 7389TIP3    H122131   6.682   0.596   0.487
 7389TIP3    H222132   6.815   0.525   0.473
 7390TIP3   OH222133   3.115   1.159   2.288
 7390TIP3    H122134   3.194   1.106   2.283
 7390TIP3    H222135   3.066   1.136   2.209
 7391TIP3   OH222136   4.045   5.143   1.867
 7391TIP3    H122137   4.011   5.203   1.933
 7391TIP3    H222138   4.139   5.155   1.869
 7392TIP3   OH222139   0.644   2.090   1.805
 7392TIP3    H122140   0.721   2.123   1.758
 7392TIP3    H222141   0.634   2.000   1.774
 7393TIP3   OH222142   4.898   5.539   1.442
 7393TIP3    H122143   4.848   5.620   1.434
 7393TIP3    H222144   4.832   5.470   1.444
 7394TIP3   OH222145   4.763   2.411   5.107
 7394TIP3    H122146   4.781   2.317   5.114
 7394TIP3    H222147   4.723   2.434   5.191
 7395TIP3   OH222148   3.774   6.458   3.812
 7395TIP3    H122149   3.734   6.399   3.876
 7395TIP3    H222150   3.740   6.428   3.728
 7396TIP3   OH222151   1.534   5.755   3.806
 7396TIP3    H122152   1.522   5.752   3.901
 7396TIP3    H222153   1.622   5.722   3.792
 7397TIP3   OH222154   4.149   2.056   1.205
 7397TIP3    H122155   4.087   2.104   1.151
 7397TIP3    H222156   4.146   1.966   1.171
 7398TIP3   OH222157   5.585   3.760   1.824
 7398TIP3    H122158   5.618   3.674   1.848
 7398TIP3    H222159   5.574   3.756   1.729
 7399TIP3   OH222160   3.961   3.744   5.390
 7399TIP3    H122161   3.984   3.767   5.480
 7399TIP3    H222162   3.998   3.815   5.337
 7400TIP3   OH222163   4.051   5.151   4.760
 7400TIP3    H122164   4.099   5.073   4.732
 7400TIP3    H222165   4.026   5.132   4.851
 7401TIP3   OH222166   0.241   1.988   2.896
 7401TIP3    H122167   0.163   2.042   2.885
 7401TIP3    H222168   0.220   1.907   2.849
 7402TIP3   OH222169   1.587   2.585   0.980
 7402TIP3    H122170   1.619   2.599   0.891
 7402TIP3    H222171   1.644   2.517   1.016
 7403TIP3   OH222172   2.754   0.856   4.837
 7403TIP3    H122173   2.785   0.939   4.800
 7403TIP3    H222174   2.666   0.845   4.799
 7404TIP3   OH222175   3.177   0.205   0.530
 7404TIP3    H122176   3.265   0.204   0.492
 7404TIP3    H222177   3.178   0.134   0.594
 7405TIP3   OH222178   2.735   4.241   5.059
 7405TIP3    H122179   2.734   4.174   4.990
 7405TIP3    H222180   2.675   4.207   5.125
 7406TIP3   OH222181   3.646   1.016   1.606
 7406TIP3    H122182   3.617   1.082   1.542
 7406TIP3    H222183   3.656   1.065   1.687
 7407TIP3   OH222184   2.496   1.915   5.733
 7407TIP3    H122185   2.487   2.010   5.741
 7407TIP3    H222186   2.586   1.902   5.704
 7408TIP3   OH222187   2.919   0.664   4.194
 7408TIP3    H122188   2.865   0.625   4.125
 7408TIP3    H222189   2.886   0.753   4.204
 7409TIP3   OH222190   3.080   4.584   5.024
 7409TIP3    H122191   3.072   4.662   5.078
 7409TIP3    H222192   3.039   4.515   5.076
 7410TIP3   OH222193   5.495   0.348   1.521
 7410TIP3    H122194   5.558   0.278   1.502
 7410TIP3    H222195   5.461   0.327   1.608
 7411TIP3   OH222196   1.654   6.529   2.921
 7411TIP3    H122197   1.656   6.438   2.890
 7411TIP3    H222198   1.692   6.526   3.009
 7412TIP3   OH222199   1.890   3.807   5.407
 7412TIP3    H122200   1.934   3.877   5.359
 7412TIP3    H222201   1.961   3.755   5.445
 7413TIP3   OH222202   5.040   3.485   2.028
 7413TIP3    H122203   5.001   3.414   1.977
 7413TIP3    H222204   4.989   3.489   2.108
 7414TIP3   OH222205   0.657   1.531   2.819
 7414TIP3    H122206   0.627   1.474   2.890
 7414TIP3    H222207   0.600   1.510   2.745
 7415TIP3   OH222208   6.494   4.701   1.807
 7415TIP3    H122209   6.452   4.622   1.841
 7415TIP3    H222210   6.440   4.727   1.733
 7416TIP3   OH222211   5.548   4.317   5.748
 7416TIP3    H122212   5.511   4.327   5.661
 7416TIP3    H222213   5.640   4.296   5.733
 7417TIP3   OH222214   5.711   3.461   0.651
 7417TIP3    H122215   5.736   3.425   0.566
 7417TIP3    H222216   5.728   3.554   0.644
 7418TIP3   OH222217   5.820   0.272   0.868
 7418TIP3    H122218   5.902   0.258   0.821
 7418TIP3    H222219   5.780   0.186   0.874
 7419TIP3   OH222220   5.469   1.925   0.383
 7419TIP3    H122221   5.514   1.884   0.457
 7419TIP3    H222222   5.406   1.859   0.353
 7420TIP3   OH222223   4.604   6.346   1.974
 7420TIP3    H122224   4.513   6.323   1.954
 7420TIP3    H222225   4.633   6.397   1.899
 7421TIP3   OH222226   2.433   0.850   0.729
 7421TIP3    H122227   2.382   0.771   0.749
 7421TIP3    H222228   2.504   0.820   0.674
 7422TIP3   OH222229   1.560   3.001   3.435
 7422TIP3    H122230   1.602   3.034   3.355
 7422TIP3    H222231   1.536   2.911   3.414
 7423TIP3   OH222232   0.619   6.262   5.549
 7423TIP3    H122233   0.550   6.214   5.596
 7423TIP3    H222234   0.657   6.198   5.489
 7424TIP3   OH222235   6.291   6.512   2.439
 7424TIP3    H122236   6.267   6.430   2.482
 7424TIP3    H222237   6.385   6.521   2.454
 7425TIP3   OH222238   1.750   5.597   5.047
 7425TIP3    H122239   1.753   5.527   4.981
 7425TIP3    H222240   1.819   5.658   5.019
 7426TIP3   OH222241   4.767   6.627   1.281
 7426TIP3    H122242   4.814   6.702   1.243
 7426TIP3    H222243   4.800   6.551   1.232
 7427TIP3   OH222244   2.044   4.878   4.302
 7427TIP3    H122245   2.075   4.904   4.215
 7427TIP3    H222246   1.965   4.826   4.285
 7428TIP3   OH222247   6.506   4.701   5.215
 7428TIP3    H122248   6.532   4.615   5.184
 7428TIP3    H222249   6.589   4.744   5.238
 7429TIP3   OH222250   6.481   0.653   3.868
 7429TIP3    H122251   6.545   0.715   3.902
 7429TIP3    H222252   6.436   0.700   3.798
 7430TIP3   OH222253   6.261   1.542   3.726
 7430TIP3    H122254   6.319   1.505   3.660
 7430TIP3    H222255   6.225   1.621   3.686
 7431TIP3   OH222256   6.804   3.068   5.113
 7431TIP3    H122257   6.837   3.003   5.175
 7431TIP3    H222258   6.874   3.132   5.106
 7432TIP3   OH222259   6.462   5.966   3.254
 7432TIP3    H122260   6.388   5.986   3.196
 7432TIP3    H222261   6.442   6.014   3.335
 7433TIP3   OH222262   2.098   1.302   5.864
 7433TIP3    H122263   2.105   1.397   5.871
 7433TIP3    H222264   2.149   1.268   5.937
 7434TIP3   OH222265   4.740   3.034   1.858
 7434TIP3    H122266   4.823   3.015   1.901
 7434TIP3    H222267   4.677   2.977   1.903
 7435TIP3   OH222268   2.779   6.323   5.452
 7435TIP3    H122269   2.849   6.363   5.400
 7435TIP3    H222270   2.792   6.229   5.441
 7436TIP3   OH222271   4.992   4.436   4.414
 7436TIP3    H122272   4.934   4.496   4.368
 7436TIP3    H222273   4.946   4.352   4.413
 7437TIP3   OH222274   4.451   5.314   5.509
 7437TIP3    H122275   4.477   5.330   5.600
 7437TIP3    H222276   4.370   5.264   5.516
 7438TIP3   OH222277   2.129   2.681   2.066
 7438TIP3    H122278   2.153   2.747   2.131
 7438TIP3    H222279   2.213   2.644   2.038
 7439TIP3   OH222280   3.629   2.416   3.638
 7439TIP3    H122281   3.594   2.489   3.588
 7439TIP3    H222282   3.553   2.359   3.655
 7440TIP3   OH222283   2.893   3.942   3.402
 7440TIP3    H122284   2.828   3.900   3.459
 7440TIP3    H222285   2.879   4.035   3.415
 7441TIP3   OH222286   3.243   0.397   0.728
 7441TIP3    H122287   3.180   0.461   0.758
 7441TIP3    H222288   3.197   0.347   0.660
 7442TIP3   OH222289   6.825   0.599   4.457
 7442TIP3    H122290   6.920   0.586   4.462
 7442TIP3    H222291   6.808   0.615   4.365
 7443TIP3   OH222292   0.410   6.605   5.681
 7443TIP3    H122293   0.357   6.671   5.638
 7443TIP3    H222294   0.347   6.549   5.726
 7444TIP3   OH222295   6.658   6.073   1.059
 7444TIP3    H122296   6.665   5.977   1.062
 7444TIP3    H222297   6.635   6.098   1.148
 7445TIP3   OH222298   0.053   4.571   3.234
 7445TIP3    H122299   0.054   4.667   3.232
 7445TIP3    H222300   0.142   4.546   3.257
 7446TIP3   OH222301   5.934   0.862   0.717
 7446TIP3    H122302   5.921   0.768   0.715
 7446TIP3    H222303   5.900   0.893   0.633
 7447TIP3   OH222304   5.864   1.510   4.001
 7447TIP3    H122305   5.959   1.497   4.001
 7447TIP3    H222306   5.832   1.454   4.072
 7448TIP3   OH222307   3.773   3.200   0.858
 7448TIP3    H122308   3.689   3.231   0.823
 7448TIP3    H222309   3.795   3.263   0.927
 7449TIP3   OH222310   0.292   4.557   2.173
 7449TIP3    H122311   0.373   4.543   2.222
 7449TIP3    H222312   0.251   4.470   2.171
 7450TIP3   OH222313   5.594   4.703   4.369
 7450TIP3    H122314   5.647   4.752   4.431
 7450TIP3    H222315   5.507   4.699   4.408
 7451TIP3   OH222316   3.981   0.133   5.654
 7451TIP3    H122317   3.959   0.067   5.588
 7451TIP3    H222318   4.027   0.083   5.722
 7452TIP3   OH222319   0.688   1.452   1.348
 7452TIP3    H122320   0.616   1.391   1.339
 7452TIP3    H222321   0.681   1.487   1.437
 7453TIP3   OH222322   2.267   2.683   2.934
 7453TIP3    H122323   2.317   2.745   2.881
 7453TIP3    H222324   2.220   2.737   2.997
 7454TIP3   OH222325   5.111   1.459   0.561
 7454TIP3    H122326   5.136   1.550   0.580
 7454TIP3    H222327   5.069   1.464   0.475
 7455TIP3   OH222328   1.663   0.228   1.878
 7455TIP3    H122329   1.575   0.207   1.908
 7455TIP3    H222330   1.676   0.320   1.902
 7456TIP3   OH222331   2.531   2.788   1.411
 7456TIP3    H122332   2.566   2.867   1.453
 7456TIP3    H222333   2.439   2.786   1.436
 7457TIP3   OH222334   4.956   6.552   1.551
 7457TIP3    H122335   5.019   6.621   1.527
 7457TIP3    H222336   4.871   6.596   1.548
 7458TIP3   OH222337   0.948   5.091   3.685
 7458TIP3    H122338   0.922   5.150   3.756
 7458TIP3    H222339   1.041   5.111   3.670
 7459TIP3   OH222340   0.257   2.100   2.593
 7459TIP3    H122341   0.215   2.018   2.570
 7459TIP3    H222342   0.194   2.144   2.651
 7460TIP3   OH222343   4.882   2.550   3.637
 7460TIP3    H122344   4.801   2.599   3.623
 7460TIP3    H222345   4.952   2.613   3.621
 7461TIP3   OH222346   2.970   3.061   2.549
 7461TIP3    H122347   2.930   3.061   2.462
 7461TIP3    H222348   2.946   3.146   2.587
 7462TIP3   OH222349   4.509   5.554   4.254
 7462TIP3    H122350   4.442   5.609   4.295
 7462TIP3    H222351   4.497   5.468   4.293
 7463TIP3   OH222352   4.278   2.410   4.433
 7463TIP3    H122353   4.294   2.468   4.508
 7463TIP3    H222354   4.185   2.389   4.439
 7464TIP3   OH222355   1.066   2.715   3.816
 7464TIP3    H122356   1.074   2.623   3.789
 7464TIP3    H222357   1.110   2.718   3.901
 7465TIP3   OH222358   4.042   4.126   0.206
 7465TIP3    H122359   4.108   4.113   0.274
 7465TIP3    H222360   4.033   4.040   0.165
 7466TIP3   OH222361   5.489   2.148   2.837
 7466TIP3    H122362   5.397   2.122   2.833
 7466TIP3    H222363   5.485   2.241   2.862
 7467TIP3   OH222364   7.025   1.971   2.978
 7467TIP3    H122365   7.039   1.960   2.884
 7467TIP3    H222366   6.932   1.951   2.991
 7468TIP3   OH222367   5.967   4.133   5.198
 7468TIP3    H122368   5.941   4.188   5.124
 7468TIP3    H222369   5.885   4.091   5.227
 7469TIP3   OH222370   0.070   1.663   3.861
 7469TIP3    H122371  -0.024   1.665   3.878
 7469TIP3    H222372   0.096   1.755   3.855
 7470TIP3   OH222373   7.017   4.766   2.571
 7470TIP3    H122374   6.988   4.809   2.652
 7470TIP3    H222375   7.094   4.816   2.544
 7471TIP3   OH222376   2.273   4.183   1.316
 7471TIP3    H122377   2.293   4.277   1.317
 7471TIP3    H222378   2.359   4.141   1.323
 7472TIP3   OH222379   0.071   2.657   4.071
 7472TIP3    H122380   0.148   2.710   4.092
 7472TIP3    H222381   0.076   2.644   3.976
 7473TIP3   OH222382   2.086   3.395   3.236
 7473TIP3    H122383   2.019   3.370   3.173
 7473TIP3    H222384   2.140   3.316   3.245
 7474TIP3   OH222385   0.626   0.395   0.361
 7474TIP3    H122386   0.639   0.481   0.319
 7474TIP3    H222387   0.693   0.339   0.321
 7475TIP3   OH222388   0.719   4.043   4.579
 7475TIP3    H122389   0.652   3.974   4.571
 7475TIP3    H222390   0.742   4.043   4.672
 7476TIP3   OH222391   6.201   4.391   3.258
 7476TIP3    H122392   6.276   4.418   3.310
 7476TIP3    H222393   6.182   4.302   3.287
 7477TIP3   OH222394   1.440   2.536   3.773
 7477TIP3    H122395   1.522   2.565   3.732
 7477TIP3    H222396   1.467   2.470   3.837
 7478TIP3   OH222397   1.219   0.262   5.442
 7478TIP3    H122398   1.181   0.194   5.497
 7478TIP3    H222399   1.235   0.335   5.502
 7479TIP3   OH222400   3.865   2.157   1.193
 7479TIP3    H122401   3.780   2.194   1.167
 7479TIP3    H222402   3.846   2.109   1.274
 7480TIP3   OH222403   1.113   3.982   4.492
 7480TIP3    H122404   1.090   4.035   4.569
 7480TIP3    H222405   1.165   4.041   4.437
 7481TIP3   OH222406   4.665   2.957   3.688
 7481TIP3    H122407   4.710   2.999   3.615
 7481TIP3    H222408   4.719   2.978   3.764
 7482TIP3   OH222409   0.227   3.445   1.712
 7482TIP3    H122410   0.247   3.538   1.714
 7482TIP3    H222411   0.132   3.441   1.705
 7483TIP3   OH222412   2.923   0.485   5.661
 7483TIP3    H122413   3.011   0.522   5.676
 7483TIP3    H222414   2.864   0.560   5.667
 7484TIP3   OH222415   2.438   6.230   2.844
 7484TIP3    H122416   2.427   6.307   2.788
 7484TIP3    H222417   2.407   6.259   2.930
 7485TIP3   OH222418   6.872   2.553   3.401
 7485TIP3    H122419   6.790   2.504   3.405
 7485TIP3    H222420   6.890   2.559   3.307
 7486TIP3   OH222421   0.774   0.665   2.408
 7486TIP3    H122422   0.779   0.572   2.432
 7486TIP3    H222423   0.729   0.664   2.323
 7487TIP3   OH222424   0.388   0.460   0.167
 7487TIP3    H122425   0.381   0.465   0.262
 7487TIP3    H222426   0.471   0.503   0.147
 7488TIP3   OH222427   6.937   4.729   1.113
 7488TIP3    H122428   6.876   4.778   1.058
 7488TIP3    H222429   6.882   4.690   1.181
 7489TIP3   OH222430   4.867   0.265   1.700
 7489TIP3    H122431   4.884   0.236   1.790
 7489TIP3    H222432   4.824   0.350   1.710
 7490TIP3   OH222433   0.205   3.232   5.632
 7490TIP3    H122434   0.218   3.310   5.686
 7490TIP3    H222435   0.121   3.196   5.661
 7491TIP3   OH222436   2.097   5.798   2.441
 7491TIP3    H122437   2.109   5.747   2.521
 7491TIP3    H222438   2.004   5.790   2.420
 7492TIP3   OH222439   3.466   1.603   2.938
 7492TIP3    H122440   3.456   1.555   3.020
 7492TIP3    H222441   3.448   1.538   2.870
 7493TIP3   OH222442   3.737   2.356   2.385
 7493TIP3    H122443   3.814   2.300   2.386
 7493TIP3    H222444   3.746   2.407   2.304
 7494TIP3   OH222445   1.424   1.471   3.364
 7494TIP3    H122446   1.484   1.516   3.305
 7494TIP3    H222447   1.434   1.378   3.342
 7495TIP3   OH222448   2.204   2.442   4.182
 7495TIP3    H122449   2.171   2.515   4.130
 7495TIP3    H222450   2.265   2.397   4.123
 7496TIP3   OH222451   0.395   0.198   2.201
 7496TIP3    H122452   0.426   0.169   2.287
 7496TIP3    H222453   0.315   0.149   2.186
 7497TIP3   OH222454   3.794   3.376   1.056
 7497TIP3    H122455   3.859   3.441   1.081
 7497TIP3    H222456   3.788   3.317   1.131
 7498TIP3   OH222457   6.474   1.348   1.358
 7498TIP3    H122458   6.445   1.406   1.288
 7498TIP3    H222459   6.449   1.393   1.439
 7499TIP3   OH222460   6.858   3.914   0.822
 7499TIP3    H122461   6.922   3.914   0.893
 7499TIP3    H222462   6.901   3.866   0.751
 7500TIP3   OH222463   4.126   4.377   4.005
 7500TIP3    H122464   4.033   4.378   4.028
 7500TIP3    H222465   4.169   4.336   4.080
 7501TIP3   OH222466   3.702   3.253   4.019
 7501TIP3    H122467   3.703   3.345   4.045
 7501TIP3    H222468   3.678   3.206   4.099
 7502TIP3   OH222469   6.090   0.644   4.985
 7502TIP3    H122470   6.050   0.558   4.996
 7502TIP3    H222471   6.017   0.704   4.971
 7503TIP3   OH222472   5.293   2.843   1.707
 7503TIP3    H122473   5.302   2.855   1.613
 7503TIP3    H222474   5.336   2.760   1.725
 7504TIP3   OH222475   1.080   2.670   2.835
 7504TIP3    H122476   1.149   2.663   2.902
 7504TIP3    H222477   1.022   2.597   2.853
 7505TIP3   OH222478   5.629   3.662   5.195
 7505TIP3    H122479   5.682   3.632   5.268
 7505TIP3    H222480   5.689   3.713   5.141
 7506TIP3   OH222481   5.705   6.584   3.883
 7506TIP3    H122482   5.784   6.609   3.932
 7506TIP3    H222483   5.693   6.654   3.820
 7507TIP3   OH222484   3.735   1.833   0.555
 7507TIP3    H122485   3.771   1.915   0.588
 7507TIP3    H222486   3.641   1.839   0.574
 7508TIP3   OH222487   6.127   4.126   0.262
 7508TIP3    H122488   6.063   4.107   0.194
 7508TIP3    H222489   6.084   4.190   0.318
 7509TIP3   OH222490   2.442   0.736   0.992
 7509TIP3    H122491   2.402   0.794   0.928
 7509TIP3    H222492   2.456   0.792   1.069
 7510TIP3   OH222493   7.129   2.058   3.960
 7510TIP3    H122494   7.090   1.991   4.016
 7510TIP3    H222495   7.194   2.011   3.909
 7511TIP3   OH222496   0.958   1.569   2.784
 7511TIP3    H122497   0.864   1.554   2.798
 7511TIP3    H222498   0.982   1.633   2.851
 7512TIP3   OH222499   3.764   4.841   5.375
 7512TIP3    H122500   3.759   4.761   5.427
 7512TIP3    H222501   3.791   4.813   5.288
 7513TIP3   OH222502   5.960   5.073   2.756
 7513TIP3    H122503   6.052   5.065   2.784
 7513TIP3    H222504   5.914   5.103   2.833
 7514TIP3   OH222505   3.552   3.562   0.523
 7514TIP3    H122506   3.593   3.502   0.461
 7514TIP3    H222507   3.473   3.592   0.478
 7515TIP3   OH222508   0.186   1.368   1.903
 7515TIP3    H122509   0.091   1.367   1.909
 7515TIP3    H222510   0.214   1.302   1.966
 7516TIP3   OH222511   5.200   6.444   3.743
 7516TIP3    H122512   5.170   6.401   3.663
 7516TIP3    H222513   5.294   6.454   3.730
 7517TIP3   OH222514   2.991   3.349   2.633
 7517TIP3    H122515   3.073   3.398   2.634
 7517TIP3    H222516   2.947   3.373   2.714
 7518TIP3   OH222517   5.008   6.450   1.813
 7518TIP3    H122518   5.039   6.498   1.736
 7518TIP3    H222519   4.913   6.452   1.806
 7519TIP3   OH222520   2.555   6.669   5.457
 7519TIP3    H122521   2.586   6.607   5.523
 7519TIP3    H222522   2.550   6.618   5.377
 7520TIP3   OH222523   1.397   3.551   2.006
 7520TIP3    H122524   1.320   3.566   2.060
 7520TIP3    H222525   1.394   3.458   1.985
 7521TIP3   OH222526   3.581   4.159   1.543
 7521TIP3    H122527   3.621   4.136   1.627
 7521TIP3    H222528   3.573   4.076   1.496
 7522TIP3   OH222529   3.765   6.303   5.748
 7522TIP3    H122530   3.836   6.240   5.733
 7522TIP3    H222531   3.724   6.314   5.662
 7523TIP3   OH222532   5.803   6.059   3.762
 7523TIP3    H122533   5.889   6.100   3.768
 7523TIP3    H222534   5.766   6.067   3.850
 7524TIP3   OH222535   2.660   6.199   4.191
 7524TIP3    H122536   2.655   6.211   4.286
 7524TIP3    H222537   2.619   6.277   4.155
 7525TIP3   OH222538   4.259   0.414   2.909
 7525TIP3    H122539   4.345   0.454   2.922
 7525TIP3    H222540   4.273   0.321   2.928
 7526TIP3   OH222541   1.539   2.541   1.543
 7526TIP3    H122542   1.558   2.634   1.553
 7526TIP3    H222543   1.554   2.504   1.630
 7527TIP3   OH222544   4.518   1.606   2.735
 7527TIP3    H122545   4.549   1.516   2.736
 7527TIP3    H222546   4.422   1.599   2.739
 7528TIP3   OH222547   5.951   4.098   1.559
 7528TIP3    H122548   5.922   4.180   1.519
 7528TIP3    H222549   6.046   4.106   1.566
 7529TIP3   OH222550   2.813   2.973   4.389
 7529TIP3    H122551   2.788   3.064   4.409
 7529TIP3    H222552   2.897   2.961   4.433
 7530TIP3   OH222553   0.932   6.093   4.510
 7530TIP3    H122554   0.840   6.074   4.491
 7530TIP3    H222555   0.933   6.114   4.604
 7531TIP3   OH222556   6.169   0.560   5.287
 7531TIP3    H122557   6.126   0.477   5.307
 7531TIP3    H222558   6.097   0.619   5.264
 7532TIP3   OH222559   5.849   2.156   3.690
 7532TIP3    H122560   5.793   2.187   3.760
 7532TIP3    H222561   5.923   2.114   3.734
 7533TIP3   OH222562   5.193   0.207   4.156
 7533TIP3    H122563   5.220   0.117   4.138
 7533TIP3    H222564   5.102   0.210   4.129
 7534TIP3   OH222565   2.099   0.412   0.714
 7534TIP3    H122566   2.136   0.363   0.641
 7534TIP3    H222567   2.064   0.344   0.773
 7535TIP3   OH222568   0.756   2.237   3.097
 7535TIP3    H122569   0.751   2.148   3.133
 7535TIP3    H222570   0.681   2.243   3.037
 7536TIP3   OH222571   2.641   4.176   4.654
 7536TIP3    H122572   2.685   4.098   4.619
 7536TIP3    H222573   2.688   4.250   4.615
 7537TIP3   OH222574   2.711   5.864   3.741
 7537TIP3    H122575   2.743   5.787   3.789
 7537TIP3    H222576   2.787   5.895   3.692
 7538TIP3   OH222577   1.811   2.953   2.656
 7538TIP3    H122578   1.881   2.891   2.673
 7538TIP3    H222579   1.749   2.905   2.600
 7539TIP3   OH222580   3.388   6.807   4.589
 7539TIP3    H122581   3.469   6.757   4.598
 7539TIP3    H222582   3.405   6.868   4.517
 7540TIP3   OH222583   5.817   3.293   3.538
 7540TIP3    H122584   5.859   3.290   3.452
 7540TIP3    H222585   5.731   3.253   3.524
 7541TIP3   OH222586   6.821   0.361   0.428
 7541TIP3    H122587   6.791   0.295   0.490
 7541TIP3    H222588   6.873   0.313   0.364
 7542TIP3   OH222589   1.061   3.502   4.904
 7542TIP3    H122590   1.028   3.434   4.962
 7542TIP3    H222591   1.118   3.456   4.841
 7543TIP3   OH222592   1.374   4.088   2.257
 7543TIP3    H122593   1.333   4.107   2.342
 7543TIP3    H222594   1.463   4.063   2.279
 7544TIP3   OH222595   3.985   0.981   1.665
 7544TIP3    H122596   3.925   0.919   1.622
 7544TIP3    H222597   4.032   0.927   1.729
 7545TIP3   OH222598   4.624   6.319   5.691
 7545TIP3    H122599   4.710   6.284   5.666
 7545TIP3    H222600   4.563   6.247   5.673
 7546TIP3   OH222601   4.736   5.930   2.259
 7546TIP3    H122602   4.701   5.879   2.186
 7546TIP3    H222603   4.797   5.991   2.218
 7547TIP3   OH222604   0.700   6.674   1.229
 7547TIP3    H122605   0.706   6.769   1.240
 7547TIP3    H222606   0.709   6.661   1.134
 7548TIP3   OH222607   2.155   1.634   5.245
 7548TIP3    H122608   2.154   1.592   5.158
 7548TIP3    H222609   2.223   1.586   5.293
 7549TIP3   OH222610   7.121   1.316   0.894
 7549TIP3    H122611   7.034   1.327   0.931
 7549TIP3    H222612   7.178   1.366   0.953
 7550TIP3   OH222613   3.989   1.155   4.205
 7550TIP3    H122614   3.924   1.125   4.268
 7550TIP3    H222615   3.938   1.194   4.134
 7551TIP3   OH222616   0.017   0.822   0.449
 7551TIP3    H122617   0.039   0.860   0.364
 7551TIP3    H222618   0.045   0.731   0.442
 7552TIP3   OH222619   3.602   1.273   4.117
 7552TIP3    H122620   3.639   1.196   4.074
 7552TIP3    H222621   3.665   1.295   4.186
 7553TIP3   OH222622   0.802   2.241   2.746
 7553TIP3    H122623   0.712   2.234   2.777
 7553TIP3    H222624   0.838   2.153   2.752
 7554TIP3   OH222625   7.074   3.034   0.695
 7554TIP3    H122626   7.006   2.968   0.709
 7554TIP3    H222627   7.063   3.061   0.604
 7555TIP3   OH222628   2.180   6.034   1.696
 7555TIP3    H122629   2.211   6.014   1.608
 7555TIP3    H222630   2.095   6.076   1.683
 7556TIP3   OH222631   0.385   0.812   1.912
 7556TIP3    H122632   0.470   0.853   1.926
 7556TIP3    H222633   0.406   0.721   1.891
 7557TIP3   OH222634   1.438   1.680   5.379
 7557TIP3    H122635   1.348   1.684   5.412
 7557TIP3    H222636   1.481   1.613   5.432
 7558TIP3   OH222637   0.706   1.888   0.671
 7558TIP3    H122638   0.656   1.817   0.630
 7558TIP3    H222639   0.723   1.949   0.600
 7559TIP3   OH222640   4.998   5.434   0.935
 7559TIP3    H122641   4.903   5.426   0.947
 7559TIP3    H222642   5.009   5.514   0.883
 7560TIP3   OH222643   6.579   1.336   5.761
 7560TIP3    H122644   6.577   1.299   5.849
 7560TIP3    H222645   6.649   1.401   5.765
 7561TIP3   OH222646   2.545   0.582   4.313
 7561TIP3    H122647   2.611   0.636   4.356
 7561TIP3    H222648   2.470   0.640   4.301
 7562TIP3   OH222649   2.982   3.764   4.896
 7562TIP3    H122650   2.956   3.781   4.806
 7562TIP3    H222651   2.917   3.809   4.950
 7563TIP3   OH222652   2.638   3.970   4.879
 7563TIP3    H122653   2.687   4.018   4.812
 7563TIP3    H222654   2.564   3.931   4.833
 7564TIP3   OH222655   3.232   5.823   0.488
 7564TIP3    H122656   3.137   5.839   0.484
 7564TIP3    H222657   3.272   5.904   0.459
 7565TIP3   OH222658   3.849   2.069   3.443
 7565TIP3    H122659   3.828   1.980   3.414
 7565TIP3    H222660   3.897   2.108   3.370
 7566TIP3   OH222661   3.032   4.517   1.228
 7566TIP3    H122662   3.096   4.584   1.202
 7566TIP3    H222663   3.085   4.442   1.254
 7567TIP3   OH222664   6.760   3.390   4.724
 7567TIP3    H122665   6.681   3.388   4.779
 7567TIP3    H222666   6.831   3.411   4.785
 7568TIP3   OH222667   6.757   0.199   3.863
 7568TIP3    H122668   6.677   0.169   3.905
 7568TIP3    H222669   6.732   0.281   3.820
 7569TIP3   OH222670   0.336   5.892   0.381
 7569TIP3    H122671   0.290   5.952   0.439
 7569TIP3    H222672   0.298   5.907   0.295
 7570TIP3   OH222673   6.400   0.117   5.831
 7570TIP3    H122674   6.355   0.063   5.766
 7570TIP3    H222675   6.370   0.083   5.915
 7571TIP3   OH222676   2.304   0.740   0.441
 7571TIP3    H122677   2.251   0.712   0.515
 7571TIP3    H222678   2.268   0.692   0.366
 7572TIP3   OH222679   1.707   5.117   1.453
 7572TIP3    H122680   1.770   5.187   1.435
 7572TIP3    H222681   1.741   5.073   1.530
 7573TIP3   OH222682   4.244   3.663   4.203
 7573TIP3    H122683   4.287   3.579   4.186
 7573TIP3    H222684   4.305   3.711   4.259
 7574TIP3   OH222685   0.542   3.657   5.503
 7574TIP3    H122686   0.584   3.595   5.563
 7574TIP3    H222687   0.606   3.668   5.433
 7575TIP3   OH222688   3.604   0.234   4.125
 7575TIP3    H122689   3.631   0.218   4.216
 7575TIP3    H222690   3.678   0.204   4.073
 7576TIP3   OH222691   1.611   5.235   5.825
 7576TIP3    H122692   1.680   5.253   5.888
 7576TIP3    H222693   1.644   5.163   5.772
 7577TIP3   OH222694   5.947   5.384   2.654
 7577TIP3    H122695   5.928   5.318   2.589
 7577TIP3    H222696   6.042   5.380   2.665
 7578TIP3   OH222697   5.635   2.674   1.208
 7578TIP3    H122698   5.556   2.621   1.218
 7578TIP3    H222699   5.685   2.658   1.288
 7579TIP3   OH222700   0.126   4.805   5.312
 7579TIP3    H122701   0.152   4.881   5.364
 7579TIP3    H222702   0.176   4.813   5.231
 7580TIP3   OH222703   6.843   2.674   2.931
 7580TIP3    H122704   6.808   2.763   2.936
 7580TIP3    H222705   6.865   2.653   3.022
 7581TIP3   OH222706   0.261   5.600   2.853
 7581TIP3    H122707   0.196   5.666   2.828
 7581TIP3    H222708   0.228   5.565   2.936
 7582TIP3   OH222709   3.359   2.047   4.359
 7582TIP3    H122710   3.343   1.985   4.430
 7582TIP3    H222711   3.272   2.072   4.328
 7583TIP3   OH222712   6.367   3.781   3.993
 7583TIP3    H122713   6.343   3.689   3.982
 7583TIP3    H222714   6.458   3.785   3.964
 7584TIP3   OH222715   7.142   0.197   3.504
 7584TIP3    H122716   7.146   0.180   3.598
 7584TIP3    H222717   7.055   0.165   3.478
 7585TIP3   OH222718   1.103   6.082   2.435
 7585TIP3    H122719   1.022   6.080   2.487
 7585TIP3    H222720   1.153   6.007   2.468
 7586TIP3   OH222721   6.280   2.734   0.514
 7586TIP3    H122722   6.233   2.650   0.514
 7586TIP3    H222723   6.260   2.772   0.600
 7587TIP3   OH222724   5.306   0.506   1.330
 7587TIP3    H122725   5.379   0.468   1.379
 7587TIP3    H222726   5.235   0.442   1.340
 7588TIP3   OH222727   4.350   4.420   3.446
 7588TIP3    H122728   4.346   4.367   3.367
 7588TIP3    H222729   4.258   4.438   3.467
 7589TIP3   OH222730   6.456   2.667   5.671
 7589TIP3    H122731   6.542   2.625   5.669
 7589TIP3    H222732   6.475   2.761   5.680
 7590TIP3   OH222733   7.010   6.733   5.166
 7590TIP3    H122734   7.030   6.788   5.241
 7590TIP3    H222735   6.958   6.661   5.201
 7591TIP3   OH222736   2.874  -0.010   3.399
 7591TIP3    H122737   2.837   0.018   3.316
 7591TIP3    H222738   2.909   0.069   3.439
 7592TIP3   OH222739   6.634   0.568   2.059
 7592TIP3    H122740   6.728   0.559   2.078
 7592TIP3    H222741   6.623   0.662   2.042
 7593TIP3   OH222742   3.099   0.420   3.175
 7593TIP3    H122743   3.035   0.490   3.179
 7593TIP3    H222744   3.174   0.458   3.129
 7594TIP3   OH222745   6.228   5.358   2.375
 7594TIP3    H122746   6.283   5.387   2.302
 7594TIP3    H222747   6.224   5.263   2.366
 7595TIP3   OH222748   4.054   3.894   1.847
 7595TIP3    H122749   4.070   3.927   1.935
 7595TIP3    H222750   3.968   3.853   1.852
 7596TIP3   OH222751   5.243   4.354   1.970
 7596TIP3    H122752   5.263   4.289   2.037
 7596TIP3    H222753   5.314   4.418   1.977
 7597TIP3   OH222754   5.165   5.543   1.337
 7597TIP3    H122755   5.226   5.561   1.409
 7597TIP3    H222756   5.081   5.527   1.380
 7598TIP3   OH222757   6.858   0.820   3.102
 7598TIP3    H122758   6.883   0.728   3.101
 7598TIP3    H222759   6.799   0.830   3.027
 7599TIP3   OH222760   2.222   4.439   5.360
 7599TIP3    H122761   2.249   4.353   5.392
 7599TIP3    H222762   2.237   4.435   5.266
 7600TIP3   OH222763   2.335   6.398   3.312
 7600TIP3    H122764   2.359   6.489   3.295
 7600TIP3    H222765   2.333   6.391   3.407
 7601TIP3   OH222766   0.613   6.058   2.325
 7601TIP3    H122767   0.617   6.153   2.312
 7601TIP3    H222768   0.601   6.047   2.419
 7602TIP3   OH222769   5.174   1.733   3.095
 7602TIP3    H122770   5.087   1.772   3.087
 7602TIP3    H222771   5.228   1.782   3.034
 7603TIP3   OH222772   6.083   3.567   4.659
 7603TIP3    H122773   6.167   3.591   4.700
 7603TIP3    H222774   6.041   3.651   4.640
 7604TIP3   OH222775   3.483   5.596   3.117
 7604TIP3    H122776   3.410   5.634   3.165
 7604TIP3    H222777   3.443   5.528   3.063
 7605TIP3   OH222778   6.360   4.835   2.970
 7605TIP3    H122779   6.321   4.768   3.027
 7605TIP3    H222780   6.399   4.898   3.030
 7606TIP3   OH222781   1.158   5.266   1.424
 7606TIP3    H122782   1.170   5.360   1.434
 7606TIP3    H222783   1.114   5.238   1.504
 7607TIP3   OH222784   4.860   3.416   5.339
 7607TIP3    H122785   4.892   3.506   5.345
 7607TIP3    H222786   4.940   3.363   5.337
 7608TIP3   OH222787   4.093   2.192   0.320
 7608TIP3    H122788   4.039   2.233   0.253
 7608TIP3    H222789   4.167   2.154   0.271
 7609TIP3   OH222790   1.957   2.263   1.836
 7609TIP3    H122791   1.960   2.254   1.932
 7609TIP3    H222792   1.914   2.183   1.806
 7610TIP3   OH222793   6.562   4.983   1.092
 7610TIP3    H122794   6.571   4.934   1.011
 7610TIP3    H222795   6.537   5.071   1.064
 7611TIP3   OH222796   0.575   0.429   2.592
 7611TIP3    H122797   0.515   0.359   2.569
 7611TIP3    H222798   0.527   0.509   2.573
 7612TIP3   OH222799   3.731   6.680   3.314
 7612TIP3    H122800   3.805   6.718   3.267
 7612TIP3    H222801   3.739   6.714   3.403
 7613TIP3   OH222802   2.599   6.582   1.249
 7613TIP3    H122803   2.605   6.670   1.211
 7613TIP3    H222804   2.514   6.582   1.294
 7614TIP3   OH222805   2.978   5.978   5.635
 7614TIP3    H122806   3.023   5.938   5.709
 7614TIP3    H222807   2.999   6.071   5.641
 7615TIP3   OH222808   6.748   5.430   5.014
 7615TIP3    H122809   6.672   5.391   4.971
 7615TIP3    H222810   6.710   5.494   5.075
 7616TIP3   OH222811   1.094   6.323   0.893
 7616TIP3    H122812   1.057   6.249   0.941
 7616TIP3    H222813   1.158   6.361   0.953
 7617TIP3   OH222814   6.237   4.076   1.529
 7617TIP3    H122815   6.247   4.055   1.622
 7617TIP3    H222816   6.312   4.034   1.487
 7618TIP3   OH222817   0.299   1.529   1.145
 7618TIP3    H122818   0.308   1.614   1.102
 7618TIP3    H222819   0.289   1.467   1.073
 7619TIP3   OH222820   3.389   3.700   1.855
 7619TIP3    H122821   3.415   3.780   1.901
 7619TIP3    H222822   3.373   3.728   1.765
 7620TIP3   OH222823   4.075   3.420   5.470
 7620TIP3    H122824   4.002   3.421   5.408
 7620TIP3    H222825   4.083   3.511   5.498
 7621TIP3   OH222826   5.928   3.454   2.508
 7621TIP3    H122827   5.991   3.520   2.538
 7621TIP3    H222828   5.962   3.426   2.423
 7622TIP3   OH222829   6.223   2.379   0.841
 7622TIP3    H122830   6.165   2.369   0.916
 7622TIP3    H222831   6.215   2.296   0.793
 7623TIP3   OH222832   2.458   3.344   3.747
 7623TIP3    H122833   2.480   3.395   3.670
 7623TIP3    H222834   2.463   3.253   3.718
 7624TIP3   OH222835   1.627   0.873   4.093
 7624TIP3    H122836   1.621   0.874   4.189
 7624TIP3    H222837   1.720   0.862   4.075
 7625TIP3   OH222838   1.487   0.413   2.551
 7625TIP3    H122839   1.528   0.498   2.536
 7625TIP3    H222840   1.514   0.360   2.476
 7626TIP3   OH222841   5.175   1.088   5.783
 7626TIP3    H122842   5.206   0.998   5.777
 7626TIP3    H222843   5.082   1.084   5.762
 7627TIP3   OH222844   1.291   5.820   5.228
 7627TIP3    H122845   1.371   5.767   5.217
 7627TIP3    H222846   1.243   5.775   5.298
 7628TIP3   OH222847   2.395   6.178   2.365
 7628TIP3    H122848   2.336   6.252   2.358
 7628TIP3    H222849   2.356   6.122   2.432
 7629TIP3   OH222850   3.757   6.461   4.944
 7629TIP3    H122851   3.796   6.510   5.016
 7629TIP3    H222852   3.744   6.373   4.979
 7630TIP3   OH222853   1.542   1.573   4.433
 7630TIP3    H122854   1.514   1.509   4.498
 7630TIP3    H222855   1.627   1.541   4.402
 7631TIP3   OH222856   0.991   3.089   5.255
 7631TIP3    H122857   1.027   3.027   5.191
 7631TIP3    H222858   1.031   3.173   5.231
 7632TIP3   OH222859   3.893   1.785   4.316
 7632TIP3    H122860   3.862   1.856   4.259
 7632TIP3    H222861   3.981   1.812   4.343
 7633TIP3   OH222862   6.299   5.071   1.370
 7633TIP3    H122863   6.374   5.022   1.404
 7633TIP3    H222864   6.307   5.066   1.275
 7634TIP3   OH222865   4.143   3.743   0.311
 7634TIP3    H122866   4.138   3.682   0.385
 7634TIP3    H222867   4.198   3.815   0.343
 7635TIP3   OH222868   1.984   6.507   0.572
 7635TIP3    H122869   1.911   6.446   0.582
 7635TIP3    H222870   2.032   6.474   0.496
 7636TIP3   OH222871   6.823   0.654   5.218
 7636TIP3    H122872   6.819   0.749   5.234
 7636TIP3    H222873   6.891   0.623   5.277
 7637TIP3   OH222874   0.687   6.089   5.334
 7637TIP3    H122875   0.770   6.089   5.287
 7637TIP3    H222876   0.622   6.065   5.268
 7638TIP3   OH222877   2.526   6.062   5.544
 7638TIP3    H122878   2.502   6.138   5.491
 7638TIP3    H222879   2.503   5.987   5.490
 7639TIP3   OH222880   3.901   2.705   1.758
 7639TIP3    H122881   3.869   2.702   1.668
 7639TIP3    H222882   3.916   2.797   1.775
 7640TIP3   OH222883   0.062   6.827   4.922
 7640TIP3    H122884  -0.023   6.829   4.880
 7640TIP3    H222885   0.061   6.746   4.974
 7641TIP3   OH222886   2.955   1.061   1.506
 7641TIP3    H122887   2.928   1.005   1.433
 7641TIP3    H222888   3.040   1.095   1.480
 7642TIP3   OH222889   0.864   5.404   5.261
 7642TIP3    H122890   0.820   5.476   5.305
 7642TIP3    H222891   0.834   5.409   5.170
 7643TIP3   OH222892   1.025   4.544   3.083
 7643TIP3    H122893   1.044   4.622   3.135
 7643TIP3    H222894   1.092   4.544   3.015
 7644TIP3   OH222895   1.427   5.918   0.993
 7644TIP3    H122896   1.445   5.997   1.044
 7644TIP3    H222897   1.359   5.873   1.041
 7645TIP3   OH222898   1.850   4.564   4.032
 7645TIP3    H122899   1.926   4.559   3.974
 7645TIP3    H222900   1.810   4.477   4.026
 7646TIP3   OH222901   7.020   6.128   1.464
 7646TIP3    H122902   7.014   6.124   1.559
 7646TIP3    H222903   7.104   6.170   1.446
 7647TIP3   OH222904   4.048   4.988   3.869
 7647TIP3    H122905   3.956   4.977   3.845
 7647TIP3    H222906   4.045   5.032   3.954
 7648TIP3   OH222907   6.032   6.186   1.585
 7648TIP3    H122908   6.124   6.212   1.581
 7648TIP3    H222909   6.024   6.133   1.664
 7649TIP3   OH222910   3.021   6.124   3.764
 7649TIP3    H122911   3.002   6.041   3.721
 7649TIP3    H222912   2.942   6.176   3.752
 7650TIP3   OH222913   5.357   5.180   1.023
 7650TIP3    H122914   5.314   5.213   0.945
 7650TIP3    H222915   5.313   5.224   1.096
 7651TIP3   OH222916   4.473   5.551   2.981
 7651TIP3    H122917   4.497   5.553   2.889
 7651TIP3    H222918   4.553   5.572   3.028
 7652TIP3   OH222919   4.656   3.260   4.619
 7652TIP3    H122920   4.726   3.313   4.657
 7652TIP3    H222921   4.700   3.182   4.586
 7653TIP3   OH222922   7.133   1.781   5.195
 7653TIP3    H122923   7.185   1.771   5.274
 7653TIP3    H222924   7.061   1.840   5.221
 7654TIP3   OH222925   1.129   1.760   3.664
 7654TIP3    H122926   1.098   1.826   3.727
 7654TIP3    H222927   1.052   1.706   3.646
 7655TIP3   OH222928   0.687   0.538   2.865
 7655TIP3    H122929   0.664   0.513   2.954
 7655TIP3    H222930   0.607   0.523   2.814
 7656TIP3   OH222931   5.384   6.684   2.171
 7656TIP3    H122932   5.459   6.738   2.197
 7656TIP3    H222933   5.351   6.649   2.253
 7657TIP3   OH222934   4.539   6.480   4.382
 7657TIP3    H122935   4.612   6.530   4.418
 7657TIP3    H222936   4.540   6.501   4.289
 7658TIP3   OH222937   3.892   3.135   5.225
 7658TIP3    H122938   3.957   3.084   5.274
 7658TIP3    H222939   3.918   3.126   5.134
 7659TIP3   OH222940   4.126   0.377   4.967
 7659TIP3    H122941   4.120   0.308   5.034
 7659TIP3    H222942   4.218   0.403   4.968
 7660TIP3   OH222943   5.583   0.856   2.721
 7660TIP3    H122944   5.536   0.861   2.638
 7660TIP3    H222945   5.671   0.827   2.698
 7661TIP3   OH222946   5.174   6.055   2.917
 7661TIP3    H122947   5.166   5.977   2.863
 7661TIP3    H222948   5.156   6.128   2.857
 7662TIP3   OH222949   1.164   0.017   0.629
 7662TIP3    H122950   1.176   0.021   0.724
 7662TIP3    H222951   1.247  -0.018   0.596
 7663TIP3   OH222952   2.173   6.283   0.893
 7663TIP3    H122953   2.226   6.234   0.956
 7663TIP3    H222954   2.138   6.356   0.943
 7664TIP3   OH222955   4.234   0.851   0.388
 7664TIP3    H122956   4.219   0.932   0.436
 7664TIP3    H222957   4.171   0.789   0.424
 7665TIP3   OH222958   6.287   0.383   1.510
 7665TIP3    H122959   6.259   0.367   1.601
 7665TIP3    H222960   6.208   0.410   1.465
 7666TIP3   OH222961   2.007   5.229   1.080
 7666TIP3    H122962   1.947   5.207   1.152
 7666TIP3    H222963   2.074   5.283   1.121
 7667TIP3   OH222964   4.055   3.464   2.684
 7667TIP3    H122965   4.029   3.468   2.776
 7667TIP3    H222966   4.099   3.379   2.675
 7668TIP3   OH222967   4.782   3.789   3.480
 7668TIP3    H122968   4.821   3.876   3.490
 7668TIP3    H222969   4.737   3.773   3.563
 7669TIP3   OH222970   5.342   1.560   5.674
 7669TIP3    H122971   5.416   1.619   5.687
 7669TIP3    H222972   5.319   1.571   5.582
 7670TIP3   OH222973   0.638   1.547   0.760
 7670TIP3    H122974   0.591   1.606   0.701
 7670TIP3    H222975   0.698   1.605   0.807
 7671TIP3   OH222976   4.846   4.347   0.476
 7671TIP3    H122977   4.817   4.366   0.386
 7671TIP3    H222978   4.804   4.414   0.530
 7672TIP3   OH222979   0.035   2.017   0.132
 7672TIP3    H122980   0.039   2.078   0.058
 7672TIP3    H222981   0.082   1.939   0.102
 7673TIP3   OH222982   3.569   4.168   2.013
 7673TIP3    H122983   3.522   4.205   2.088
 7673TIP3    H222984   3.556   4.230   1.942
 7674TIP3   OH222985   4.542   2.227   5.319
 7674TIP3    H122986   4.484   2.206   5.393
 7674TIP3    H222987   4.612   2.278   5.358
 7675TIP3   OH222988   6.458   2.167   2.441
 7675TIP3    H122989   6.420   2.078   2.442
 7675TIP3    H222990   6.546   2.156   2.475
 7676TIP3   OH222991   6.995   1.897   1.643
 7676TIP3    H122992   6.972   1.957   1.713
 7676TIP3    H222993   6.981   1.948   1.562
 7677TIP3   OH222994   2.940   1.548   4.655
 7677TIP3    H122995   2.874   1.609   4.620
 7677TIP3    H222996   3.001   1.535   4.583
 7678TIP3   OH222997   4.477   3.967   2.303
 7678TIP3    H122998   4.493   3.893   2.361
 7678TIP3    H222999   4.508   4.043   2.353
 7679TIP3   OH223000   0.104   1.791   1.953
 7679TIP3    H123001   0.027   1.843   1.976
 7679TIP3    H223002   0.093   1.709   2.001
 7680TIP3   OH223003   5.969   4.816   2.643
 7680TIP3    H123004   6.046   4.776   2.684
 7680TIP3    H223005   5.954   4.896   2.694
 7681TIP3   OH223006   0.275   2.676   3.122
 7681TIP3    H123007   0.268   2.766   3.091
 7681TIP3    H223008   0.368   2.662   3.136
 7682TIP3   OH223009   0.517   3.862   0.381
 7682TIP3    H123010   0.515   3.798   0.453
 7682TIP3    H223011   0.478   3.941   0.418
 7683TIP3   OH223012   6.664   5.737   5.532
 7683TIP3    H123013   6.644   5.664   5.592
 7683TIP3    H223014   6.579   5.762   5.497
 7684TIP3   OH223015   4.606   6.771   0.414
 7684TIP3    H123016   4.520   6.736   0.391
 7684TIP3    H223017   4.607   6.860   0.379
 7685TIP3   OH223018   0.800   2.993   1.972
 7685TIP3    H123019   0.760   3.075   1.944
 7685TIP3    H223020   0.869   3.019   2.032
 7686TIP3   OH223021   2.024   3.849   1.303
 7686TIP3    H123022   2.075   3.858   1.222
 7686TIP3    H223023   1.974   3.768   1.290
 7687TIP3   OH223024   3.304   1.613   5.681
 7687TIP3    H123025   3.258   1.551   5.737
 7687TIP3    H223026   3.254   1.613   5.599
 7688TIP3   OH223027   5.565   6.637   4.476
 7688TIP3    H123028   5.505   6.613   4.406
 7688TIP3    H223029   5.583   6.730   4.462
 7689TIP3   OH223030   1.651   4.127   0.706
 7689TIP3    H123031   1.586   4.061   0.681
 7689TIP3    H223032   1.693   4.091   0.784
 7690TIP3   OH223033   6.302   0.052   0.304
 7690TIP3    H123034   6.215   0.032   0.268
 7690TIP3    H223035   6.336   0.120   0.246
 7691TIP3   OH223036   2.668   3.598   1.112
 7691TIP3    H123037   2.579   3.562   1.117
 7691TIP3    H223038   2.685   3.609   1.019
 7692TIP3   OH223039   0.426   1.533   1.904
 7692TIP3    H123040   0.392   1.615   1.868
 7692TIP3    H223041   0.359   1.468   1.885
 7693TIP3   OH223042   0.636   5.416   2.033
 7693TIP3    H123043   0.655   5.372   2.116
 7693TIP3    H223044   0.682   5.499   2.038
 7694TIP3   OH223045   2.894   6.209   0.959
 7694TIP3    H123046   2.855   6.239   1.041
 7694TIP3    H223047   2.910   6.116   0.972
 7695TIP3   OH223048   1.142   1.045   4.721
 7695TIP3    H123049   1.171   1.128   4.758
 7695TIP3    H223050   1.049   1.059   4.701
 7696TIP3   OH223051   5.620   3.455   0.225
 7696TIP3    H123052   5.569   3.529   0.256
 7696TIP3    H223053   5.555   3.387   0.206
 7697TIP3   OH223054   3.398   3.395   3.189
 7697TIP3    H123055   3.453   3.341   3.246
 7697TIP3    H223056   3.460   3.433   3.127
 7698TIP3   OH223057   7.055   5.271   5.300
 7698TIP3    H123058   7.085   5.275   5.209
 7698TIP3    H223059   6.983   5.207   5.298
 7699TIP3   OH223060   3.861   0.137   3.253
 7699TIP3    H123061   3.871   0.120   3.159
 7699TIP3    H223062   3.945   0.174   3.280
 7700TIP3   OH223063   1.617   5.963   3.571
 7700TIP3    H123064   1.652   5.887   3.524
 7700TIP3    H223065   1.560   5.926   3.637
 7701TIP3   OH223066   3.165   3.945   5.070
 7701TIP3    H123067   3.137   3.857   5.045
 7701TIP3    H223068   3.086   3.986   5.105
 7702TIP3   OH223069   0.289   4.497   4.433
 7702TIP3    H123070   0.357   4.505   4.366
 7702TIP3    H223071   0.332   4.452   4.506
 7703TIP3   OH223072   5.023   0.583   0.865
 7703TIP3    H123073   4.996   0.551   0.951
 7703TIP3    H223074   5.105   0.630   0.882
 7704TIP3   OH223075   7.079   2.205   2.284
 7704TIP3    H123076   7.125   2.270   2.336
 7704TIP3    H223077   7.139   2.186   2.211
 7705TIP3   OH223078   0.399   2.377   4.519
 7705TIP3    H123079   0.319   2.331   4.545
 7705TIP3    H223080   0.369   2.465   4.495
 7706TIP3   OH223081   5.024   0.657   4.753
 7706TIP3    H123082   5.104   0.690   4.794
 7706TIP3    H223083   4.987   0.597   4.817
 7707TIP3   OH223084   3.647   1.710   5.296
 7707TIP3    H123085   3.734   1.750   5.293
 7707TIP3    H223086   3.599   1.753   5.225
 7708TIP3   OH223087   2.616   1.583   3.808
 7708TIP3    H123088   2.680   1.521   3.841
 7708TIP3    H223089   2.541   1.529   3.783
 7709TIP3   OH223090   1.710   5.543   3.696
 7709TIP3    H123091   1.721   5.490   3.616
 7709TIP3    H223092   1.771   5.504   3.759
 7710TIP3   OH223093   3.507   2.591   5.849
 7710TIP3    H123094   3.467   2.514   5.890
 7710TIP3    H223095   3.543   2.559   5.767
 7711TIP3   OH223096   1.621   5.798   2.585
 7711TIP3    H123097   1.573   5.729   2.630
 7711TIP3    H223098   1.661   5.849   2.655
 7712TIP3   OH223099   5.009   4.753   2.119
 7712TIP3    H123100   5.022   4.684   2.185
 7712TIP3    H223101   4.924   4.733   2.080
 7713TIP3   OH223102   4.016   1.590   1.409
 7713TIP3    H123103   4.040   1.645   1.483
 7713TIP3    H223104   3.978   1.511   1.448
 7714TIP3   OH223105   5.543   2.144   5.561
 7714TIP3    H123106   5.524   2.060   5.518
 7714TIP3    H223107   5.471   2.201   5.534
 7715TIP3   OH223108   0.127   2.194   5.163
 7715TIP3    H123109   0.054   2.141   5.132
 7715TIP3    H223110   0.187   2.132   5.204
 7716TIP3   OH223111   3.722   1.554   1.249
 7716TIP3    H123112   3.791   1.611   1.215
 7716TIP3    H223113   3.765   1.499   1.315
 7717TIP3   OH223114   0.815   6.440   5.584
 7717TIP3    H123115   0.877   6.367   5.575
 7717TIP3    H223116   0.729   6.399   5.577
 7718TIP3   OH223117   3.087   3.745   2.384
 7718TIP3    H123118   3.036   3.683   2.332
 7718TIP3    H223119   3.096   3.704   2.470
 7719TIP3   OH223120   3.065   2.010   0.634
 7719TIP3    H123121   3.053   1.937   0.573
 7719TIP3    H223122   2.976   2.032   0.663
 7720TIP3   OH223123   4.620   3.882   3.959
 7720TIP3    H123124   4.646   3.860   3.869
 7720TIP3    H223125   4.560   3.955   3.949
 7721TIP3   OH223126   3.257   0.568   5.125
 7721TIP3    H123127   3.223   0.559   5.213
 7721TIP3    H223128   3.349   0.594   5.137
 7722TIP3   OH223129   2.642   1.364   1.866
 7722TIP3    H123130   2.620   1.457   1.866
 7722TIP3    H223131   2.563   1.320   1.895
 7723TIP3   OH223132   3.203   6.357   4.747
 7723TIP3    H123133   3.130   6.329   4.803
 7723TIP3    H223134   3.271   6.383   4.809
 7724TIP3   OH223135   1.232   2.833   3.256
 7724TIP3    H123136   1.253   2.781   3.179
 7724TIP3    H223137   1.186   2.909   3.222
 7725TIP3   OH223138   5.621   1.912   3.669
 7725TIP3    H123139   5.676   1.850   3.717
 7725TIP3    H223140   5.674   1.939   3.594
 7726TIP3   OH223141   4.453   1.937   0.715
 7726TIP3    H123142   4.500   1.970   0.791
 7726TIP3    H223143   4.361   1.959   0.732
 7727TIP3   OH223144   4.940   1.029   4.869
 7727TIP3    H123145   4.900   1.048   4.784
 7727TIP3    H223146   5.002   0.958   4.852
 7728TIP3   OH223147   6.483   2.268   5.411
 7728TIP3    H123148   6.519   2.180   5.401
 7728TIP3    H223149   6.542   2.324   5.360
 7729TIP3   OH223150   1.448   4.442   5.122
 7729TIP3    H123151   1.409   4.448   5.035
 7729TIP3    H223152   1.398   4.503   5.176
 7730TIP3   OH223153   1.366   0.718   0.446
 7730TIP3    H123154   1.308   0.753   0.378
 7730TIP3    H223155   1.401   0.795   0.491
 7731TIP3   OH223156   4.562   4.589   3.408
 7731TIP3    H123157   4.495   4.524   3.431
 7731TIP3    H223158   4.552   4.658   3.474
 7732TIP3   OH223159   6.051   0.971   0.056
 7732TIP3    H123160   6.038   1.049   0.110
 7732TIP3    H223161   6.104   0.913   0.111
 7733TIP3   OH223162   5.663   3.615   4.716
 7733TIP3    H123163   5.714   3.612   4.797
 7733TIP3    H223164   5.728   3.618   4.646
 7734TIP3   OH223165   5.082   1.013   1.712
 7734TIP3    H123166   5.142   1.080   1.681
 7734TIP3    H223167   5.086   0.944   1.646
 7735TIP3   OH223168   7.029   4.134   1.299
 7735TIP3    H123169   7.084   4.056   1.307
 7735TIP3    H223170   7.091   4.205   1.279
 7736TIP3   OH223171   7.035   4.629   3.084
 7736TIP3    H123172   7.062   4.717   3.112
 7736TIP3    H223173   7.095   4.570   3.129
 7737TIP3   OH223174   1.437   4.168   1.100
 7737TIP3    H123175   1.373   4.233   1.131
 7737TIP3    H223176   1.516   4.219   1.080
 7738TIP3   OH223177   6.937   2.128   1.458
 7738TIP3    H123178   6.957   2.218   1.433
 7738TIP3    H223179   6.853   2.110   1.416
 7739TIP3   OH223180   0.118   5.501   3.891
 7739TIP3    H123181   0.037   5.464   3.857
 7739TIP3    H223182   0.178   5.426   3.896
 7740TIP3   OH223183   2.188   4.320   3.625
 7740TIP3    H123184   2.126   4.279   3.686
 7740TIP3    H223185   2.133   4.362   3.559
 7741TIP3   OH223186   3.919   6.138   2.132
 7741TIP3    H123187   3.999   6.125   2.081
 7741TIP3    H223188   3.949   6.176   2.215
 7742TIP3   OH223189   1.348   2.487   5.502
 7742TIP3    H123190   1.324   2.541   5.426
 7742TIP3    H223191   1.425   2.530   5.538
 7743TIP3   OH223192   4.233   4.109   2.319
 7743TIP3    H123193   4.308   4.050   2.312
 7743TIP3    H223194   4.233   4.137   2.410
 7744TIP3   OH223195   6.103   4.862   2.386
 7744TIP3    H123196   6.148   4.943   2.409
 7744TIP3    H223197   6.043   4.846   2.459
 7745TIP3   OH223198   4.516   0.821   4.696
 7745TIP3    H123199   4.421   0.816   4.698
 7745TIP3    H223200   4.542   0.754   4.632
 7746TIP3   OH223201   0.001   4.143   0.141
 7746TIP3    H123202   0.031   4.121   0.229
 7746TIP3    H223203   0.082   4.160   0.092
 7747TIP3   OH223204   5.874   1.762   2.960
 7747TIP3    H123205   5.786   1.797   2.950
 7747TIP3    H223206   5.898   1.782   3.051
 7748TIP3   OH223207   1.590   4.535   1.379
 7748TIP3    H123208   1.496   4.528   1.361
 7748TIP3    H223209   1.619   4.444   1.386
 7749TIP3   OH223210   5.853   0.838   2.616
 7749TIP3    H123211   5.894   0.751   2.616
 7749TIP3    H223212   5.870   0.872   2.704
 7750TIP3   OH223213   4.106   4.103   2.840
 7750TIP3    H123214   4.076   4.175   2.895
 7750TIP3    H223215   4.187   4.074   2.881
 7751TIP3   OH223216   4.915   6.650   4.012
 7751TIP3    H123217   4.958   6.655   4.097
 7751TIP3    H223218   4.986   6.664   3.949
 7752TIP3   OH223219   3.832   3.601   4.371
 7752TIP3    H123220   3.864   3.538   4.436
 7752TIP3    H223221   3.897   3.597   4.301
 7753TIP3   OH223222   5.750   0.402   3.592
 7753TIP3    H123223   5.780   0.375   3.505
 7753TIP3    H223224   5.796   0.343   3.652
 7754TIP3   OH223225   5.961   3.109   2.356
 7754TIP3    H123226   5.932   3.185   2.305
 7754TIP3    H223227   6.047   3.134   2.389
 7755TIP3   OH223228   3.876   0.922   0.273
 7755TIP3    H123229   3.822   0.984   0.322
 7755TIP3    H223230   3.919   0.870   0.341
 7756TIP3   OH223231   2.867   5.051   2.043
 7756TIP3    H123232   2.863   4.962   2.077
 7756TIP3    H223233   2.830   5.044   1.955
 7757TIP3   OH223234   3.260   5.165   1.026
 7757TIP3    H123235   3.208   5.207   0.957
 7757TIP3    H223236   3.314   5.101   0.979
 7758TIP3   OH223237   4.776   6.637   2.292
 7758TIP3    H123238   4.814   6.580   2.225
 7758TIP3    H223239   4.840   6.636   2.363
 7759TIP3   OH223240   0.077   0.886   4.096
 7759TIP3    H123241  -0.013   0.920   4.096
 7759TIP3    H223242   0.132   0.963   4.081
 7760TIP3   OH223243   5.555   1.816   1.192
 7760TIP3    H123244   5.554   1.720   1.188
 7760TIP3    H223245   5.567   1.836   1.285
 7761TIP3   OH223246   2.730   2.109   4.921
 7761TIP3    H123247   2.750   2.017   4.904
 7761TIP3    H223248   2.704   2.143   4.835
 7762TIP3   OH223249   4.010   0.904   5.063
 7762TIP3    H123250   4.086   0.949   5.098
 7762TIP3    H223251   3.937   0.933   5.117
 7763TIP3   OH223252   3.900   5.754   3.774
 7763TIP3    H123253   3.852   5.673   3.756
 7763TIP3    H223254   3.841   5.824   3.749
 7764TIP3   OH223255   5.483   1.200   1.656
 7764TIP3    H123256   5.395   1.207   1.694
 7764TIP3    H223257   5.505   1.107   1.662
 7765TIP3   OH223258   5.152   6.400   5.795
 7765TIP3    H123259   5.196   6.374   5.876
 7765TIP3    H223260   5.076   6.451   5.824
 7766TIP3   OH223261   1.832   3.878   0.513
 7766TIP3    H123262   1.771   3.863   0.584
 7766TIP3    H223263   1.817   3.805   0.452
 7767TIP3   OH223264   5.517   2.022   4.164
 7767TIP3    H123265   5.552   2.110   4.150
 7767TIP3    H223266   5.425   2.035   4.184
 7768TIP3   OH223267   3.128   4.254   5.615
 7768TIP3    H123268   3.086   4.285   5.535
 7768TIP3    H223269   3.091   4.310   5.684
 7769TIP3   OH223270   3.921   5.819   0.613
 7769TIP3    H123271   3.969   5.893   0.577
 7769TIP3    H223272   3.984   5.747   0.614
 7770TIP3   OH223273   0.810   5.032   3.370
 7770TIP3    H123274   0.753   5.103   3.341
 7770TIP3    H223275   0.799   5.029   3.465
 7771TIP3   OH223276   2.160   5.699   2.686
 7771TIP3    H123277   2.254   5.685   2.678
 7771TIP3    H223278   2.145   5.711   2.779
 7772TIP3   OH223279   4.954   5.005   5.477
 7772TIP3    H123280   5.009   5.010   5.555
 7772TIP3    H223281   4.962   5.091   5.436
 7773TIP3   OH223282   0.488   4.163   2.174
 7773TIP3    H123283   0.513   4.085   2.222
 7773TIP3    H223284   0.442   4.217   2.237
 7774TIP3   OH223285   1.487   3.192   4.862
 7774TIP3    H123286   1.479   3.270   4.807
 7774TIP3    H223287   1.440   3.214   4.943
 7775TIP3   OH223288   3.730   1.291   4.350
 7775TIP3    H123289   3.749   1.210   4.398
 7775TIP3    H223290   3.734   1.359   4.417
 7776TIP3   OH223291   2.571   0.917   3.438
 7776TIP3    H123292   2.549   0.993   3.384
 7776TIP3    H223293   2.633   0.867   3.387
 7777TIP3   OH223294   0.056   6.729   3.927
 7777TIP3    H123295   0.007   6.777   3.994
 7777TIP3    H223296   0.043   6.779   3.847
 7778TIP3   OH223297   1.944   6.052   5.077
 7778TIP3    H123298   2.033   6.084   5.061
 7778TIP3    H223299   1.892   6.090   5.006
 7779TIP3   OH223300   1.764   6.517   4.341
 7779TIP3    H123301   1.819   6.555   4.410
 7779TIP3    H223302   1.729   6.437   4.380
 7780TIP3   OH223303   1.679   2.239   1.461
 7780TIP3    H123304   1.592   2.271   1.485
 7780TIP3    H223305   1.735   2.262   1.535
 7781TIP3   OH223306   6.272   6.328   2.638
 7781TIP3    H123307   6.337   6.387   2.678
 7781TIP3    H223308   6.301   6.241   2.663
 7782TIP3   OH223309   0.180   6.296   4.837
 7782TIP3    H123310   0.151   6.213   4.875
 7782TIP3    H223311   0.192   6.277   4.744
 7783TIP3   OH223312   3.041   1.715   3.354
 7783TIP3    H123313   2.951   1.722   3.321
 7783TIP3    H223314   3.090   1.679   3.280
 7784TIP3   OH223315   5.199   5.992   3.723
 7784TIP3    H123316   5.267   5.926   3.735
 7784TIP3    H223317   5.134   5.950   3.667
 7785TIP3   OH223318   5.955   0.389   4.974
 7785TIP3    H123319   6.028   0.328   4.983
 7785TIP3    H223320   5.927   0.379   4.883
 7786TIP3   OH223321   4.247   5.515   5.745
 7786TIP3    H123322   4.304   5.469   5.807
 7786TIP3    H223323   4.168   5.533   5.795
 7787TIP3   OH223324   1.387   3.877   3.324
 7787TIP3    H123325   1.340   3.865   3.241
 7787TIP3    H223326   1.332   3.937   3.374
 7788TIP3   OH223327   5.922   6.575   4.908
 7788TIP3    H123328   5.995   6.634   4.889
 7788TIP3    H223329   5.907   6.529   4.826
 7789TIP3   OH223330   5.428   5.862   2.303
 7789TIP3    H123331   5.398   5.924   2.237
 7789TIP3    H223332   5.355   5.855   2.365
 7790TIP3   OH223333   5.627   2.296   4.225
 7790TIP3    H123334   5.534   2.316   4.215
 7790TIP3    H223335   5.660   2.366   4.282
 7791TIP3   OH223336   3.377   4.755   0.129
 7791TIP3    H123337   3.442   4.710   0.075
 7791TIP3    H223338   3.394   4.723   0.218
 7792TIP3   OH223339   1.140   4.955   1.183
 7792TIP3    H123340   1.179   4.939   1.269
 7792TIP3    H223341   1.215   4.973   1.126
 7793TIP3   OH223342   5.449   0.095   3.842
 7793TIP3    H123343   5.501   0.138   3.774
 7793TIP3    H223344   5.512   0.040   3.889
 7794TIP3   OH223345   0.798   3.253   0.282
 7794TIP3    H123346   0.813   3.336   0.238
 7794TIP3    H223347   0.742   3.203   0.222
 7795TIP3   OH223348   4.531   4.521   0.234
 7795TIP3    H123349   4.540   4.471   0.315
 7795TIP3    H223350   4.444   4.497   0.201
 7796TIP3   OH223351   0.580   0.874   3.207
 7796TIP3    H123352   0.600   0.912   3.292
 7796TIP3    H223353   0.521   0.801   3.226
 7797TIP3   OH223354   4.164   5.800   5.645
 7797TIP3    H123355   4.208   5.792   5.560
 7797TIP3    H223356   4.077   5.834   5.624
 7798TIP3   OH223357   6.897   3.882   2.592
 7798TIP3    H123358   6.938   3.960   2.628
 7798TIP3    H223359   6.854   3.912   2.511
 7799TIP3   OH223360   6.703   4.395   5.234
 7799TIP3    H123361   6.745   4.365   5.154
 7799TIP3    H223362   6.774   4.404   5.297
 7800TIP3   OH223363   5.072   6.533   3.403
 7800TIP3    H123364   5.081   6.457   3.460
 7800TIP3    H223365   5.005   6.587   3.445
 7801TIP3   OH223366   6.290   1.511   5.302
 7801TIP3    H123367   6.288   1.597   5.261
 7801TIP3    H223368   6.378   1.477   5.283
 7802TIP3   OH223369   0.806   3.449   3.434
 7802TIP3    H123370   0.848   3.500   3.503
 7802TIP3    H223371   0.878   3.420   3.378
 7803TIP3   OH223372   7.154   0.227   1.857
 7803TIP3    H123373   7.237   0.179   1.865
 7803TIP3    H223374   7.125   0.209   1.767
 7804TIP3   OH223375   6.792   4.158   0.983
 7804TIP3    H123376   6.815   4.095   0.915
 7804TIP3    H223377   6.733   4.109   1.041
 7805TIP3   OH223378   4.048   3.873   3.481
 7805TIP3    H123379   4.001   3.824   3.413
 7805TIP3    H223380   4.027   3.828   3.563
 7806TIP3   OH223381   2.372   5.879   3.224
 7806TIP3    H123382   2.458   5.888   3.182
 7806TIP3    H223383   2.310   5.874   3.152
 7807TIP3   OH223384   0.633   0.940   1.990
 7807TIP3    H123385   0.694   0.960   2.061
 7807TIP3    H223386   0.688   0.900   1.922
 7808TIP3   OH223387   3.554   3.407   5.423
 7808TIP3    H123388   3.510   3.391   5.506
 7808TIP3    H223389   3.511   3.485   5.388
 7809TIP3   OH223390   2.484   3.216   3.301
 7809TIP3    H123391   2.393   3.189   3.296
 7809TIP3    H223392   2.527   3.146   3.351
 7810TIP3   OH223393   6.948   4.778   5.011
 7810TIP3    H123394   6.957   4.866   4.974
 7810TIP3    H223395   6.984   4.786   5.099
 7811TIP3   OH223396   0.830   6.104   3.608
 7811TIP3    H123397   0.841   6.194   3.577
 7811TIP3    H223398   0.917   6.065   3.601
 7812TIP3   OH223399   4.024   2.957   5.414
 7812TIP3    H123400   4.020   2.898   5.489
 7812TIP3    H223401   4.028   3.045   5.453
 7813TIP3   OH223402   2.617   1.243   3.078
 7813TIP3    H123403   2.689   1.302   3.099
 7813TIP3    H223404   2.657   1.176   3.022
 7814TIP3   OH223405   6.153   1.684   5.616
 7814TIP3    H123406   6.158   1.596   5.580
 7814TIP3    H223407   6.157   1.741   5.540
 7815TIP3   OH223408   6.727   0.746   0.802
 7815TIP3    H123409   6.655   0.690   0.773
 7815TIP3    H223410   6.701   0.834   0.774
 7816TIP3   OH223411   6.354   3.065   5.792
 7816TIP3    H123412   6.294   3.137   5.809
 7816TIP3    H223413   6.298   2.988   5.785
 7817TIP3   OH223414   1.216   5.768   3.459
 7817TIP3    H123415   1.210   5.682   3.419
 7817TIP3    H223416   1.300   5.803   3.428
 7818TIP3   OH223417   0.512   5.103   1.631
 7818TIP3    H123418   0.591   5.056   1.604
 7818TIP3    H223419   0.489   5.065   1.715
 7819TIP3   OH223420   1.615   3.220   0.878
 7819TIP3    H123421   1.535   3.174   0.853
 7819TIP3    H223422   1.649   3.256   0.796
 7820TIP3   OH223423   4.869   4.921   4.582
 7820TIP3    H123424   4.851   4.982   4.653
 7820TIP3    H223425   4.784   4.899   4.546
 7821TIP3   OH223426   7.092   1.604   2.904
 7821TIP3    H123427   7.158   1.612   2.972
 7821TIP3    H223428   7.010   1.590   2.951
 7822TIP3   OH223429   0.803   2.396   5.566
 7822TIP3    H123430   0.845   2.312   5.585
 7822TIP3    H223431   0.870   2.446   5.520
 7823TIP3   OH223432   5.227   2.944   0.410
 7823TIP3    H123433   5.143   2.900   0.425
 7823TIP3    H223434   5.246   2.987   0.493
 7824TIP3   OH223435   5.784   5.302   5.294
 7824TIP3    H123436   5.874   5.335   5.288
 7824TIP3    H223437   5.755   5.327   5.381
 7825TIP3   OH223438   0.086   1.292   4.458
 7825TIP3    H123439   0.149   1.343   4.407
 7825TIP3    H223440   0.051   1.354   4.522
 7826TIP3   OH223441   4.976   3.409   1.057
 7826TIP3    H123442   5.059   3.377   1.022
 7826TIP3    H223443   4.991   3.417   1.151
 7827TIP3   OH223444   0.454   4.461   0.739
 7827TIP3    H123445   0.500   4.526   0.793
 7827TIP3    H223446   0.382   4.430   0.794
 7828TIP3   OH223447   0.822   3.069   3.251
 7828TIP3    H123448   0.735   3.107   3.237
 7828TIP3    H223449   0.827   2.996   3.189
 7829TIP3   OH223450   0.391   0.248   2.500
 7829TIP3    H123451   0.315   0.306   2.504
 7829TIP3    H223452   0.355   0.159   2.501
 7830TIP3   OH223453   2.363   3.633   1.448
 7830TIP3    H123454   2.286   3.652   1.501
 7830TIP3    H223455   2.425   3.593   1.509
 7831TIP3   OH223456   0.432   6.324   2.147
 7831TIP3    H123457   0.408   6.355   2.234
 7831TIP3    H223458   0.380   6.245   2.135
 7832TIP3   OH223459   5.597   5.448   4.236
 7832TIP3    H123460   5.652   5.512   4.283
 7832TIP3    H223461   5.595   5.480   4.146
 7833TIP3   OH223462   5.774   6.517   5.271
 7833TIP3    H123463   5.833   6.578   5.315
 7833TIP3    H223464   5.701   6.505   5.332
 7834TIP3   OH223465   0.636   1.400   3.224
 7834TIP3    H123466   0.725   1.419   3.254
 7834TIP3    H223467   0.583   1.473   3.256
 7835TIP3   OH223468   3.909   2.574   5.412
 7835TIP3    H123469   3.848   2.648   5.412
 7835TIP3    H223470   3.977   2.599   5.475
 7836TIP3   OH223471   5.323   2.809   0.811
 7836TIP3    H123472   5.383   2.884   0.815
 7836TIP3    H223473   5.300   2.792   0.902
 7837TIP3   OH223474   4.871   2.322   0.944
 7837TIP3    H123475   4.804   2.336   1.011
 7837TIP3    H223476   4.824   2.332   0.861
 7838TIP3   OH223477   3.722   6.337   3.582
 7838TIP3    H123478   3.688   6.262   3.533
 7838TIP3    H223479   3.705   6.412   3.524
 7839TIP3   OH223480   2.024   4.092   4.267
 7839TIP3    H123481   1.945   4.096   4.321
 7839TIP3    H223482   2.042   4.184   4.244
 7840TIP3   OH223483   4.511   3.249   0.825
 7840TIP3    H123484   4.452   3.318   0.853
 7840TIP3    H223485   4.598   3.277   0.855
 7841TIP3   OH223486   2.981   1.152   4.388
 7841TIP3    H123487   3.022   1.069   4.363
 7841TIP3    H223488   2.888   1.131   4.395
 7842TIP3   OH223489   7.160   4.888   5.564
 7842TIP3    H123490   7.117   4.970   5.589
 7842TIP3    H223491   7.104   4.850   5.497
 7843TIP3   OH223492   7.007   6.030   4.724
 7843TIP3    H123493   7.061   5.973   4.670
 7843TIP3    H223494   6.997   6.110   4.672
 7844TIP3   OH223495   4.534   3.525   4.857
 7844TIP3    H123496   4.468   3.570   4.805
 7844TIP3    H223497   4.534   3.571   4.941
 7845TIP3   OH223498   4.707   3.262   2.459
 7845TIP3    H123499   4.753   3.194   2.507
 7845TIP3    H223500   4.665   3.216   2.386
 7846TIP3   OH223501   1.414   5.471   2.985
 7846TIP3    H123502   1.367   5.409   3.042
 7846TIP3    H223503   1.503   5.436   2.979
 7847TIP3   OH223504   5.271   5.167   0.390
 7847TIP3    H123505   5.212   5.234   0.427
 7847TIP3    H223506   5.359   5.203   0.405
 7848TIP3   OH223507   3.185   3.358   4.561
 7848TIP3    H123508   3.095   3.390   4.570
 7848TIP3    H223509   3.211   3.334   4.649
 7849TIP3   OH223510   3.935   6.342   1.896
 7849TIP3    H123511   4.018   6.321   1.939
 7849TIP3    H223512   3.915   6.264   1.844
 7850TIP3   OH223513   5.266   5.328   0.063
 7850TIP3    H123514   5.254   5.302   0.154
 7850TIP3    H223515   5.198   5.393   0.047
 7851TIP3   OH223516   5.456   5.862   1.309
 7851TIP3    H123517   5.531   5.921   1.298
 7851TIP3    H223518   5.446   5.853   1.403
 7852TIP3   OH223519   1.868   0.413   2.696
 7852TIP3    H123520   1.919   0.492   2.710
 7852TIP3    H223521   1.819   0.429   2.615
 7853TIP3   OH223522   1.523   4.794   2.102
 7853TIP3    H123523   1.473   4.786   2.184
 7853TIP3    H223524   1.518   4.887   2.080
 7854TIP3   OH223525   0.601   1.867   2.448
 7854TIP3    H123526   0.592   1.959   2.423
 7854TIP3    H223527   0.693   1.847   2.429
 7855TIP3   OH223528   4.331   6.688   5.292
 7855TIP3    H123529   4.396   6.690   5.363
 7855TIP3    H223530   4.334   6.776   5.255
 7856TIP3   OH223531   6.577   2.464   5.184
 7856TIP3    H123532   6.625   2.532   5.138
 7856TIP3    H223533   6.485   2.479   5.162
 7857TIP3   OH223534   6.735   6.676   5.044
 7857TIP3    H123535   6.697   6.760   5.016
 7857TIP3    H223536   6.827   6.695   5.059
 7858TIP3   OH223537   0.978   5.010   1.713
 7858TIP3    H123538   0.979   5.105   1.707
 7858TIP3    H223539   1.029   4.991   1.792
 7859TIP3   OH223540   2.915   3.416   4.617
 7859TIP3    H123541   2.878   3.449   4.699
 7859TIP3    H223542   2.862   3.338   4.597
 7860TIP3   OH223543   3.180   6.747   4.248
 7860TIP3    H123544   3.248   6.690   4.283
 7860TIP3    H223545   3.114   6.750   4.316
 7861TIP3   OH223546   6.761   2.946   2.854
 7861TIP3    H123547   6.751   3.017   2.791
 7861TIP3    H223548   6.672   2.928   2.883
 7862TIP3   OH223549   6.760   2.067   2.807
 7862TIP3    H123550   6.696   2.092   2.873
 7862TIP3    H223551   6.729   1.983   2.774
 7863TIP3   OH223552   0.756   6.158   3.112
 7863TIP3    H123553   0.844   6.187   3.137
 7863TIP3    H223554   0.741   6.079   3.164
 7864TIP3   OH223555   5.861   1.759   4.238
 7864TIP3    H123556   5.956   1.754   4.249
 7864TIP3    H223557   5.828   1.677   4.275
 7865TIP3   OH223558   5.848   3.016   5.740
 7865TIP3    H123559   5.867   3.044   5.650
 7865TIP3    H223560   5.832   2.922   5.733
 7866TIP3   OH223561   1.088   4.693   0.071
 7866TIP3    H123562   1.087   4.786   0.050
 7866TIP3    H223563   1.180   4.675   0.093
 7867TIP3   OH223564   5.194   1.485   3.453
 7867TIP3    H123565   5.103   1.494   3.424
 7867TIP3    H223566   5.245   1.491   3.372
 7868TIP3   OH223567   3.357   1.273   3.054
 7868TIP3    H123568   3.276   1.283   3.104
 7868TIP3    H223569   3.419   1.333   3.096
 7869TIP3   OH223570   2.132   0.178   3.978
 7869TIP3    H123571   2.049   0.131   3.979
 7869TIP3    H223572   2.180   0.141   3.904
 7870TIP3   OH223573   4.480   0.739   1.428
 7870TIP3    H123574   4.486   0.816   1.373
 7870TIP3    H223575   4.397   0.698   1.402
 7871TIP3   OH223576   2.319   0.769   4.243
 7871TIP3    H123577   2.261   0.733   4.175
 7871TIP3    H223578   2.261   0.794   4.314
 7872TIP3   OH223579   4.495   1.830   3.490
 7872TIP3    H123580   4.549   1.894   3.537
 7872TIP3    H223581   4.431   1.800   3.555
 7873TIP3   OH223582   5.443   3.638   0.307
 7873TIP3    H123583   5.413   3.704   0.246
 7873TIP3    H223584   5.424   3.674   0.394
 7874TIP3   OH223585   2.051   1.173   0.630
 7874TIP3    H123586   2.135   1.139   0.661
 7874TIP3    H223587   1.991   1.158   0.703
 7875TIP3   OH223588   0.049   3.025   4.208
 7875TIP3    H123589   0.034   2.959   4.276
 7875TIP3    H223590   0.134   3.001   4.170
 7876TIP3   OH223591   5.463   3.987   2.105
 7876TIP3    H123592   5.379   4.031   2.119
 7876TIP3    H223593   5.496   4.025   2.024
 7877TIP3   OH223594   4.802   1.481   5.806
 7877TIP3    H123595   4.783   1.561   5.854
 7877TIP3    H223596   4.793   1.506   5.714
 7878TIP3   OH223597   6.012   1.373   5.084
 7878TIP3    H123598   5.965   1.352   5.165
 7878TIP3    H223599   5.981   1.309   5.020
 7879TIP3   OH223600   3.912   1.397   2.067
 7879TIP3    H123601   3.862   1.318   2.047
 7879TIP3    H223602   3.954   1.378   2.151
 7880TIP3   OH223603   1.707   3.198   5.340
 7880TIP3    H123604   1.687   3.262   5.273
 7880TIP3    H223605   1.627   3.190   5.392
 7881TIP3   OH223606   5.656   6.265   4.528
 7881TIP3    H123607   5.731   6.298   4.478
 7881TIP3    H223608   5.629   6.339   4.582
 7882TIP3   OH223609   1.023   1.737   4.349
 7882TIP3    H123610   0.945   1.789   4.334
 7882TIP3    H223611   1.045   1.752   4.441
 7883TIP3   OH223612   1.635   1.582   2.643
 7883TIP3    H123613   1.700   1.523   2.603
 7883TIP3    H223614   1.599   1.631   2.569
 7884TIP3   OH223615   2.211   2.501   3.247
 7884TIP3    H123616   2.131   2.460   3.214
 7884TIP3    H223617   2.282   2.453   3.204
 7885TIP3   OH223618   4.137   6.353   3.461
 7885TIP3    H123619   4.123   6.388   3.373
 7885TIP3    H223620   4.186   6.272   3.446
 7886TIP3   OH223621   1.166   2.851   2.179
 7886TIP3    H123622   1.073   2.847   2.157
 7886TIP3    H223623   1.205   2.777   2.132
 7887TIP3   OH223624   3.358   6.382   2.570
 7887TIP3    H123625   3.307   6.458   2.597
 7887TIP3    H223626   3.296   6.309   2.576
 7888TIP3   OH223627   2.211   4.868   4.875
 7888TIP3    H123628   2.279   4.933   4.892
 7888TIP3    H223629   2.132   4.905   4.914
 7889TIP3   OH223630   6.194   3.009   5.269
 7889TIP3    H123631   6.173   3.087   5.217
 7889TIP3    H223632   6.143   2.939   5.229
 7890TIP3   OH223633   5.908   1.654   5.027
 7890TIP3    H123634   5.813   1.661   5.022
 7890TIP3    H223635   5.930   1.686   5.114
 7891TIP3   OH223636   3.470   5.669   3.522
 7891TIP3    H123637   3.517   5.689   3.441
 7891TIP3    H223638   3.519   5.714   3.591
 7892TIP3   OH223639   4.590   2.711   5.206
 7892TIP3    H123640   4.557   2.622   5.220
 7892TIP3    H223641   4.521   2.767   5.241
 7893TIP3   OH223642   2.814   3.076   2.855
 7893TIP3    H123643   2.881   3.025   2.810
 7893TIP3    H223644   2.854   3.161   2.869
 7894TIP3   OH223645   4.336   3.918   2.656
 7894TIP3    H123646   4.263   3.887   2.602
 7894TIP3    H223647   4.405   3.853   2.643
 7895TIP3   OH223648   5.116   3.941   1.579
 7895TIP3    H123649   5.087   4.012   1.636
 7895TIP3    H223650   5.202   3.969   1.548
 7896TIP3   OH223651   0.445   0.613   3.218
 7896TIP3    H123652   0.391   0.554   3.271
 7896TIP3    H223653   0.531   0.570   3.215
 7897TIP3   OH223654   7.195   4.583   4.988
 7897TIP3    H123655   7.192   4.527   5.065
 7897TIP3    H223656   7.107   4.577   4.951
 7898TIP3   OH223657   4.640   5.553   2.744
 7898TIP3    H123658   4.605   5.511   2.666
 7898TIP3    H223659   4.607   5.642   2.741
 7899TIP3   OH223660   2.527   2.063   4.069
 7899TIP3    H123661   2.553   1.979   4.030
 7899TIP3    H223662   2.518   2.122   3.994
 7900TIP3   OH223663   4.289   0.364   5.739
 7900TIP3    H123664   4.310   0.395   5.652
 7900TIP3    H223665   4.200   0.394   5.755
 7901TIP3   OH223666   5.575   3.561   1.361
 7901TIP3    H123667   5.564   3.466   1.363
 7901TIP3    H223668   5.642   3.576   1.295
 7902TIP3   OH223669   2.323   6.002   4.408
 7902TIP3    H123670   2.261   5.929   4.410
 7902TIP3    H223671   2.386   5.977   4.341
 7903TIP3   OH223672   0.970   0.243   5.570
 7903TIP3    H123673   0.875   0.243   5.584
 7903TIP3    H223674   0.992   0.336   5.557
 7904TIP3   OH223675   5.222   3.454   4.043
 7904TIP3    H123676   5.130   3.452   4.015
 7904TIP3    H223677   5.247   3.361   4.046
 7905TIP3   OH223678   5.412   3.468   4.266
 7905TIP3    H123679   5.364   3.512   4.336
 7905TIP3    H223680   5.352   3.469   4.192
 7906TIP3   OH223681   6.734   5.267   1.079
 7906TIP3    H123682   6.679   5.259   1.001
 7906TIP3    H223683   6.785   5.186   1.081
 7907TIP3   OH223684   5.914   2.323   1.698
 7907TIP3    H123685   5.975   2.372   1.754
 7907TIP3    H223686   5.857   2.277   1.759
 7908TIP3   OH223687   3.777   3.283   3.078
 7908TIP3    H123688   3.800   3.190   3.066
 7908TIP3    H223689   3.713   3.301   3.009
 7909TIP3   OH223690   2.973   5.153   2.864
 7909TIP3    H123691   2.914   5.134   2.791
 7909TIP3    H223692   3.055   5.181   2.823
 7910TIP3   OH223693   7.036   1.126   2.495
 7910TIP3    H123694   7.053   1.068   2.569
 7910TIP3    H223695   6.980   1.073   2.437
 7911TIP3   OH223696   5.783   1.464   4.339
 7911TIP3    H123697   5.732   1.461   4.421
 7911TIP3    H223698   5.797   1.372   4.317
 7912TIP3   OH223699   2.761   2.422   0.236
 7912TIP3    H123700   2.813   2.378   0.168
 7912TIP3    H223701   2.697   2.356   0.263
 7913TIP3   OH223702   1.908   4.897   0.758
 7913TIP3    H123703   1.913   4.986   0.793
 7913TIP3    H223704   1.966   4.897   0.682
 7914TIP3   OH223705   3.115   3.210   3.818
 7914TIP3    H123706   3.116   3.226   3.913
 7914TIP3    H223707   3.024   3.225   3.792
 7915TIP3   OH223708   0.243   4.992   2.774
 7915TIP3    H123709   0.201   5.035   2.699
 7915TIP3    H223710   0.335   4.987   2.750
 7916TIP3   OH223711   4.874   0.567   3.594
 7916TIP3    H123712   4.917   0.509   3.657
 7916TIP3    H223713   4.910   0.654   3.612
 7917TIP3   OH223714   1.398   3.296   1.911
 7917TIP3    H123715   1.327   3.296   1.847
 7917TIP3    H223716   1.374   3.229   1.975
 7918TIP3   OH223717   0.960   3.015   2.407
 7918TIP3    H123718   0.979   2.932   2.451
 7918TIP3    H223719   0.899   3.059   2.466
 7919TIP3   OH223720   4.249   2.794   2.703
 7919TIP3    H123721   4.161   2.820   2.676
 7919TIP3    H223722   4.235   2.721   2.764
 7920TIP3   OH223723   5.842   3.058   0.564
 7920TIP3    H123724   5.774   3.020   0.508
 7920TIP3    H223725   5.904   2.987   0.578
 7921TIP3   OH223726   2.913   1.374   5.128
 7921TIP3    H123727   2.829   1.363   5.084
 7921TIP3    H223728   2.945   1.459   5.098
 7922TIP3   OH223729   4.851   3.514   1.614
 7922TIP3    H123730   4.863   3.485   1.524
 7922TIP3    H223731   4.831   3.607   1.608
 7923TIP3   OH223732   2.350   1.414   0.964
 7923TIP3    H123733   2.369   1.501   0.930
 7923TIP3    H223734   2.284   1.429   1.032
 7924TIP3   OH223735   7.017   4.970   3.626
 7924TIP3    H123736   7.004   5.050   3.576
 7924TIP3    H223737   6.993   4.993   3.716
 7925TIP3   OH223738   2.909   0.609   3.158
 7925TIP3    H123739   2.910   0.654   3.073
 7925TIP3    H223740   2.817   0.612   3.185
 7926TIP3   OH223741   2.550   3.146   0.066
 7926TIP3    H123742   2.482   3.197   0.022
 7926TIP3    H223743   2.510   3.119   0.148
 7927TIP3   OH223744   6.612   1.239   2.548
 7927TIP3    H123745   6.557   1.263   2.473
 7927TIP3    H223746   6.692   1.204   2.509
 7928TIP3   OH223747   1.910   4.593   0.726
 7928TIP3    H123748   1.888   4.650   0.800
 7928TIP3    H223749   2.003   4.608   0.710
 7929TIP3   OH223750   6.453   1.880   0.403
 7929TIP3    H123751   6.435   1.944   0.333
 7929TIP3    H223752   6.505   1.929   0.467
 7930TIP3   OH223753   3.748   3.670   3.864
 7930TIP3    H123754   3.714   3.617   3.937
 7930TIP3    H223755   3.780   3.606   3.801
 7931TIP3   OH223756   0.166   2.405   2.088
 7931TIP3    H123757   0.222   2.363   2.023
 7931TIP3    H223758   0.175   2.499   2.071
 7932TIP3   OH223759   4.911   2.535   2.896
 7932TIP3    H123760   4.841   2.528   2.962
 7932TIP3    H223761   4.989   2.502   2.941
 7933TIP3   OH223762   6.792   3.595   3.148
 7933TIP3    H123763   6.752   3.589   3.234
 7933TIP3    H223764   6.773   3.684   3.119
 7934TIP3   OH223765   3.926   5.894   5.554
 7934TIP3    H123766   3.940   5.904   5.460
 7934TIP3    H223767   3.951   5.978   5.591
 7935TIP3   OH223768   4.848   0.823   1.553
 7935TIP3    H123769   4.866   0.821   1.647
 7935TIP3    H223770   4.931   0.846   1.513
 7936TIP3   OH223771   2.237   1.866   5.602
 7936TIP3    H123772   2.317   1.883   5.652
 7936TIP3    H223773   2.267   1.832   5.518
 7937TIP3   OH223774   0.602   3.628   0.812
 7937TIP3    H123775   0.560   3.699   0.762
 7937TIP3    H223776   0.625   3.563   0.746
 7938TIP3   OH223777   6.910   6.072   2.248
 7938TIP3    H123778   6.868   6.080   2.334
 7938TIP3    H223779   6.887   6.153   2.203
 7939TIP3   OH223780   3.933   4.170   2.393
 7939TIP3    H123781   3.999   4.237   2.379
 7939TIP3    H223782   3.981   4.088   2.396
 7940TIP3   OH223783   4.621   4.497   1.709
 7940TIP3    H123784   4.699   4.534   1.668
 7940TIP3    H223785   4.654   4.432   1.770
 7941TIP3   OH223786   4.452   4.023   1.288
 7941TIP3    H123787   4.365   3.985   1.278
 7941TIP3    H223788   4.499   3.962   1.345
 7942TIP3   OH223789   5.103   3.680   1.288
 7942TIP3    H123790   5.056   3.762   1.305
 7942TIP3    H223791   5.041   3.612   1.315
 7943TIP3   OH223792   1.682   5.242   1.121
 7943TIP3    H123793   1.706   5.158   1.161
 7943TIP3    H223794   1.707   5.308   1.186
 7944TIP3   OH223795   3.335   6.628   1.987
 7944TIP3    H123796   3.424   6.618   2.022
 7944TIP3    H223797   3.318   6.547   1.939
 7945TIP3   OH223798   0.126   0.500   3.945
 7945TIP3    H123799   0.183   0.550   3.887
 7945TIP3    H223800   0.166   0.509   4.031
 7946TIP3   OH223801   3.909   4.687   2.027
 7946TIP3    H123802   3.905   4.672   1.933
 7946TIP3    H223803   3.818   4.689   2.056
 7947TIP3   OH223804   3.469   3.906   2.019
 7947TIP3    H123805   3.484   4.001   2.019
 7947TIP3    H223806   3.512   3.875   2.099
 7948TIP3   OH223807   7.113   5.721   5.818
 7948TIP3    H123808   7.089   5.736   5.727
 7948TIP3    H223809   7.111   5.625   5.827
 7949TIP3   OH223810   2.959   1.021   3.284
 7949TIP3    H123811   2.907   0.965   3.227
 7949TIP3    H223812   2.974   0.969   3.362
 7950TIP3   OH223813   5.181   2.356   2.406
 7950TIP3    H123814   5.094   2.396   2.400
 7950TIP3    H223815   5.163   2.262   2.413
 7951TIP3   OH223816   4.893   3.309   5.027
 7951TIP3    H123817   4.878   3.372   5.097
 7951TIP3    H223818   4.983   3.327   4.998
 7952TIP3   OH223819   1.139   5.418   3.855
 7952TIP3    H123820   1.175   5.505   3.872
 7952TIP3    H223821   1.096   5.393   3.936
 7953TIP3   OH223822   6.604   4.797   3.754
 7953TIP3    H123823   6.527   4.740   3.740
 7953TIP3    H223824   6.573   4.885   3.733
 7954TIP3   OH223825   3.024   0.983   4.100
 7954TIP3    H123826   3.056   0.946   4.182
 7954TIP3    H223827   3.043   1.076   4.105
 7955TIP3   OH223828   1.946   6.362   1.647
 7955TIP3    H123829   1.874   6.373   1.709
 7955TIP3    H223830   2.024   6.386   1.698
 7956TIP3   OH223831   6.268   3.228   2.095
 7956TIP3    H123832   6.283   3.262   2.006
 7956TIP3    H223833   6.291   3.300   2.153
 7957TIP3   OH223834   4.345   5.094   4.278
 7957TIP3    H123835   4.428   5.126   4.313
 7957TIP3    H223836   4.297   5.172   4.252
 7958TIP3   OH223837   6.624   5.525   0.646
 7958TIP3    H123838   6.607   5.619   0.645
 7958TIP3    H223839   6.541   5.486   0.672
 7959TIP3   OH223840   2.515   5.647   4.063
 7959TIP3    H123841   2.513   5.722   4.123
 7959TIP3    H223842   2.607   5.640   4.036
 7960TIP3   OH223843   3.883   3.216   1.295
 7960TIP3    H123844   3.844   3.162   1.364
 7960TIP3    H223845   3.927   3.154   1.237
 7961TIP3   OH223846   6.648   5.236   0.810
 7961TIP3    H123847   6.676   5.198   0.726
 7961TIP3    H223848   6.584   5.302   0.786
 7962TIP3   OH223849   1.647   5.550   5.847
 7962TIP3    H123850   1.664   5.555   5.941
 7962TIP3    H223851   1.565   5.502   5.839
 7963TIP3   OH223852   4.478   3.680   1.771
 7963TIP3    H123853   4.475   3.591   1.806
 7963TIP3    H223854   4.442   3.735   1.840
 7964TIP3   OH223855   0.789   2.347   0.644
 7964TIP3    H123856   0.737   2.414   0.598
 7964TIP3    H223857   0.852   2.398   0.696
 7965TIP3   OH223858   6.964   0.727   0.669
 7965TIP3    H123859   6.900   0.691   0.608
 7965TIP3    H223860   6.912   0.763   0.741
 7966TIP3   OH223861   2.097   6.136   5.630
 7966TIP3    H123862   2.163   6.206   5.637
 7966TIP3    H223863   2.026   6.164   5.687
 7967TIP3   OH223864   0.980   0.514   0.554
 7967TIP3    H123865   1.022   0.600   0.563
 7967TIP3    H223866   0.888   0.530   0.577
 7968TIP3   OH223867   3.892   2.111   0.624
 7968TIP3    H123868   3.949   2.188   0.629
 7968TIP3    H223869   3.806   2.146   0.601
 7969TIP3   OH223870   5.197   0.872   0.687
 7969TIP3    H123871   5.137   0.931   0.734
 7969TIP3    H223872   5.143   0.833   0.618
 7970TIP3   OH223873   1.876   1.027   4.777
 7970TIP3    H123874   1.870   1.110   4.824
 7970TIP3    H223875   1.951   1.038   4.718
 7971TIP3   OH223876   4.089   4.366   3.427
 7971TIP3    H123877   4.030   4.297   3.457
 7971TIP3    H223878   4.152   4.322   3.371
 7972TIP3   OH223879   4.521   0.313   3.451
 7972TIP3    H123880   4.553   0.403   3.448
 7972TIP3    H223881   4.512   0.288   3.359
 7973TIP3   OH223882   5.136   0.351   5.043
 7973TIP3    H123883   5.217   0.354   4.992
 7973TIP3    H223884   5.163   0.371   5.133
 7974TIP3   OH223885   2.291   4.482   0.863
 7974TIP3    H123886   2.199   4.462   0.841
 7974TIP3    H223887   2.310   4.425   0.938
 7975TIP3   OH223888   5.752   6.491   4.648
 7975TIP3    H123889   5.834   6.534   4.623
 7975TIP3    H223890   5.684   6.549   4.615
 7976TIP3   OH223891   4.347   3.430   5.768
 7976TIP3    H123892   4.322   3.346   5.730
 7976TIP3    H223893   4.436   3.445   5.736
 7977TIP3   OH223894   1.333   4.463   2.636
 7977TIP3    H123895   1.306   4.434   2.549
 7977TIP3    H223896   1.424   4.435   2.643
 7978TIP3   OH223897   0.660   2.715   3.376
 7978TIP3    H123898   0.751   2.686   3.363
 7978TIP3    H223899   0.652   2.722   3.471
 7979TIP3   OH223900   6.715   6.615   5.527
 7979TIP3    H123901   6.756   6.554   5.589
 7979TIP3    H223902   6.755   6.699   5.546
 7980TIP3   OH223903   3.828   1.947   0.063
 7980TIP3    H123904   3.745   1.961   0.016
 7980TIP3    H223905   3.818   1.996   0.144
 7981TIP3   OH223906   3.754   0.498   0.199
 7981TIP3    H123907   3.714   0.514   0.284
 7981TIP3    H223908   3.723   0.570   0.144
 7982TIP3   OH223909   5.505   0.312   0.997
 7982TIP3    H123910   5.573   0.281   0.938
 7982TIP3    H223911   5.489   0.402   0.971
 7983TIP3   OH223912   4.485   4.390   3.725
 7983TIP3    H123913   4.426   4.358   3.656
 7983TIP3    H223914   4.434   4.457   3.771
 7984TIP3   OH223915   2.730   4.509   4.978
 7984TIP3    H123916   2.666   4.439   4.970
 7984TIP3    H223917   2.815   4.467   4.966
 7985TIP3   OH223918   4.334   5.796   4.805
 7985TIP3    H123919   4.427   5.802   4.829
 7985TIP3    H223920   4.324   5.857   4.732
 7986TIP3   OH223921   1.065   0.347   3.355
 7986TIP3    H123922   1.154   0.329   3.327
 7986TIP3    H223923   1.026   0.261   3.370
 7987TIP3   OH223924   5.568   5.421   3.488
 7987TIP3    H123925   5.593   5.403   3.398
 7987TIP3    H223926   5.651   5.421   3.536
 7988TIP3   OH223927   1.640   6.344   3.170
 7988TIP3    H123928   1.644   6.394   3.251
 7988TIP3    H223929   1.561   6.290   3.179
 7989TIP3   OH223930   1.078   2.286   0.497
 7989TIP3    H123931   0.990   2.308   0.469
 7989TIP3    H223932   1.116   2.369   0.524
 7990TIP3   OH223933   3.065   0.896   4.379
 7990TIP3    H123934   3.159   0.906   4.392
 7990TIP3    H223935   3.038   0.831   4.444
 7991TIP3   OH223936   4.344   3.183   2.460
 7991TIP3    H123937   4.340   3.182   2.364
 7991TIP3    H223938   4.405   3.254   2.481
 7992TIP3   OH223939   5.199   6.056   3.385
 7992TIP3    H123940   5.290   6.028   3.377
 7992TIP3    H223941   5.185   6.112   3.309
 7993TIP3   OH223942   0.055   2.779   2.865
 7993TIP3    H123943   0.078   2.729   2.943
 7993TIP3    H223944  -0.030   2.818   2.886
 7994TIP3   OH223945   3.254   5.319   3.984
 7994TIP3    H123946   3.245   5.282   3.896
 7994TIP3    H223947   3.222   5.409   3.975
 7995TIP3   OH223948   4.172   2.150   2.187
 7995TIP3    H123949   4.201   2.160   2.096
 7995TIP3    H223950   4.204   2.064   2.213
 7996TIP3   OH223951   4.068   1.205   2.404
 7996TIP3    H123952   4.112   1.232   2.323
 7996TIP3    H223953   4.000   1.271   2.417
 7997TIP3   OH223954   3.783   4.392   3.428
 7997TIP3    H123955   3.693   4.399   3.395
 7997TIP3    H223956   3.802   4.299   3.428
 7998TIP3   OH223957   3.525   1.464   3.189
 7998TIP3    H123958   3.551   1.434   3.276
 7998TIP3    H223959   3.585   1.537   3.169
 7999TIP3   OH223960   5.274   3.692   1.624
 7999TIP3    H123961   5.217   3.758   1.584
 7999TIP3    H223962   5.247   3.691   1.716
 8000TIP3   OH223963   5.835   4.761   0.316
 8000TIP3    H123964   5.746   4.749   0.349
 8000TIP3    H223965   5.823   4.814   0.237
 8001TIP3   OH223966   0.987   6.679   3.794
 8001TIP3    H123967   0.986   6.760   3.846
 8001TIP3    H223968   1.080   6.666   3.773
 8002TIP3   OH223969   4.043   5.196   3.516
 8002TIP3    H123970   4.050   5.184   3.421
 8002TIP3    H223971   3.981   5.269   3.526
 8003TIP3   OH223972   4.301   6.569   0.427
 8003TIP3    H123973   4.373   6.534   0.480
 8003TIP3    H223974   4.345   6.620   0.358
 8004TIP3   OH223975   0.063   4.601   2.500
 8004TIP3    H123976  -0.028   4.584   2.523
 8004TIP3    H223977   0.064   4.693   2.471
 8005TIP3   OH223978   0.732   4.589   4.764
 8005TIP3    H123979   0.663   4.604   4.828
 8005TIP3    H223980   0.758   4.498   4.778
 8006TIP3   OH223981   6.977   2.700   3.977
 8006TIP3    H123982   7.028   2.781   3.980
 8006TIP3    H223983   7.010   2.648   4.051
 8007TIP3   OH223984   0.099   5.231   2.247
 8007TIP3    H123985   0.087   5.160   2.184
 8007TIP3    H223986   0.013   5.272   2.254
 8008TIP3   OH223987   5.526   2.549   5.433
 8008TIP3    H123988   5.546   2.623   5.490
 8008TIP3    H223989   5.470   2.585   5.364
 8009TIP3   OH223990   0.650   6.724   2.520
 8009TIP3    H123991   0.734   6.680   2.532
 8009TIP3    H223992   0.671   6.818   2.521
 8010TIP3   OH223993   5.012   5.860   3.468
 8010TIP3    H123994   5.090   5.908   3.441
 8010TIP3    H223995   4.948   5.875   3.398
 8011TIP3   OH223996   1.285   5.244   0.828
 8011TIP3    H123997   1.365   5.284   0.862
 8011TIP3    H223998   1.232   5.318   0.797
 8012TIP3   OH223999   1.676   1.357   0.820
 8012TIP3    H124000   1.616   1.312   0.879
 8012TIP3    H224001   1.640   1.445   0.812
 8013TIP3   OH224002   4.756   4.353   2.946
 8013TIP3    H124003   4.762   4.259   2.961
 8013TIP3    H224004   4.691   4.362   2.875
 8014TIP3   OH224005   2.159   3.925   3.744
 8014TIP3    H124006   2.116   3.845   3.714
 8014TIP3    H224007   2.199   3.961   3.665
 8015TIP3   OH224008   6.499   5.948   4.399
 8015TIP3    H124009   6.571   5.943   4.462
 8015TIP3    H224010   6.421   5.954   4.453
 8016TIP3   OH224011   6.668   3.818   3.059
 8016TIP3    H124012   6.699   3.888   3.002
 8016TIP3    H224013   6.572   3.819   3.049
 8017TIP3   OH224014   3.759   5.103   4.517
 8017TIP3    H124015   3.736   5.067   4.431
 8017TIP3    H224016   3.843   5.147   4.503
 8018TIP3   OH224017   0.645   3.419   4.678
 8018TIP3    H124018   0.691   3.499   4.705
 8018TIP3    H224019   0.587   3.448   4.607
 8019TIP3   OH224020   5.503   4.500   0.402
 8019TIP3    H124021   5.534   4.424   0.352
 8019TIP3    H224022   5.539   4.488   0.489
 8020TIP3   OH224023   4.470   0.326   0.450
 8020TIP3    H124024   4.380   0.294   0.444
 8020TIP3    H224025   4.461   0.418   0.475
 8021TIP3   OH224026   7.127   6.065   3.975
 8021TIP3    H124027   7.184   6.082   3.899
 8021TIP3    H224028   7.102   5.973   3.967
 8022TIP3   OH224029   4.278   3.969   0.401
 8022TIP3    H124030   4.224   4.000   0.473
 8022TIP3    H224031   4.309   4.049   0.358
 8023TIP3   OH224032   2.310   6.627   0.391
 8023TIP3    H124033   2.371   6.560   0.420
 8023TIP3    H224034   2.274   6.664   0.471
 8024TIP3   OH224035   7.015   6.232   1.987
 8024TIP3    H124036   7.015   6.194   1.899
 8024TIP3    H224037   6.956   6.307   1.981
 8025TIP3   OH224038   6.009   4.968   1.243
 8025TIP3    H124039   5.934   4.969   1.304
 8025TIP3    H224040   5.969   4.957   1.157
 8026TIP3   OH224041   3.272   1.815   2.966
 8026TIP3    H124042   3.273   1.824   3.061
 8026TIP3    H224043   3.337   1.747   2.948
 8027TIP3   OH224044   5.995   3.220   4.283
 8027TIP3    H124045   5.941   3.247   4.357
 8027TIP3    H224046   5.947   3.250   4.206
 8028TIP3   OH224047   2.756   3.353   5.731
 8028TIP3    H124048   2.721   3.328   5.816
 8028TIP3    H224049   2.723   3.287   5.671
 8029TIP3   OH224050   4.753   3.097   1.568
 8029TIP3    H124051   4.748   3.004   1.544
 8029TIP3    H224052   4.741   3.097   1.662
 8030TIP3   OH224053   5.262   2.331   5.542
 8030TIP3    H124054   5.221   2.280   5.471
 8030TIP3    H224055   5.276   2.417   5.504
 8031TIP3   OH224056   4.733   1.158   5.497
 8031TIP3    H124057   4.753   1.210   5.419
 8031TIP3    H224058   4.642   1.180   5.518
 8032TIP3   OH224059   2.456   2.622   3.698
 8032TIP3    H124060   2.511   2.624   3.620
 8032TIP3    H224061   2.518   2.620   3.771
 8033TIP3   OH224062   0.908   2.264   1.707
 8033TIP3    H124063   0.932   2.189   1.762
 8033TIP3    H224064   0.991   2.293   1.670
 8034TIP3   OH224065   5.365   1.424   4.464
 8034TIP3    H124066   5.408   1.341   4.485
 8034TIP3    H224067   5.421   1.491   4.502
 8035TIP3   OH224068   2.963   6.747   1.547
 8035TIP3    H124069   2.916   6.713   1.471
 8035TIP3    H224070   2.931   6.695   1.621
 8036TIP3   OH224071   3.890   1.393   2.337
 8036TIP3    H124072   3.909   1.485   2.355
 8036TIP3    H224073   3.795   1.390   2.326
 8037TIP3   OH224074   3.728   0.152   4.376
 8037TIP3    H124075   3.769   0.066   4.366
 8037TIP3    H224076   3.770   0.190   4.453
 8038TIP3   OH224077   4.772   3.334   0.874
 8038TIP3    H124078   4.835   3.337   0.946
 8038TIP3    H224079   4.803   3.263   0.818
 8039TIP3   OH224080   0.282   0.833   2.195
 8039TIP3    H124081   0.247   0.771   2.258
 8039TIP3    H224082   0.275   0.789   2.111
 8040TIP3   OH224083   7.146   3.979   3.641
 8040TIP3    H124084   7.133   3.914   3.710
 8040TIP3    H224085   7.121   3.934   3.560
 8041TIP3   OH224086   3.716   6.545   5.899
 8041TIP3    H124087   3.637   6.591   5.871
 8041TIP3    H224088   3.735   6.484   5.829
 8042TIP3   OH224089   3.386   4.388   2.974
 8042TIP3    H124090   3.358   4.477   2.995
 8042TIP3    H224091   3.310   4.348   2.933
 8043TIP3   OH224092   6.750   3.933   2.813
 8043TIP3    H124093   6.826   3.911   2.866
 8043TIP3    H224094   6.772   3.903   2.725
 8044TIP3   OH224095   1.254   0.630   3.006
 8044TIP3    H124096   1.245   0.719   2.974
 8044TIP3    H224097   1.322   0.591   2.950
 8045TIP3   OH224098   1.627   5.346   4.572
 8045TIP3    H124099   1.716   5.381   4.576
 8045TIP3    H224100   1.575   5.417   4.536
 8046TIP3   OH224101   3.623   1.491   4.509
 8046TIP3    H124102   3.597   1.539   4.431
 8046TIP3    H224103   3.543   1.448   4.539
 8047TIP3   OH224104   5.043   2.295   2.011
 8047TIP3    H124105   5.125   2.248   2.026
 8047TIP3    H224106   4.983   2.262   2.077
 8048TIP3   OH224107   5.860   5.918   5.010
 8048TIP3    H124108   5.939   5.971   5.002
 8048TIP3    H224109   5.802   5.951   4.942
 8049TIP3   OH224110   6.852   2.685   1.736
 8049TIP3    H124111   6.892   2.766   1.768
 8049TIP3    H224112   6.794   2.713   1.665
 8050TIP3   OH224113   4.794   1.751   0.767
 8050TIP3    H124114   4.783   1.758   0.672
 8050TIP3    H224115   4.705   1.751   0.802
 8051TIP3   OH224116   1.682   5.757   4.375
 8051TIP3    H124117   1.657   5.836   4.423
 8051TIP3    H224118   1.729   5.789   4.298
 8052TIP3   OH224119   5.885   1.931   4.022
 8052TIP3    H124120   5.881   1.863   4.088
 8052TIP3    H224121   5.858   2.011   4.068
 8053TIP3   OH224122   1.922   1.406   3.411
 8053TIP3    H124123   1.857   1.445   3.470
 8053TIP3    H224124   1.879   1.327   3.377
 8054TIP3   OH224125   6.856   5.832   4.129
 8054TIP3    H124126   6.945   5.865   4.130
 8054TIP3    H224127   6.801   5.909   4.137
 8055TIP3   OH224128   6.273   4.970   1.758
 8055TIP3    H124129   6.341   5.016   1.708
 8055TIP3    H224130   6.232   4.912   1.694
 8056TIP3   OH224131   2.076   3.670   3.351
 8056TIP3    H124132   2.053   3.730   3.280
 8056TIP3    H224133   2.023   3.592   3.334
 8057TIP3   OH224134   0.148   1.830   4.439
 8057TIP3    H124135   0.165   1.870   4.354
 8057TIP3    H224136   0.062   1.788   4.428
 8058TIP3   OH224137   1.162   1.243   3.356
 8058TIP3    H124138   1.252   1.216   3.336
 8058TIP3    H224139   1.108   1.192   3.295
 8059TIP3   OH224140   2.832  -0.017   4.618
 8059TIP3    H124141   2.911   0.001   4.565
 8059TIP3    H224142   2.866  -0.038   4.704
 8060TIP3   OH224143   1.039   2.975   0.394
 8060TIP3    H124144   1.080   3.047   0.441
 8060TIP3    H224145   1.098   2.958   0.320
 8061TIP3   OH224146   5.221   5.853   0.045
 8061TIP3    H124147   5.146   5.828   0.098
 8061TIP3    H224148   5.230   5.948   0.059
 8062TIP3   OH224149   2.063   0.713   3.281
 8062TIP3    H124150   2.152   0.740   3.258
 8062TIP3    H224151   2.011   0.792   3.269
 8063TIP3   OH224152   6.177   4.156   1.234
 8063TIP3    H124153   6.120   4.223   1.195
 8063TIP3    H224154   6.200   4.192   1.319
 8064TIP3   OH224155   2.781   3.325   3.160
 8064TIP3    H124156   2.732   3.253   3.119
 8064TIP3    H224157   2.789   3.300   3.251
 8065TIP3   OH224158   4.559   5.477   0.772
 8065TIP3    H124159   4.496   5.529   0.822
 8065TIP3    H224160   4.588   5.535   0.702
 8066TIP3   OH224161   3.278   4.640   3.014
 8066TIP3    H124162   3.298   4.714   3.071
 8066TIP3    H224163   3.182   4.634   3.014
 8067TIP3   OH224164   3.454   1.410   1.822
 8067TIP3    H124165   3.510   1.463   1.879
 8067TIP3    H224166   3.366   1.448   1.833
 8068TIP3   OH224167   4.089   0.221   0.811
 8068TIP3    H124168   4.170   0.169   0.814
 8068TIP3    H224169   4.037   0.180   0.742
 8069TIP3   OH224170   0.480   0.471   1.135
 8069TIP3    H124171   0.497   0.525   1.058
 8069TIP3    H224172   0.504   0.382   1.107
 8070TIP3   OH224173   1.315   6.179   5.158
 8070TIP3    H124174   1.370   6.114   5.113
 8070TIP3    H224175   1.243   6.195   5.098
 8071TIP3   OH224176   2.978   1.794   1.001
 8071TIP3    H124177   2.931   1.776   0.920
 8071TIP3    H224178   2.980   1.890   1.007
 8072TIP3   OH224179   6.782   0.469   4.994
 8072TIP3    H124180   6.814   0.536   5.054
 8072TIP3    H224181   6.832   0.482   4.914
 8073TIP3   OH224182   0.153   0.590   0.356
 8073TIP3    H124183   0.236   0.612   0.314
 8073TIP3    H224184   0.091   0.581   0.283
 8074TIP3   OH224185   3.384   4.654   5.208
 8074TIP3    H124186   3.470   4.666   5.168
 8074TIP3    H224187   3.322   4.690   5.144
 8075TIP3   OH224188   6.047   2.124   2.031
 8075TIP3    H124189   6.066   2.200   2.086
 8075TIP3    H224190   6.011   2.059   2.090
 8076TIP3   OH224191   4.189   3.183   0.210
 8076TIP3    H124192   4.158   3.136   0.288
 8076TIP3    H224193   4.275   3.217   0.236
 8077TIP3   OH224194   3.509   5.513   4.803
 8077TIP3    H124195   3.433   5.467   4.768
 8077TIP3    H224196   3.577   5.502   4.736
 8078TIP3   OH224197   2.493   2.224   2.219
 8078TIP3    H124198   2.403   2.249   2.197
 8078TIP3    H224199   2.493   2.129   2.212
 8079TIP3   OH224200   4.225   2.593   2.917
 8079TIP3    H124201   4.146   2.546   2.943
 8079TIP3    H224202   4.292   2.525   2.907
 8080TIP3   OH224203   0.874   1.073   4.620
 8080TIP3    H124204   0.813   1.038   4.685
 8080TIP3    H224205   0.822   1.078   4.540
 8081TIP3   OH224206   0.573   0.970   1.574
 8081TIP3    H124207   0.651   1.017   1.601
 8081TIP3    H224208   0.605   0.887   1.540
 8082TIP3   OH224209   7.194   3.930   1.572
 8082TIP3    H124210   7.257   3.946   1.642
 8082TIP3    H224211   7.113   3.908   1.617
 8083TIP3   OH224212   5.727   2.458   2.370
 8083TIP3    H124213   5.666   2.529   2.390
 8083TIP3    H224214   5.812   2.501   2.361
 8084TIP3   OH224215   4.808   4.583   5.478
 8084TIP3    H124216   4.903   4.596   5.466
 8084TIP3    H224217   4.800   4.541   5.564
 8085TIP3   OH224218   7.131   5.386   4.473
 8085TIP3    H124219   7.111   5.479   4.461
 8085TIP3    H224220   7.144   5.376   4.567
 8086TIP3   OH224221   0.832   5.867   2.250
 8086TIP3    H124222   0.827   5.808   2.325
 8086TIP3    H224223   0.763   5.932   2.267
 8087TIP3   OH224224   1.886   2.933   3.865
 8087TIP3    H124225   1.848   2.850   3.894
 8087TIP3    H224226   1.811   2.991   3.853
 8088TIP3   OH224227   3.914   4.117   3.911
 8088TIP3    H124228   3.884   4.065   3.985
 8088TIP3    H224229   3.952   4.053   3.850
 8089TIP3   OH224230   0.554   5.474   3.727
 8089TIP3    H124231   0.621   5.517   3.673
 8089TIP3    H224232   0.473   5.518   3.704
 8090TIP3   OH224233   1.936   0.990   2.140
 8090TIP3    H124234   1.858   0.975   2.193
 8090TIP3    H224235   1.904   1.000   2.051
 8091TIP3   OH224236   6.031   2.810   4.870
 8091TIP3    H124237   5.963   2.770   4.815
 8091TIP3    H224238   6.089   2.855   4.809
 8092TIP3   OH224239   0.871   0.051   3.193
 8092TIP3    H124240   0.872   0.094   3.278
 8092TIP3    H224241   0.941   0.094   3.144
 8093TIP3   OH224242   4.830   5.137   3.303
 8093TIP3    H124243   4.811   5.067   3.365
 8093TIP3    H224244   4.818   5.096   3.217
 8094TIP3   OH224245   6.282   3.923   0.278
 8094TIP3    H124246   6.245   3.846   0.234
 8094TIP3    H224247   6.225   3.995   0.252
 8095TIP3   OH224248   5.519   1.763   5.756
 8095TIP3    H124249   5.587   1.770   5.689
 8095TIP3    H224250   5.544   1.828   5.822
 8096TIP3   OH224251   1.377   6.605   2.778
 8096TIP3    H124252   1.457   6.602   2.830
 8096TIP3    H224253   1.387   6.682   2.722
 8097TIP3   OH224254   1.191   0.368   3.665
 8097TIP3    H124255   1.177   0.297   3.602
 8097TIP3    H224256   1.121   0.358   3.729
 8098TIP3   OH224257   4.025   5.148   2.964
 8098TIP3    H124258   4.044   5.172   2.873
 8098TIP3    H224259   4.082   5.073   2.981
 8099TIP3   OH224260   0.624   1.378   5.407
 8099TIP3    H124261   0.594   1.302   5.457
 8099TIP3    H224262   0.585   1.453   5.451
 8100TIP3   OH224263   5.964   0.680   4.076
 8100TIP3    H124264   5.911   0.689   4.155
 8100TIP3    H224265   6.026   0.753   4.080
 8101TIP3   OH224266   5.493   0.740   1.314
 8101TIP3    H124267   5.484   0.693   1.397
 8101TIP3    H224268   5.403   0.748   1.282
 8102TIP3   OH224269   5.622   6.235   0.515
 8102TIP3    H124270   5.558   6.220   0.446
 8102TIP3    H224271   5.706   6.239   0.470
 8103TIP3   OH224272   2.373   5.169   2.230
 8103TIP3    H124273   2.440   5.161   2.162
 8103TIP3    H224274   2.406   5.118   2.304
 8104TIP3   OH224275   4.039   2.467   4.552
 8104TIP3    H124276   4.071   2.543   4.599
 8104TIP3    H224277   3.968   2.433   4.607
 8105TIP3   OH224278   6.984   6.137   5.584
 8105TIP3    H124279   7.010   6.098   5.668
 8105TIP3    H224280   6.909   6.085   5.556
 8106TIP3   OH224281   5.103   2.172   3.857
 8106TIP3    H124282   5.157   2.097   3.882
 8106TIP3    H224283   5.114   2.179   3.763
 8107TIP3   OH224284   5.078   2.806   3.179
 8107TIP3    H124285   4.990   2.801   3.143
 8107TIP3    H224286   5.131   2.749   3.122
 8108TIP3   OH224287   3.571   1.967  -0.007
 8108TIP3    H124288   3.501   1.939   0.052
 8108TIP3    H224289   3.570   1.901  -0.077
 8109TIP3   OH224290   3.826   3.454   3.709
 8109TIP3    H124291   3.869   3.369   3.713
 8109TIP3    H224292   3.744   3.437   3.663
 8110TIP3   OH224293   2.533   3.223   1.715
 8110TIP3    H124294   2.552   3.316   1.728
 8110TIP3    H224295   2.543   3.184   1.801
 8111TIP3   OH224296   4.484   4.300   1.319
 8111TIP3    H124297   4.484   4.205   1.311
 8111TIP3    H224298   4.559   4.319   1.374
 8112TIP3   OH224299   0.328   5.398   0.157
 8112TIP3    H124300   0.337   5.350   0.240
 8112TIP3    H224301   0.417   5.418   0.130
 8113TIP3   OH224302   6.206   2.817   4.012
 8113TIP3    H124303   6.284   2.851   3.968
 8113TIP3    H224304   6.168   2.893   4.055
 8114TIP3   OH224305   1.747   5.277   4.279
 8114TIP3    H124306   1.800   5.242   4.207
 8114TIP3    H224307   1.804   5.339   4.324
 8115TIP3   OH224308   3.355   3.656   0.989
 8115TIP3    H124309   3.364   3.568   0.951
 8115TIP3    H224310   3.318   3.640   1.076
 8116TIP3   OH224311   5.021   6.671   4.303
 8116TIP3    H124312   5.050   6.685   4.394
 8116TIP3    H224313   5.087   6.717   4.250
 8117TIP3   OH224314   1.037   3.629   3.224
 8117TIP3    H124315   0.991   3.695   3.275
 8117TIP3    H224316   1.052   3.557   3.286
 8118TIP3   OH224317   4.216   3.194   2.181
 8118TIP3    H124318   4.268   3.206   2.101
 8118TIP3    H224319   4.130   3.231   2.160
 8119TIP3   OH224320   6.562   1.312   3.029
 8119TIP3    H124321   6.576   1.352   2.943
 8119TIP3    H224322   6.648   1.279   3.054
 8120TIP3   OH224323   6.486   0.769   0.639
 8120TIP3    H124324   6.495   0.834   0.709
 8120TIP3    H224325   6.410   0.798   0.588
 8121TIP3   OH224326   7.088   3.676   2.100
 8121TIP3    H124327   7.077   3.768   2.078
 8121TIP3    H224328   7.080   3.673   2.196
 8122TIP3   OH224329   1.494   5.050   1.962
 8122TIP3    H124330   1.502   5.098   1.880
 8122TIP3    H224331   1.485   5.117   2.029
 8123TIP3   OH224332   0.204   6.755   5.601
 8123TIP3    H124333   0.155   6.706   5.668
 8123TIP3    H224334   0.232   6.834   5.646
 8124TIP3   OH224335   4.390   0.385   1.067
 8124TIP3    H124336   4.449   0.404   0.994
 8124TIP3    H224337   4.392   0.290   1.075
 8125TIP3   OH224338   3.800   4.955   5.015
 8125TIP3    H124339   3.830   4.877   5.060
 8125TIP3    H224340   3.807   4.934   4.922
 8126TIP3   OH224341   4.826   1.113   2.145
 8126TIP3    H124342   4.918   1.098   2.124
 8126TIP3    H224343   4.824   1.123   2.240
 8127TIP3   OH224344   5.045   4.727   4.822
 8127TIP3    H124345   5.001   4.793   4.768
 8127TIP3    H224346   5.096   4.778   4.885
 8128TIP3   OH224347   3.555   0.836   4.386
 8128TIP3    H124348   3.614   0.911   4.392
 8128TIP3    H224349   3.523   0.838   4.295
 8129TIP3   OH224350   2.722   4.177   3.079
 8129TIP3    H124351   2.647   4.199   3.133
 8129TIP3    H224352   2.685   4.152   2.994
 8130TIP3   OH224353   3.526   6.538   0.195
 8130TIP3    H124354   3.555   6.548   0.286
 8130TIP3    H224355   3.432   6.518   0.202
 8131TIP3   OH224356   4.794   0.670   2.204
 8131TIP3    H124357   4.743   0.608   2.153
 8131TIP3    H224358   4.736   0.695   2.276
 8132TIP3   OH224359   0.474   5.162   2.503
 8132TIP3    H124360   0.517   5.245   2.484
 8132TIP3    H224361   0.512   5.133   2.586
 8133TIP3   OH224362   3.937   0.736   1.287
 8133TIP3    H124363   3.955   0.802   1.220
 8133TIP3    H224364   3.867   0.774   1.340
 8134TIP3   OH224365   0.604   4.593   5.386
 8134TIP3    H124366   0.623   4.657   5.317
 8134TIP3    H224367   0.603   4.509   5.340
 8135TIP3   OH224368   1.417   5.225   3.121
 8135TIP3    H124369   1.349   5.230   3.188
 8135TIP3    H224370   1.499   5.235   3.169
 8136TIP3   OH224371   4.899   6.312   3.142
 8136TIP3    H124372   4.825   6.262   3.107
 8136TIP3    H224373   4.859   6.382   3.193
 8137TIP3   OH224374   1.415   5.623   2.727
 8137TIP3    H124375   1.418   5.583   2.814
 8137TIP3    H224376   1.366   5.561   2.674
 8138TIP3   OH224377   1.240   1.581   4.537
 8138TIP3    H124378   1.149   1.553   4.528
 8138TIP3    H224379   1.291   1.500   4.535
 8139TIP3   OH224380   6.332   3.607   5.623
 8139TIP3    H124381   6.236   3.611   5.622
 8139TIP3    H224382   6.360   3.694   5.593
 8140TIP3   OH224383   5.953   1.210   3.417
 8140TIP3    H124384   5.923   1.271   3.350
 8140TIP3    H224385   5.907   1.128   3.398
 8141TIP3   OH224386   1.576   3.339   3.142
 8141TIP3    H124387   1.492   3.333   3.189
 8141TIP3    H224388   1.551   3.354   3.051
 8142TIP3   OH224389   2.743   5.052   4.743
 8142TIP3    H124390   2.775   4.979   4.796
 8142TIP3    H224391   2.720   5.119   4.807
 8143TIP3   OH224392   7.060   5.356   2.265
 8143TIP3    H124393   7.000   5.304   2.211
 8143TIP3    H224394   7.027   5.445   2.258
 8144TIP3   OH224395   0.997   5.574   1.383
 8144TIP3    H124396   0.971   5.583   1.474
 8144TIP3    H224397   1.092   5.563   1.385
 8145TIP3   OH224398   1.410   6.700   3.420
 8145TIP3    H124399   1.320   6.683   3.390
 8145TIP3    H224400   1.424   6.793   3.403
 8146TIP3   OH224401   6.799   5.067   0.587
 8146TIP3    H124402   6.883   5.027   0.564
 8146TIP3    H224403   6.738   4.993   0.589
 8147TIP3   OH224404   6.204   4.051   3.105
 8147TIP3    H124405   6.213   4.042   3.200
 8147TIP3    H224406   6.254   4.129   3.083
 8148TIP3   OH224407   2.352   2.510   2.060
 8148TIP3    H124408   2.391   2.502   1.973
 8148TIP3    H224409   2.292   2.436   2.067
 8149TIP3   OH224410   3.756   5.036   5.583
 8149TIP3    H124411   3.815   5.046   5.658
 8149TIP3    H224412   3.792   4.962   5.534
 8150TIP3   OH224413   1.571   3.994   1.964
 8150TIP3    H124414   1.637   3.940   1.922
 8150TIP3    H224415   1.620   4.045   2.029
 8151TIP3   OH224416   2.183   2.857   0.087
 8151TIP3    H124417   2.092   2.837   0.067
 8151TIP3    H224418   2.215   2.902   0.010
 8152TIP3   OH224419   4.727   2.229   2.295
 8152TIP3    H124420   4.708   2.155   2.352
 8152TIP3    H224421   4.647   2.283   2.298
 8153TIP3   OH224422   3.186   5.923   1.622
 8153TIP3    H124423   3.207   5.967   1.705
 8153TIP3    H224424   3.235   5.973   1.556
 8154TIP3   OH224425   5.844   1.078   2.834
 8154TIP3    H124426   5.807   1.137   2.769
 8154TIP3    H224427   5.769   1.048   2.885
 8155TIP3   OH224428   4.436   4.770   3.546
 8155TIP3    H124429   4.446   4.862   3.572
 8155TIP3    H224430   4.341   4.758   3.537
 8156TIP3   OH224431   7.042   1.562   3.585
 8156TIP3    H124432   6.965   1.565   3.528
 8156TIP3    H224433   7.116   1.577   3.525
 8157TIP3   OH224434   3.872   1.024   0.614
 8157TIP3    H124435   3.827   1.041   0.532
 8157TIP3    H224436   3.806   1.039   0.682
 8158TIP3   OH224437   1.707   0.364   5.747
 8158TIP3    H124438   1.705   0.269   5.762
 8158TIP3    H224439   1.659   0.401   5.820
 8159TIP3   OH224440   2.796   5.106   4.245
 8159TIP3    H124441   2.754   5.032   4.201
 8159TIP3    H224442   2.889   5.097   4.223
 8160TIP3   OH224443   2.967   6.439   4.075
 8160TIP3    H124444   2.996   6.348   4.060
 8160TIP3    H224445   3.025   6.471   4.145
 8161TIP3   OH224446   5.136   3.983   3.767
 8161TIP3    H124447   5.114   3.969   3.859
 8161TIP3    H224448   5.097   3.908   3.721
 8162TIP3   OH224449   2.693   0.937   5.411
 8162TIP3    H124450   2.778   0.981   5.411
 8162TIP3    H224451   2.634   0.999   5.454
 8163TIP3   OH224452   2.577   5.910   0.103
 8163TIP3    H124453   2.665   5.901   0.068
 8163TIP3    H224454   2.539   5.822   0.096
 8164TIP3   OH224455   5.857   3.432   2.816
 8164TIP3    H124456   5.867   3.357   2.757
 8164TIP3    H224457   5.946   3.466   2.827
 8165TIP3   OH224458   3.397   4.578   5.493
 8165TIP3    H124459   3.392   4.523   5.416
 8165TIP3    H224460   3.351   4.658   5.470
 8166TIP3   OH224461   2.358   2.092   1.847
 8166TIP3    H124462   2.315   2.101   1.762
 8166TIP3    H224463   2.451   2.100   1.828
 8167TIP3   OH224464   0.879   1.034   5.641
 8167TIP3    H124465   0.909   1.110   5.590
 8167TIP3    H224466   0.835   1.072   5.717
 8168TIP3   OH224467   0.202   0.527   0.621
 8168TIP3    H124468   0.291   0.561   0.622
 8168TIP3    H224469   0.175   0.532   0.529
 8169TIP3   OH224470   1.907   3.622   2.151
 8169TIP3    H124471   1.813   3.633   2.163
 8169TIP3    H224472   1.917   3.530   2.125
 8170TIP3   OH224473   3.701   2.773   3.419
 8170TIP3    H124474   3.651   2.732   3.349
 8170TIP3    H224475   3.776   2.716   3.432
 8171TIP3   OH224476   6.559   2.922   2.018
 8171TIP3    H124477   6.507   3.000   2.038
 8171TIP3    H224478   6.604   2.902   2.101
 8172TIP3   OH224479   3.066   6.401   0.407
 8172TIP3    H124480   2.987   6.429   0.362
 8172TIP3    H224481   3.041   6.319   0.451
 8173TIP3   OH224482   2.151   6.374   1.931
 8173TIP3    H124483   2.196   6.299   1.891
 8173TIP3    H224484   2.108   6.337   2.008
 8174TIP3   OH224485   4.513   6.619   5.539
 8174TIP3    H124486   4.597   6.616   5.585
 8174TIP3    H224487   4.509   6.537   5.490
 8175TIP3   OH224488   4.211   2.743   0.068
 8175TIP3    H124489   4.302   2.771   0.063
 8175TIP3    H224490   4.172   2.769  -0.015
 8176TIP3   OH224491   4.643   2.680   3.602
 8176TIP3    H124492   4.560   2.649   3.638
 8176TIP3    H224493   4.640   2.775   3.611
 8177TIP3   OH224494   4.466   2.919   0.354
 8177TIP3    H124495   4.513   2.923   0.270
 8177TIP3    H224496   4.395   2.856   0.338
 8178TIP3   OH224497   4.833   3.439   2.231
 8178TIP3    H124498   4.764   3.376   2.254
 8178TIP3    H224499   4.808   3.519   2.277
 8179TIP3   OH224500   1.768   2.133   3.378
 8179TIP3    H124501   1.738   2.043   3.374
 8179TIP3    H224502   1.764   2.164   3.288
 8180TIP3   OH224503   5.703   1.184   3.257
 8180TIP3    H124504   5.756   1.262   3.242
 8180TIP3    H224505   5.617   1.205   3.221
 8181TIP3   OH224506   2.126   0.650   0.271
 8181TIP3    H124507   2.095   0.617   0.187
 8181TIP3    H224508   2.049   0.688   0.313
 8182TIP3   OH224509   1.303   2.076   1.290
 8182TIP3    H124510   1.391   2.052   1.259
 8182TIP3    H224511   1.266   2.129   1.219
 8183TIP3   OH224512   0.482   6.568   4.298
 8183TIP3    H124513   0.472   6.529   4.385
 8183TIP3    H224514   0.433   6.511   4.240
 8184TIP3   OH224515   2.895   1.529   3.537
 8184TIP3    H124516   2.879   1.617   3.504
 8184TIP3    H224517   2.980   1.535   3.581
 8185TIP3   OH224518   2.669   0.191   5.018
 8185TIP3    H124519   2.596   0.142   4.981
 8185TIP3    H224520   2.732   0.197   4.946
 8186TIP3   OH224521   5.061   4.286   1.131
 8186TIP3    H124522   5.019   4.293   1.045
 8186TIP3    H224523   4.988   4.293   1.193
 8187TIP3   OH224524   1.202   6.114   1.616
 8187TIP3    H124525   1.211   6.175   1.543
 8187TIP3    H224526   1.198   6.027   1.574
 8188TIP3   OH224527   2.104   3.094   5.513
 8188TIP3    H124528   2.043   3.026   5.485
 8188TIP3    H224529   2.081   3.170   5.461
 8189TIP3   OH224530   7.195   6.258   5.828
 8189TIP3    H124531   7.199   6.310   5.747
 8189TIP3    H224532   7.220   6.170   5.801
 8190TIP3   OH224533   0.323   2.768   3.858
 8190TIP3    H124534   0.257   2.746   3.793
 8190TIP3    H224535   0.362   2.850   3.826
 8191TIP3   OH224536   5.212   1.846   0.830
 8191TIP3    H124537   5.174   1.933   0.838
 8191TIP3    H224538   5.307   1.860   0.836
 8192TIP3   OH224539   4.963   3.528   4.561
 8192TIP3    H124540   4.990   3.450   4.512
 8192TIP3    H224541   4.926   3.493   4.643
 8193TIP3   OH224542   4.342   0.899   4.448
 8193TIP3    H124543   4.364   0.931   4.360
 8193TIP3    H224544   4.365   0.972   4.506
 8194TIP3   OH224545   5.684   3.440   2.565
 8194TIP3    H124546   5.776   3.431   2.539
 8194TIP3    H224547   5.687   3.501   2.638
 8195TIP3   OH224548   6.715   1.757   0.643
 8195TIP3    H124549   6.740   1.667   0.626
 8195TIP3    H224550   6.764   1.782   0.721
 8196TIP3   OH224551   2.402   3.768   5.316
 8196TIP3    H124552   2.448   3.810   5.389
 8196TIP3    H224553   2.453   3.689   5.297
 8197TIP3   OH224554   3.040   1.291   4.138
 8197TIP3    H124555   3.002   1.312   4.223
 8197TIP3    H224556   3.125   1.252   4.158
 8198TIP3   OH224557   1.861   1.134   3.819
 8198TIP3    H124558   1.844   1.209   3.875
 8198TIP3    H224559   1.881   1.062   3.879
 8199TIP3   OH224560   6.980   2.164   3.347
 8199TIP3    H124561   6.927   2.089   3.319
 8199TIP3    H224562   6.944   2.188   3.432
 8200TIP3   OH224563   2.627   3.401   1.993
 8200TIP3    H124564   2.558   3.391   2.059
 8200TIP3    H224565   2.639   3.495   1.985
 8201TIP3   OH224566   1.580   3.390   5.671
 8201TIP3    H124567   1.530   3.471   5.658
 8201TIP3    H224568   1.514   3.321   5.669
 8202TIP3   OH224569   4.744   5.070   2.556
 8202TIP3    H124570   4.705   5.021   2.484
 8202TIP3    H224571   4.818   5.015   2.584
 8203TIP3   OH224572   2.149   6.350   0.406
 8203TIP3    H124573   2.238   6.330   0.378
 8203TIP3    H224574   2.129   6.283   0.471
 8204TIP3   OH224575   5.348   6.012   2.098
 8204TIP3    H124576   5.405   6.082   2.067
 8204TIP3    H224577   5.294   5.990   2.022
 8205TIP3   OH224578   0.831   6.333   0.453
 8205TIP3    H124579   0.866   6.346   0.541
 8205TIP3    H224580   0.881   6.260   0.417
 8206TIP3   OH224581   1.743   6.731   3.369
 8206TIP3    H124582   1.707   6.772   3.447
 8206TIP3    H224583   1.686   6.656   3.352
 8207TIP3   OH224584   1.428   5.759   5.632
 8207TIP3    H124585   1.402   5.785   5.721
 8207TIP3    H224586   1.464   5.839   5.593
 8208TIP3   OH224587   1.688   5.628   2.829
 8208TIP3    H124588   1.604   5.672   2.840
 8208TIP3    H224589   1.748   5.696   2.801
 8209TIP3   OH224590   0.924   5.705   5.088
 8209TIP3    H124591   0.895   5.655   5.012
 8209TIP3    H224592   0.942   5.793   5.054
 8210TIP3   OH224593   1.368   6.248   4.592
 8210TIP3    H124594   1.290   6.285   4.633
 8210TIP3    H224595   1.441   6.283   4.644
 8211TIP3   OH224596   7.057   3.051   0.993
 8211TIP3    H124597   6.967   3.024   1.014
 8211TIP3    H224598   7.049   3.100   0.912
 8212TIP3   OH224599   3.849   4.965   2.113
 8212TIP3    H124600   3.798   5.025   2.060
 8212TIP3    H224601   3.787   4.896   2.137
 8213TIP3   OH224602   2.302   0.339   5.370
 8213TIP3    H124603   2.319   0.306   5.282
 8213TIP3    H224604   2.311   0.263   5.427
 8214TIP3   OH224605   5.503   6.150   3.217
 8214TIP3    H124606   5.496   6.079   3.280
 8214TIP3    H224607   5.532   6.225   3.268
 8215TIP3   OH224608   2.963   3.089   0.727
 8215TIP3    H124609   2.958   3.002   0.689
 8215TIP3    H224610   2.883   3.098   0.779
 8216TIP3   OH224611   5.561   1.083   0.895
 8216TIP3    H124612   5.606   1.066   0.978
 8216TIP3    H224613   5.540   1.176   0.899
 8217TIP3   OH224614   4.137   1.727   1.188
 8217TIP3    H124615   4.194   1.654   1.163
 8217TIP3    H224616   4.088   1.694   1.264
 8218TIP3   OH224617   1.093   3.848   3.718
 8218TIP3    H124618   1.129   3.794   3.647
 8218TIP3    H224619   1.168   3.862   3.776
 8219TIP3   OH224620   1.551   3.689   1.829
 8219TIP3    H124621   1.495   3.628   1.878
 8219TIP3    H224622   1.495   3.765   1.813
 8220TIP3   OH224623   5.256   6.429   0.337
 8220TIP3    H124624   5.280   6.520   0.318
 8220TIP3    H224625   5.260   6.423   0.432
 8221TIP3   OH224626   0.768   2.983   5.078
 8221TIP3    H124627   0.757   3.064   5.129
 8221TIP3    H224628   0.840   3.001   5.019
 8222TIP3   OH224629   1.904   4.252   4.731
 8222TIP3    H124630   1.997   4.232   4.720
 8222TIP3    H224631   1.895   4.342   4.698
 8223TIP3   OH224632   5.981   5.173   3.891
 8223TIP3    H124633   6.044   5.200   3.823
 8223TIP3    H224634   5.899   5.160   3.844
 8224TIP3   OH224635   3.390   6.500   4.206
 8224TIP3    H124636   3.303   6.461   4.195
 8224TIP3    H224637   3.431   6.446   4.274
 8225TIP3   OH224638   2.667   6.117   0.572
 8225TIP3    H124639   2.647   6.094   0.481
 8225TIP3    H224640   2.745   6.066   0.593
 8226TIP3   OH224641   5.032   0.565   2.274
 8226TIP3    H124642   5.030   0.658   2.294
 8226TIP3    H224643   4.943   0.535   2.291
 8227TIP3   OH224644   6.183   1.977   2.578
 8227TIP3    H124645   6.134   1.996   2.657
 8227TIP3    H224646   6.265   1.937   2.609
 8228TIP3   OH224647   3.527   4.906   5.005
 8228TIP3    H124648   3.577   4.918   5.086
 8228TIP3    H224649   3.585   4.938   4.936
 8229TIP3   OH224650   4.175   5.969   0.129
 8229TIP3    H124651   4.102   5.971   0.068
 8229TIP3    H224652   4.252   5.955   0.074
 8230TIP3   OH224653   5.087   1.665   1.890
 8230TIP3    H124654   5.083   1.662   1.985
 8230TIP3    H224655   5.036   1.743   1.866
 8231TIP3   OH224656   4.698   4.754   0.203
 8231TIP3    H124657   4.778   4.704   0.190
 8231TIP3    H224658   4.641   4.697   0.254
 8232TIP3   OH224659   1.605   5.589   5.507
 8232TIP3    H124660   1.558   5.646   5.568
 8232TIP3    H224661   1.557   5.506   5.510
 8233TIP3   OH224662   4.935   4.310   0.884
 8233TIP3    H124663   4.915   4.270   0.799
 8233TIP3    H224664   4.849   4.330   0.921
 8234TIP3   OH224665   3.817   2.309   0.292
 8234TIP3    H124666   3.773   2.244   0.347
 8234TIP3    H224667   3.755   2.380   0.283
 8235TIP3   OH224668   3.132   5.463   4.537
 8235TIP3    H124669   3.181   5.520   4.478
 8235TIP3    H224670   3.040   5.477   4.513
 8236TIP3   OH224671   6.680   0.074   1.675
 8236TIP3    H124672   6.722   0.044   1.594
 8236TIP3    H224673   6.656   0.165   1.658
 8237TIP3   OH224674   5.352   4.916   5.266
 8237TIP3    H124675   5.377   4.976   5.336
 8237TIP3    H224676   5.260   4.895   5.285
 8238TIP3   OH224677   1.790   0.812   5.514
 8238TIP3    H124678   1.789   0.876   5.585
 8238TIP3    H224679   1.841   0.739   5.549
 8239TIP3   OH224680   1.819   1.190   3.255
 8239TIP3    H124681   1.735   1.152   3.228
 8239TIP3    H224682   1.856   1.226   3.175
 8240TIP3   OH224683   7.149   5.430   5.858
 8240TIP3    H124684   7.186   5.386   5.935
 8240TIP3    H224685   7.094   5.363   5.817
 8241TIP3   OH224686   1.817   2.900   1.365
 8241TIP3    H124687   1.894   2.845   1.356
 8241TIP3    H224688   1.767   2.884   1.284
 8242TIP3   OH224689   1.884   3.196   2.887
 8242TIP3    H124690   1.877   3.249   2.967
 8242TIP3    H224691   1.793   3.173   2.867
 8243TIP3   OH224692   6.020   5.350   2.096
 8243TIP3    H124693   6.090   5.318   2.153
 8243TIP3    H224694   6.065   5.378   2.016
 8244TIP3   OH224695   6.719   3.989   0.410
 8244TIP3    H124696   6.751   4.058   0.351
 8244TIP3    H224697   6.648   3.947   0.361
 8245TIP3   OH224698   5.202   1.333   1.820
 8245TIP3    H124699   5.287   1.338   1.864
 8245TIP3    H224700   5.222   1.347   1.727
 8246TIP3   OH224701   3.121   1.520   1.617
 8246TIP3    H124702   3.181   1.465   1.566
 8246TIP3    H224703   3.148   1.507   1.708
 8247TIP3   OH224704   2.368   5.798   1.463
 8247TIP3    H124705   2.423   5.730   1.502
 8247TIP3    H224706   2.427   5.846   1.404
 8248TIP3   OH224707   7.168   3.772   3.855
 8248TIP3    H124708   7.228   3.731   3.793
 8248TIP3    H224709   7.122   3.699   3.896
 8249TIP3   OH224710   6.989   0.432   4.757
 8249TIP3    H124711   7.019   0.387   4.678
 8249TIP3    H224712   7.059   0.495   4.776
 8250TIP3   OH224713   3.159   5.347   2.467
 8250TIP3    H124714   3.191   5.333   2.378
 8250TIP3    H224715   3.093   5.416   2.458
 8251TIP3   OH224716   5.536   6.303   2.279
 8251TIP3    H124717   5.440   6.305   2.275
 8251TIP3    H224718   5.557   6.350   2.360
 8252TIP3   OH224719   6.887   2.049   4.591
 8252TIP3    H124720   6.929   1.985   4.649
 8252TIP3    H224721   6.944   2.054   4.515
 8253TIP3   OH224722   3.879   2.567   1.348
 8253TIP3    H124723   3.942   2.528   1.287
 8253TIP3    H224724   3.880   2.508   1.424
 8254TIP3   OH224725   1.294   3.476   3.089
 8254TIP3    H124726   1.308   3.496   2.996
 8254TIP3    H224727   1.210   3.431   3.092
 8255TIP3   OH224728   2.856   0.183   0.609
 8255TIP3    H124729   2.889   0.273   0.619
 8255TIP3    H224730   2.883   0.139   0.690
 8256TIP3   OH224731   1.841   5.024   5.467
 8256TIP3    H124732   1.793   5.105   5.450
 8256TIP3    H224733   1.813   4.964   5.398
 8257TIP3   OH224734   2.781   0.577   2.695
 8257TIP3    H124735   2.730   0.563   2.774
 8257TIP3    H224736   2.772   0.671   2.678
 8258TIP3   OH224737   2.509   4.781   1.470
 8258TIP3    H124738   2.460   4.861   1.486
 8258TIP3    H224739   2.514   4.774   1.375
 8259TIP3   OH224740   0.304   2.405   5.510
 8259TIP3    H124741   0.364   2.469   5.471
 8259TIP3    H224742   0.348   2.321   5.496
 8260TIP3   OH224743   1.943   5.837   4.727
 8260TIP3    H124744   2.020   5.788   4.756
 8260TIP3    H224745   1.966   5.865   4.638
 8261TIP3   OH224746   5.116   2.292   4.642
 8261TIP3    H124747   5.041   2.247   4.681
 8261TIP3    H224748   5.095   2.385   4.652
 8262TIP3   OH224749   1.841   3.868   2.786
 8262TIP3    H124750   1.826   3.962   2.788
 8262TIP3    H224751   1.813   3.837   2.872
 8263TIP3   OH224752   3.980   2.228   2.373
 8263TIP3    H124753   4.037   2.209   2.298
 8263TIP3    H224754   4.038   2.271   2.436
 8264TIP3   OH224755   1.581   3.709   3.410
 8264TIP3    H124756   1.532   3.785   3.378
 8264TIP3    H224757   1.523   3.635   3.393
 8265TIP3   OH224758   2.035   0.170   1.153
 8265TIP3    H124759   2.092   0.133   1.086
 8265TIP3    H224760   2.076   0.254   1.175
 8266TIP3   OH224761   0.794   0.362   4.054
 8266TIP3    H124762   0.861   0.390   4.116
 8266TIP3    H224763   0.711   0.385   4.096
 8267TIP3   OH224764   4.872   1.372   4.725
 8267TIP3    H124765   4.953   1.376   4.775
 8267TIP3    H224766   4.804   1.394   4.788
 8268TIP3   OH224767   3.421   1.469   1.034
 8268TIP3    H124768   3.374   1.451   0.952
 8268TIP3    H224769   3.514   1.457   1.011
 8269TIP3   OH224770   6.946   6.130   1.729
 8269TIP3    H124771   6.870   6.147   1.673
 8269TIP3    H224772   6.942   6.036   1.747
 8270TIP3   OH224773   1.800   0.393   0.728
 8270TIP3    H124774   1.721   0.383   0.782
 8270TIP3    H224775   1.856   0.320   0.755
 8271TIP3   OH224776   0.237   3.234   0.170
 8271TIP3    H124777   0.237   3.276   0.084
 8271TIP3    H224778   0.224   3.307   0.232
 8272TIP3   OH224779   3.623   1.299   2.292
 8272TIP3    H124780   3.549   1.274   2.237
 8272TIP3    H224781   3.583   1.335   2.371
 8273TIP3   OH224782   4.444   4.875   2.523
 8273TIP3    H124783   4.419   4.916   2.440
 8273TIP3    H224784   4.456   4.949   2.583
 8274TIP3   OH224785   2.287   6.676   2.694
 8274TIP3    H124786   2.382   6.682   2.681
 8274TIP3    H224787   2.275   6.698   2.786
 8275TIP3   OH224788   5.890   5.715   2.442
 8275TIP3    H124789   5.864   5.710   2.350
 8275TIP3    H224790   5.816   5.678   2.490
 8276TIP3   OH224791   0.270   2.850   4.117
 8276TIP3    H124792   0.346   2.869   4.172
 8276TIP3    H224793   0.306   2.822   4.033
 8277TIP3   OH224794   1.980   0.728   3.799
 8277TIP3    H124795   1.936   0.784   3.735
 8277TIP3    H224796   2.060   0.701   3.754
 8278TIP3   OH224797   5.777   2.198   1.904
 8278TIP3    H124798   5.729   2.217   1.985
 8278TIP3    H224799   5.752   2.108   1.882
 8279TIP3   OH224800   2.635   5.468   4.349
 8279TIP3    H124801   2.548   5.485   4.314
 8279TIP3    H224802   2.689   5.452   4.272
 8280TIP3   OH224803   0.035   6.427   4.547
 8280TIP3    H124804   0.067   6.449   4.460
 8280TIP3    H224805   0.041   6.509   4.596
 8281TIP3   OH224806   1.567   2.919   0.692
 8281TIP3    H124807   1.498   2.894   0.753
 8281TIP3    H224808   1.523   2.968   0.623
 8282TIP3   OH224809   4.903   4.063   2.203
 8282TIP3    H124810   4.882   4.053   2.296
 8282TIP3    H224811   4.882   4.155   2.183
 8283TIP3   OH224812   2.161   3.227   2.003
 8283TIP3    H124813   2.255   3.233   1.986
 8283TIP3    H224814   2.154   3.174   2.083
 8284TIP3   OH224815   1.500   1.081   3.967
 8284TIP3    H124816   1.536   1.166   3.941
 8284TIP3    H224817   1.576   1.032   3.999
 8285TIP3   OH224818   5.672   4.560   4.143
 8285TIP3    H124819   5.657   4.597   4.230
 8285TIP3    H224820   5.592   4.513   4.122
 8286TIP3   OH224821   6.820   0.975   1.221
 8286TIP3    H124822   6.914   0.988   1.228
 8286TIP3    H224823   6.808   0.915   1.148
 8287TIP3   OH224824   6.018   4.610   5.447
 8287TIP3    H124825   6.036   4.660   5.526
 8287TIP3    H224826   6.104   4.593   5.409
 8288TIP3   OH224827   3.012   0.467   4.624
 8288TIP3    H124828   3.101   0.471   4.587
 8288TIP3    H224829   3.025   0.469   4.719
 8289TIP3   OH224830   3.509   6.394   1.704
 8289TIP3    H124831   3.434   6.445   1.733
 8289TIP3    H224832   3.585   6.449   1.723
 8290TIP3   OH224833   5.197   0.597   1.080
 8290TIP3    H124834   5.146   0.672   1.111
 8290TIP3    H224835   5.246   0.568   1.156
 8291TIP3   OH224836   2.532   0.878   4.653
 8291TIP3    H124837   2.495   0.959   4.616
 8291TIP3    H224838   2.573   0.835   4.578
 8292TIP3   OH224839   0.290   5.304   5.410
 8292TIP3    H124840   0.345   5.237   5.370
 8292TIP3    H224841   0.304   5.294   5.504
 8293TIP3   OH224842   6.580   4.275   3.171
 8293TIP3    H124843   6.618   4.197   3.131
 8293TIP3    H224844   6.599   4.266   3.265
 8294TIP3   OH224845   0.431   3.863   1.680
 8294TIP3    H124846   0.504   3.923   1.665
 8294TIP3    H224847   0.411   3.827   1.594
 8295TIP3   OH224848   0.389   3.170   0.435
 8295TIP3    H124849   0.375   3.075   0.439
 8295TIP3    H224850   0.302   3.207   0.449
 8296TIP3   OH224851   5.542   0.206   3.406
 8296TIP3    H124852   5.508   0.266   3.472
 8296TIP3    H224853   5.631   0.185   3.436
 8297TIP3   OH224854   2.393   4.037   3.238
 8297TIP3    H124855   2.362   3.951   3.211
 8297TIP3    H224856   2.459   4.019   3.305
 8298TIP3   OH224857   4.644   2.634   1.274
 8298TIP3    H124858   4.648   2.540   1.290
 8298TIP3    H224859   4.638   2.673   1.361
 8299TIP3   OH224860   4.845   4.201   2.464
 8299TIP3    H124861   4.940   4.214   2.458
 8299TIP3    H224862   4.830   4.176   2.555
 8300TIP3   OH224863   6.122   1.005   0.846
 8300TIP3    H124864   6.120   0.969   0.935
 8300TIP3    H224865   6.043   0.970   0.804
 8301TIP3   OH224866   4.455   1.298   1.216
 8301TIP3    H124867   4.542   1.273   1.183
 8301TIP3    H224868   4.445   1.249   1.297
 8302TIP3   OH224869   2.700   2.628   1.006
 8302TIP3    H124870   2.650   2.684   1.065
 8302TIP3    H224871   2.634   2.587   0.949
 8303TIP3   OH224872   2.418   2.377   3.063
 8303TIP3    H124873   2.510   2.355   3.079
 8303TIP3    H224874   2.370   2.297   3.082
 8304TIP3   OH224875   5.754   2.092   1.064
 8304TIP3    H124876   5.727   2.176   1.102
 8304TIP3    H224877   5.708   2.026   1.116
 8305TIP3   OH224878   5.288   4.356   4.963
 8305TIP3    H124879   5.284   4.439   4.914
 8305TIP3    H224880   5.371   4.360   5.009
 8306TIP3   OH224881   1.551   4.130   3.457
 8306TIP3    H124882   1.478   4.117   3.517
 8306TIP3    H224883   1.628   4.100   3.505
 8307TIP3   OH224884   1.554   1.203   4.826
 8307TIP3    H124885   1.467   1.239   4.844
 8307TIP3    H224886   1.548   1.111   4.852
 8308TIP3   OH224887   1.877   1.545   2.525
 8308TIP3    H124888   1.899   1.532   2.433
 8308TIP3    H224889   1.958   1.579   2.564
 8309TIP3   OH224890   3.177   3.773   0.791
 8309TIP3    H124891   3.241   3.775   0.861
 8309TIP3    H224892   3.141   3.684   0.794
 8310TIP3   OH224893   2.291   0.426   0.280
 8310TIP3    H124894   2.251   0.512   0.289
 8310TIP3    H224895   2.270   0.398   0.191
 8311TIP3   OH224896   0.182   4.882   5.722
 8311TIP3    H124897   0.098   4.882   5.675
 8311TIP3    H224898   0.247   4.907   5.656
 8312TIP3   OH224899   4.686   5.434   1.142
 8312TIP3    H124900   4.604   5.387   1.159
 8312TIP3    H224901   4.661   5.526   1.141
 8313TIP3   OH224902   6.491   4.124   4.366
 8313TIP3    H124903   6.526   4.040   4.338
 8313TIP3    H224904   6.563   4.186   4.354
 8314TIP3   OH224905   4.874   5.183   1.898
 8314TIP3    H124906   4.897   5.137   1.818
 8314TIP3    H224907   4.944   5.162   1.960
 8315TIP3   OH224908   4.588   1.497   4.304
 8315TIP3    H124909   4.566   1.581   4.263
 8315TIP3    H224910   4.527   1.491   4.378
 8316TIP3   OH224911   5.425   4.317   5.513
 8316TIP3    H124912   5.333   4.303   5.533
 8316TIP3    H224913   5.427   4.394   5.456
 8317TIP3   OH224914   5.194   1.223   3.466
 8317TIP3    H124915   5.102   1.227   3.444
 8317TIP3    H224916   5.214   1.308   3.504
 8318TIP3   OH224917   1.016   2.945  -0.035
 8318TIP3    H124918   0.969   2.865  -0.056
 8318TIP3    H224919   1.093   2.916   0.013
 8319TIP3   OH224920   6.292   4.598   4.857
 8319TIP3    H124921   6.246   4.599   4.773
 8319TIP3    H224922   6.315   4.689   4.872
 8320TIP3   OH224923   3.150   5.587   5.050
 8320TIP3    H124924   3.135   5.511   4.993
 8320TIP3    H224925   3.171   5.658   4.989
 8321TIP3   OH224926   2.738   3.670   1.353
 8321TIP3    H124927   2.671   3.725   1.394
 8321TIP3    H224928   2.716   3.671   1.260
 8322TIP3   OH224929   2.357   1.323   5.537
 8322TIP3    H124930   2.281   1.265   5.535
 8322TIP3    H224931   2.375   1.343   5.445
 8323TIP3   OH224932   4.225   5.365   2.340
 8323TIP3    H124933   4.229   5.416   2.259
 8323TIP3    H224934   4.171   5.419   2.399
 8324TIP3   OH224935   1.698   0.511   4.171
 8324TIP3    H124936   1.722   0.513   4.078
 8324TIP3    H224937   1.751   0.441   4.208
 8325TIP3   OH224938   5.076   6.425   2.958
 8325TIP3    H124939   5.142   6.467   3.015
 8325TIP3    H224940   5.016   6.382   3.018
 8326TIP3   OH224941   1.801   6.325   4.657
 8326TIP3    H124942   1.788   6.419   4.670
 8326TIP3    H224943   1.771   6.285   4.739
 8327TIP3   OH224944   3.107   0.419   1.025
 8327TIP3    H124945   3.147   0.332   1.026
 8327TIP3    H224946   3.148   0.465   1.098
 8328TIP3   OH224947   2.524   0.588   2.126
 8328TIP3    H124948   2.475   0.645   2.185
 8328TIP3    H224949   2.539   0.508   2.177
 8329TIP3   OH224950   6.418   0.784   3.082
 8329TIP3    H124951   6.475   0.856   3.111
 8329TIP3    H224952   6.464   0.705   3.111
 8330TIP3   OH224953   2.053   4.850   0.191
 8330TIP3    H124954   2.117   4.920   0.203
 8330TIP3    H224955   2.015   4.867   0.106
 8331TIP3   OH224956   2.669   0.344   0.506
 8331TIP3    H124957   2.745   0.287   0.513
 8331TIP3    H224958   2.646   0.365   0.596
 8332TIP3   OH224959   1.415   6.489   2.413
 8332TIP3    H124960   1.397   6.576   2.377
 8332TIP3    H224961   1.328   6.450   2.427
 8333TIP3   OH224962   1.910   3.539   0.641
 8333TIP3    H124963   1.894   3.623   0.600
 8333TIP3    H224964   1.983   3.501   0.592
 8334TIP3   OH224965   4.544   2.328   3.952
 8334TIP3    H124966   4.614   2.393   3.955
 8334TIP3    H224967   4.540   2.294   4.041
 8335TIP3   OH224968   2.197   1.012   3.481
 8335TIP3    H124969   2.152   1.039   3.401
 8335TIP3    H224970   2.258   1.084   3.499
 8336TIP3   OH224971   1.490   4.702   3.728
 8336TIP3    H124972   1.459   4.784   3.688
 8336TIP3    H224973   1.507   4.725   3.819
 8337TIP3   OH224974   2.077   5.557   3.483
 8337TIP3    H124975   2.039   5.506   3.554
 8337TIP3    H224976   2.102   5.493   3.417
 8338TIP3   OH224977   5.463   1.338   0.860
 8338TIP3    H124978   5.511   1.389   0.795
 8338TIP3    H224979   5.376   1.325   0.821
 8339TIP3   OH224980   3.215   2.764   0.949
 8339TIP3    H124981   3.135   2.718   0.972
 8339TIP3    H224982   3.186   2.853   0.927
 8340TIP3   OH224983   0.029   2.836   3.844
 8340TIP3    H124984   0.026   2.891   3.922
 8340TIP3    H224985   0.022   2.897   3.771
 8341TIP3   OH224986   3.474   2.931   2.107
 8341TIP3    H124987   3.442   2.931   2.017
 8341TIP3    H224988   3.569   2.925   2.099
 8342TIP3   OH224989   4.783   0.880   1.871
 8342TIP3    H124990   4.780   0.971   1.842
 8342TIP3    H224991   4.692   0.850   1.866
 8343TIP3   OH224992   6.334   6.168   2.219
 8343TIP3    H124993   6.418   6.211   2.235
 8343TIP3    H224994   6.269   6.235   2.241
 8344TIP3   OH224995   0.936   2.609   5.901
 8344TIP3    H124996   0.990   2.569   5.832
 8344TIP3    H224997   0.860   2.644   5.855
 8345TIP3   OH224998   2.466   5.808   5.384
 8345TIP3    H124999   2.442   5.728   5.431
 8345TIP3    H225000   2.524   5.778   5.314
 8346TIP3   OH225001   2.844   5.655   5.389
 8346TIP3    H125002   2.841   5.597   5.465
 8346TIP3    H225003   2.845   5.743   5.427
 8347TIP3   OH225004   2.371   1.834   5.317
 8347TIP3    H125005   2.304   1.765   5.310
 8347TIP3    H225006   2.423   1.823   5.237
 8348TIP3   OH225007   6.516   2.276   3.930
 8348TIP3    H125008   6.544   2.248   4.017
 8348TIP3    H225009   6.566   2.355   3.913
 8349TIP3   OH225010   4.414   0.717   0.235
 8349TIP3    H125011   4.360   0.645   0.203
 8349TIP3    H225012   4.351   0.779   0.273
 8350TIP3   OH225013   5.187   1.880   3.617
 8350TIP3    H125014   5.213   1.840   3.534
 8350TIP3    H225015   5.229   1.824   3.684
 8351TIP3   OH225016   0.049   2.179   2.770
 8351TIP3    H125017   0.014   2.260   2.807
 8351TIP3    H225018  -0.028   2.126   2.750
 8352TIP3   OH225019   6.040   6.097   4.398
 8352TIP3    H125020   6.030   6.036   4.325
 8352TIP3    H225021   6.102   6.163   4.367
 8353TIP3   OH225022   5.350   3.760   0.106
 8353TIP3    H125023   5.294   3.827   0.067
 8353TIP3    H225024   5.365   3.697   0.035
 8354TIP3   OH225025   3.302   0.304   5.334
 8354TIP3    H125026   3.268   0.393   5.334
 8354TIP3    H225027   3.237   0.253   5.286
 8355TIP3   OH225028   5.973   2.578   2.383
 8355TIP3    H125029   6.021   2.576   2.466
 8355TIP3    H225030   6.029   2.629   2.324
 8356TIP3   OH225031   4.046   5.254   1.544
 8356TIP3    H125032   3.971   5.289   1.592
 8356TIP3    H225033   4.079   5.183   1.598
 8357TIP3   OH225034   0.646   4.045   1.700
 8357TIP3    H125035   0.677   4.111   1.762
 8357TIP3    H225036   0.634   4.093   1.618
 8358TIP3   OH225037   4.390   1.146   4.558
 8358TIP3    H125038   4.474   1.191   4.572
 8358TIP3    H225039   4.364   1.171   4.469
 8359TIP3   OH225040   0.777   1.295   4.448
 8359TIP3    H125041   0.853   1.315   4.503
 8359TIP3    H225042   0.708   1.271   4.511
 8360TIP3   OH225043   0.922   0.718   4.542
 8360TIP3    H125044   0.939   0.800   4.588
 8360TIP3    H225045   1.002   0.701   4.493
 8361TIP3   OH225046   4.302   5.675   1.651
 8361TIP3    H125047   4.295   5.761   1.610
 8361TIP3    H225048   4.216   5.636   1.638
 8362TIP3   OH225049   1.080   0.127   4.730
 8362TIP3    H125050   1.163   0.095   4.696
 8362TIP3    H225051   1.071   0.215   4.695
 8363TIP3   OH225052   1.170   3.723   2.393
 8363TIP3    H125053   1.186   3.712   2.487
 8363TIP3    H225054   1.119   3.803   2.386
 8364TIP3   OH225055   5.120   3.407   4.889
 8364TIP3    H125056   5.115   3.502   4.900
 8364TIP3    H225057   5.117   3.393   4.795
 8365TIP3   OH225058   0.971   4.224   0.547
 8365TIP3    H125059   0.937   4.214   0.636
 8365TIP3    H225060   1.006   4.313   0.544
 8366TIP3   OH225061   5.645   2.654   1.865
 8366TIP3    H125062   5.609   2.721   1.922
 8366TIP3    H225063   5.677   2.702   1.789
 8367TIP3   OH225064   5.105   2.637   0.336
 8367TIP3    H125065   5.163   2.624   0.411
 8367TIP3    H225066   5.047   2.708   0.362
 8368TIP3   OH225067   6.477   5.128   2.086
 8368TIP3    H125068   6.463   5.034   2.097
 8368TIP3    H225069   6.523   5.136   2.002
 8369TIP3   OH225070   3.794   4.070   5.248
 8369TIP3    H125071   3.758   4.153   5.279
 8369TIP3    H225072   3.757   4.059   5.160
 8370TIP3   OH225073   4.146   1.076   0.527
 8370TIP3    H125074   4.054   1.063   0.551
 8370TIP3    H225075   4.188   1.104   0.608
 8371TIP3   OH225076   3.350   5.345   4.653
 8371TIP3    H125077   3.361   5.255   4.623
 8371TIP3    H225078   3.271   5.376   4.608
 8372TIP3   OH225079   0.686   0.517   3.140
 8372TIP3    H125080   0.716   0.463   3.213
 8372TIP3    H225081   0.762   0.569   3.115
 8373TIP3   OH225082   5.162   1.912   5.710
 8373TIP3    H125083   5.175   1.987   5.768
 8373TIP3    H225084   5.178   1.946   5.622
 8374TIP3   OH225085   4.144   2.383   5.290
 8374TIP3    H125086   4.052   2.407   5.306
 8374TIP3    H225087   4.190   2.412   5.369
 8375TIP3   OH225088   6.666   5.952   0.249
 8375TIP3    H125089   6.733   5.931   0.314
 8375TIP3    H225090   6.600   6.001   0.296
 8376TIP3   OH225091   0.577   0.733   2.176
 8376TIP3    H125092   0.551   0.804   2.117
 8376TIP3    H225093   0.509   0.666   2.163
 8377TIP3   OH225094   1.930   4.791   2.531
 8377TIP3    H125095   1.980   4.767   2.453
 8377TIP3    H225096   1.857   4.843   2.498
 8378TIP3   OH225097   1.356   3.163   3.239
 8378TIP3    H125098   1.318   3.172   3.151
 8378TIP3    H225099   1.287   3.121   3.290
 8379TIP3   OH225100   4.305   1.411   3.659
 8379TIP3    H125101   4.368   1.339   3.654
 8379TIP3    H225102   4.326   1.466   3.584
 8380TIP3   OH225103   0.208   1.246   5.431
 8380TIP3    H125104   0.301   1.242   5.453
 8380TIP3    H225105   0.193   1.170   5.375
 8381TIP3   OH225106   7.048   1.106   2.845
 8381TIP3    H125107   7.022   1.020   2.813
 8381TIP3    H225108   7.051   1.096   2.940
 8382TIP3   OH225109   2.959   1.000   2.080
 8382TIP3    H125110   2.936   1.028   1.991
 8382TIP3    H225111   2.883   0.951   2.110
 8383TIP3   OH225112   2.925   3.983   2.995
 8383TIP3    H125113   2.914   3.898   3.038
 8383TIP3    H225114   2.855   4.037   3.031
 8384TIP3   OH225115   3.153   6.055   3.118
 8384TIP3    H125116   3.187   6.130   3.069
 8384TIP3    H225117   3.086   6.017   3.061
 8385TIP3   OH225118   5.894   6.670   1.518
 8385TIP3    H125119   5.847   6.703   1.441
 8385TIP3    H225120   5.973   6.629   1.482
 8386TIP3   OH225121   4.698   1.515   3.980
 8386TIP3    H125122   4.760   1.470   4.038
 8386TIP3    H225123   4.612   1.484   4.009
 8387TIP3   OH225124   2.193   0.154   2.314
 8387TIP3    H125125   2.238   0.208   2.249
 8387TIP3    H225126   2.236   0.175   2.397
 8388TIP3   OH225127   2.741   3.381   0.546
 8388TIP3    H125128   2.731   3.463   0.497
 8388TIP3    H225129   2.738   3.313   0.479
 8389TIP3   OH225130   0.038   2.521   0.127
 8389TIP3    H125131  -0.053   2.537   0.103
 8389TIP3    H225132   0.088   2.573   0.064
 8390TIP3   OH225133   4.021   5.428   4.627
 8390TIP3    H125134   4.017   5.379   4.544
 8390TIP3    H225135   4.059   5.366   4.689
 8391TIP3   OH225136   1.130   0.596   4.063
 8391TIP3    H125137   1.205   0.654   4.078
 8391TIP3    H225138   1.066   0.651   4.017
 8392TIP3   OH225139   5.798   3.842   5.047
 8392TIP3    H125140   5.798   3.921   5.101
 8392TIP3    H225141   5.758   3.869   4.964
 8393TIP3   OH225142   0.241   5.654   0.743
 8393TIP3    H125143   0.311   5.645   0.679
 8393TIP3    H225144   0.183   5.579   0.726
 8394TIP3   OH225145   3.869   6.161   5.359
 8394TIP3    H125146   3.951   6.159   5.409
 8394TIP3    H225147   3.865   6.076   5.316
 8395TIP3   OH225148   5.578   4.108   4.899
 8395TIP3    H125149   5.546   4.185   4.947
 8395TIP3    H225150   5.669   4.129   4.879
 8396TIP3   OH225151   2.510   3.290   3.032
 8396TIP3    H125152   2.531   3.383   3.041
 8396TIP3    H225153   2.490   3.262   3.122
 8397TIP3   OH225154   0.924   2.681   3.252
 8397TIP3    H125155   0.993   2.743   3.228
 8397TIP3    H225156   0.945   2.602   3.203
 8398TIP3   OH225157   6.656   1.543   4.759
 8398TIP3    H125158   6.736   1.504   4.794
 8398TIP3    H225159   6.675   1.558   4.667
 8399TIP3   OH225160   6.441   6.444   5.637
 8399TIP3    H125161   6.394   6.443   5.554
 8399TIP3    H225162   6.449   6.537   5.659
 8400TIP3   OH225163   4.369   4.222   5.789
 8400TIP3    H125164   4.304   4.194   5.724
 8400TIP3    H225165   4.320   4.282   5.847
 8401TIP3   OH225166   5.565   0.957   3.485
 8401TIP3    H125167   5.543   0.979   3.575
 8401TIP3    H225168   5.657   0.984   3.475
 8402TIP3   OH225169   6.588   4.462   4.481
 8402TIP3    H125170   6.620   4.531   4.538
 8402TIP3    H225171   6.667   4.415   4.453
 8403TIP3   OH225172   6.559   2.894   5.493
 8403TIP3    H125173   6.648   2.867   5.472
 8403TIP3    H225174   6.565   2.989   5.504
 8404TIP3   OH225175   5.467   2.179   3.124
 8404TIP3    H125176   5.515   2.136   3.053
 8404TIP3    H225177   5.469   2.115   3.196
 8405TIP3   OH225178   1.234   0.960   3.520
 8405TIP3    H125179   1.299   0.924   3.460
 8405TIP3    H225180   1.235   1.054   3.503
 8406TIP3   OH225181   2.833   6.540   2.003
 8406TIP3    H125182   2.896   6.571   2.067
 8406TIP3    H225183   2.759   6.601   2.011
 8407TIP3   OH225184   6.318   2.538   5.093
 8407TIP3    H125185   6.268   2.504   5.018
 8407TIP3    H225186   6.298   2.632   5.093
 8408TIP3   OH225187   2.754   2.024   0.004
 8408TIP3    H125188   2.704   2.010   0.084
 8408TIP3    H225189   2.719   2.107  -0.031
 8409TIP3   OH225190   2.307   1.362   5.276
 8409TIP3    H125191   2.369   1.403   5.216
 8409TIP3    H225192   2.264   1.294   5.225
 8410TIP3   OH225193   3.507   4.605   0.764
 8410TIP3    H125194   3.436   4.555   0.725
 8410TIP3    H225195   3.572   4.539   0.789
 8411TIP3   OH225196   6.309   5.732   1.631
 8411TIP3    H125197   6.276   5.803   1.576
 8411TIP3    H225198   6.401   5.723   1.605
 8412TIP3   OH225199   1.581   1.517   1.789
 8412TIP3    H125200   1.649   1.472   1.738
 8412TIP3    H225201   1.588   1.480   1.877
 8413TIP3   OH225202   1.484   2.211   0.407
 8413TIP3    H125203   1.455   2.140   0.465
 8413TIP3    H225204   1.448   2.188   0.321
 8414TIP3   OH225205   3.863   5.361   2.322
 8414TIP3    H125206   3.821   5.277   2.304
 8414TIP3    H225207   3.906   5.350   2.407
 8415TIP3   OH225208   4.692   3.290   1.320
 8415TIP3    H125209   4.634   3.366   1.313
 8415TIP3    H225210   4.720   3.289   1.412
 8416TIP3   OH225211   2.142   0.488   2.588
 8416TIP3    H125212   2.059   0.536   2.591
 8416TIP3    H225213   2.184   0.519   2.508
 8417TIP3   OH225214   3.229   4.895   5.003
 8417TIP3    H125215   3.213   4.894   4.909
 8417TIP3    H225216   3.322   4.916   5.012
 8418TIP3   OH225217   0.290   1.398   0.911
 8418TIP3    H125218   0.262   1.307   0.916
 8418TIP3    H225219   0.302   1.414   0.817
 8419TIP3   OH225220   3.915  -0.030   2.593
 8419TIP3    H125221   3.974  -0.027   2.517
 8419TIP3    H225222   3.866   0.052   2.589
 8420TIP3   OH225223   2.721   0.284   4.028
 8420TIP3    H125224   2.732   0.193   4.057
 8420TIP3    H225225   2.650   0.317   4.083
 8421TIP3   OH225226   3.861   1.641   4.534
 8421TIP3    H125227   3.787   1.581   4.525
 8421TIP3    H225228   3.852   1.702   4.460
 8422TIP3   OH225229   2.279   2.959   1.023
 8422TIP3    H125230   2.255   2.940   0.932
 8422TIP3    H225231   2.294   2.873   1.062
 8423TIP3   OH225232   2.176   3.628   5.431
 8423TIP3    H125233   2.221   3.703   5.391
 8423TIP3    H225234   2.238   3.594   5.495
 8424TIP3   OH225235   5.606   4.367   1.034
 8424TIP3    H125236   5.577   4.458   1.029
 8424TIP3    H225237   5.580   4.338   1.121
 8425TIP3   OH225238   4.100   2.442   5.914
 8425TIP3    H125239   4.098   2.351   5.885
 8425TIP3    H225240   4.175   2.447   5.972
 8426TIP3   OH225241   3.845   1.974   1.640
 8426TIP3    H125242   3.760   2.006   1.671
 8426TIP3    H225243   3.884   1.932   1.717
 8427TIP3   OH225244   1.539   5.205   3.961
 8427TIP3    H125245   1.565   5.112   3.960
 8427TIP3    H225246   1.620   5.252   3.942
 8428TIP3   OH225247   0.545   6.001   1.353
 8428TIP3    H125248   0.490   6.033   1.424
 8428TIP3    H225249   0.591   6.078   1.322
 8429TIP3   OH225250   1.859   6.482   0.956
 8429TIP3    H125251   1.808   6.473   1.036
 8429TIP3    H225252   1.841   6.401   0.908
 8430TIP3   OH225253   3.863   4.746   1.486
 8430TIP3    H125254   3.943   4.790   1.514
 8430TIP3    H225255   3.794   4.780   1.543
 8431TIP3   OH225256   4.485   5.038   0.789
 8431TIP3    H125257   4.557   4.974   0.785
 8431TIP3    H225258   4.520   5.116   0.745
 8432TIP3   OH225259   1.938   2.636   0.816
 8432TIP3    H125260   1.974   2.562   0.769
 8432TIP3    H225261   1.850   2.647   0.780
 8433TIP3   OH225262   4.475   6.160   3.182
 8433TIP3    H125263   4.404   6.220   3.208
 8433TIP3    H225264   4.431   6.081   3.153
 8434TIP3   OH225265   5.266   1.699   2.683
 8434TIP3    H125266   5.195   1.643   2.716
 8434TIP3    H225267   5.274   1.677   2.591
 8435TIP3   OH225268   3.061   5.721   2.969
 8435TIP3    H125269   3.048   5.640   2.920
 8435TIP3    H225270   3.085   5.693   3.057
 8436TIP3   OH225271   4.379   1.163   3.224
 8436TIP3    H125272   4.322   1.239   3.230
 8436TIP3    H225273   4.324   1.090   3.254
 8437TIP3   OH225274   6.077   2.945   0.363
 8437TIP3    H125275   6.045   2.855   0.363
 8437TIP3    H225276   6.098   2.963   0.454
 8438TIP3   OH225277   2.073   4.398   2.792
 8438TIP3    H125278   2.006   4.459   2.761
 8438TIP3    H225279   2.073   4.328   2.727
 8439TIP3   OH225280   4.255   1.365   0.505
 8439TIP3    H125281   4.174   1.344   0.458
 8439TIP3    H225282   4.225   1.385   0.594
 8440TIP3   OH225283   2.039   6.234   4.227
 8440TIP3    H125284   2.060   6.326   4.237
 8440TIP3    H225285   1.970   6.218   4.292
 8441TIP3   OH225286   6.379   1.913   4.811
 8441TIP3    H125287   6.363   1.997   4.856
 8441TIP3    H225288   6.470   1.891   4.834
 8442TIP3   OH225289   0.952   0.576   0.038
 8442TIP3    H125290   0.984   0.492   0.008
 8442TIP3    H225291   0.950   0.631  -0.041
 8443TIP3   OH225292   5.545   4.689   3.629
 8443TIP3    H125293   5.513   4.780   3.627
 8443TIP3    H225294   5.545   4.666   3.722
 8444TIP3   OH225295   1.919   3.256   4.083
 8444TIP3    H125296   1.886   3.167   4.075
 8444TIP3    H225297   1.846   3.311   4.054
 8445TIP3   OH225298   3.296   4.590   3.340
 8445TIP3    H125299   3.337   4.504   3.336
 8445TIP3    H225300   3.315   4.631   3.256
 8446TIP3   OH225301   1.060   5.956   5.769
 8446TIP3    H125302   1.093   5.904   5.696
 8446TIP3    H225303   1.027   6.036   5.728
 8447TIP3   OH225304   3.288   1.873   3.231
 8447TIP3    H125305   3.271   1.825   3.312
 8447TIP3    H225306   3.377   1.904   3.240
 8448TIP3   OH225307   6.152   3.635   3.540
 8448TIP3    H125308   6.086   3.600   3.600
 8448TIP3    H225309   6.160   3.727   3.565
 8449TIP3   OH225310   3.640   1.159   1.888
 8449TIP3    H125311   3.579   1.086   1.899
 8449TIP3    H225312   3.695   1.157   1.967
 8450TIP3   OH225313   1.499   0.896   5.172
 8450TIP3    H125314   1.493   0.962   5.241
 8450TIP3    H225315   1.583   0.853   5.187
 8451TIP3   OH225316   3.638   3.158   5.549
 8451TIP3    H125317   3.612   3.170   5.458
 8451TIP3    H225318   3.660   3.246   5.581
 8452TIP3   OH225319   5.036   1.979   1.929
 8452TIP3    H125320   4.958   1.947   1.974
 8452TIP3    H225321   5.090   2.017   1.998
 8453TIP3   OH225322   6.389   6.509   1.620
 8453TIP3    H125323   6.359   6.535   1.707
 8453TIP3    H225324   6.481   6.537   1.616
 8454TIP3   OH225325   3.215   2.909   2.205
 8454TIP3    H125326   3.221   2.852   2.282
 8454TIP3    H225327   3.305   2.936   2.187
 8455TIP3   OH225328   3.128   6.543   0.047
 8455TIP3    H125329   3.191   6.522   0.117
 8455TIP3    H225330   3.096   6.458   0.017
 8456TIP3   OH225331   0.577   6.269   5.827
 8456TIP3    H125332   0.503   6.245   5.883
 8456TIP3    H225333   0.589   6.194   5.769
 8457TIP3   OH225334   4.306   2.390   5.521
 8457TIP3    H125335   4.233   2.432   5.567
 8457TIP3    H225336   4.379   2.395   5.583
 8458TIP3   OH225337   4.513   3.430   2.207
 8458TIP3    H125338   4.422   3.462   2.202
 8458TIP3    H225339   4.566   3.504   2.177
 8459TIP3   OH225340   2.757   1.365   4.696
 8459TIP3    H125341   2.824   1.428   4.671
 8459TIP3    H225342   2.675   1.404   4.666
 8460TIP3   OH225343   5.967   2.431   3.315
 8460TIP3    H125344   5.941   2.422   3.407
 8460TIP3    H225345   5.886   2.420   3.266
 8461TIP3   OH225346   2.616   5.292   1.680
 8461TIP3    H125347   2.524   5.315   1.670
 8461TIP3    H225348   2.661   5.338   1.609
 8462TIP3   OH225349   3.426   3.050   5.054
 8462TIP3    H125350   3.428   3.078   4.962
 8462TIP3    H225351   3.490   3.108   5.097
 8463TIP3   OH225352   1.773   4.996   4.367
 8463TIP3    H125353   1.859   4.954   4.370
 8463TIP3    H225354   1.790   5.081   4.326
 8464TIP3   OH225355   4.021   1.054   5.804
 8464TIP3    H125356   4.044   1.005   5.883
 8464TIP3    H225357   3.950   1.112   5.831
 8465TIP3   OH225358   3.416   4.718   4.822
 8465TIP3    H125359   3.420   4.783   4.893
 8465TIP3    H225360   3.491   4.737   4.767
 8466TIP3   OH225361   3.004   5.284   5.579
 8466TIP3    H125362   3.087   5.238   5.570
 8466TIP3    H225363   2.983   5.314   5.491
 8467TIP3   OH225364   0.279   2.165   0.924
 8467TIP3    H125365   0.285   2.129   1.013
 8467TIP3    H225366   0.334   2.109   0.871
 8468TIP3   OH225367   5.194   5.995   4.691
 8468TIP3    H125368   5.265   5.998   4.627
 8468TIP3    H225369   5.121   6.040   4.649
 8469TIP3   OH225370   1.928   3.112   3.580
 8469TIP3    H125371   1.950   3.022   3.602
 8469TIP3    H225372   2.011   3.159   3.585
 8470TIP3   OH225373   0.738   5.412   3.303
 8470TIP3    H125374   0.737   5.338   3.243
 8470TIP3    H225375   0.813   5.464   3.276
 8471TIP3   OH225376   4.302   5.042   5.874
 8471TIP3    H125377   4.378   5.063   5.927
 8471TIP3    H225378   4.276   4.954   5.902
 8472TIP3   OH225379   4.391   2.698   4.379
 8472TIP3    H125380   4.439   2.770   4.421
 8472TIP3    H225381   4.361   2.644   4.452
 8473TIP3   OH225382   6.503   2.941   2.941
 8473TIP3    H125383   6.419   2.958   2.898
 8473TIP3    H225384   6.491   2.973   3.030
 8474TIP3   OH225385   5.395   4.690   2.233
 8474TIP3    H125386   5.482   4.675   2.269
 8474TIP3    H225387   5.393   4.636   2.154
 8475TIP3   OH225388   0.891   6.637   5.280
 8475TIP3    H125389   0.810   6.668   5.241
 8475TIP3    H225390   0.880   6.653   5.374
 8476TIP3   OH225391   0.242   5.779   5.704
 8476TIP3    H125392   0.313   5.772   5.768
 8476TIP3    H225393   0.209   5.868   5.715
 8477TIP3   OH225394   5.320   1.264   2.899
 8477TIP3    H125395   5.384   1.320   2.856
 8477TIP3    H225396   5.359   1.176   2.898
 8478TIP3   OH225397   4.596   0.946   0.120
 8478TIP3    H125398   4.656   0.875   0.101
 8478TIP3    H225399   4.591   0.948   0.216
 8479TIP3   OH225400   5.530   4.652   1.000
 8479TIP3    H125401   5.489   4.689   0.922
 8479TIP3    H225402   5.457   4.624   1.055
 8480TIP3   OH225403   2.547   4.994   2.759
 8480TIP3    H125404   2.501   5.009   2.677
 8480TIP3    H225405   2.504   5.052   2.822
 8481TIP3   OH225406   4.425   2.855   2.156
 8481TIP3    H125407   4.384   2.768   2.158
 8481TIP3    H225408   4.416   2.888   2.245
 8482TIP3   OH225409   0.650   6.544   5.804
 8482TIP3    H125410   0.575   6.582   5.758
 8482TIP3    H225411   0.626   6.453   5.818
 8483TIP3   OH225412   6.992   6.262   4.596
 8483TIP3    H125413   7.057   6.330   4.615
 8483TIP3    H225414   6.925   6.307   4.544
 8484TIP3   OH225415   2.405   5.562   0.654
 8484TIP3    H125416   2.474   5.524   0.709
 8484TIP3    H225417   2.389   5.496   0.587
 8485TIP3   OH225418   3.742   5.860   1.758
 8485TIP3    H125419   3.729   5.870   1.663
 8485TIP3    H225420   3.679   5.793   1.784
 8486TIP3   OH225421   1.866   0.548   5.592
 8486TIP3    H125422   1.783   0.515   5.626
 8486TIP3    H225423   1.891   0.486   5.524
 8487TIP3   OH225424   3.659   4.579   3.135
 8487TIP3    H125425   3.666   4.660   3.186
 8487TIP3    H225426   3.594   4.527   3.183
 8488TIP3   OH225427   0.036   1.644   0.883
 8488TIP3    H125428   0.020   1.714   0.945
 8488TIP3    H225429   0.050   1.566   0.938
 8489TIP3   OH225430   0.889   6.355   1.729
 8489TIP3    H125431   0.842   6.345   1.811
 8489TIP3    H225432   0.890   6.449   1.712
 8490TIP3   OH225433   1.126   2.380   5.761
 8490TIP3    H125434   1.091   2.295   5.789
 8490TIP3    H225435   1.132   2.373   5.665
 8491TIP3   OH225436   7.103   0.188   0.848
 8491TIP3    H125437   7.173   0.248   0.823
 8491TIP3    H225438   7.141   0.101   0.837
 8492TIP3   OH225439   0.094   0.716   5.746
 8492TIP3    H125440   0.180   0.741   5.713
 8492TIP3    H225441   0.051   0.799   5.767
 8493TIP3   OH225442   2.916   6.659   3.791
 8493TIP3    H125443   2.872   6.598   3.732
 8493TIP3    H225444   2.881   6.745   3.767
 8494TIP3   OH225445   5.559   0.654   5.268
 8494TIP3    H125446   5.504   0.711   5.322
 8494TIP3    H225447   5.542   0.682   5.178
 8495TIP3   OH225448   5.804   0.177   4.356
 8495TIP3    H125449   5.788   0.270   4.371
 8495TIP3    H225450   5.724   0.145   4.316
 8496TIP3   OH225451   7.124   4.430   0.598
 8496TIP3    H125452   7.189   4.497   0.618
 8496TIP3    H225453   7.113   4.382   0.680
 8497TIP3   OH225454   1.436   1.306   3.835
 8497TIP3    H125455   1.352   1.339   3.803
 8497TIP3    H225456   1.485   1.384   3.861
 8498TIP3   OH225457   2.977   1.192   5.334
 8498TIP3    H125458   2.961   1.245   5.257
 8498TIP3    H225459   3.016   1.111   5.300
 8499TIP3   OH225460   4.337   0.427   1.484
 8499TIP3    H125461   4.304   0.508   1.446
 8499TIP3    H225462   4.286   0.415   1.564
 8500TIP3   OH225463   0.060   4.614   4.470
 8500TIP3    H125464   0.149   4.603   4.435
 8500TIP3    H225465   0.014   4.662   4.401
 8501TIP3   OH225466   2.800   2.100   4.199
 8501TIP3    H125467   2.711   2.133   4.204
 8501TIP3    H225468   2.855   2.178   4.190
 8502TIP3   OH225469   3.187   3.357   0.332
 8502TIP3    H125470   3.127   3.308   0.387
 8502TIP3    H225471   3.269   3.359   0.382
 8503TIP3   OH225472   5.748   6.671   1.292
 8503TIP3    H125473   5.684   6.732   1.330
 8503TIP3    H225474   5.699   6.589   1.281
 8504TIP3   OH225475   1.092   6.761   1.716
 8504TIP3    H125476   1.149   6.786   1.788
 8504TIP3    H225477   1.101   6.832   1.652
 8505TIP3   OH225478   3.216   4.635   0.934
 8505TIP3    H125479   3.273   4.606   1.005
 8505TIP3    H225480   3.145   4.572   0.933
 8506TIP3   OH225481   3.696   4.042   3.728
 8506TIP3    H125482   3.703   4.103   3.802
 8506TIP3    H225483   3.645   4.090   3.662
 8507TIP3   OH225484   4.376   2.602   3.718
 8507TIP3    H125485   4.336   2.654   3.649
 8507TIP3    H225486   4.307   2.542   3.747
 8508TIP3   OH225487   2.758   1.782   3.269
 8508TIP3    H125488   2.769   1.870   3.305
 8508TIP3    H225489   2.675   1.786   3.221
 8509TIP3   OH225490   4.222   1.233   0.005
 8509TIP3    H125491   4.228   1.247   0.100
 8509TIP3    H225492   4.215   1.138  -0.005
 8510TIP3   OH225493   4.912   2.016   0.997
 8510TIP3    H125494   4.842   1.968   1.041
 8510TIP3    H225495   4.926   2.094   1.051
 8511TIP3   OH225496   5.459   6.475   3.730
 8511TIP3    H125497   5.480   6.512   3.644
 8511TIP3    H225498   5.535   6.498   3.784
 8512TIP3   OH225499   1.831   2.746   4.467
 8512TIP3    H125500   1.747   2.787   4.447
 8512TIP3    H225501   1.828   2.730   4.561
 8513TIP3   OH225502   2.499   1.143   0.099
 8513TIP3    H125503   2.534   1.147   0.189
 8513TIP3    H225504   2.448   1.062   0.097
 8514TIP3   OH225505   4.266   6.689   2.710
 8514TIP3    H125506   4.306   6.618   2.661
 8514TIP3    H225507   4.321   6.698   2.788
 8515TIP3   OH225508   5.508   2.844   0.331
 8515TIP3    H125509   5.569   2.815   0.399
 8515TIP3    H225510   5.444   2.898   0.378
 8516TIP3   OH225511   0.501   6.591   0.759
 8516TIP3    H125512   0.524   6.516   0.704
 8516TIP3    H225513   0.552   6.579   0.839
 8517TIP3   OH225514   1.438   1.347   4.578
 8517TIP3    H125515   1.509   1.283   4.580
 8517TIP3    H225516   1.384   1.324   4.653
 8518TIP3   OH225517   3.812   2.889   3.723
 8518TIP3    H125518   3.895   2.936   3.714
 8518TIP3    H225519   3.837   2.796   3.718
 8519TIP3   OH225520   0.647   0.202   3.826
 8519TIP3    H125521   0.701   0.126   3.804
 8519TIP3    H225522   0.686   0.236   3.907
 8520TIP3   OH225523   2.035   1.557   0.399
 8520TIP3    H125524   1.950   1.515   0.391
 8520TIP3    H225525   2.036   1.622   0.328
 8521TIP3   OH225526   4.902   4.757   1.766
 8521TIP3    H125527   4.888   4.726   1.677
 8521TIP3    H225528   4.939   4.682   1.813
 8522TIP3   OH225529   3.089   0.886   3.550
 8522TIP3    H125530   3.141   0.966   3.560
 8522TIP3    H225531   3.086   0.848   3.637
 8523TIP3   OH225532   3.794   0.266   5.381
 8523TIP3    H125533   3.781   0.318   5.301
 8523TIP3    H225534   3.853   0.320   5.434
 8524TIP3   OH225535   2.804   1.772   0.796
 8524TIP3    H125536   2.825   1.773   0.702
 8524TIP3    H225537   2.763   1.857   0.812
 8525TIP3   OH225538   2.839   2.985   5.366
 8525TIP3    H125539   2.921   3.021   5.334
 8525TIP3    H225540   2.784   3.062   5.382
 8526TIP3   OH225541   6.432   3.491   2.619
 8526TIP3    H125542   6.395   3.524   2.701
 8526TIP3    H225543   6.385   3.538   2.551
 8527TIP3   OH225544   5.670   4.424   2.483
 8527TIP3    H125545   5.766   4.419   2.490
 8527TIP3    H225546   5.642   4.468   2.563
 8528TIP3   OH225547   0.182   1.199   0.288
 8528TIP3    H125548   0.202   1.210   0.381
 8528TIP3    H225549   0.196   1.286   0.251
 8529TIP3   OH225550   0.519   6.098   0.179
 8529TIP3    H125551   0.534   6.048   0.099
 8529TIP3    H225552   0.441   6.151   0.161
 8530TIP3   OH225553   0.509   3.172   0.139
 8530TIP3    H125554   0.433   3.201   0.189
 8530TIP3    H225555   0.517   3.079   0.158
 8531TIP3   OH225556   6.171   1.857   2.132
 8531TIP3    H125557   6.224   1.844   2.054
 8531TIP3    H225558   6.081   1.863   2.100
 8532TIP3   OH225559   2.941   1.537   1.369
 8532TIP3    H125560   2.906   1.451   1.392
 8532TIP3    H225561   2.985   1.567   1.449
 8533TIP3   OH225562   2.036   0.045   5.676
 8533TIP3    H125563   2.092   0.048   5.754
 8533TIP3    H225564   1.968   0.111   5.692
 8534TIP3   OH225565   3.994   5.875   1.945
 8534TIP3    H125566   3.955   5.883   1.858
 8534TIP3    H225567   4.079   5.920   1.937
 8535TIP3   OH225568   2.427   1.823   3.679
 8535TIP3    H125569   2.393   1.842   3.767
 8535TIP3    H225570   2.502   1.882   3.669
 8536TIP3   OH225571   6.215   4.365   1.444
 8536TIP3    H125572   6.265   4.306   1.500
 8536TIP3    H225573   6.149   4.404   1.502
 8537TIP3   OH225574   6.554   5.032   3.008
 8537TIP3    H125575   6.590   5.035   3.096
 8537TIP3    H225576   6.622   5.073   2.953
 8538TIP3   OH225577   2.011   1.167   5.327
 8538TIP3    H125578   2.091   1.148   5.278
 8538TIP3    H225579   2.042   1.193   5.414
 8539TIP3   OH225580   0.571   0.463   4.923
 8539TIP3    H125581   0.562   0.462   4.827
 8539TIP3    H225582   0.481   0.450   4.955
 8540TIP3   OH225583   4.491   1.558   0.642
 8540TIP3    H125584   4.436   1.563   0.563
 8540TIP3    H225585   4.577   1.588   0.613
 8541TIP3   OH225586   2.152   3.039   1.422
 8541TIP3    H125587   2.141   3.069   1.331
 8541TIP3    H225588   2.199   3.110   1.465
 8542TIP3   OH225589   0.239   1.187   1.680
 8542TIP3    H125590   0.190   1.242   1.741
 8542TIP3    H225591   0.330   1.192   1.711
 8543TIP3   OH225592   3.978   4.411   0.408
 8543TIP3    H125593   4.062   4.458   0.416
 8543TIP3    H225594   3.935   4.452   0.333
 8544TIP3   OH225595   2.193   6.034   2.512
 8544TIP3    H125596   2.147   6.102   2.463
 8544TIP3    H225597   2.149   5.953   2.488
 8545TIP3   OH225598   4.602   4.918   1.152
 8545TIP3    H125599   4.543   4.989   1.127
 8545TIP3    H225600   4.669   4.960   1.205
 8546TIP3   OH225601   7.089   2.952   3.097
 8546TIP3    H125602   7.107   2.963   3.190
 8546TIP3    H225603   6.998   2.925   3.093
 8547TIP3   OH225604   3.771   0.218   2.553
 8547TIP3    H125605   3.834   0.267   2.606
 8547TIP3    H225606   3.721   0.285   2.507
 8548TIP3   OH225607   6.753   4.772   5.298
 8548TIP3    H125608   6.820   4.704   5.304
 8548TIP3    H225609   6.773   4.831   5.370
 8549TIP3   OH225610   1.229   3.227   2.243
 8549TIP3    H125611   1.203   3.316   2.221
 8549TIP3    H225612   1.230   3.225   2.339
 8550TIP3   OH225613   0.844   5.703   2.967
 8550TIP3    H125614   0.798   5.781   2.997
 8550TIP3    H225615   0.888   5.669   3.045
 8551TIP3   OH225616   5.058   4.842   5.273
 8551TIP3    H125617   5.085   4.755   5.304
 8551TIP3    H225618   5.004   4.878   5.343
 8552TIP3   OH225619   3.795   3.966   4.107
 8552TIP3    H125620   3.702   3.965   4.085
 8552TIP3    H225621   3.810   3.882   4.152
 8553TIP3   OH225622   5.905   2.773   3.134
 8553TIP3    H125623   5.852   2.819   3.069
 8553TIP3    H225624   5.915   2.685   3.100
 8554TIP3   OH225625   1.319   1.818   1.132
 8554TIP3    H125626   1.296   1.868   1.210
 8554TIP3    H225627   1.256   1.847   1.065
 8555TIP3   OH225628   0.231   3.153   3.705
 8555TIP3    H125629   0.324   3.135   3.715
 8555TIP3    H225630   0.211   3.216   3.774
 8556TIP3   OH225631   1.791   6.151   2.566
 8556TIP3    H125632   1.820   6.186   2.482
 8556TIP3    H225633   1.813   6.220   2.629
 8557TIP3   OH225634   6.991   0.889   2.263
 8557TIP3    H125635   7.007   0.893   2.169
 8557TIP3    H225636   7.060   0.832   2.296
 8558TIP3   OH225637   5.292   6.127   1.311
 8558TIP3    H125638   5.239   6.132   1.231
 8558TIP3    H225639   5.306   6.033   1.325
 8559TIP3   OH225640   0.226   0.003   5.338
 8559TIP3    H125641   0.225  -0.082   5.294
 8559TIP3    H225642   0.243   0.066   5.268
 8560TIP3   OH225643   0.083   4.159   4.999
 8560TIP3    H125644   0.043   4.144   4.914
 8560TIP3    H225645   0.015   4.203   5.050
 8561TIP3   OH225646   5.234   2.009   4.243
 8561TIP3    H125647   5.161   1.947   4.242
 8561TIP3    H225648   5.225   2.054   4.328
 8562TIP3   OH225649   2.804   4.675   2.978
 8562TIP3    H125650   2.836   4.746   3.034
 8562TIP3    H225651   2.771   4.609   3.040
 8563TIP3   OH225652   0.357   5.963   4.953
 8563TIP3    H125653   0.320   5.942   4.868
 8563TIP3    H225654   0.394   5.881   4.984
 8564TIP3   OH225655   5.398   3.999   3.462
 8564TIP3    H125656   5.462   4.014   3.392
 8564TIP3    H225657   5.435   4.045   3.538
 8565TIP3   OH225658   4.761   2.261   4.316
 8565TIP3    H125659   4.728   2.296   4.399
 8565TIP3    H225660   4.775   2.338   4.262
 8566TIP3   OH225661   6.329   4.019   5.264
 8566TIP3    H125662   6.281   4.012   5.182
 8566TIP3    H225663   6.394   4.087   5.248
 8567TIP3   OH225664   6.683   2.112   1.363
 8567TIP3    H125665   6.662   2.045   1.298
 8567TIP3    H225666   6.612   2.107   1.427
 8568TIP3   OH225667   6.599   3.422   1.242
 8568TIP3    H125668   6.512   3.383   1.255
 8568TIP3    H225669   6.593   3.508   1.284
 8569TIP3   OH225670   1.519   6.750   3.992
 8569TIP3    H125671   1.510   6.656   4.006
 8569TIP3    H225672   1.612   6.762   3.970
 8570TIP3   OH225673   1.437   0.283   4.121
 8570TIP3    H125674   1.490   0.221   4.172
 8570TIP3    H225675   1.492   0.307   4.047
 8571TIP3   OH225676   0.637   3.270   3.564
 8571TIP3    H125677   0.699   3.336   3.534
 8571TIP3    H225678   0.664   3.190   3.520
 8572TIP3   OH225679   3.036   6.505   3.504
 8572TIP3    H125680   3.034   6.593   3.465
 8572TIP3    H225681   2.953   6.498   3.551
 8573TIP3   OH225682   6.598   6.574   2.313
 8573TIP3    H125683   6.673   6.615   2.270
 8573TIP3    H225684   6.522   6.609   2.266
 8574TIP3   OH225685   3.346   1.446   2.735
 8574TIP3    H125686   3.317   1.365   2.775
 8574TIP3    H225687   3.388   1.419   2.654
 8575TIP3   OH225688   1.240   1.722   4.167
 8575TIP3    H125689   1.178   1.711   4.239
 8575TIP3    H225690   1.291   1.641   4.165
 8576TIP3   OH225691   5.416  -0.015  -0.013
 8576TIP3    H125692   5.450  -0.094   0.029
 8576TIP3    H225693   5.419   0.052   0.056
 8577TIP3   OH225694   5.844   1.422   2.944
 8577TIP3    H125695   5.827   1.512   2.917
 8577TIP3    H225696   5.760   1.391   2.978
 8578TIP3   OH225697   1.085   2.436   2.215
 8578TIP3    H125698   1.045   2.482   2.142
 8578TIP3    H225699   1.021   2.370   2.241
 8579TIP3   OH225700   2.714   3.441   4.190
 8579TIP3    H125701   2.783   3.508   4.191
 8579TIP3    H225702   2.662   3.462   4.113
 8580TIP3   OH225703   0.118   1.020   2.336
 8580TIP3    H125704   0.171   0.960   2.283
 8580TIP3    H225705   0.061   1.063   2.272
 8581TIP3   OH225706   1.591   5.746   4.082
 8581TIP3    H125707   1.609   5.653   4.095
 8581TIP3    H225708   1.676   5.788   4.085
 8582TIP3   OH225709   5.472   6.054   4.612
 8582TIP3    H125710   5.506   5.969   4.586
 8582TIP3    H225711   5.540   6.116   4.587
 8583TIP3   OH225712   1.001   4.035   5.272
 8583TIP3    H125713   1.048   4.055   5.353
 8583TIP3    H225714   0.933   4.102   5.267
 8584TIP3   OH225715   1.571   0.766   3.344
 8584TIP3    H125716   1.478   0.786   3.341
 8584TIP3    H225717   1.580   0.686   3.292
 8585TIP3   OH225718   3.961   0.488   3.766
 8585TIP3    H125719   3.871   0.489   3.798
 8585TIP3    H225720   4.009   0.435   3.829
 8586TIP3   OH225721   7.168   1.071   4.348
 8586TIP3    H125722   7.194   1.148   4.398
 8586TIP3    H225723   7.155   1.103   4.259
 8587TIP3   OH225724   0.519   1.196   0.220
 8587TIP3    H125725   0.557   1.237   0.297
 8587TIP3    H225726   0.551   1.247   0.146
 8588TIP3   OH225727   1.773   0.787   5.225
 8588TIP3    H125728   1.790   0.782   5.319
 8588TIP3    H225729   1.839   0.848   5.191
 8589TIP3   OH225730   5.038   4.002   0.668
 8589TIP3    H125731   5.096   4.070   0.633
 8589TIP3    H225732   4.976   3.985   0.597
 8590TIP3   OH225733   4.301   1.553   1.668
 8590TIP3    H125734   4.284   1.556   1.574
 8590TIP3    H225735   4.274   1.465   1.696
 8591TIP3   OH225736   3.539   2.070   1.655
 8591TIP3    H125737   3.445   2.085   1.643
 8591TIP3    H225738   3.551   2.061   1.749
 8592TIP3   OH225739   3.706   4.832   3.299
 8592TIP3    H125740   3.636   4.851   3.361
 8592TIP3    H225741   3.785   4.824   3.353
 8593TIP3   OH225742   4.693   1.559   3.468
 8593TIP3    H125743   4.662   1.630   3.413
 8593TIP3    H225744   4.629   1.553   3.539
 8594TIP3   OH225745   3.302   0.363   4.414
 8594TIP3    H125746   3.312   0.279   4.368
 8594TIP3    H225747   3.223   0.401   4.375
 8595TIP3   OH225748   6.321   2.631   3.665
 8595TIP3    H125749   6.357   2.549   3.697
 8595TIP3    H225750   6.310   2.685   3.744
 8596TIP3   OH225751   3.868   4.307   1.855
 8596TIP3    H125752   3.864   4.284   1.948
 8596TIP3    H225753   3.777   4.302   1.825
 8597TIP3   OH225754   1.949   3.322   5.058
 8597TIP3    H125755   1.910   3.395   5.010
 8597TIP3    H225756   1.997   3.363   5.130
 8598TIP3   OH225757   6.314   5.537   0.994
 8598TIP3    H125758   6.290   5.623   0.959
 8598TIP3    H225759   6.395   5.553   1.043
 8599TIP3   OH225760   2.711   6.214   3.684
 8599TIP3    H125761   2.671   6.182   3.603
 8599TIP3    H225762   2.663   6.170   3.754
 8600TIP3   OH225763   1.848   3.093   1.022
 8600TIP3    H125764   1.774   3.116   0.966
 8600TIP3    H225765   1.849   2.997   1.022
 8601TIP3   OH225766   4.371   3.403   3.819
 8601TIP3    H125767   4.381   3.496   3.840
 8601TIP3    H225768   4.429   3.358   3.880
 8602TIP3   OH225769   6.068   2.029   1.767
 8602TIP3    H125770   6.007   2.078   1.823
 8602TIP3    H225771   6.011   1.973   1.714
 8603TIP3   OH225772   6.369   3.442   0.617
 8603TIP3    H125773   6.279   3.412   0.605
 8603TIP3    H225774   6.404   3.385   0.686
 8604TIP3   OH225775   1.367   1.141   0.100
 8604TIP3    H125776   1.371   1.049   0.074
 8604TIP3    H225777   1.274   1.161   0.106
 8605TIP3   OH225778   0.455   5.993   0.645
 8605TIP3    H125779   0.444   5.901   0.621
 8605TIP3    H225780   0.503   6.031   0.571
 8606TIP3   OH225781   2.976   5.310   3.319
 8606TIP3    H125782   3.064   5.322   3.352
 8606TIP3    H225783   2.939   5.241   3.373
 8607TIP3   OH225784   1.164   5.023   2.663
 8607TIP3    H125785   1.220   5.057   2.594
 8607TIP3    H225786   1.076   5.056   2.641
 8608TIP3   OH225787   0.715   5.250   5.636
 8608TIP3    H125788   0.658   5.305   5.583
 8608TIP3    H225789   0.670   5.166   5.641
 8609TIP3   OH225790   1.682   4.978   5.714
 8609TIP3    H125791   1.744   4.979   5.640
 8609TIP3    H225792   1.632   4.898   5.702
 8610TIP3   OH225793   3.277   0.171   1.073
 8610TIP3    H125794   3.311   0.086   1.047
 8610TIP3    H225795   3.355   0.224   1.091
 8611TIP3   OH225796   3.965   1.198   4.590
 8611TIP3    H125797   3.914   1.186   4.670
 8611TIP3    H225798   4.010   1.114   4.578
 8612TIP3   OH225799   3.511   1.778   1.169
 8612TIP3    H125800   3.431   1.755   1.217
 8612TIP3    H225801   3.581   1.739   1.221
 8613TIP3   OH225802   5.310   6.466   0.892
 8613TIP3    H125803   5.355   6.385   0.914
 8613TIP3    H225804   5.350   6.532   0.948
 8614TIP3   OH225805   6.009   3.936   1.183
 8614TIP3    H125806   6.084   3.988   1.214
 8614TIP3    H225807   5.945   4.001   1.154
 8615TIP3   OH225808   6.919   2.191   5.737
 8615TIP3    H125809   6.948   2.259   5.798
 8615TIP3    H225810   6.977   2.117   5.755
 8616TIP3   OH225811   6.686   5.106   5.740
 8616TIP3    H125812   6.610   5.151   5.775
 8616TIP3    H225813   6.675   5.015   5.767
 8617TIP3   OH225814   2.914   0.326   2.363
 8617TIP3    H125815   2.880   0.296   2.447
 8617TIP3    H225816   2.892   0.256   2.302
 8618TIP3   OH225817   5.318   6.384   0.618
 8618TIP3    H125818   5.390   6.325   0.642
 8618TIP3    H225819   5.281   6.412   0.702
 8619TIP3   OH225820   2.785   3.779   2.453
 8619TIP3    H125821   2.781   3.698   2.505
 8619TIP3    H225822   2.805   3.750   2.364
 8620TIP3   OH225823   3.236   3.476   5.166
 8620TIP3    H125824   3.147   3.441   5.170
 8620TIP3    H225825   3.237   3.531   5.088
 8621TIP3   OH225826   3.275   4.595   4.494
 8621TIP3    H125827   3.252   4.620   4.583
 8621TIP3    H225828   3.288   4.500   4.499
 8622TIP3   OH225829   4.833   2.837   3.042
 8622TIP3    H125830   4.809   2.848   2.950
 8622TIP3    H225831   4.825   2.925   3.079
 8623TIP3   OH225832   0.877   5.203   0.206
 8623TIP3    H125833   0.936   5.264   0.251
 8623TIP3    H225834   0.814   5.259   0.161
 8624TIP3   OH225835   1.684   2.637   0.708
 8624TIP3    H125836   1.642   2.720   0.687
 8624TIP3    H225837   1.678   2.586   0.628
 8625TIP3   OH225838   1.266   5.247   0.529
 8625TIP3    H125839   1.222   5.306   0.589
 8625TIP3    H225840   1.241   5.279   0.442
 8626TIP3   OH225841   4.242   4.902   0.781
 8626TIP3    H125842   4.331   4.935   0.770
 8626TIP3    H225843   4.245   4.852   0.862
 8627TIP3   OH225844   4.841   3.769   4.566
 8627TIP3    H125845   4.875   3.794   4.651
 8627TIP3    H225846   4.891   3.690   4.542
 8628TIP3   OH225847   4.264   4.488   0.207
 8628TIP3    H125848   4.265   4.581   0.184
 8628TIP3    H225849   4.173   4.461   0.192
 8629TIP3   OH225850   6.305   1.106   3.803
 8629TIP3    H125851   6.339   1.152   3.727
 8629TIP3    H225852   6.210   1.106   3.790
 8630TIP3   OH225853   4.948   2.768   3.917
 8630TIP3    H125854   5.004   2.771   3.839
 8630TIP3    H225855   4.904   2.853   3.918
 8631TIP3   OH225856   2.418   0.644   3.436
 8631TIP3    H125857   2.400   0.558   3.474
 8631TIP3    H225858   2.439   0.699   3.511
 8632TIP3   OH225859   1.243   1.012   5.765
 8632TIP3    H125860   1.189   0.935   5.750
 8632TIP3    H225861   1.267   1.042   5.677
 8633TIP3   OH225862   0.925   3.178   1.429
 8633TIP3    H125863   0.890   3.171   1.518
 8633TIP3    H225864   0.851   3.159   1.372
 8634TIP3   OH225865   5.416   3.744   3.673
 8634TIP3    H125866   5.441   3.836   3.685
 8634TIP3    H225867   5.372   3.742   3.588
 8635TIP3   OH225868   4.878   3.043   3.902
 8635TIP3    H125869   4.938   3.118   3.906
 8635TIP3    H225870   4.798   3.074   3.945
 8636TIP3   OH225871   0.337   2.876   1.876
 8636TIP3    H125872   0.307   2.829   1.954
 8636TIP3    H225873   0.336   2.968   1.902
 8637TIP3   OH225874   5.220   5.302   3.684
 8637TIP3    H125875   5.161   5.260   3.622
 8637TIP3    H225876   5.305   5.261   3.669
 8638TIP3   OH225877   6.297   1.900   4.249
 8638TIP3    H125878   6.285   1.888   4.343
 8638TIP3    H225879   6.262   1.988   4.232
 8639TIP3   OH225880   5.826   1.199   5.538
 8639TIP3    H125881   5.827   1.113   5.580
 8639TIP3    H225882   5.908   1.240   5.566
 8640TIP3   OH225883   3.608   2.094   1.102
 8640TIP3    H125884   3.617   2.003   1.074
 8640TIP3    H225885   3.575   2.089   1.191
 8641TIP3   OH225886   2.149   2.428   1.729
 8641TIP3    H125887   2.104   2.507   1.700
 8641TIP3    H225888   2.081   2.376   1.771
 8642TIP3   OH225889   0.684   6.202   4.247
 8642TIP3    H125890   0.612   6.215   4.186
 8642TIP3    H225891   0.644   6.153   4.320
 8643TIP3   OH225892   1.121   5.729   1.970
 8643TIP3    H125893   1.128   5.694   2.058
 8643TIP3    H225894   1.077   5.814   1.981
 8644TIP3   OH225895   4.847   6.349   1.166
 8644TIP3    H125896   4.923   6.367   1.110
 8644TIP3    H225897   4.797   6.283   1.117
 8645TIP3   OH225898   4.355   0.634   1.174
 8645TIP3    H125899   4.436   0.685   1.172
 8645TIP3    H225900   4.381   0.546   1.148
 8646TIP3   OH225901   3.857   1.065   5.528
 8646TIP3    H125902   3.899   1.002   5.588
 8646TIP3    H225903   3.823   1.133   5.586
 8647TIP3   OH225904   1.402   2.644   2.130
 8647TIP3    H125905   1.383   2.616   2.220
 8647TIP3    H225906   1.486   2.690   2.136
 8648TIP3   OH225907   4.032   5.296   5.504
 8648TIP3    H125908   4.095   5.259   5.567
 8648TIP3    H225909   3.959   5.325   5.558
 8649TIP3   OH225910   0.449   5.851   4.328
 8649TIP3    H125911   0.411   5.937   4.344
 8649TIP3    H225912   0.392   5.791   4.377
 8650TIP3   OH225913   5.124   4.695   0.340
 8650TIP3    H125914   5.102   4.768   0.397
 8650TIP3    H225915   5.190   4.730   0.280
 8651TIP3   OH225916   6.270   5.604   5.311
 8651TIP3    H125917   6.356   5.598   5.272
 8651TIP3    H225918   6.281   5.663   5.386
 8652TIP3   OH225919   1.091   4.027   4.000
 8652TIP3    H125920   1.133   3.972   3.933
 8652TIP3    H225921   1.148   4.104   4.007
 8653TIP3   OH225922   1.413   5.277   2.122
 8653TIP3    H125923   1.459   5.343   2.070
 8653TIP3    H225924   1.320   5.295   2.107
 8654TIP3   OH225925   3.740   3.256   2.565
 8654TIP3    H125926   3.770   3.346   2.560
 8654TIP3    H225927   3.662   3.253   2.510
 8655TIP3   OH225928   0.497   1.460   4.056
 8655TIP3    H125929   0.572   1.406   4.031
 8655TIP3    H225930   0.431   1.441   3.991
 8656TIP3   OH225931   6.726   6.353   3.700
 8656TIP3    H125932   6.756   6.415   3.634
 8656TIP3    H225933   6.736   6.398   3.783
 8657TIP3   OH225934   6.530   1.613   0.173
 8657TIP3    H125935   6.544   1.569   0.090
 8657TIP3    H225936   6.576   1.697   0.164
 8658TIP3   OH225937   7.079   2.404   5.371
 8658TIP3    H125938   7.045   2.453   5.296
 8658TIP3    H225939   7.170   2.386   5.349
 8659TIP3   OH225940   0.879   1.919   1.044
 8659TIP3    H125941   0.907   1.979   1.114
 8659TIP3    H225942   0.947   1.927   0.977
 8660TIP3   OH225943   6.564   2.171   3.168
 8660TIP3    H125944   6.471   2.185   3.152
 8660TIP3    H225945   6.607   2.245   3.125
 8661TIP3   OH225946   4.942   0.099   1.505
 8661TIP3    H125947   4.881   0.147   1.448
 8661TIP3    H225948   4.918   0.126   1.593
 8662TIP3   OH225949   3.329   0.710   2.941
 8662TIP3    H125950   3.422   0.696   2.925
 8662TIP3    H225951   3.291   0.723   2.854
 8663TIP3   OH225952   1.089   2.678   4.064
 8663TIP3    H125953   1.008   2.697   4.112
 8663TIP3    H225954   1.094   2.582   4.064
 8664TIP3   OH225955   5.975   4.352   1.187
 8664TIP3    H125956   5.962   4.434   1.234
 8664TIP3    H225957   5.889   4.311   1.186
 8665TIP3   OH225958   4.406   4.598   4.211
 8665TIP3    H125959   4.401   4.519   4.158
 8665TIP3    H225960   4.316   4.632   4.212
 8666TIP3   OH225961   1.201   6.491   0.079
 8666TIP3    H125962   1.220   6.567   0.024
 8666TIP3    H225963   1.138   6.440   0.028
 8667TIP3   OH225964   3.210   1.781   1.254
 8667TIP3    H125965   3.130   1.832   1.245
 8667TIP3    H225966   3.201   1.710   1.192
 8668TIP3   OH225967   0.451   2.032   4.256
 8668TIP3    H125968   0.420   2.024   4.346
 8668TIP3    H225969   0.482   1.945   4.233
 8669TIP3   OH225970   7.078   1.428   5.769
 8669TIP3    H125971   7.132   1.360   5.728
 8669TIP3    H225972   7.117   1.440   5.855
 8670TIP3   OH225973   2.330   3.014   1.837
 8670TIP3    H125974   2.235   3.020   1.828
 8670TIP3    H225975   2.354   2.938   1.782
 8671TIP3   OH225976   4.280   4.161   1.601
 8671TIP3    H125977   4.235   4.205   1.529
 8671TIP3    H225978   4.305   4.231   1.661
 8672TIP3   OH225979   1.572   1.990   4.384
 8672TIP3    H125980   1.519   1.971   4.461
 8672TIP3    H225981   1.555   1.917   4.324
 8673TIP3   OH225982   5.780   6.423   2.228
 8673TIP3    H125983   5.829   6.344   2.205
 8673TIP3    H225984   5.689   6.396   2.226
 8674TIP3   OH225985   0.565   2.499   2.178
 8674TIP3    H125986   0.546   2.462   2.092
 8674TIP3    H225987   0.484   2.487   2.227
 8675TIP3   OH225988   2.420   1.683   4.857
 8675TIP3    H125989   2.327   1.672   4.879
 8675TIP3    H225990   2.422   1.688   4.762
 8676TIP3   OH225991   2.730   4.834   3.302
 8676TIP3    H125992   2.824   4.820   3.292
 8676TIP3    H225993   2.719   4.929   3.302
 8677TIP3   OH225994   6.987   2.637   3.169
 8677TIP3    H125995   7.057   2.700   3.181
 8677TIP3    H225996   7.024   2.554   3.200
 8678TIP3   OH225997   5.907   0.883   3.538
 8678TIP3    H125998   5.941   0.911   3.623
 8678TIP3    H225999   5.985   0.858   3.488
 8679TIP3   OH226000   1.659   4.622   2.772
 8679TIP3    H126001   1.617   4.630   2.858
 8679TIP3    H226002   1.648   4.529   2.749
 8680TIP3   OH226003   6.008   0.334   5.257
 8680TIP3    H126004   5.970   0.315   5.343
 8680TIP3    H226005   5.936   0.327   5.195
 8681TIP3   OH226006   5.891   0.070   1.382
 8681TIP3    H126007   5.944   0.014   1.440
 8681TIP3    H226008   5.942   0.077   1.302
 8682TIP3   OH226009   5.392   3.359   3.632
 8682TIP3    H126010   5.423   3.387   3.546
 8682TIP3    H226011   5.320   3.418   3.652
 8683TIP3   OH226012   0.950   0.449   5.811
 8683TIP3    H126013   0.880   0.459   5.876
 8683TIP3    H226014   0.911   0.476   5.728
 8684TIP3   OH226015   6.745   1.273   1.257
 8684TIP3    H126016   6.657   1.304   1.273
 8684TIP3    H226017   6.747   1.186   1.297
 8685TIP3   OH226018   6.532   2.824   0.713
 8685TIP3    H126019   6.455   2.881   0.719
 8685TIP3    H226020   6.533   2.777   0.797
 8686TIP3   OH226021   0.768   3.505   5.597
 8686TIP3    H126022   0.783   3.569   5.666
 8686TIP3    H226023   0.715   3.437   5.638
 8687TIP3   OH226024   4.177   3.653   5.623
 8687TIP3    H126025   4.220   3.739   5.630
 8687TIP3    H226026   4.246   3.590   5.646
 8688TIP3   OH226027   2.521   1.566   0.555
 8688TIP3    H126028   2.500   1.538   0.466
 8688TIP3    H226029   2.532   1.660   0.549
 8689TIP3   OH226030   5.080   5.235   3.431
 8689TIP3    H126031   5.008   5.186   3.390
 8689TIP3    H226032   5.159   5.192   3.400
 8690TIP3   OH226033   3.237   4.652   0.464
 8690TIP3    H126034   3.325   4.664   0.426
 8690TIP3    H226035   3.221   4.558   0.458
 8691TIP3   OH226036   3.795   2.776   2.261
 8691TIP3    H126037   3.701   2.779   2.276
 8691TIP3    H226038   3.825   2.865   2.280
 8692TIP3   OH226039   1.250   6.286   1.405
 8692TIP3    H126040   1.163   6.256   1.379
 8692TIP3    H226041   1.234   6.360   1.463
 8693TIP3   OH226042   0.870   5.958   1.694
 8693TIP3    H126043   0.938   6.018   1.664
 8693TIP3    H226044   0.869   5.969   1.789
 8694TIP3   OH226045   2.946   5.986   0.169
 8694TIP3    H126046   2.925   5.935   0.091
 8694TIP3    H226047   2.872   6.044   0.181
 8695TIP3   OH226048   3.533   0.284   0.540
 8695TIP3    H126049   3.516   0.340   0.464
 8695TIP3    H226050   3.540   0.196   0.504
 8696TIP3   OH226051   6.140   1.475   0.295
 8696TIP3    H126052   6.193   1.511   0.225
 8696TIP3    H226053   6.064   1.436   0.251
 8697TIP3   OH226054   0.150   6.769   1.298
 8697TIP3    H126055   0.204   6.698   1.263
 8697TIP3    H226056   0.181   6.781   1.388
 8698TIP3   OH226057   1.821   1.240   1.852
 8698TIP3    H126058   1.801   1.251   1.759
 8698TIP3    H226059   1.742   1.200   1.889
 8699TIP3   OH226060   6.126   4.867   0.677
 8699TIP3    H126061   6.200   4.921   0.646
 8699TIP3    H226062   6.061   4.931   0.705
 8700TIP3   OH226063   4.717   2.241   3.553
 8700TIP3    H126064   4.740   2.256   3.644
 8700TIP3    H226065   4.624   2.217   3.555
 8701TIP3   OH226066   0.535   4.477   5.752
 8701TIP3    H126067   0.533   4.535   5.827
 8701TIP3    H226068   0.614   4.424   5.764
 8702TIP3   OH226069   0.689   4.339   3.320
 8702TIP3    H126070   0.686   4.313   3.412
 8702TIP3    H226071   0.781   4.326   3.294
 8703TIP3   OH226072   0.515   0.165   4.846
 8703TIP3    H126073   0.608   0.145   4.849
 8703TIP3    H226074   0.509   0.244   4.793
 8704TIP3   OH226075   6.716   1.427   4.013
 8704TIP3    H126076   6.779   1.358   3.990
 8704TIP3    H226077   6.680   1.455   3.929
 8705TIP3   OH226078   2.549   3.511   3.536
 8705TIP3    H126079   2.643   3.498   3.547
 8705TIP3    H226080   2.541   3.558   3.453
 8706TIP3   OH226081   5.442   1.612   4.815
 8706TIP3    H126082   5.522   1.653   4.847
 8706TIP3    H226083   5.445   1.624   4.720
 8707TIP3   OH226084   5.528   3.886   5.351
 8707TIP3    H126085   5.602   3.941   5.325
 8707TIP3    H226086   5.523   3.818   5.283
 8708TIP3   OH226087   1.240   4.028   1.385
 8708TIP3    H126088   1.203   4.090   1.322
 8708TIP3    H226089   1.321   4.069   1.415
 8709TIP3   OH226090   2.247   3.309   1.505
 8709TIP3    H126091   2.165   3.358   1.510
 8709TIP3    H226092   2.254   3.266   1.591
 8710TIP3   OH226093   2.312   4.040   3.955
 8710TIP3    H126094   2.322   3.953   3.995
 8710TIP3    H226095   2.246   4.027   3.887
 8711TIP3   OH226096   2.827   3.283   1.332
 8711TIP3    H126097   2.780   3.335   1.397
 8711TIP3    H226098   2.777   3.201   1.326
 8712TIP3   OH226099   2.055   3.071   4.841
 8712TIP3    H126100   2.107   3.113   4.910
 8712TIP3    H226101   1.975   3.124   4.837
 8713TIP3   OH226102   5.324   4.097   5.737
 8713TIP3    H126103   5.400   4.155   5.728
 8713TIP3    H226104   5.362   4.012   5.759
 8714TIP3   OH226105   0.762  -0.010   2.476
 8714TIP3    H126106   0.797   0.027   2.395
 8714TIP3    H226107   0.674  -0.040   2.453
 8715TIP3   OH226108   6.271   3.765   5.002
 8715TIP3    H126109   6.226   3.848   5.017
 8715TIP3    H226110   6.226   3.703   5.060
 8716TIP3   OH226111   3.601   3.304   2.333
 8716TIP3    H126112   3.554   3.283   2.253
 8716TIP3    H226113   3.562   3.386   2.364
 8717TIP3   OH226114   2.557   6.303   1.216
 8717TIP3    H126115   2.612   6.380   1.201
 8717TIP3    H226116   2.617   6.237   1.251
 8718TIP3   OH226117   1.977   4.531   2.361
 8718TIP3    H126118   1.962   4.542   2.267
 8718TIP3    H226119   1.892   4.502   2.395
 8719TIP3   OH226120   4.884   2.195   3.141
 8719TIP3    H126121   4.843   2.245   3.071
 8719TIP3    H226122   4.977   2.190   3.116
 8720TIP3   OH226123   5.021   4.350   2.745
 8720TIP3    H126124   4.984   4.417   2.803
 8720TIP3    H226125   4.964   4.273   2.758
 8721TIP3   OH226126   3.687   5.686   0.578
 8721TIP3    H126127   3.777   5.715   0.590
 8721TIP3    H226128   3.642   5.711   0.658
 8722TIP3   OH226129   5.770   1.389   1.937
 8722TIP3    H126130   5.720   1.308   1.940
 8722TIP3    H226131   5.810   1.396   2.023
 8723TIP3   OH226132   6.425   6.236   1.553
 8723TIP3    H126133   6.439   6.293   1.629
 8723TIP3    H226134   6.415   6.296   1.479
 8724TIP3   OH226135   1.485   2.215   1.007
 8724TIP3    H126136   1.500   2.243   0.917
 8724TIP3    H226137   1.394   2.238   1.025
 8725TIP3   OH226138   4.383   5.025   0.195
 8725TIP3    H126139   4.440   4.968   0.144
 8725TIP3    H226140   4.416   5.113   0.179
 8726TIP3   OH226141   0.833   1.001   3.608
 8726TIP3    H126142   0.902   0.973   3.668
 8726TIP3    H226143   0.866   1.082   3.569
 8727TIP3   OH226144   1.702   4.885   2.377
 8727TIP3    H126145   1.659   4.971   2.374
 8727TIP3    H226146   1.761   4.885   2.302
 8728TIP3   OH226147   3.313   2.145   0.520
 8728TIP3    H126148   3.238   2.118   0.572
 8728TIP3    H226149   3.350   2.219   0.567
 8729TIP3   OH226150   1.683   5.110   5.016
 8729TIP3    H126151   1.616   5.045   5.036
 8729TIP3    H226152   1.669   5.131   4.924
 8730TIP3   OH226153   0.449   4.868   1.832
 8730TIP3    H126154   0.535   4.837   1.861
 8730TIP3    H226155   0.410   4.907   1.910
 8731TIP3   OH226156   3.832   6.107   4.675
 8731TIP3    H126157   3.918   6.070   4.696
 8731TIP3    H226158   3.839   6.133   4.583
 8732TIP3   OH226159   6.973   0.214   0.262
 8732TIP3    H126160   6.963   0.238   0.170
 8732TIP3    H226161   7.060   0.244   0.286
 8733TIP3   OH226162   2.501   4.515   4.666
 8733TIP3    H126163   2.539   4.436   4.627
 8733TIP3    H226164   2.492   4.576   4.594
 8734TIP3   OH226165   2.684   2.567   5.289
 8734TIP3    H126166   2.657   2.559   5.197
 8734TIP3    H226167   2.764   2.619   5.286
 8735TIP3   OH226168   2.442   5.372   5.671
 8735TIP3    H126169   2.519   5.316   5.658
 8735TIP3    H226170   2.471   5.460   5.646
 8736TIP3   OH226171   5.697   3.114   0.984
 8736TIP3    H126172   5.631   3.150   1.043
 8736TIP3    H226173   5.749   3.190   0.958
 8737TIP3   OH226174   5.708   5.577   4.512
 8737TIP3    H126175   5.765   5.612   4.581
 8737TIP3    H226176   5.741   5.489   4.496
 8738TIP3   OH226177   4.997   0.771   2.042
 8738TIP3    H126178   4.933   0.816   1.986
 8738TIP3    H226179   4.944   0.726   2.107
 8739TIP3   OH226180   6.323   5.930   2.078
 8739TIP3    H126181   6.326   6.014   2.125
 8739TIP3    H226182   6.333   5.864   2.147
 8740TIP3   OH226183   3.175   3.689   4.477
 8740TIP3    H126184   3.227   3.643   4.411
 8740TIP3    H226185   3.114   3.742   4.426
 8741TIP3   OH226186   2.559   5.740   4.459
 8741TIP3    H126187   2.585   5.817   4.510
 8741TIP3    H226188   2.607   5.667   4.500
 8742TIP3   OH226189   3.516   5.217   3.627
 8742TIP3    H126190   3.507   5.248   3.717
 8742TIP3    H226191   3.597   5.166   3.628
 8743TIP3   OH226192   0.758   5.941   4.822
 8743TIP3    H126193   0.731   5.907   4.738
 8743TIP3    H226194   0.765   6.036   4.809
 8744TIP3   OH226195   0.628   0.381   2.288
 8744TIP3    H126196   0.554   0.323   2.275
 8744TIP3    H226197   0.610   0.426   2.371
 8745TIP3   OH226198   4.787   4.149   4.740
 8745TIP3    H126199   4.823   4.220   4.687
 8745TIP3    H226200   4.852   4.079   4.735
 8746TIP3   OH226201   4.135   1.968   4.029
 8746TIP3    H126202   4.055   1.999   4.073
 8746TIP3    H226203   4.128   1.873   4.032
 8747TIP3   OH226204   6.696   6.018   0.794
 8747TIP3    H126205   6.770   5.959   0.802
 8747TIP3    H226206   6.686   6.058   0.880
 8748TIP3   OH226207   3.445   3.012   4.722
 8748TIP3    H126208   3.504   2.948   4.761
 8748TIP3    H226209   3.399   2.965   4.653
 8749TIP3   OH226210   6.082   0.596   0.722
 8749TIP3    H126211   6.041   0.588   0.807
 8749TIP3    H226212   6.171   0.564   0.735
 8750TIP3   OH226213   5.154   4.097   5.009
 8750TIP3    H126214   5.064   4.124   4.992
 8750TIP3    H226215   5.205   4.177   5.001
 8751TIP3   OH226216   2.141   6.468   4.277
 8751TIP3    H126217   2.226   6.487   4.318
 8751TIP3    H226218   2.138   6.524   4.200
 8752TIP3   OH226219   3.906   6.479   1.659
 8752TIP3    H126220   3.867   6.566   1.670
 8752TIP3    H226221   3.902   6.440   1.747
 8753TIP3   OH226222   5.596   4.404   0.634
 8753TIP3    H126223   5.658   4.424   0.704
 8753TIP3    H226224   5.610   4.311   0.616
 8754TIP3   OH226225   4.396   2.416   0.360
 8754TIP3    H126226   4.443   2.496   0.338
 8754TIP3    H226227   4.446   2.347   0.317
 8755TIP3   OH226228   1.105   4.215   5.078
 8755TIP3    H126229   1.075   4.143   5.134
 8755TIP3    H226230   1.199   4.202   5.071
 8756TIP3   OH226231   1.848   1.840   4.493
 8756TIP3    H126232   1.760   1.862   4.523
 8756TIP3    H226233   1.895   1.811   4.571
 8757TIP3   OH226234   0.845   1.899   1.614
 8757TIP3    H126235   0.890   1.890   1.530
 8757TIP3    H226236   0.753   1.914   1.590
 8758TIP3   OH226237   3.679   5.095   0.515
 8758TIP3    H126238   3.585   5.108   0.526
 8758TIP3    H226239   3.702   5.146   0.437
 8759TIP3   OH226240   2.255   4.734   5.768
 8759TIP3    H126241   2.176   4.786   5.786
 8759TIP3    H226242   2.239   4.694   5.683
 8760TIP3   OH226243   0.616   5.498   0.712
 8760TIP3    H126244   0.700   5.505   0.759
 8760TIP3    H226245   0.550   5.518   0.778
 8761TIP3   OH226246   5.466   6.152   0.771
 8761TIP3    H126247   5.475   6.116   0.859
 8761TIP3    H226248   5.555   6.161   0.739
 8762TIP3   OH226249   4.734   1.755   1.442
 8762TIP3    H126250   4.681   1.687   1.401
 8762TIP3    H226251   4.683   1.835   1.430
 8763TIP3   OH226252   1.388   0.169   1.695
 8763TIP3    H126253   1.349   0.124   1.770
 8763TIP3    H226254   1.413   0.255   1.728
 8764TIP3   OH226255   1.117   4.086   1.691
 8764TIP3    H126256   1.066   4.118   1.766
 8764TIP3    H226257   1.052   4.042   1.636
 8765TIP3   OH226258   5.737   4.751   3.324
 8765TIP3    H126259   5.659   4.697   3.337
 8765TIP3    H226260   5.703   4.841   3.323
 8766TIP3   OH226261   1.303   3.889   4.772
 8766TIP3    H126262   1.279   3.981   4.782
 8766TIP3    H226263   1.232   3.840   4.813
 8767TIP3   OH226264   4.597   4.828   0.519
 8767TIP3    H126265   4.672   4.879   0.551
 8767TIP3    H226266   4.530   4.893   0.500
 8768TIP3   OH226267   6.365   3.622   4.771
 8768TIP3    H126268   6.348   3.682   4.843
 8768TIP3    H226269   6.392   3.540   4.814
 8769TIP3   OH226270   4.806   5.458   3.704
 8769TIP3    H126271   4.881   5.501   3.663
 8769TIP3    H226272   4.730   5.492   3.656
 8770TIP3   OH226273   3.080   0.919   0.457
 8770TIP3    H126274   3.086   0.904   0.363
 8770TIP3    H226275   3.103   1.011   0.468
 8771TIP3   OH226276   1.116   3.527   1.391
 8771TIP3    H126277   1.073   3.528   1.306
 8771TIP3    H226278   1.209   3.519   1.370
 8772TIP3   OH226279   7.119   5.855   4.179
 8772TIP3    H126280   7.130   5.890   4.267
 8772TIP3    H226281   7.207   5.850   4.143
 8773TIP3   OH226282   4.394   1.419   0.149
 8773TIP3    H126283   4.484   1.400   0.176
 8773TIP3    H226284   4.394   1.402   0.054
 8774TIP3   OH226285   5.781   2.825   4.516
 8774TIP3    H126286   5.767   2.917   4.538
 8774TIP3    H226287   5.693   2.792   4.496
 8775TIP3   OH226288   6.130   1.704   4.187
 8775TIP3    H126289   6.165   1.670   4.104
 8775TIP3    H226290   6.200   1.761   4.221
 8776TIP3   OH226291   5.958   4.360   0.347
 8776TIP3    H126292   6.019   4.432   0.366
 8776TIP3    H226293   5.889   4.401   0.295
 8777TIP3   OH226294   5.035   3.660   4.890
 8777TIP3    H126295   4.958   3.690   4.939
 8777TIP3    H226296   5.057   3.732   4.832
 8778TIP3   OH226297   5.351   3.098   5.224
 8778TIP3    H126298   5.379   3.165   5.286
 8778TIP3    H226299   5.353   3.141   5.138
 8779TIP3   OH226300   1.117   0.633   1.911
 8779TIP3    H126301   1.088   0.692   1.842
 8779TIP3    H226302   1.063   0.657   1.987
 8780TIP3   OH226303   1.460   5.323   0.990
 8780TIP3    H126304   1.546   5.292   1.016
 8780TIP3    H226305   1.410   5.326   1.072
 8781TIP3   OH226306   0.196   6.587   2.992
 8781TIP3    H126307   0.173   6.565   2.902
 8781TIP3    H226308   0.291   6.575   2.996
 8782TIP3   OH226309   2.666   4.409   4.278
 8782TIP3    H126310   2.692   4.417   4.370
 8782TIP3    H226311   2.746   4.381   4.234
 8783TIP3   OH226312   3.555   5.308   1.874
 8783TIP3    H126313   3.605   5.365   1.932
 8783TIP3    H226314   3.498   5.366   1.825
 8784TIP3   OH226315   3.639   3.852   1.148
 8784TIP3    H126316   3.650   3.769   1.194
 8784TIP3    H226317   3.639   3.828   1.055
 8785TIP3   OH226318   6.347   3.348   3.783
 8785TIP3    H126319   6.346   3.377   3.692
 8785TIP3    H226320   6.267   3.296   3.792
 8786TIP3   OH226321   2.366   2.111   4.568
 8786TIP3    H126322   2.271   2.104   4.576
 8786TIP3    H226323   2.381   2.136   4.476
 8787TIP3   OH226324   0.726   4.632   3.255
 8787TIP3    H126325   0.688   4.545   3.266
 8787TIP3    H226326   0.799   4.633   3.317
 8788TIP3   OH226327   1.099   5.366   2.770
 8788TIP3    H126328   1.155   5.303   2.816
 8788TIP3    H226329   1.021   5.317   2.746
 8789TIP3   OH226330   0.374   5.984   3.307
 8789TIP3    H126331   0.355   5.985   3.400
 8789TIP3    H226332   0.310   5.924   3.270
 8790TIP3   OH226333   0.399   4.833   3.984
 8790TIP3    H126334   0.440   4.761   4.032
 8790TIP3    H226335   0.378   4.898   4.051
 8791TIP3   OH226336   6.447   2.554  -0.044
 8791TIP3    H126337   6.377   2.568  -0.108
 8791TIP3    H226338   6.422   2.474   0.002
 8792TIP3   OH226339   0.235   0.718   3.778
 8792TIP3    H126340   0.180   0.796   3.776
 8792TIP3    H226341   0.275   0.715   3.692
 8793TIP3   OH226342   5.345   0.368   4.002
 8793TIP3    H126343   5.293   0.304   4.049
 8793TIP3    H226344   5.300   0.378   3.918
 8794TIP3   OH226345   1.317   3.379   0.935
 8794TIP3    H126346   1.369   3.431   0.996
 8794TIP3    H226347   1.322   3.425   0.852
 8795TIP3   OH226348   4.462   3.826   0.855
 8795TIP3    H126349   4.535   3.838   0.795
 8795TIP3    H226350   4.428   3.915   0.869
 8796TIP3   OH226351   1.840   4.017   3.775
 8796TIP3    H126352   1.798   3.939   3.737
 8796TIP3    H226353   1.816   4.014   3.868
 8797TIP3   OH226354   5.406   0.358   2.089
 8797TIP3    H126355   5.446   0.429   2.039
 8797TIP3    H226356   5.316   0.386   2.104
 8798TIP3   OH226357   2.582   6.601   3.518
 8798TIP3    H126358   2.524   6.630   3.447
 8798TIP3    H226359   2.525   6.547   3.574
 8799TIP3   OH226360   1.569   5.628   1.180
 8799TIP3    H126361   1.650   5.655   1.222
 8799TIP3    H226362   1.535   5.558   1.236
 8800TIP3   OH226363   0.612   1.806   4.227
 8800TIP3    H126364   0.652   1.865   4.292
 8800TIP3    H226365   0.606   1.722   4.272
 8801TIP3   OH226366   6.419   4.757   4.462
 8801TIP3    H126367   6.478   4.731   4.532
 8801TIP3    H226368   6.458   4.721   4.382
 8802TIP3   OH226369   6.667   0.336   1.665
 8802TIP3    H126370   6.735   0.395   1.697
 8802TIP3    H226371   6.639   0.373   1.581
 8803TIP3   OH226372   0.220   6.146   4.133
 8803TIP3    H126373   0.144   6.129   4.188
 8803TIP3    H226374   0.202   6.230   4.091
 8804TIP3   OH226375   6.130   6.766   4.808
 8804TIP3    H126376   6.187   6.841   4.796
 8804TIP3    H226377   6.114   6.733   4.720
 8805TIP3   OH226378   2.273   5.007   1.779
 8805TIP3    H126379   2.266   4.912   1.775
 8805TIP3    H226380   2.341   5.024   1.844
 8806TIP3   OH226381   5.224   2.117   4.483
 8806TIP3    H126382   5.178   2.185   4.532
 8806TIP3    H226383   5.316   2.144   4.487
 8807TIP3   OH226384   0.324   4.949   2.390
 8807TIP3    H126385   0.344   4.891   2.462
 8807TIP3    H226386   0.388   5.020   2.397
 8808TIP3   OH226387   1.328   2.962   4.619
 8808TIP3    H126388   1.290   3.049   4.630
 8808TIP3    H226389   1.325   2.947   4.524
 8809TIP3   OH226390   5.166   2.537   4.067
 8809TIP3    H126391   5.146   2.450   4.101
 8809TIP3    H226392   5.115   2.544   3.986
 8810TIP3   OH226393   4.541   3.212   0.054
 8810TIP3    H126394   4.636   3.206   0.062
 8810TIP3    H226395   4.508   3.196   0.142
 8811TIP3   OH226396   0.292   5.528   5.225
 8811TIP3    H126397   0.317   5.437   5.211
 8811TIP3    H226398   0.288   5.538   5.320
 8812TIP3   OH226399   0.013   6.269   2.634
 8812TIP3    H126400   0.052   6.241   2.716
 8812TIP3    H226401   0.010   6.364   2.639
 8813TIP3   OH226402   4.638   0.811   5.005
 8813TIP3    H126403   4.624   0.800   4.911
 8813TIP3    H226404   4.573   0.754   5.046
 8814TIP3   OH226405   3.091   2.468   5.525
 8814TIP3    H126406   3.143   2.512   5.592
 8814TIP3    H226407   3.005   2.510   5.531
 8815TIP3   OH226408   1.116   0.844   5.047
 8815TIP3    H126409   1.179   0.789   5.001
 8815TIP3    H226410   1.061   0.880   4.978
 8816TIP3   OH226411   0.157   4.418   1.481
 8816TIP3    H126412   0.172   4.324   1.495
 8816TIP3    H226413   0.132   4.424   1.389
 8817TIP3   OH226414   5.452   0.585   0.946
 8817TIP3    H126415   5.364   0.609   0.976
 8817TIP3    H226416   5.497   0.669   0.934
 8818TIP3   OH226417   3.750   4.006   0.218
 8818TIP3    H126418   3.684   4.025   0.152
 8818TIP3    H226419   3.791   4.091   0.238
 8819TIP3   OH226420   4.174   2.388   0.027
 8819TIP3    H126421   4.146   2.404   0.117
 8819TIP3    H226422   4.261   2.350   0.035
 8820TIP3   OH226423   6.379   0.741   0.961
 8820TIP3    H126424   6.407   0.772   1.047
 8820TIP3    H226425   6.422   0.656   0.951
 8821TIP3   OH226426   5.754   2.253   5.052
 8821TIP3    H126427   5.699   2.284   5.124
 8821TIP3    H226428   5.834   2.222   5.095
 8822TIP3   OH226429   4.453   4.131   4.044
 8822TIP3    H126430   4.388   4.148   4.112
 8822TIP3    H226431   4.410   4.067   3.987
 8823TIP3   OH226432   6.310   1.694   4.466
 8823TIP3    H126433   6.312   1.616   4.411
 8823TIP3    H226434   6.399   1.729   4.462
 8824TIP3   OH226435   3.752   5.312   4.278
 8824TIP3    H126436   3.681   5.252   4.301
 8824TIP3    H226437   3.807   5.262   4.219
 8825TIP3   OH226438   1.609   1.002   3.210
 8825TIP3    H126439   1.609   0.931   3.274
 8825TIP3    H226440   1.641   0.961   3.129
 8826TIP3   OH226441   1.928   5.610   0.115
 8826TIP3    H126442   1.874   5.613   0.194
 8826TIP3    H226443   1.935   5.517   0.093
 8827TIP3   OH226444   4.549   3.386   1.917
 8827TIP3    H126445   4.477   3.327   1.942
 8827TIP3    H226446   4.553   3.450   1.987
 8828TIP3   OH226447   3.704   0.477   3.911
 8828TIP3    H126448   3.770   0.472   3.981
 8828TIP3    H226449   3.631   0.524   3.951
 8829TIP3   OH226450   1.448   3.843   1.349
 8829TIP3    H126451   1.373   3.896   1.375
 8829TIP3    H226452   1.515   3.861   1.415
 8830TIP3   OH226453   2.599   2.909   3.840
 8830TIP3    H126454   2.648   2.978   3.884
 8830TIP3    H226455   2.543   2.872   3.909
 8831TIP3   OH226456   3.737   4.256   4.957
 8831TIP3    H126457   3.733   4.269   4.862
 8831TIP3    H226458   3.808   4.313   4.986
 8832TIP3   OH226459   1.453   6.290   1.882
 8832TIP3    H126460   1.381   6.351   1.864
 8832TIP3    H226461   1.425   6.243   1.961
 8833TIP3   OH226462   0.364   4.208   3.038
 8833TIP3    H126463   0.303   4.281   3.023
 8833TIP3    H226464   0.417   4.205   2.958
 8834TIP3   OH226465   4.808   0.313   0.248
 8834TIP3    H126466   4.771   0.399   0.270
 8834TIP3    H226467   4.776   0.255   0.317
 8835TIP3   OH226468   4.068   1.775   1.594
 8835TIP3    H126469   3.973   1.790   1.598
 8835TIP3    H226470   4.106   1.861   1.578
 8836TIP3   OH226471   1.141   2.713   1.545
 8836TIP3    H126472   1.080   2.688   1.475
 8836TIP3    H226473   1.156   2.806   1.531
 8837TIP3   OH226474   5.273   1.623   3.712
 8837TIP3    H126475   5.280   1.600   3.619
 8837TIP3    H226476   5.189   1.586   3.739
 8838TIP3   OH226477   4.247   1.660   2.661
 8838TIP3    H126478   4.176   1.628   2.717
 8838TIP3    H226479   4.243   1.605   2.584
 8839TIP3   OH226480   5.104   3.269   5.279
 8839TIP3    H126481   5.148   3.268   5.194
 8839TIP3    H226482   5.156   3.330   5.332
 8840TIP3   OH226483   5.275   2.948   1.441
 8840TIP3    H126484   5.343   2.915   1.382
 8840TIP3    H226485   5.311   3.029   1.476
 8841TIP3   OH226486   0.056   6.612   1.984
 8841TIP3    H126487   0.002   6.635   2.060
 8841TIP3    H226488   0.063   6.693   1.934
 8842TIP3   OH226489   4.613   0.756   2.375
 8842TIP3    H126490   4.530   0.716   2.349
 8842TIP3    H226491   4.595   0.850   2.375
 8843TIP3   OH226492   4.961   2.982   2.005
 8843TIP3    H126493   4.979   3.034   2.083
 8843TIP3    H226494   5.036   2.995   1.948
 8844TIP3   OH226495   6.852   1.860   0.895
 8844TIP3    H126496   6.911   1.930   0.922
 8844TIP3    H226497   6.899   1.815   0.824
 8845TIP3   OH226498   1.786   2.998   4.249
 8845TIP3    H126499   1.836   2.928   4.207
 8845TIP3    H226500   1.706   3.004   4.196
 8846TIP3   OH226501   1.616   4.420   0.044
 8846TIP3    H126502   1.674   4.344   0.051
 8846TIP3    H226503   1.658   4.488   0.096
 8847TIP3   OH226504   5.382   5.046   2.713
 8847TIP3    H126505   5.380   5.079   2.623
 8847TIP3    H226506   5.324   5.104   2.762
 8848TIP3   OH226507   3.055   1.770   2.456
 8848TIP3    H126508   3.092   1.755   2.543
 8848TIP3    H226509   2.981   1.829   2.471
 8849TIP3   OH226510   3.128   4.999   5.793
 8849TIP3    H126511   3.121   5.053   5.714
 8849TIP3    H226512   3.213   4.955   5.784
 8850TIP3   OH226513   5.843   5.444   3.553
 8850TIP3    H126514   5.875   5.378   3.491
 8850TIP3    H226515   5.910   5.447   3.622
 8851TIP3   OH226516   4.021   4.381   0.116
 8851TIP3    H126517   4.022   4.287   0.138
 8851TIP3    H226518   3.936   4.412   0.147
 8852TIP3   OH226519   3.544   0.781   4.918
 8852TIP3    H126520   3.526   0.873   4.900
 8852TIP3    H226521   3.481   0.734   4.864
 8853TIP3   OH226522   3.544   2.011   3.215
 8853TIP3    H126523   3.535   2.105   3.228
 8853TIP3    H226524   3.628   2.000   3.170
 8854TIP3   OH226525   3.866   6.150   4.420
 8854TIP3    H126526   3.901   6.215   4.359
 8854TIP3    H226527   3.789   6.114   4.376
 8855TIP3   OH226528   5.233   4.225   4.613
 8855TIP3    H126529   5.286   4.145   4.616
 8855TIP3    H226530   5.295   4.295   4.633
 8856TIP3   OH226531   5.624   1.294   4.996
 8856TIP3    H126532   5.675   1.213   4.995
 8856TIP3    H226533   5.578   1.293   5.080
 8857TIP3   OH226534   1.199   6.210   2.166
 8857TIP3    H126535   1.173   6.181   2.253
 8857TIP3    H226536   1.128   6.268   2.138
 8858TIP3   OH226537   3.194   4.328   2.208
 8858TIP3    H126538   3.099   4.329   2.218
 8858TIP3    H226539   3.225   4.404   2.257
 8859TIP3   OH226540   4.100   0.862   0.053
 8859TIP3    H126541   4.038   0.790   0.062
 8859TIP3    H226542   4.047   0.941   0.065
 8860TIP3   OH226543   6.579   1.899   4.055
 8860TIP3    H126544   6.523   1.830   4.090
 8860TIP3    H226545   6.604   1.869   3.968
 8861TIP3   OH226546   1.061   4.637   5.125
 8861TIP3    H126547   1.002   4.576   5.082
 8861TIP3    H226548   1.052   4.718   5.074
 8862TIP3   OH226549   3.662   6.069   2.333
 8862TIP3    H126550   3.688   6.053   2.242
 8862TIP3    H226551   3.594   6.003   2.350
 8863TIP3   OH226552   4.457   3.094   1.976
 8863TIP3    H126553   4.497   3.072   1.891
 8863TIP3    H226554   4.418   3.012   2.006
 8864TIP3   OH226555   5.911   2.159   0.343
 8864TIP3    H126556   5.950   2.230   0.393
 8864TIP3    H226557   5.929   2.080   0.395
 8865TIP3   OH226558   5.534   4.938   2.309
 8865TIP3    H126559   5.565   4.959   2.221
 8865TIP3    H226560   5.463   4.875   2.296
 8866TIP3   OH226561   5.355   2.311   4.227
 8866TIP3    H126562   5.320   2.390   4.269
 8866TIP3    H226563   5.278   2.266   4.194
 8867TIP3   OH226564   6.657  -0.004   2.371
 8867TIP3    H126565   6.662   0.029   2.281
 8867TIP3    H226566   6.605   0.062   2.418
 8868TIP3   OH226567   3.476   2.622   5.280
 8868TIP3    H126568   3.404   2.626   5.217
 8868TIP3    H226569   3.512   2.711   5.281
 8869TIP3   OH226570   6.606   3.162   0.746
 8869TIP3    H126571   6.545   3.129   0.679
 8869TIP3    H226572   6.636   3.246   0.711
 8870TIP3   OH226573   5.546   3.409   1.045
 8870TIP3    H126574   5.457   3.443   1.058
 8870TIP3    H226575   5.551   3.333   1.102
 8871TIP3   OH226576   6.979   2.109   0.192
 8871TIP3    H126577   7.008   2.132   0.280
 8871TIP3    H226578   7.054   2.064   0.153
 8872TIP3   OH226579   3.089   1.455   5.513
 8872TIP3    H126580   3.062   1.484   5.600
 8872TIP3    H226581   3.113   1.363   5.525
 8873TIP3   OH226582   1.067   4.418   0.071
 8873TIP3    H126583   1.143   4.401   0.127
 8873TIP3    H226584   1.078   4.508   0.043
 8874TIP3   OH226585   5.223   3.138   0.231
 8874TIP3    H126586   5.194   3.201   0.296
 8874TIP3    H226587   5.242   3.059   0.281
 8875TIP3   OH226588   2.175   3.142   3.321
 8875TIP3    H126589   2.109   3.119   3.387
 8875TIP3    H226590   2.146   3.098   3.241
 8876TIP3   OH226591   5.361   1.588   1.021
 8876TIP3    H126592   5.297   1.554   0.958
 8876TIP3    H226593   5.446   1.568   0.982
 8877TIP3   OH226594   2.490   2.749   0.247
 8877TIP3    H126595   2.439   2.830   0.246
 8877TIP3    H226596   2.436   2.686   0.200
 8878TIP3   OH226597   4.717   0.701   2.845
 8878TIP3    H126598   4.658   0.777   2.844
 8878TIP3    H226599   4.753   0.697   2.757
 8879TIP3   OH226600   7.169   5.051   4.338
 8879TIP3    H126601   7.097   5.111   4.323
 8879TIP3    H226602   7.221   5.055   4.258
 8880TIP3   OH226603   5.957   1.614   0.512
 8880TIP3    H126604   6.041   1.655   0.493
 8880TIP3    H226605   5.908   1.620   0.430
 8881TIP3   OH226606   1.098   5.299   3.186
 8881TIP3    H126607   1.129   5.225   3.238
 8881TIP3    H226608   1.045   5.259   3.117
 8882TIP3   OH226609   0.836   4.698   0.206
 8882TIP3    H126610   0.800   4.787   0.198
 8882TIP3    H226611   0.921   4.702   0.162
 8883TIP3   OH226612   6.854   5.333   0.384
 8883TIP3    H126613   6.889   5.293   0.463
 8883TIP3    H226614   6.865   5.427   0.398
 8884TIP3   OH226615   3.285   5.927   4.513
 8884TIP3    H126616   3.262   6.018   4.532
 8884TIP3    H226617   3.368   5.913   4.560
 8885TIP3   OH226618   6.915   4.178   2.043
 8885TIP3    H126619   6.824   4.151   2.038
 8885TIP3    H226620   6.922   4.250   1.981
 8886TIP3   OH226621   6.512   0.907   4.495
 8886TIP3    H126622   6.536   0.823   4.534
 8886TIP3    H226623   6.420   0.920   4.520
 8887TIP3   OH226624   6.778   0.154   0.582
 8887TIP3    H126625   6.788   0.203   0.663
 8887TIP3    H226626   6.782   0.062   0.609
 8888TIP3   OH226627   2.896   1.949   3.976
 8888TIP3    H126628   2.973   2.004   3.961
 8888TIP3    H226629   2.843   1.999   4.039
 8889TIP3   OH226630   3.857   5.497   1.864
 8889TIP3    H126631   3.912   5.448   1.926
 8889TIP3    H226632   3.778   5.517   1.914
 8890TIP3   OH226633   5.100   1.412   2.711
 8890TIP3    H126634   5.118   1.319   2.699
 8890TIP3    H226635   5.124   1.430   2.802
 8891TIP3   OH226636   5.768   2.279   0.609
 8891TIP3    H126637   5.774   2.208   0.673
 8891TIP3    H226638   5.696   2.252   0.551
 8892TIP3   OH226639   3.574   3.921   0.572
 8892TIP3    H126640   3.595   4.008   0.538
 8892TIP3    H226641   3.635   3.862   0.528
 8893TIP3   OH226642   3.754   1.929   3.050
 8893TIP3    H126643   3.720   1.892   2.969
 8893TIP3    H226644   3.843   1.956   3.028
 8894TIP3   OH226645   4.500   2.003   5.639
 8894TIP3    H126646   4.485   1.909   5.652
 8894TIP3    H226647   4.584   2.006   5.591
 8895TIP3   OH226648   2.665   3.838   4.094
 8895TIP3    H126649   2.635   3.929   4.088
 8895TIP3    H226650   2.622   3.804   4.172
 8896TIP3   OH226651   2.323   0.932   5.589
 8896TIP3    H126652   2.345   0.946   5.497
 8896TIP3    H226653   2.407   0.912   5.631
 8897TIP3   OH226654   3.532   2.878   4.126
 8897TIP3    H126655   3.540   2.851   4.034
 8897TIP3    H226656   3.622   2.877   4.159
 8898TIP3   OH226657   4.754   6.682   5.796
 8898TIP3    H126658   4.660   6.672   5.812
 8898TIP3    H226659   4.762   6.765   5.749
 8899TIP3   OH226660   5.052   0.055   1.202
 8899TIP3    H126661   5.118   0.100   1.255
 8899TIP3    H226662   5.023   0.121   1.139
 8900TIP3   OH226663   7.149   3.662   4.476
 8900TIP3    H126664   7.089   3.709   4.534
 8900TIP3    H226665   7.232   3.709   4.483
 8901TIP3   OH226666   6.211   3.372   1.863
 8901TIP3    H126667   6.224   3.423   1.783
 8901TIP3    H226668   6.126   3.400   1.896
 8902TIP3   OH226669   6.521   0.607   0.376
 8902TIP3    H126670   6.445   0.622   0.432
 8902TIP3    H226671   6.502   0.655   0.295
 8903TIP3   OH226672   5.297   1.260   0.064
 8903TIP3    H126673   5.322   1.252   0.156
 8903TIP3    H226674   5.228   1.326   0.064
 8904TIP3   OH226675   6.447   1.821   3.579
 8904TIP3    H126676   6.473   1.905   3.617
 8904TIP3    H226677   6.445   1.760   3.653
 8905TIP3   OH226678   0.469   2.778   2.104
 8905TIP3    H126679   0.462   2.687   2.077
 8905TIP3    H226680   0.563   2.791   2.119
 8906TIP3   OH226681   1.879   2.010   5.804
 8906TIP3    H126682   1.888   2.095   5.847
 8906TIP3    H226683   1.784   1.994   5.802
 8907TIP3   OH226684   1.133   3.803   5.815
 8907TIP3    H126685   1.174   3.720   5.790
 8907TIP3    H226686   1.183   3.832   5.891
 8908TIP3   OH226687   0.843   6.426   4.902
 8908TIP3    H126688   0.922   6.440   4.954
 8908TIP3    H226689   0.775   6.408   4.966
 8909TIP3   OH226690   6.736   3.651   4.640
 8909TIP3    H126691   6.806   3.702   4.681
 8909TIP3    H226692   6.747   3.562   4.674
 8910TIP3   OH226693   4.440   1.850   0.230
 8910TIP3    H126694   4.521   1.887   0.265
 8910TIP3    H226695   4.417   1.780   0.291
 8911TIP3   OH226696   3.517   4.716   1.024
 8911TIP3    H126697   3.570   4.645   1.061
 8911TIP3    H226698   3.524   4.704   0.929
 8912TIP3   OH226699   5.054   1.779   1.074
 8912TIP3    H126700   4.961   1.763   1.062
 8912TIP3    H226701   5.087   1.797   0.986
 8913TIP3   OH226702   2.783   3.721   2.774
 8913TIP3    H126703   2.802   3.642   2.825
 8913TIP3    H226704   2.700   3.753   2.809
 8914TIP3   OH226705   1.305   4.421   0.207
 8914TIP3    H126706   1.301   4.370   0.288
 8914TIP3    H226707   1.348   4.503   0.232
 8915TIP3   OH226708   6.923   4.580   4.848
 8915TIP3    H126709   6.934   4.649   4.914
 8915TIP3    H226710   6.831   4.555   4.856
 8916TIP3   OH226711   1.849   0.104   0.446
 8916TIP3    H126712   1.935   0.067   0.426
 8916TIP3    H226713   1.845   0.185   0.395
 8917TIP3   OH226714   4.988   5.129   0.907
 8917TIP3    H126715   4.983   5.053   0.964
 8917TIP3    H226716   4.952   5.201   0.959
 8918TIP3   OH226717   2.528   6.442   0.425
 8918TIP3    H126718   2.532   6.411   0.515
 8918TIP3    H226719   2.511   6.363   0.373
 8919TIP3   OH226720   2.760   6.223   0.160
 8919TIP3    H126721   2.789   6.308   0.193
 8919TIP3    H226722   2.684   6.242   0.106
 8920TIP3   OH226723   2.254   1.477   1.983
 8920TIP3    H126724   2.296   1.399   2.020
 8920TIP3    H226725   2.177   1.444   1.938
 8921TIP3   OH226726   6.634   2.535   0.633
 8921TIP3    H126727   6.683   2.508   0.555
 8921TIP3    H226728   6.598   2.621   0.610
 8922TIP3   OH226729   2.363   5.616   4.335
 8922TIP3    H126730   2.441   5.661   4.368
 8922TIP3    H226731   2.334   5.669   4.261
 8923TIP3   OH226732   6.634   5.964   3.924
 8923TIP3    H126733   6.560   6.022   3.910
 8923TIP3    H226734   6.662   5.982   4.014
 8924TIP3   OH226735   3.923   3.908   5.760
 8924TIP3    H126736   3.924   3.813   5.750
 8924TIP3    H226737   3.845   3.936   5.713
 8925TIP3   OH226738   5.698   4.173   2.319
 8925TIP3    H126739   5.687   4.248   2.376
 8925TIP3    H226740   5.636   4.108   2.351
 8926TIP3   OH226741   1.643   6.456   0.710
 8926TIP3    H126742   1.549   6.461   0.697
 8926TIP3    H226743   1.659   6.507   0.789
 8927TIP3   OH226744   5.892   3.987   2.223
 8927TIP3    H126745   5.833   3.932   2.172
 8927TIP3    H226746   5.834   4.047   2.271
 8928TIP3   OH226747   1.462   2.000   4.812
 8928TIP3    H126748   1.384   1.951   4.837
 8928TIP3    H226749   1.439   2.092   4.824
 8929TIP3   OH226750   5.292   3.642   0.895
 8929TIP3    H126751   5.261   3.569   0.949
 8929TIP3    H226752   5.369   3.607   0.850
 8930TIP3   OH226753   5.054   5.649   5.771
 8930TIP3    H126754   5.087   5.698   5.696
 8930TIP3    H226755   5.033   5.716   5.837
 8931TIP3   OH226756   5.473   0.725   4.405
 8931TIP3    H126757   5.558   0.715   4.449
 8931TIP3    H226758   5.461   0.820   4.398
 8932TIP3   OH226759   3.182   3.399   1.572
 8932TIP3    H126760   3.139   3.342   1.509
 8932TIP3    H226761   3.156   3.487   1.546
 8933TIP3   OH226762   4.374   5.295   1.714
 8933TIP3    H126763   4.354   5.268   1.804
 8933TIP3    H226764   4.464   5.326   1.718
 8934TIP3   OH226765   6.567   1.758   5.339
 8934TIP3    H126766   6.475   1.765   5.317
 8934TIP3    H226767   6.591   1.845   5.371
 8935TIP3   OH226768   5.286   1.650   4.291
 8935TIP3    H126769   5.362   1.684   4.244
 8935TIP3    H226770   5.317   1.568   4.329
 8936TIP3   OH226771   4.588   6.173   0.385
 8936TIP3    H126772   4.546   6.134   0.462
 8936TIP3    H226773   4.659   6.226   0.420
 8937TIP3   OH226774   0.177   4.453   0.204
 8937TIP3    H126775   0.082   4.463   0.209
 8937TIP3    H226776   0.209   4.489   0.286
 8938TIP3   OH226777   0.025   4.901   0.344
 8938TIP3    H126778   0.099   4.932   0.290
 8938TIP3    H226779   0.025   4.959   0.420
 8939TIP3   OH226780   1.254   0.043   2.868
 8939TIP3    H126781   1.294  -0.035   2.828
 8939TIP3    H226782   1.313   0.115   2.846
 8940TIP3   OH226783   5.313   4.465   1.127
 8940TIP3    H126784   5.297   4.390   1.185
 8940TIP3    H226785   5.295   4.431   1.039
 8941TIP3   OH226786   2.799   3.979   0.023
 8941TIP3    H126787   2.777   3.886   0.030
 8941TIP3    H226788   2.881   3.987   0.071
 8942TIP3   OH226789   0.717   1.519   2.207
 8942TIP3    H126790   0.621   1.525   2.213
 8942TIP3    H226791   0.740   1.449   2.268
 8943TIP3   OH226792   6.667   5.536   2.122
 8943TIP3    H126793   6.679   5.503   2.033
 8943TIP3    H226794   6.619   5.618   2.110
 8944TIP3   OH226795   0.885   2.460   4.962
 8944TIP3    H126796   0.954   2.394   4.965
 8944TIP3    H226797   0.823   2.433   5.030
 8945TIP3   OH226798   2.529   5.371   4.601
 8945TIP3    H126799   2.562   5.281   4.598
 8945TIP3    H226800   2.589   5.421   4.546
 8946TIP3   OH226801   6.812   6.806   4.447
 8946TIP3    H126802   6.903   6.821   4.424
 8946TIP3    H226803   6.815   6.739   4.516
 8947TIP3   OH226804   0.820   3.788   2.454
 8947TIP3    H126805   0.750   3.824   2.509
 8947TIP3    H226806   0.901   3.822   2.492
 8948TIP3   OH226807   0.767   2.851   3.105
 8948TIP3    H126808   0.797   2.780   3.161
 8948TIP3    H226809   0.686   2.817   3.065
 8949TIP3   OH226810   3.486   5.025   0.133
 8949TIP3    H126811   3.427   4.950   0.133
 8949TIP3    H226812   3.537   5.014   0.052
 8950TIP3   OH226813   2.604   0.376   5.535
 8950TIP3    H126814   2.539   0.447   5.543
 8950TIP3    H226815   2.592   0.342   5.447
 8951TIP3   OH226816   6.060   6.385   2.798
 8951TIP3    H126817   6.130   6.371   2.733
 8951TIP3    H226818   6.106   6.415   2.876
 8952TIP3   OH226819   5.890   3.113   5.179
 8952TIP3    H126820   5.825   3.043   5.186
 8952TIP3    H226821   5.839   3.193   5.190
 8953TIP3   OH226822   0.180   4.720   1.403
 8953TIP3    H126823   0.255   4.737   1.459
 8953TIP3    H226824   0.138   4.643   1.442
 8954TIP3   OH226825   6.962   4.062  -0.016
 8954TIP3    H126826   6.876   4.102  -0.002
 8954TIP3    H226827   7.014   4.089   0.059
 8955TIP3   OH226828   5.127   4.523   1.616
 8955TIP3    H126829   5.222   4.525   1.629
 8955TIP3    H226830   5.094   4.476   1.692
 8956TIP3   OH226831   4.775   1.385   2.543
 8956TIP3    H126832   4.690   1.380   2.585
 8956TIP3    H226833   4.793   1.296   2.512
 8957TIP3   OH226834   5.312   2.003   3.916
 8957TIP3    H126835   5.358   1.921   3.898
 8957TIP3    H226836   5.330   2.021   4.008
 8958TIP3   OH226837   6.414   0.651   4.632
 8958TIP3    H126838   6.324   0.647   4.602
 8958TIP3    H226839   6.408   0.676   4.724
 8959TIP3   OH226840   3.211   2.669   2.934
 8959TIP3    H126841   3.184   2.578   2.931
 8959TIP3    H226842   3.301   2.667   2.968
 8960TIP3   OH226843   2.501   3.321   5.341
 8960TIP3    H126844   2.461   3.271   5.270
 8960TIP3    H226845   2.439   3.312   5.414
 8961TIP3   OH226846   2.765   0.725   5.694
 8961TIP3    H126847   2.671   0.737   5.710
 8961TIP3    H226848   2.798   0.813   5.680
 8962TIP3   OH226849   2.970   5.209   1.069
 8962TIP3    H126850   3.045   5.150   1.071
 8962TIP3    H226851   3.005   5.293   1.098
 8963TIP3   OH226852   3.066   1.875   5.442
 8963TIP3    H126853   3.020   1.830   5.371
 8963TIP3    H226854   3.156   1.884   5.410
 8964TIP3   OH226855   5.005   3.201   3.310
 8964TIP3    H126856   5.096   3.180   3.329
 8964TIP3    H226857   5.002   3.296   3.303
 8965TIP3   OH226858   4.991   0.881   3.350
 8965TIP3    H126859   4.945   0.830   3.283
 8965TIP3    H226860   5.081   0.847   3.347
 8966TIP3   OH226861   5.242   5.331   0.803
 8966TIP3    H126862   5.253   5.420   0.769
 8966TIP3    H226863   5.162   5.334   0.855
 8967TIP3   OH226864   3.655   0.558   0.458
 8967TIP3    H126865   3.565   0.586   0.473
 8967TIP3    H226866   3.708   0.612   0.516
 8968TIP3   OH226867   5.743   2.886   5.117
 8968TIP3    H126868   5.724   2.868   5.209
 8968TIP3    H226869   5.791   2.808   5.087
 8969TIP3   OH226870   5.046   6.053   0.326
 8969TIP3    H126871   5.046   6.137   0.281
 8969TIP3    H226872   4.967   6.053   0.379
 8970TIP3   OH226873   3.652   4.836   1.629
 8970TIP3    H126874   3.588   4.852   1.698
 8970TIP3    H226875   3.650   4.916   1.575
 8971TIP3   OH226876   6.254   5.137   0.854
 8971TIP3    H126877   6.310   5.215   0.845
 8971TIP3    H226878   6.278   5.081   0.780
 8972TIP3   OH226879   5.671   5.384   5.530
 8972TIP3    H126880   5.632   5.466   5.562
 8972TIP3    H226881   5.635   5.316   5.587
 8973TIP3   OH226882   1.220   4.266   1.256
 8973TIP3    H126883   1.155   4.289   1.189
 8973TIP3    H226884   1.250   4.351   1.289
 8974TIP3   OH226885   0.677   2.313   1.037
 8974TIP3    H126886   0.730   2.343   1.111
 8974TIP3    H226887   0.739   2.307   0.964
 8975TIP3   OH226888   6.503   2.182   2.170
 8975TIP3    H126889   6.417   2.181   2.128
 8975TIP3    H226890   6.484   2.179   2.264
 8976TIP3   OH226891   3.697   5.853   1.203
 8976TIP3    H126892   3.730   5.764   1.194
 8976TIP3    H226893   3.696   5.868   1.298
 8977TIP3   OH226894   2.141   6.452   2.682
 8977TIP3    H126895   2.203   6.425   2.614
 8977TIP3    H226896   2.157   6.545   2.694
 8978TIP3   OH226897   6.227   5.071   2.492
 8978TIP3    H126898   6.238   5.062   2.586
 8978TIP3    H226899   6.314   5.097   2.460
 8979TIP3   OH226900   0.022   6.404   3.133
 8979TIP3    H126901   0.081   6.329   3.139
 8979TIP3    H226902   0.079   6.479   3.116
 8980TIP3   OH226903   3.597   6.701   2.128
 8980TIP3    H126904   3.644   6.771   2.173
 8980TIP3    H226905   3.579   6.636   2.196
 8981TIP3   OH226906   2.195   1.184   0.367
 8981TIP3    H126907   2.254   1.258   0.374
 8981TIP3    H226908   2.143   1.186   0.448
 8982TIP3   OH226909   2.445   2.750   3.259
 8982TIP3    H126910   2.480   2.798   3.184
 8982TIP3    H226911   2.351   2.745   3.242
 8983TIP3   OH226912   1.887   3.604   0.924
 8983TIP3    H126913   1.896   3.527   0.980
 8983TIP3    H226914   1.900   3.571   0.835
 8984TIP3   OH226915   6.657   1.068   3.371
 8984TIP3    H126916   6.709   1.024   3.439
 8984TIP3    H226917   6.677   1.020   3.291
 8985TIP3   OH226918   5.854   0.832   3.837
 8985TIP3    H126919   5.929   0.789   3.877
 8985TIP3    H226920   5.807   0.762   3.792
 8986TIP3   OH226921   0.770   1.941   5.740
 8986TIP3    H126922   0.737   1.956   5.829
 8986TIP3    H226923   0.694   1.956   5.684
 8987TIP3   OH226924   2.697   6.106   2.764
 8987TIP3    H126925   2.685   6.036   2.701
 8987TIP3    H226926   2.608   6.132   2.789
 8988TIP3   OH226927   6.850   3.758   1.258
 8988TIP3    H126928   6.917   3.797   1.202
 8988TIP3    H226929   6.786   3.723   1.196
 8989TIP3   OH226930   6.246   6.355   3.712
 8989TIP3    H126931   6.331   6.382   3.677
 8989TIP3    H226932   6.184   6.369   3.640
 8990TIP3   OH226933   4.022   0.960   3.539
 8990TIP3    H126934   3.961   0.894   3.508
 8990TIP3    H226935   3.969   1.038   3.552
 8991TIP3   OH226936   0.247   2.533   1.387
 8991TIP3    H126937   0.200   2.540   1.304
 8991TIP3    H226938   0.322   2.591   1.376
 8992TIP3   OH226939   5.419   2.175   3.740
 8992TIP3    H126940   5.360   2.129   3.800
 8992TIP3    H226941   5.471   2.105   3.700
 8993TIP3   OH226942   3.273   2.959   2.795
 8993TIP3    H126943   3.296   2.884   2.850
 8993TIP3    H226944   3.357   2.998   2.771
 8994TIP3   OH226945   2.016   4.037   5.300
 8994TIP3    H126946   2.014   4.116   5.246
 8994TIP3    H226947   2.106   4.006   5.294
 8995TIP3   OH226948   5.740   1.977   4.353
 8995TIP3    H126949   5.656   1.987   4.308
 8995TIP3    H226950   5.774   1.893   4.322
 8996TIP3   OH226951   2.087   3.057   2.689
 8996TIP3    H126952   2.003   3.092   2.719
 8996TIP3    H226953   2.152   3.095   2.750
 8997TIP3   OH226954   3.585   5.844   3.728
 8997TIP3    H126955   3.643   5.904   3.775
 8997TIP3    H226956   3.535   5.900   3.669
 8998TIP3   OH226957   2.079   4.233   0.418
 8998TIP3    H126958   2.003   4.291   0.410
 8998TIP3    H226959   2.047   4.157   0.466
 8999TIP3   OH226960   6.008   1.160   1.733
 8999TIP3    H126961   6.100   1.157   1.709
 8999TIP3    H226962   5.999   1.242   1.782
 9000TIP3   OH226963   4.275   5.444   1.094
 9000TIP3    H126964   4.312   5.472   1.010
 9000TIP3    H226965   4.285   5.349   1.095
 9001TIP3   OH226966   1.951   2.026   1.631
 9001TIP3    H126967   2.031   2.003   1.679
 9001TIP3    H226968   1.972   2.109   1.589
 9002TIP3   OH226969   2.744   4.831   1.663
 9002TIP3    H126970   2.745   4.905   1.724
 9002TIP3    H226971   2.654   4.828   1.630
 9003TIP3   OH226972   7.199   1.373   5.254
 9003TIP3    H126973   7.264   1.356   5.321
 9003TIP3    H226974   7.115   1.372   5.300
 9004TIP3   OH226975   5.863   5.220   0.517
 9004TIP3    H126976   5.879   5.250   0.606
 9004TIP3    H226977   5.798   5.150   0.527
 9005TIP3   OH226978   6.085   5.452   3.746
 9005TIP3    H126979   6.138   5.392   3.694
 9005TIP3    H226980   6.127   5.537   3.737
 9006TIP3   OH226981   1.946   5.651   2.943
 9006TIP3    H126982   1.859   5.613   2.934
 9006TIP3    H226983   1.930   5.746   2.944
 9007TIP3   OH226984   6.876   4.426   1.200
 9007TIP3    H126985   6.828   4.352   1.164
 9007TIP3    H226986   6.959   4.428   1.152
 9008TIP3   OH226987   2.081   3.081   1.777
 9008TIP3    H126988   2.059   3.108   1.866
 9008TIP3    H226989   2.009   3.024   1.750
 9009TIP3   OH226990   6.665   4.805   1.601
 9009TIP3    H126991   6.669   4.740   1.531
 9009TIP3    H226992   6.622   4.760   1.674
 9010TIP3   OH226993   2.797   3.700   0.045
 9010TIP3    H126994   2.762   3.630  -0.010
 9010TIP3    H226995   2.882   3.668   0.073
 9011TIP3   OH226996   4.379   4.704   0.638
 9011TIP3    H126997   4.453   4.745   0.593
 9011TIP3    H226998   4.327   4.778   0.671
 9012TIP3   OH226999   5.425   4.571   1.977
 9012TIP3    H127000   5.520   4.564   1.970
 9012TIP3    H227001   5.402   4.643   1.918
 9013TIP3   OH227002   4.394   6.488   5.057
 9013TIP3    H127003   4.366   6.543   5.130
 9013TIP3    H227004   4.337   6.512   4.984
 9014TIP3   OH227005   0.250   3.802   5.034
 9014TIP3    H127006   0.247   3.848   4.950
 9014TIP3    H227007   0.258   3.872   5.099
 9015TIP3   OH227008   6.723   5.740   4.358
 9015TIP3    H127009   6.637   5.700   4.348
 9015TIP3    H227010   6.743   5.777   4.271
 9016TIP3   OH227011   1.168   3.634   5.451
 9016TIP3    H127012   1.216   3.663   5.374
 9016TIP3    H227013   1.101   3.574   5.416
 9017TIP3   OH227014   2.109   3.022   0.284
 9017TIP3    H127015   2.159   2.985   0.211
 9017TIP3    H227016   2.032   3.061   0.243
 9018TIP3   OH227017   0.725   6.502   4.163
 9018TIP3    H127018   0.709   6.422   4.113
 9018TIP3    H227019   0.647   6.513   4.217
 9019TIP3   OH227020   4.806   0.090   3.411
 9019TIP3    H127021   4.795   0.159   3.477
 9019TIP3    H227022   4.740   0.024   3.433
 9020TIP3   OH227023   5.503   4.043   0.778
 9020TIP3    H127024   5.561   4.057   0.853
 9020TIP3    H227025   5.419   4.081   0.805
 9021TIP3   OH227026   0.701   0.491   3.428
 9021TIP3    H127027   0.761   0.452   3.492
 9021TIP3    H227028   0.678   0.576   3.465
 9022TIP3   OH227029   5.852   1.039   1.051
 9022TIP3    H127030   5.931   0.986   1.043
 9022TIP3    H227031   5.875   1.123   1.012
 9023TIP3   OH227032   5.488   1.598   1.668
 9023TIP3    H127033   5.450   1.653   1.736
 9023TIP3    H227034   5.416   1.583   1.606
 9024TIP3   OH227035   5.223   5.048   0.121
 9024TIP3    H127036   5.292   5.089   0.172
 9024TIP3    H227037   5.206   5.110   0.050
 9025TIP3   OH227038   0.488   3.094   1.624
 9025TIP3    H127039   0.473   3.037   1.549
 9025TIP3    H227040   0.531   3.038   1.689
 9026TIP3   OH227041   4.765   3.843   4.206
 9026TIP3    H127042   4.729   3.887   4.130
 9026TIP3    H227043   4.795   3.913   4.264
 9027TIP3   OH227044   1.151   1.338   3.709
 9027TIP3    H127045   1.217   1.401   3.678
 9027TIP3    H227046   1.096   1.389   3.769
 9028TIP3   OH227047   3.404   2.162   0.813
 9028TIP3    H127048   3.418   2.248   0.773
 9028TIP3    H227049   3.392   2.182   0.906
 9029TIP3   OH227050   0.419   2.644   4.344
 9029TIP3    H127051   0.403   2.577   4.278
 9029TIP3    H227052   0.334   2.654   4.388
 9030TIP3   OH227053   4.830   6.692   3.400
 9030TIP3    H127054   4.770   6.706   3.473
 9030TIP3    H227055   4.847   6.780   3.366
 9031TIP3   OH227056   2.426   5.657   2.706
 9031TIP3    H127057   2.460   5.719   2.770
 9031TIP3    H227058   2.495   5.590   2.698
 9032TIP3   OH227059   3.936   2.760   5.177
 9032TIP3    H127060   4.025   2.795   5.185
 9032TIP3    H227061   3.934   2.686   5.238
 9033TIP3   OH227062   4.017   2.167   3.245
 9033TIP3    H127063   3.936   2.197   3.203
 9033TIP3    H227064   4.084   2.176   3.177
 9034TIP3   OH227065   1.647   5.122   4.735
 9034TIP3    H127066   1.640   5.057   4.665
 9034TIP3    H227067   1.656   5.206   4.688
 9035TIP3   OH227068   3.125   4.698   1.747
 9035TIP3    H127069   3.194   4.649   1.793
 9035TIP3    H227070   3.167   4.729   1.667
 9036TIP3   OH227071   6.328   6.813   4.560
 9036TIP3    H127072   6.328   6.718   4.548
 9036TIP3    H227073   6.239   6.840   4.535
 9037TIP3   OH227074   5.615   6.417   0.756
 9037TIP3    H127075   5.652   6.398   0.670
 9037TIP3    H227076   5.690   6.442   0.810
 9038TIP3   OH227077   1.732   4.705   0.162
 9038TIP3    H127078   1.654   4.682   0.213
 9038TIP3    H227079   1.799   4.724   0.227
 9039TIP3   OH227080   2.550   1.478   1.543
 9039TIP3    H127081   2.459   1.463   1.570
 9039TIP3    H227082   2.543   1.533   1.465
 9040TIP3   OH227083   4.606   3.773   5.473
 9040TIP3    H127084   4.690   3.766   5.518
 9040TIP3    H227085   4.557   3.837   5.523
 9041TIP3   OH227086   4.180   2.886   4.485
 9041TIP3    H127087   4.186   2.893   4.390
 9041TIP3    H227088   4.143   2.970   4.513
 9042TIP3   OH227089   5.501   3.725   2.250
 9042TIP3    H127090   5.495   3.633   2.277
 9042TIP3    H227091   5.595   3.740   2.236
 9043TIP3   OH227092   6.846   4.010   5.593
 9043TIP3    H127093   6.866   4.104   5.590
 9043TIP3    H227094   6.760   4.005   5.636
 9044TIP3   OH227095   2.451   2.219   0.734
 9044TIP3    H127096   2.442   2.196   0.827
 9044TIP3    H227097   2.542   2.196   0.713
 9045TIP3   OH227098   0.434   0.948   4.588
 9045TIP3    H127099   0.505   0.917   4.532
 9045TIP3    H227100   0.360   0.963   4.529
 9046TIP3   OH227101   0.159   3.955   0.407
 9046TIP3    H127102   0.072   3.984   0.435
 9046TIP3    H227103   0.196   4.031   0.361
 9047TIP3   OH227104   4.119   3.463   3.923
 9047TIP3    H127105   4.087   3.491   3.837
 9047TIP3    H227106   4.214   3.459   3.913
 9048TIP3   OH227107   0.886   3.028   4.057
 9048TIP3    H127108   0.942   2.995   4.127
 9048TIP3    H227109   0.946   3.062   3.991
 9049TIP3   OH227110   4.403   0.380   4.971
 9049TIP3    H127111   4.446   0.295   4.973
 9049TIP3    H227112   4.414   0.411   4.882
 9050TIP3   OH227113   3.437   5.859   2.426
 9050TIP3    H127114   3.453   5.828   2.516
 9050TIP3    H227115   3.346   5.888   2.427
 9051TIP3   OH227116   5.884   5.132   4.145
 9051TIP3    H127117   5.922   5.165   4.064
 9051TIP3    H227118   5.849   5.046   4.122
 9052TIP3   OH227119   3.505   3.434   1.650
 9052TIP3    H127120   3.415   3.455   1.675
 9052TIP3    H227121   3.498   3.394   1.563
 9053TIP3   OH227122   2.720   4.793   2.009
 9053TIP3    H127123   2.775   4.738   1.954
 9053TIP3    H227124   2.742   4.768   2.099
 9054TIP3   OH227125   4.161   3.268   3.671
 9054TIP3    H127126   4.235   3.322   3.698
 9054TIP3    H227127   4.129   3.309   3.591
 9055TIP3   OH227128   3.918   0.652  -0.002
 9055TIP3    H127129   3.909   0.602   0.079
 9055TIP3    H227130   3.911   0.586  -0.072
 9056TIP3   OH227131   4.963   3.928   4.818
 9056TIP3    H127132   4.932   3.979   4.892
 9056TIP3    H227133   5.058   3.941   4.817
 9057TIP3   OH227134   2.285   6.639   1.205
 9057TIP3    H127135   2.251   6.554   1.177
 9057TIP3    H227136   2.297   6.630   1.299
 9058TIP3   OH227137   4.759   4.120   0.055
 9058TIP3    H127138   4.664   4.130   0.056
 9058TIP3    H227139   4.776   4.044   0.111
 9059TIP3   OH227140   1.142   2.985   1.763
 9059TIP3    H127141   1.165   3.021   1.849
 9059TIP3    H227142   1.223   2.946   1.731
 9060TIP3   OH227143   4.006   4.818   1.142
 9060TIP3    H127144   4.069   4.841   1.210
 9060TIP3    H227145   4.018   4.725   1.128
 9061TIP3   OH227146   4.973   5.687   4.612
 9061TIP3    H127147   4.881   5.710   4.603
 9061TIP3    H227148   4.983   5.661   4.703
 9062TIP3   OH227149   0.538   1.706   0.545
 9062TIP3    H127150   0.448   1.733   0.527
 9062TIP3    H227151   0.577   1.692   0.459
 9063TIP3   OH227152   7.043   4.825   5.806
 9063TIP3    H127153   7.115   4.819   5.744
 9063TIP3    H227154   7.041   4.917   5.832
 9064TIP3   OH227155   0.158   1.714   2.790
 9064TIP3    H127156   0.156   1.638   2.732
 9064TIP3    H227157   0.065   1.734   2.806
 9065TIP3   OH227158   5.364   1.555   3.176
 9065TIP3    H127159   5.303   1.621   3.145
 9065TIP3    H227160   5.438   1.605   3.212
 9066TIP3   OH227161   5.425   3.297   5.420
 9066TIP3    H127162   5.399   3.360   5.488
 9066TIP3    H227163   5.463   3.224   5.468
 9067TIP3   OH227164   3.378   3.946   2.624
 9067TIP3    H127165   3.320   3.881   2.665
 9067TIP3    H227166   3.351   4.029   2.663
 9068TIP3   OH227167   4.483   0.292   3.182
 9068TIP3    H127168   4.576   0.275   3.170
 9068TIP3    H227169   4.442   0.259   3.103
 9069TIP3   OH227170   5.682   0.418   4.396
 9069TIP3    H127171   5.676   0.500   4.444
 9069TIP3    H227172   5.595   0.406   4.358
 9070TIP3   OH227173   1.582   2.634   4.873
 9070TIP3    H127174   1.624   2.640   4.787
 9070TIP3    H227175   1.600   2.719   4.914
 9071TIP3   OH227176   6.446   5.482   5.500
 9071TIP3    H127177   6.438   5.519   5.588
 9071TIP3    H227178   6.357   5.483   5.465
 9072TIP3   OH227179   1.057   6.651   1.377
 9072TIP3    H127180   1.115   6.724   1.397
 9072TIP3    H227181   0.969   6.689   1.383
 9073TIP3   OH227182   5.789   3.581   1.673
 9073TIP3    H127183   5.770   3.504   1.621
 9073TIP3    H227184   5.812   3.648   1.609
 9074TIP3   OH227185   3.657   5.291   0.712
 9074TIP3    H127186   3.684   5.217   0.656
 9074TIP3    H227187   3.722   5.292   0.782
 9075TIP3   OH227188   2.302   4.441   4.845
 9075TIP3    H127189   2.353   4.361   4.856
 9075TIP3    H227190   2.340   4.484   4.769
 9076TIP3   OH227191   2.684   3.858   5.805
 9076TIP3    H127192   2.682   3.773   5.761
 9076TIP3    H227193   2.697   3.837   5.897
 9077TIP3   OH227194   6.910   3.930   3.872
 9077TIP3    H127195   6.978   3.869   3.903
 9077TIP3    H227196   6.927   4.011   3.920
 9078TIP3   OH227197   2.478   4.879   1.931
 9078TIP3    H127198   2.417   4.809   1.956
 9078TIP3    H227199   2.565   4.840   1.940
 9079TIP3   OH227200   4.706   0.849   4.446
 9079TIP3    H127201   4.734   0.921   4.501
 9079TIP3    H227202   4.750   0.772   4.482
 9080TIP3   OH227203   3.400   1.044   0.994
 9080TIP3    H127204   3.338   0.974   0.977
 9080TIP3    H227205   3.450   1.014   1.070
 9081TIP3   OH227206   6.605   3.250   3.841
 9081TIP3    H127207   6.520   3.276   3.805
 9081TIP3    H227208   6.583   3.188   3.911
 9082TIP3   OH227209   1.978   1.694   4.287
 9082TIP3    H127210   1.931   1.748   4.351
 9082TIP3    H227211   2.024   1.756   4.231
 9083TIP3   OH227212   0.829   1.445   3.398
 9083TIP3    H127213   0.825   1.352   3.419
 9083TIP3    H227214   0.919   1.471   3.421
 9084TIP3   OH227215   2.314   5.374   4.214
 9084TIP3    H127216   2.314   5.315   4.289
 9084TIP3    H227217   2.320   5.462   4.252
 9085TIP3   OH227218   1.760   4.941   1.909
 9085TIP3    H127219   1.820   4.928   1.982
 9085TIP3    H227220   1.679   4.974   1.950
 9086TIP3   OH227221   2.370   4.228   4.593
 9086TIP3    H127222   2.370   4.263   4.683
 9086TIP3    H227223   2.458   4.193   4.582
 9087TIP3   OH227224   1.361   1.467   0.230
 9087TIP3    H127225   1.446   1.488   0.193
 9087TIP3    H227226   1.380   1.406   0.301
 9088TIP3   OH227227   2.111   1.614   0.871
 9088TIP3    H127228   2.198   1.618   0.830
 9088TIP3    H227229   2.102   1.522   0.898
 9089TIP3   OH227230   1.591   5.469   2.232
 9089TIP3    H127231   1.651   5.485   2.158
 9089TIP3    H227232   1.504   5.482   2.195
 9090TIP3   OH227233   1.061   2.603   1.033
 9090TIP3    H127234   1.056   2.693   1.066
 9090TIP3    H227235   1.151   2.576   1.048
 9091TIP3   OH227236   6.953   1.119   0.015
 9091TIP3    H127237   7.005   1.111   0.094
 9091TIP3    H227238   6.991   1.194  -0.032
 9092TIP3   OH227239   2.327   1.913   3.090
 9092TIP3    H127240   2.400   1.935   3.032
 9092TIP3    H227241   2.294   1.997   3.121
 9093TIP3   OH227242   6.890   3.341   1.795
 9093TIP3    H127243   6.955   3.402   1.828
 9093TIP3    H227244   6.893   3.267   1.856
 9094TIP3   OH227245   6.878   5.934   1.353
 9094TIP3    H127246   6.946   5.995   1.380
 9094TIP3    H227247   6.802   5.959   1.405
 9095TIP3   OH227248   2.951   5.617   3.641
 9095TIP3    H127249   2.911   5.531   3.655
 9095TIP3    H227250   3.037   5.597   3.604
 9096TIP3   OH227251   6.286   4.491   1.230
 9096TIP3    H127252   6.249   4.450   1.308
 9096TIP3    H227253   6.248   4.579   1.228
 9097TIP3   OH227254   0.008   0.132   2.617
 9097TIP3    H127255  -0.072   0.129   2.565
 9097TIP3    H227256   0.065   0.067   2.576
 9098TIP3   OH227257   5.827   1.359   5.288
 9098TIP3    H127258   5.732   1.344   5.289
 9098TIP3    H227259   5.849   1.379   5.379
 9099TIP3   OH227260   2.530   2.497  -0.006
 9099TIP3    H127261   2.445   2.499   0.037
 9099TIP3    H227262   2.592   2.523   0.062
 9100TIP3   OH227263   2.906   3.969   5.143
 9100TIP3    H127264   2.863   4.048   5.176
 9100TIP3    H227265   2.835   3.914   5.110
 9101TIP3   OH227266   3.649   0.823   5.625
 9101TIP3    H127267   3.654   0.828   5.720
 9101TIP3    H227268   3.555   0.816   5.607
 9102TIP3   OH227269   2.946   1.142   5.959
 9102TIP3    H127270   2.970   1.196   5.884
 9102TIP3    H227271   2.936   1.205   6.031
 9103TIP3   OH227272   1.486   0.891   4.342
 9103TIP3    H127273   1.472   0.801   4.373
 9103TIP3    H227274   1.448   0.945   4.411
 9104TIP3   OH227275   3.986   6.299   4.221
 9104TIP3    H127276   3.970   6.268   4.132
 9104TIP3    H227277   4.080   6.317   4.224
 9105TIP3   OH227278   2.479   0.230   1.173
 9105TIP3    H127279   2.495   0.151   1.225
 9105TIP3    H227280   2.506   0.302   1.229
 9106TIP3   OH227281   0.094   6.057   4.984
 9106TIP3    H127282   0.073   6.021   4.898
 9106TIP3    H227283   0.162   5.999   5.018
 9107TIP3   OH227284   6.660   3.632   5.757
 9107TIP3    H127285   6.584   3.589   5.796
 9107TIP3    H227286   6.644   3.629   5.662
 9108TIP3   OH227287   2.466   0.539   2.538
 9108TIP3    H127288   2.530   0.569   2.473
 9108TIP3    H227289   2.463   0.610   2.602
 9109TIP3   OH227290   3.871   3.037   4.696
 9109TIP3    H127291   3.801   3.101   4.685
 9109TIP3    H227292   3.946   3.075   4.650
 9110TIP3   OH227293   5.744   2.379   4.806
 9110TIP3    H127294   5.653   2.395   4.833
 9110TIP3    H227295   5.782   2.331   4.879
 9111TIP3   OH227296   2.888   2.330   5.158
 9111TIP3    H127297   2.955   2.361   5.220
 9111TIP3    H227298   2.833   2.407   5.143
 9112TIP3   OH227299   5.153   6.101   4.346
 9112TIP3    H127300   5.128   6.090   4.254
 9112TIP3    H227301   5.247   6.116   4.343
 9113TIP3   OH227302   1.807   1.499   4.336
 9113TIP3    H127303   1.808   1.414   4.292
 9113TIP3    H227304   1.850   1.559   4.275
 9114TIP3   OH227305   4.712   5.699   3.078
 9114TIP3    H127306   4.779   5.651   3.030
 9114TIP3    H227307   4.702   5.781   3.030
 9115TIP3   OH227308   3.449   6.443   3.264
 9115TIP3    H127309   3.447   6.538   3.278
 9115TIP3    H227310   3.367   6.412   3.303
 9116TIP3   OH227311   5.490   0.627   4.990
 9116TIP3    H127312   5.401   0.597   4.970
 9116TIP3    H227313   5.544   0.548   4.986
 9117TIP3   OH227314   5.902   4.319   5.001
 9117TIP3    H127315   5.981   4.371   5.014
 9117TIP3    H227316   5.830   4.382   5.006
 9118TIP3   OH227317   6.128   3.014   5.543
 9118TIP3    H127318   6.168   3.032   5.458
 9118TIP3    H227319   6.150   2.922   5.561
 9119TIP3   OH227320   6.078   3.287   0.497
 9119TIP3    H127321   5.983   3.293   0.484
 9119TIP3    H227322   6.095   3.338   0.576
 9120TIP3   OH227323   7.035   0.372   5.599
 9120TIP3    H127324   7.015   0.412   5.514
 9120TIP3    H227325   7.061   0.446   5.654
 9121TIP3   OH227326   3.004   5.888   3.593
 9121TIP3    H127327   3.016   5.907   3.500
 9121TIP3    H227328   2.986   5.794   3.596
 9122TIP3   OH227329   3.890   6.426   2.710
 9122TIP3    H127330   3.883   6.431   2.615
 9122TIP3    H227331   3.805   6.458   2.742
 9123TIP3   OH227332   6.191   6.667   0.547
 9123TIP3    H127333   6.248   6.729   0.501
 9123TIP3    H227334   6.240   6.585   0.548
 9124TIP3   OH227335   2.804   5.769   4.212
 9124TIP3    H127336   2.831   5.842   4.157
 9124TIP3    H227337   2.844   5.786   4.297
 9125TIP3   OH227338   3.162   3.570   4.095
 9125TIP3    H127339   3.110   3.601   4.021
 9125TIP3    H227340   3.245   3.618   4.086
 9126TIP3   OH227341   4.294   2.583   2.240
 9126TIP3    H127342   4.370   2.545   2.285
 9126TIP3    H227343   4.286   2.532   2.160
 9127TIP3   OH227344   5.202   4.861   1.918
 9127TIP3    H127345   5.143   4.801   1.963
 9127TIP3    H227346   5.284   4.855   1.966
 9128TIP3   OH227347   5.657   4.367   4.719
 9128TIP3    H127348   5.686   4.430   4.785
 9128TIP3    H227349   5.569   4.396   4.695
 9129TIP3   OH227350   6.807   1.585   5.473
 9129TIP3    H127351   6.774   1.649   5.410
 9129TIP3    H227352   6.732   1.529   5.492
 9130TIP3   OH227353   6.283   5.997   4.830
 9130TIP3    H127354   6.216   5.940   4.868
 9130TIP3    H227355   6.239   6.039   4.756
 9131TIP3   OH227356   1.936   4.880   4.916
 9131TIP3    H127357   1.851   4.875   4.959
 9131TIP3    H227358   1.923   4.942   4.844
 9132TIP3   OH227359   6.947   5.166   1.356
 9132TIP3    H127360   6.865   5.127   1.384
 9132TIP3    H227361   6.958   5.137   1.265
 9133TIP3   OH227362   2.052   5.428   3.707
 9133TIP3    H127363   1.989   5.427   3.780
 9133TIP3    H227364   2.134   5.397   3.746
 9134TIP3   OH227365   7.030   2.975   4.045
 9134TIP3    H127366   7.080   2.997   4.123
 9134TIP3    H227367   6.946   2.943   4.078
 9135TIP3   OH227368   1.336   6.491   5.087
 9135TIP3    H127369   1.352   6.434   5.161
 9135TIP3    H227370   1.404   6.558   5.092
 9136TIP3   OH227371   0.896   5.734   1.160
 9136TIP3    H127372   0.927   5.725   1.250
 9136TIP3    H227373   0.849   5.652   1.143
 9137TIP3   OH227374   0.380   6.599   1.442
 9137TIP3    H127375   0.428   6.679   1.420
 9137TIP3    H227376   0.337   6.619   1.525
 9138TIP3   OH227377   1.340   0.368   5.711
 9138TIP3    H127378   1.305   0.445   5.756
 9138TIP3    H227379   1.380   0.404   5.632
 9139TIP3   OH227380   0.896   5.677   4.530
 9139TIP3    H127381   0.991   5.686   4.533
 9139TIP3    H227382   0.868   5.737   4.461
 9140TIP3   OH227383   4.509   2.059   5.079
 9140TIP3    H127384   4.530   2.096   5.165
 9140TIP3    H227385   4.487   2.135   5.025
 9141TIP3   OH227386   5.935   3.433   1.890
 9141TIP3    H127387   5.882   3.468   1.819
 9141TIP3    H227388   5.890   3.462   1.970
 9142TIP3   OH227389   2.615   4.599   0.238
 9142TIP3    H127390   2.694   4.653   0.241
 9142TIP3    H227391   2.573   4.622   0.155
 9143TIP3   OH227392   0.998   0.589   2.904
 9143TIP3    H127393   0.978   0.585   2.998
 9143TIP3    H227394   1.090   0.616   2.901
 9144TIP3   OH227395   6.211   6.591   2.973
 9144TIP3    H127396   6.243   6.611   2.885
 9144TIP3    H227397   6.273   6.634   3.032
 9145TIP3   OH227398   3.625   5.568   4.321
 9145TIP3    H127399   3.652   5.479   4.295
 9145TIP3    H227400   3.567   5.596   4.251
 9146TIP3   OH227401   3.141   0.491   4.898
 9146TIP3    H127402   3.133   0.399   4.923
 9146TIP3    H227403   3.180   0.534   4.974
 9147TIP3   OH227404   1.261   4.753   1.609
 9147TIP3    H127405   1.319   4.680   1.584
 9147TIP3    H227406   1.258   4.749   1.704
 9148TIP3   OH227407   1.495   6.692   1.670
 9148TIP3    H127408   1.521   6.604   1.645
 9148TIP3    H227409   1.571   6.727   1.716
 9149TIP3   OH227410   5.371   5.066   4.823
 9149TIP3    H127411   5.356   5.054   4.730
 9149TIP3    H227412   5.373   5.161   4.836
 9150TIP3   OH227413   5.105   1.354   3.936
 9150TIP3    H127414   5.044   1.369   3.864
 9150TIP3    H227415   5.106   1.437   3.985
 9151TIP3   OH227416   1.672   2.575   5.291
 9151TIP3    H127417   1.647   2.486   5.267
 9151TIP3    H227418   1.764   2.582   5.263
 9152TIP3   OH227419   1.019   6.014   2.825
 9152TIP3    H127420   0.996   6.064   2.903
 9152TIP3    H227421   1.113   5.998   2.834
 9153TIP3   OH227422   5.554   4.849   0.782
 9153TIP3    H127423   5.502   4.769   0.788
 9153TIP3    H227424   5.641   4.819   0.757
 9154TIP3   OH227425   3.400   4.456   3.892
 9154TIP3    H127426   3.415   4.464   3.798
 9154TIP3    H227427   3.312   4.492   3.905
 9155TIP3   OH227428   1.998   2.135   2.149
 9155TIP3    H127429   1.957   2.180   2.223
 9155TIP3    H227430   1.963   2.046   2.153
 9156TIP3   OH227431   1.373   5.437   4.087
 9156TIP3    H127432   1.392   5.383   4.164
 9156TIP3    H227433   1.385   5.378   4.013
 9157TIP3   OH227434   0.155   6.065   0.581
 9157TIP3    H127435   0.205   6.139   0.616
 9157TIP3    H227436   0.158   5.999   0.650
 9158TIP3   OH227437   4.290   4.041   0.816
 9158TIP3    H127438   4.239   4.077   0.744
 9158TIP3    H227439   4.239   3.966   0.847
 9159TIP3   OH227440   3.549   2.206   5.153
 9159TIP3    H127441   3.584   2.211   5.242
 9159TIP3    H227442   3.600   2.135   5.112
 9160TIP3   OH227443   4.511   0.365   1.841
 9160TIP3    H127444   4.483   0.275   1.824
 9160TIP3    H227445   4.517   0.405   1.755
 9161TIP3   OH227446   3.000   3.067   0.265
 9161TIP3    H127447   3.081   3.075   0.215
 9161TIP3    H227448   3.017   3.114   0.347
 9162TIP3   OH227449   3.083   2.070   4.313
 9162TIP3    H127450   3.079   2.087   4.407
 9162TIP3    H227451   2.998   2.102   4.280
 9163TIP3   OH227452   2.087   3.410   5.703
 9163TIP3    H127453   2.026   3.462   5.651
 9163TIP3    H227454   2.033   3.344   5.746
 9164TIP3   OH227455   3.111   5.711   5.280
 9164TIP3    H127456   3.023   5.696   5.316
 9164TIP3    H227457   3.106   5.682   5.189
 9165TIP3   OH227458   0.833   4.051   2.210
 9165TIP3    H127459   0.804   4.142   2.214
 9165TIP3    H227460   0.758   4.000   2.243
 9166TIP3   OH227461   0.897   6.580   2.509
 9166TIP3    H127462   0.971   6.640   2.507
 9166TIP3    H227463   0.920   6.515   2.576
 9167TIP3   OH227464   0.147   4.332   2.152
 9167TIP3    H127465   0.104   4.369   2.075
 9167TIP3    H227466   0.130   4.239   2.147
 9168TIP3   OH227467   1.606   4.435   1.872
 9168TIP3    H127468   1.555   4.495   1.926
 9168TIP3    H227469   1.682   4.412   1.926
 9169TIP3   OH227470   3.073   3.743   1.292
 9169TIP3    H127471   3.034   3.659   1.268
 9169TIP3    H227472   3.160   3.741   1.253
 9170TIP3   OH227473   1.861   2.205   2.841
 9170TIP3    H127474   1.822   2.118   2.851
 9170TIP3    H227475   1.903   2.222   2.925
 9171TIP3   OH227476   4.740   3.755   1.603
 9171TIP3    H127477   4.711   3.790   1.519
 9171TIP3    H227478   4.659   3.731   1.648
 9172TIP3   OH227479   1.642   5.464   0.167
 9172TIP3    H127480   1.546   5.457   0.169
 9172TIP3    H227481   1.670   5.393   0.108
 9173TIP3   OH227482   4.464   3.249   3.577
 9173TIP3    H127483   4.557   3.249   3.600
 9173TIP3    H227484   4.424   3.309   3.640
 9174TIP3   OH227485   1.874   2.108   4.446
 9174TIP3    H127486   1.857   2.014   4.453
 9174TIP3    H227487   1.959   2.120   4.489
 9175TIP3   OH227488   7.042   2.125   1.842
 9175TIP3    H127489   6.958   2.164   1.866
 9175TIP3    H227490   7.100   2.200   1.830
 9176TIP3   OH227491   3.639   4.581   5.157
 9176TIP3    H127492   3.674   4.626   5.080
 9176TIP3    H227493   3.708   4.590   5.223
 9177TIP3   OH227494   5.025   4.819   3.384
 9177TIP3    H127495   4.956   4.842   3.445
 9177TIP3    H227496   4.984   4.758   3.323
 9178TIP3   OH227497   0.292   2.456   3.374
 9178TIP3    H127498   0.330   2.396   3.310
 9178TIP3    H227499   0.367   2.501   3.412
 9179TIP3   OH227500   4.997   6.026   5.638
 9179TIP3    H127501   4.922   5.982   5.597
 9179TIP3    H227502   4.997   5.992   5.728
 9180TIP3   OH227503   5.750   2.035   2.188
 9180TIP3    H127504   5.701   2.117   2.189
 9180TIP3    H227505   5.813   2.043   2.260
 9181TIP3   OH227506   5.678   2.212   2.517
 9181TIP3    H127507   5.665   2.301   2.485
 9181TIP3    H227508   5.619   2.159   2.465
 9182TIP3   OH227509   0.334   5.446   4.090
 9182TIP3    H127510   0.241   5.433   4.110
 9182TIP3    H227511   0.346   5.402   4.005
 9183TIP3   OH227512   4.208   6.395   1.696
 9183TIP3    H127513   4.131   6.451   1.701
 9183TIP3    H227514   4.259   6.417   1.773
 9184TIP3   OH227515   6.051   1.273   5.663
 9184TIP3    H127516   6.120   1.219   5.703
 9184TIP3    H227517   6.021   1.330   5.734
 9185TIP3   OH227518   0.338   6.600   1.110
 9185TIP3    H127519   0.416   6.609   1.164
 9185TIP3    H227520   0.365   6.542   1.038
 9186TIP3   OH227521   2.510   1.948   2.228
 9186TIP3    H127522   2.550   1.916   2.147
 9186TIP3    H227523   2.576   1.933   2.295
 9187TIP3   OH227524   3.144   2.395   2.888
 9187TIP3    H127525   3.138   2.445   2.806
 9187TIP3    H227526   3.156   2.304   2.859
 9188TIP3   OH227527   2.972   5.703   3.921
 9188TIP3    H127528   3.009   5.678   3.836
 9188TIP3    H227529   3.009   5.789   3.939
 9189TIP3   OH227530   6.748   6.187   2.473
 9189TIP3    H127531   6.806   6.263   2.480
 9189TIP3    H227532   6.682   6.200   2.541
 9190TIP3   OH227533   0.195   6.776   3.267
 9190TIP3    H127534   0.259   6.775   3.196
 9190TIP3    H227535   0.112   6.757   3.225
 9191TIP3   OH227536   2.134   0.785   1.607
 9191TIP3    H127537   2.073   0.846   1.566
 9191TIP3    H227538   2.189   0.754   1.535
 9192TIP3   OH227539   4.446   4.973   4.910
 9192TIP3    H127540   4.436   4.891   4.959
 9192TIP3    H227541   4.496   5.030   4.969
 9193TIP3   OH227542   2.161   3.893   3.465
 9193TIP3    H127543   2.145   3.799   3.459
 9193TIP3    H227544   2.251   3.904   3.436
 9194TIP3   OH227545   6.622   2.041   0.563
 9194TIP3    H127546   6.656   2.115   0.613
 9194TIP3    H227547   6.669   1.965   0.599
 9195TIP3   OH227548   5.245   0.067   2.937
 9195TIP3    H127549   5.302   0.086   3.012
 9195TIP3    H227550   5.263   0.137   2.875
 9196TIP3   OH227551   0.818   0.151   4.252
 9196TIP3    H127552   0.813   0.196   4.336
 9196TIP3    H227553   0.750   0.193   4.199
 9197TIP3   OH227554   3.049   1.682   3.026
 9197TIP3    H127555   3.136   1.710   2.996
 9197TIP3    H227556   3.031   1.604   2.974
 9198TIP3   OH227557   3.844   2.021   2.760
 9198TIP3    H127558   3.904   2.015   2.835
 9198TIP3    H227559   3.895   1.990   2.686
 9199TIP3   OH227560   1.060   4.586   1.429
 9199TIP3    H127561   1.042   4.650   1.498
 9199TIP3    H227562   1.079   4.505   1.477
 9200TIP3   OH227563   6.839   2.297   4.706
 9200TIP3    H127564   6.767   2.245   4.743
 9200TIP3    H227565   6.873   2.243   4.635
 9201TIP3   OH227566   5.165   0.792   4.946
 9201TIP3    H127567   5.253   0.829   4.949
 9201TIP3    H227568   5.155   0.747   5.030
 9202TIP3   OH227569   4.826   3.376   4.319
 9202TIP3    H127570   4.845   3.356   4.227
 9202TIP3    H227571   4.889   3.325   4.369
 9203TIP3   OH227572   5.810   3.847   3.756
 9203TIP3    H127573   5.746   3.778   3.740
 9203TIP3    H227574   5.870   3.808   3.820
 9204TIP3   OH227575   6.567   2.152   4.157
 9204TIP3    H127576   6.623   2.142   4.235
 9204TIP3    H227577   6.583   2.073   4.106
 9205TIP3   OH227578   2.752   5.723   3.130
 9205TIP3    H127579   2.756   5.695   3.221
 9205TIP3    H227580   2.838   5.701   3.094
 9206TIP3   OH227581   7.196   4.488   3.683
 9206TIP3    H127582   7.207   4.425   3.611
 9206TIP3    H227583   7.135   4.553   3.648
 9207TIP3   OH227584   4.075   0.661   0.495
 9207TIP3    H127585   4.121   0.583   0.526
 9207TIP3    H227586   3.997   0.666   0.551
 9208TIP3   OH227587   0.396   1.213   3.474
 9208TIP3    H127588   0.377   1.293   3.425
 9208TIP3    H227589   0.364   1.142   3.419
 9209TIP3   OH227590   4.296   6.293   0.706
 9209TIP3    H127591   4.227   6.359   0.704
 9209TIP3    H227592   4.310   6.276   0.799
 9210TIP3   OH227593   1.709   4.279   1.059
 9210TIP3    H127594   1.727   4.197   1.014
 9210TIP3    H227595   1.782   4.291   1.119
 9211TIP3   OH227596   4.238   0.930   2.761
 9211TIP3    H127597   4.277   0.921   2.848
 9211TIP3    H227598   4.285   0.866   2.707
 9212TIP3   OH227599   5.056   5.621   4.360
 9212TIP3    H127600   5.036   5.630   4.454
 9212TIP3    H227601   5.012   5.695   4.319
 9213TIP3   OH227602   6.581   0.353   4.711
 9213TIP3    H127603   6.584   0.383   4.620
 9213TIP3    H227604   6.601   0.260   4.706
 9214TIP3   OH227605   3.712   2.223   0.868
 9214TIP3    H127606   3.635   2.277   0.850
 9214TIP3    H227607   3.686   2.170   0.944
 9215TIP3   OH227608   1.758   6.528   1.264
 9215TIP3    H127609   1.666   6.505   1.251
 9215TIP3    H227610   1.758   6.624   1.268
 9216TIP3   OH227611   6.071   6.652   2.102
 9216TIP3    H127612   6.063   6.747   2.110
 9216TIP3    H227613   5.989   6.618   2.137
 9217TIP3   OH227614   6.051   1.478   4.416
 9217TIP3    H127615   6.052   1.479   4.512
 9217TIP3    H227616   5.958   1.485   4.393
 9218TIP3   OH227617   3.681   5.686   3.301
 9218TIP3    H127618   3.638   5.629   3.237
 9218TIP3    H227619   3.774   5.678   3.280
 9219TIP3   OH227620   4.294   4.487   5.598
 9219TIP3    H127621   4.264   4.403   5.632
 9219TIP3    H227622   4.253   4.495   5.512
 9220TIP3   OH227623   4.917   6.471   2.118
 9220TIP3    H127624   4.995   6.520   2.091
 9220TIP3    H227625   4.884   6.431   2.038
 9221TIP3   OH227626   1.199   6.513   1.550
 9221TIP3    H127627   1.184   6.565   1.629
 9221TIP3    H227628   1.137   6.548   1.486
 9222TIP3   OH227629   3.187   2.423   4.992
 9222TIP3    H127630   3.242   2.499   5.009
 9222TIP3    H227631   3.218   2.356   5.054
 9223TIP3   OH227632   3.439   3.512   2.391
 9223TIP3    H127633   3.496   3.560   2.331
 9223TIP3    H227634   3.361   3.493   2.340
 9224TIP3   OH227635   1.691   5.382   2.974
 9224TIP3    H127636   1.727   5.318   2.912
 9224TIP3    H227637   1.698   5.466   2.929
 9225TIP3   OH227638   0.006   0.818   5.299
 9225TIP3    H127639   0.030   0.813   5.207
 9225TIP3    H227640   0.039   0.736   5.337
 9226TIP3   OH227641   5.024   3.437   0.763
 9226TIP3    H127642   5.060   3.348   0.760
 9226TIP3    H227643   4.975   3.439   0.846
 9227TIP3   OH227644   3.090   5.662   3.265
 9227TIP3    H127645   3.013   5.708   3.298
 9227TIP3    H227646   3.146   5.650   3.341
 9228TIP3   OH227647   0.612   5.076   3.978
 9228TIP3    H127648   0.568   5.002   3.937
 9228TIP3    H227649   0.555   5.101   4.051
 9229TIP3   OH227650   1.095   1.571   0.763
 9229TIP3    H127651   1.175   1.606   0.803
 9229TIP3    H227652   1.082   1.487   0.807
 9230TIP3   OH227653   6.053   2.250   2.994
 9230TIP3    H127654   5.960   2.269   2.988
 9230TIP3    H227655   6.061   2.196   3.073
 9231TIP3   OH227656   6.049   3.549   5.892
 9231TIP3    H127657   5.956   3.528   5.891
 9231TIP3    H227658   6.063   3.603   5.814
 9232TIP3   OH227659   3.046   0.713   1.273
 9232TIP3    H127660   3.058   0.797   1.228
 9232TIP3    H227661   2.971   0.673   1.229
 9233TIP3   OH227662   0.913   1.237   3.910
 9233TIP3    H127663   0.995   1.188   3.918
 9233TIP3    H227664   0.941   1.327   3.895
 9234TIP3   OH227665   4.513   4.147   4.956
 9234TIP3    H127666   4.491   4.074   5.014
 9234TIP3    H227667   4.468   4.127   4.874
 9235TIP3   OH227668   5.803   2.047   5.362
 9235TIP3    H127669   5.865   1.985   5.324
 9235TIP3    H227670   5.725   2.039   5.307
 9236TIP3   OH227671   2.928   0.065   0.849
 9236TIP3    H127672   2.871  -0.012   0.847
 9236TIP3    H227673   3.007   0.038   0.801
 9237TIP3   OH227674   6.806   2.917   0.779
 9237TIP3    H127675   6.818   2.923   0.874
 9237TIP3    H227676   6.750   2.991   0.758
 9238TIP3   OH227677   1.057   3.485   2.198
 9238TIP3    H127678   1.076   3.551   2.131
 9238TIP3    H227679   1.046   3.535   2.279
 9239TIP3   OH227680   1.723   0.950   2.311
 9239TIP3    H127681   1.652   0.886   2.311
 9239TIP3    H227682   1.679   1.034   2.301
 9240TIP3   OH227683   3.218   0.945   3.101
 9240TIP3    H127684   3.184   1.001   3.031
 9240TIP3    H227685   3.228   0.859   3.059
 9241TIP3   OH227686   4.276   1.472   1.119
 9241TIP3    H127687   4.290   1.484   1.025
 9241TIP3    H227688   4.346   1.412   1.146
 9242TIP3   OH227689   6.414   3.877   4.254
 9242TIP3    H127690   6.416   3.796   4.306
 9242TIP3    H227691   6.405   3.846   4.164
 9243TIP3   OH227692   2.105   2.516   2.633
 9243TIP3    H127693   2.120   2.519   2.539
 9243TIP3    H227694   2.046   2.441   2.646
 9244TIP3   OH227695   6.584   0.800   5.636
 9244TIP3    H127696   6.636   0.726   5.668
 9244TIP3    H227697   6.576   0.858   5.712
 9245TIP3   OH227698   0.310   2.790   0.209
 9245TIP3    H127699   0.388   2.828   0.169
 9245TIP3    H227700   0.320   2.696   0.196
 9246TIP3   OH227701   5.723   4.025   1.652
 9246TIP3    H127702   5.716   3.930   1.653
 9246TIP3    H227703   5.810   4.043   1.615
 9247TIP3   OH227704   0.281   1.484   4.721
 9247TIP3    H127705   0.349   1.548   4.701
 9247TIP3    H227706   0.327   1.401   4.731
 9248TIP3   OH227707   6.522   3.829   2.283
 9248TIP3    H127708   6.551   3.866   2.366
 9248TIP3    H227709   6.513   3.905   2.225
 9249TIP3   OH227710   1.329   4.506   4.897
 9249TIP3    H127711   1.317   4.449   4.821
 9249TIP3    H227712   1.300   4.592   4.868
 9250TIP3   OH227713   6.424   6.130   3.966
 9250TIP3    H127714   6.443   6.203   4.026
 9250TIP3    H227715   6.330   6.137   3.949
 9251TIP3   OH227716   0.917   6.658   4.274
 9251TIP3    H127717   0.839   6.604   4.259
 9251TIP3    H227718   0.924   6.665   4.369
 9252TIP3   OH227719   1.831   4.044   4.072
 9252TIP3    H127720   1.815   4.120   4.128
 9252TIP3    H227721   1.907   4.001   4.110
 9253TIP3   OH227722   2.732   3.154   4.711
 9253TIP3    H127723   2.737   3.120   4.800
 9253TIP3    H227724   2.649   3.203   4.709
 9254TIP3   OH227725   7.003   3.295   4.009
 9254TIP3    H127726   7.098   3.304   4.023
 9254TIP3    H227727   6.968   3.280   4.097
 9255TIP3   OH227728   0.753   6.684   3.302
 9255TIP3    H127729   0.665   6.691   3.338
 9255TIP3    H227730   0.809   6.672   3.378
 9256TIP3   OH227731   0.658   5.555   4.995
 9256TIP3    H127732   0.622   5.468   5.008
 9256TIP3    H227733   0.716   5.546   4.919
 9257TIP3   OH227734   0.309   2.112   2.303
 9257TIP3    H127735   0.280   2.134   2.391
 9257TIP3    H227736   0.404   2.125   2.305
 9258TIP3   OH227737   6.288   4.590   2.405
 9258TIP3    H127738   6.262   4.616   2.316
 9258TIP3    H227739   6.372   4.545   2.393
 9259TIP3   OH227740   1.060   3.291   0.351
 9259TIP3    H127741   1.075   3.247   0.434
 9259TIP3    H227742   0.967   3.276   0.333
 9260TIP3   OH227743   5.531   3.735   1.551
 9260TIP3    H127744   5.447   3.703   1.584
 9260TIP3    H227745   5.552   3.678   1.478
 9261TIP3   OH227746   4.845   4.243   3.264
 9261TIP3    H127747   4.927   4.236   3.314
 9261TIP3    H227748   4.840   4.336   3.241
 9262TIP3   OH227749   7.094   6.088   0.421
 9262TIP3    H127750   7.183   6.103   0.454
 9262TIP3    H227751   7.097   6.002   0.381
 9263TIP3   OH227752   2.348   3.730   0.053
 9263TIP3    H127753   2.409   3.758  -0.016
 9263TIP3    H227754   2.292   3.665   0.010
 9264TIP3   OH227755   2.132   5.068   5.189
 9264TIP3    H127756   2.196   5.129   5.152
 9264TIP3    H227757   2.052   5.121   5.198
 9265TIP3   OH227758   2.529   5.870   4.220
 9265TIP3    H127759   2.614   5.908   4.198
 9265TIP3    H227760   2.546   5.816   4.297
 9266TIP3   OH227761   0.931   4.807   5.720
 9266TIP3    H127762   1.025   4.791   5.727
 9266TIP3    H227763   0.918   4.894   5.758
 9267TIP3   OH227764   6.797   3.702   1.690
 9267TIP3    H127765   6.771   3.612   1.669
 9267TIP3    H227766   6.725   3.735   1.743
 9268TIP3   OH227767   0.514   5.882   3.699
 9268TIP3    H127768   0.572   5.904   3.626
 9268TIP3    H227769   0.547   5.933   3.773
 9269TIP3   OH227770   0.038   2.360   1.787
 9269TIP3    H127771   0.035   2.420   1.862
 9269TIP3    H227772   0.054   2.417   1.712
 9270TIP3   OH227773   5.397   6.586   0.007
 9270TIP3    H127774   5.416   6.665   0.057
 9270TIP3    H227775   5.308   6.599  -0.026
 9271TIP3   OH227776   6.478   3.268   1.741
 9271TIP3    H127777   6.532   3.192   1.721
 9271TIP3    H227778   6.504   3.292   1.830
 9272TIP3   OH227779   0.033   2.964   1.185
 9272TIP3    H127780  -0.018   2.896   1.228
 9272TIP3    H227781  -0.031   3.011   1.131
 9273TIP3   OH227782   1.402   3.442   5.337
 9273TIP3    H127783   1.489   3.430   5.300
 9273TIP3    H227784   1.375   3.529   5.308
 9274TIP3   OH227785   7.097   3.379   1.046
 9274TIP3    H127786   7.009   3.412   1.066
 9274TIP3    H227787   7.115   3.412   0.957
 9275TIP3   OH227788   5.024   5.760   0.201
 9275TIP3    H127789   5.001   5.828   0.264
 9275TIP3    H227790   4.971   5.685   0.225
 9276TIP3   OH227791   6.173   0.071   2.283
 9276TIP3    H127792   6.186   0.132   2.211
 9276TIP3    H227793   6.232   0.101   2.352
 9277TIP3   OH227794   3.580   6.542   4.541
 9277TIP3    H127795   3.609   6.536   4.450
 9277TIP3    H227796   3.485   6.552   4.536
 9278TIP3   OH227797   6.426   3.051   3.220
 9278TIP3    H127798   6.383   3.084   3.300
 9278TIP3    H227799   6.510   3.097   3.218
 9279TIP3   OH227800   0.450   5.059   3.602
 9279TIP3    H127801   0.418   5.017   3.682
 9279TIP3    H227802   0.538   5.024   3.589
 9280TIP3   OH227803   7.081   4.050   5.834
 9280TIP3    H127804   7.168   4.068   5.797
 9280TIP3    H227805   7.022   4.109   5.787
 9281TIP3   OH227806   2.331   5.405   4.845
 9281TIP3    H127807   2.271   5.478   4.833
 9281TIP3    H227808   2.379   5.400   4.763
 9282TIP3   OH227809   3.919   4.133   3.442
 9282TIP3    H127810   3.902   4.130   3.348
 9282TIP3    H227811   3.992   4.072   3.455
 9283TIP3   OH227812   2.697   5.951   1.078
 9283TIP3    H127813   2.730   5.869   1.116
 9283TIP3    H227814   2.740   5.957   0.993
 9284TIP3   OH227815   0.462   5.493   3.242
 9284TIP3    H127816   0.554   5.489   3.268
 9284TIP3    H227817   0.423   5.413   3.280
 9285TIP3   OH227818   6.818   6.491   3.484
 9285TIP3    H127819   6.846   6.478   3.393
 9285TIP3    H227820   6.784   6.580   3.487
 9286TIP3   OH227821   5.985   0.913   4.723
 9286TIP3    H127822   5.924   0.895   4.795
 9286TIP3    H227823   5.978   1.008   4.709
 9287TIP3   OH227824   4.944   1.783   4.629
 9287TIP3    H127825   4.880   1.836   4.676
 9287TIP3    H227826   4.893   1.737   4.563
 9288TIP3   OH227827   6.797   3.771   2.108
 9288TIP3    H127828   6.861   3.731   2.050
 9288TIP3    H227829   6.783   3.706   2.177
 9289TIP3   OH227830   2.987   3.338   5.211
 9289TIP3    H127831   2.914   3.328   5.150
 9289TIP3    H227832   3.005   3.249   5.243
 9290TIP3   OH227833   3.433   5.502   1.162
 9290TIP3    H127834   3.512   5.535   1.119
 9290TIP3    H227835   3.362   5.527   1.104
 9291TIP3   OH227836   2.700   1.683   4.587
 9291TIP3    H127837   2.633   1.617   4.608
 9291TIP3    H227838   2.651   1.765   4.578
 9292TIP3   OH227839   6.617   4.153   2.030
 9292TIP3    H127840   6.607   4.241   1.995
 9292TIP3    H227841   6.531   4.132   2.067
 9293TIP3   OH227842   5.998   3.921   0.447
 9293TIP3    H127843   6.059   3.961   0.384
 9293TIP3    H227844   6.009   3.973   0.527
 9294TIP3   OH227845   6.316   2.216   5.818
 9294TIP3    H127846   6.274   2.301   5.827
 9294TIP3    H227847   6.404   2.235   5.786
 9295TIP3   OH227848   6.891   5.284   5.797
 9295TIP3    H127849   6.819   5.224   5.776
 9295TIP3    H227850   6.871   5.316   5.885
 9296TIP3   OH227851   4.794   4.401   0.194
 9296TIP3    H127852   4.717   4.426   0.142
 9296TIP3    H227853   4.847   4.481   0.197
 9297TIP3   OH227854   1.070   3.592   3.909
 9297TIP3    H127855   1.004   3.657   3.933
 9297TIP3    H227856   1.133   3.594   3.981
 9298TIP3   OH227857   1.919   6.642   0.045
 9298TIP3    H127858   1.896   6.631  -0.048
 9298TIP3    H227859   1.954   6.557   0.072
 9299TIP3   OH227860   6.078   0.154   4.269
 9299TIP3    H127861   6.122   0.202   4.339
 9299TIP3    H227862   5.985   0.174   4.280
 9300TIP3   OH227863   2.112   3.309   0.014
 9300TIP3    H127864   2.164   3.335   0.090
 9300TIP3    H227865   2.035   3.266   0.051
 9301TIP3   OH227866   0.153   0.228   3.900
 9301TIP3    H127867   0.227   0.198   3.847
 9301TIP3    H227868   0.165   0.322   3.909
 9302TIP3   OH227869   7.080   0.479   1.867
 9302TIP3    H127870   7.142   0.502   1.936
 9302TIP3    H227871   7.077   0.384   1.869
 9303TIP3   OH227872   0.584   3.330   4.914
 9303TIP3    H127873   0.596   3.352   4.822
 9303TIP3    H227874   0.530   3.251   4.913
 9304TIP3   OH227875   0.999   3.473   0.802
 9304TIP3    H127876   1.044   3.530   0.740
 9304TIP3    H227877   0.906   3.485   0.783
 9305TIP3   OH227878   1.423   6.686   4.496
 9305TIP3    H127879   1.392   6.686   4.587
 9305TIP3    H227880   1.370   6.620   4.452
 9306TIP3   OH227881   6.710   5.208   5.422
 9306TIP3    H127882   6.765   5.281   5.453
 9306TIP3    H227883   6.671   5.172   5.502
 9307TIP3   OH227884   0.210   0.923   0.235
 9307TIP3    H127885   0.305   0.914   0.245
 9307TIP3    H227886   0.188   1.003   0.283
 9308TIP3   OH227887   3.309   2.061   4.067
 9308TIP3    H127888   3.339   2.051   4.158
 9308TIP3    H227889   3.251   1.986   4.053
 9309TIP3   OH227890   3.608   6.542   2.637
 9309TIP3    H127891   3.654   6.595   2.571
 9309TIP3    H227892   3.566   6.472   2.587
 9310TIP3   OH227893   5.496   1.234   4.756
 9310TIP3    H127894   5.406   1.203   4.770
 9310TIP3    H227895   5.525   1.264   4.842
 9311TIP3   OH227896   1.602   6.170   2.894
 9311TIP3    H127897   1.537   6.201   2.956
 9311TIP3    H227898   1.561   6.181   2.808
 9312TIP3   OH227899   1.508   6.117   2.530
 9312TIP3    H127900   1.506   6.047   2.466
 9312TIP3    H227901   1.601   6.132   2.546
 9313TIP3   OH227902   6.385   0.468   3.334
 9313TIP3    H127903   6.297   0.503   3.321
 9313TIP3    H227904   6.374   0.401   3.402
 9314TIP3   OH227905   1.361   4.943   3.645
 9314TIP3    H127906   1.429   5.010   3.649
 9314TIP3    H227907   1.302   4.965   3.717
 9315TIP3   OH227908   6.644   4.844   5.739
 9315TIP3    H127909   6.585   4.864   5.666
 9315TIP3    H227910   6.611   4.762   5.775
 9316TIP3   OH227911   1.893   4.379   3.629
 9316TIP3    H127912   1.915   4.320   3.701
 9316TIP3    H227913   1.840   4.448   3.668
 9317TIP3   OH227914   1.485   3.266   1.434
 9317TIP3    H127915   1.394   3.276   1.406
 9317TIP3    H227916   1.533   3.247   1.353
 9318TIP3   OH227917   5.861   0.532   1.886
 9318TIP3    H127918   5.827   0.593   1.952
 9318TIP3    H227919   5.846   0.576   1.803
 9319TIP3   OH227920   0.821   3.162   5.494
 9319TIP3    H127921   0.868   3.179   5.575
 9319TIP3    H227922   0.890   3.151   5.428
 9320TIP3   OH227923   0.699   1.141   3.239
 9320TIP3    H127924   0.622   1.084   3.235
 9320TIP3    H227925   0.664   1.228   3.259
 9321TIP3   OH227926   1.077   5.277   1.708
 9321TIP3    H127927   1.147   5.218   1.737
 9321TIP3    H227928   1.098   5.361   1.748
 9322TIP3   OH227929   3.660   5.438   2.110
 9322TIP3    H127930   3.730   5.413   2.171
 9322TIP3    H227931   3.603   5.494   2.161
 9323TIP3   OH227932   3.222   5.747   0.109
 9323TIP3    H127933   3.202   5.767   0.201
 9323TIP3    H227934   3.268   5.824   0.077
 9324TIP3   OH227935   3.112   0.934   0.123
 9324TIP3    H127936   3.123   0.943   0.028
 9324TIP3    H227937   3.049   1.003   0.145
 9325TIP3   OH227938   4.845   0.509   0.671
 9325TIP3    H127939   4.838   0.415   0.655
 9325TIP3    H227940   4.918   0.517   0.733
 9326TIP3   OH227941   1.801   3.645   5.158
 9326TIP3    H127942   1.884   3.627   5.203
 9326TIP3    H227943   1.790   3.740   5.166
 9327TIP3   OH227944   3.902   0.804   4.524
 9327TIP3    H127945   3.842   0.730   4.540
 9327TIP3    H227946   3.950   0.814   4.606
 9328TIP3   OH227947   2.502   4.759   4.805
 9328TIP3    H127948   2.523   4.698   4.734
 9328TIP3    H227949   2.416   4.793   4.781
 9329TIP3   OH227950   1.544   5.866   2.842
 9329TIP3    H127951   1.569   5.869   2.935
 9329TIP3    H227952   1.461   5.913   2.839
 9330TIP3   OH227953   5.936   0.521   2.957
 9330TIP3    H127954   5.922   0.615   2.966
 9330TIP3    H227955   5.858   0.481   2.994
 9331TIP3   OH227956   6.714   0.423   0.171
 9331TIP3    H127957   6.647   0.482   0.206
 9331TIP3    H227958   6.740   0.369   0.246
 9332TIP3   OH227959   0.337   3.912   2.577
 9332TIP3    H127960   0.422   3.948   2.601
 9332TIP3    H227961   0.356   3.824   2.544
 9333TIP3   OH227962   4.266   1.500   5.670
 9333TIP3    H127963   4.236   1.410   5.683
 9333TIP3    H227964   4.258   1.515   5.576
 9334TIP3   OH227965   4.380   0.485   5.512
 9334TIP3    H127966   4.431   0.563   5.487
 9334TIP3    H227967   4.355   0.445   5.429
 9335TIP3   OH227968   1.139   4.357   4.653
 9335TIP3    H127969   1.091   4.436   4.676
 9335TIP3    H227970   1.205   4.386   4.590
 9336TIP3   OH227971   6.956   0.856   5.535
 9336TIP3    H127972   6.910   0.855   5.451
 9336TIP3    H227973   6.942   0.945   5.569
 9337TIP3   OH227974   4.499   6.450   0.568
 9337TIP3    H127975   4.446   6.375   0.595
 9337TIP3    H227976   4.587   6.414   0.559
 9338TIP3   OH227977   1.300   0.189   1.427
 9338TIP3    H127978   1.369   0.140   1.383
 9338TIP3    H227979   1.333   0.201   1.517
 9339TIP3   OH227980   0.708   1.122   1.059
 9339TIP3    H127981   0.681   1.201   1.013
 9339TIP3    H227982   0.799   1.138   1.084
 9340TIP3   OH227983   1.754   4.846   0.411
 9340TIP3    H127984   1.706   4.816   0.488
 9340TIP3    H227985   1.843   4.860   0.443
 9341TIP3   OH227986   3.803   0.810   3.705
 9341TIP3    H127987   3.858   0.735   3.680
 9341TIP3    H227988   3.842   0.842   3.787
 9342TIP3   OH227989   2.316   5.906   3.500
 9342TIP3    H127990   2.357   5.884   3.416
 9342TIP3    H227991   2.238   5.955   3.476
 9343TIP3   OH227992   5.864   1.927   5.596
 9343TIP3    H127993   5.845   1.834   5.579
 9343TIP3    H227994   5.851   1.970   5.512
 9344TIP3   OH227995   7.117   1.194   5.077
 9344TIP3    H127996   7.149   1.270   5.126
 9344TIP3    H227997   7.197   1.147   5.051
 9345TIP3   OH227998   5.722   5.110   3.819
 9345TIP3    H127999   5.735   5.048   3.891
 9345TIP3    H228000   5.627   5.124   3.816
 9346TIP3   OH228001   4.516   2.973   1.421
 9346TIP3    H128002   4.576   2.915   1.467
 9346TIP3    H228003   4.553   3.061   1.434
 9347TIP3   OH228004   3.910   0.371   1.994
 9347TIP3    H128005   3.972   0.309   1.955
 9347TIP3    H228006   3.849   0.392   1.924
 9348TIP3   OH228007   2.252   5.731   5.715
 9348TIP3    H128008   2.218   5.802   5.661
 9348TIP3    H228009   2.266   5.659   5.654
 9349TIP3   OH228010   7.036   3.788   3.443
 9349TIP3    H128011   6.959   3.804   3.389
 9349TIP3    H228012   7.002   3.746   3.522
 9350TIP3   OH228013   6.117   5.770   3.313
 9350TIP3    H128014   6.050   5.814   3.365
 9350TIP3    H228015   6.069   5.713   3.253
 9351TIP3   OH228016   1.213   2.979   5.816
 9351TIP3    H128017   1.182   3.000   5.904
 9351TIP3    H228018   1.264   2.898   5.827
 9352TIP3   OH228019   1.671   0.136   2.905
 9352TIP3    H128020   1.668   0.066   2.970
 9352TIP3    H228021   1.755   0.125   2.861
 9353TIP3   OH228022   1.185   3.481   0.171
 9353TIP3    H128023   1.129   3.445   0.240
 9353TIP3    H228024   1.143   3.453   0.090
 9354TIP3   OH228025   3.636   2.426   5.626
 9354TIP3    H128026   3.588   2.426   5.543
 9354TIP3    H228027   3.722   2.392   5.603
 9355TIP3   OH228028   1.351   4.482   3.605
 9355TIP3    H128029   1.280   4.468   3.669
 9355TIP3    H228030   1.372   4.575   3.614
 9356TIP3   OH228031   5.725   0.675   4.509
 9356TIP3    H128032   5.754   0.757   4.470
 9356TIP3    H228033   5.755   0.679   4.600
 9357TIP3   OH228034   0.181   5.496   5.734
 9357TIP3    H128035   0.089   5.490   5.759
 9357TIP3    H228036   0.197   5.590   5.724
 9358TIP3   OH228037   1.827   0.607   4.479
 9358TIP3    H128038   1.830   0.615   4.384
 9358TIP3    H228039   1.907   0.560   4.502
 9359TIP3   OH228040   6.649   4.247   3.427
 9359TIP3    H128041   6.616   4.306   3.494
 9359TIP3    H228042   6.696   4.179   3.476
 9360TIP3   OH228043   1.178   0.564   3.507
 9360TIP3    H128044   1.118   0.504   3.462
 9360TIP3    H228045   1.201   0.518   3.588
 9361TIP3   OH228046   3.618   0.480   1.467
 9361TIP3    H128047   3.564   0.558   1.477
 9361TIP3    H228048   3.664   0.494   1.384
 9362TIP3   OH228049   4.121   1.687   5.858
 9362TIP3    H128050   4.171   1.617   5.816
 9362TIP3    H228051   4.159   1.693   5.946
 9363TIP3   OH228052   3.031   4.812   5.185
 9363TIP3    H128053   3.063   4.872   5.117
 9363TIP3    H228054   2.960   4.860   5.228
 9364TIP3   OH228055   4.334   3.730   4.775
 9364TIP3    H128056   4.274   3.737   4.849
 9364TIP3    H228057   4.280   3.744   4.698
 9365TIP3   OH228058   0.848   4.749   4.234
 9365TIP3    H128059   0.785   4.800   4.286
 9365TIP3    H228060   0.924   4.738   4.291
 9366TIP3   OH228061   1.355   4.835   1.358
 9366TIP3    H128062   1.328   4.818   1.448
 9366TIP3    H228063   1.371   4.930   1.355
 9367TIP3   OH228064   4.966   3.673   5.356
 9367TIP3    H128065   5.034   3.657   5.291
 9367TIP3    H228066   4.996   3.750   5.405
 9368TIP3   OH228067   0.188   6.184   4.571
 9368TIP3    H128068   0.152   6.099   4.546
 9368TIP3    H228069   0.115   6.245   4.559
 9369TIP3   OH228070   4.613   6.767   2.473
 9369TIP3    H128071   4.658   6.701   2.420
 9369TIP3    H228072   4.600   6.725   2.558
 9370TIP3   OH228073   2.603   0.001   1.583
 9370TIP3    H128074   2.548  -0.004   1.662
 9370TIP3    H228075   2.665   0.071   1.601
 9371TIP3   OH228076   1.492   1.585   3.031
 9371TIP3    H128077   1.559   1.577   3.099
 9371TIP3    H228078   1.458   1.674   3.041
 9372TIP3   OH228079   6.922   0.568   0.049
 9372TIP3    H128080   6.882   0.602  -0.031
 9372TIP3    H228081   6.859   0.503   0.081
 9373TIP3   OH228082   1.641   4.768   0.630
 9373TIP3    H128083   1.709   4.811   0.682
 9373TIP3    H228084   1.566   4.762   0.688
 9374TIP3   OH228085   5.110   0.223   5.769
 9374TIP3    H128086   5.156   0.222   5.853
 9374TIP3    H228087   5.179   0.212   5.703
 9375TIP3   OH228088   4.207   0.422   0.627
 9375TIP3    H128089   4.218   0.368   0.549
 9375TIP3    H228090   4.160   0.366   0.689
 9376TIP3   OH228091   5.416   0.229   0.217
 9376TIP3    H128092   5.414   0.308   0.164
 9376TIP3    H228093   5.501   0.231   0.261
 9377TIP3   OH228094   0.516   0.698   4.321
 9377TIP3    H128095   0.553   0.686   4.233
 9377TIP3    H228096   0.425   0.724   4.305
 9378TIP3   OH228097   5.040   2.821   5.048
 9378TIP3    H128098   5.047   2.820   4.953
 9378TIP3    H228099   5.041   2.914   5.072
 9379TIP3   OH228100   0.840   5.842   4.304
 9379TIP3    H128101   0.769   5.839   4.240
 9379TIP3    H228102   0.871   5.933   4.300
 9380TIP3   OH228103   2.254   6.627   5.327
 9380TIP3    H128104   2.223   6.547   5.369
 9380TIP3    H228105   2.251   6.693   5.397
 9381TIP3   OH228106   3.299   6.436   0.274
 9381TIP3    H128107   3.326   6.350   0.242
 9381TIP3    H228108   3.214   6.419   0.316
 9382TIP3   OH228109   3.301   2.946   1.777
 9382TIP3    H128110   3.335   2.871   1.728
 9382TIP3    H228111   3.300   3.018   1.715
 9383TIP3   OH228112   5.439   1.384   1.389
 9383TIP3    H128113   5.359   1.397   1.440
 9383TIP3    H228114   5.501   1.348   1.453
 9384TIP3   OH228115   1.995   4.236   3.827
 9384TIP3    H128116   2.024   4.220   3.917
 9384TIP3    H228117   1.928   4.170   3.812
 9385TIP3   OH228118   3.572   4.186   3.967
 9385TIP3    H128119   3.539   4.129   4.036
 9385TIP3    H228120   3.580   4.272   4.009
 9386TIP3   OH228121   2.123   3.161   4.294
 9386TIP3    H128122   2.208   3.194   4.322
 9386TIP3    H228123   2.136   3.133   4.204
 9387TIP3   OH228124   6.434   1.173   1.112
 9387TIP3    H128125   6.518   1.189   1.069
 9387TIP3    H228126   6.418   1.079   1.099
 9388TIP3   OH228127   2.374   0.683   4.778
 9388TIP3    H128128   2.413   0.763   4.744
 9388TIP3    H228129   2.440   0.646   4.836
 9389TIP3   OH228130   1.794   2.199   4.805
 9389TIP3    H128131   1.823   2.278   4.851
 9389TIP3    H228132   1.847   2.128   4.842
 9390TIP3   OH228133   5.689   1.209   2.648
 9390TIP3    H128134   5.735   1.289   2.622
 9390TIP3    H228135   5.599   1.222   2.618
 9391TIP3   OH228136   3.370   1.224   2.137
 9391TIP3    H128137   3.337   1.145   2.094
 9391TIP3    H228138   3.395   1.282   2.066
 9392TIP3   OH228139   4.517   3.926   4.726
 9392TIP3    H128140   4.600   3.883   4.748
 9392TIP3    H228141   4.455   3.854   4.713
 9393TIP3   OH228142   6.491   5.636   1.874
 9393TIP3    H128143   6.400   5.664   1.885
 9393TIP3    H228144   6.486   5.541   1.862
 9394TIP3   OH228145   3.086   0.261   2.780
 9394TIP3    H128146   3.120   0.342   2.816
 9394TIP3    H228147   2.991   0.265   2.797
 9395TIP3   OH228148   4.929   0.302   4.697
 9395TIP3    H128149   4.955   0.225   4.748
 9395TIP3    H228150   4.905   0.368   4.762
 9396TIP3   OH228151   0.330   3.704   3.712
 9396TIP3    H128152   0.375   3.650   3.647
 9396TIP3    H228153   0.241   3.669   3.715
 9397TIP3   OH228154   4.288   6.730   5.666
 9397TIP3    H128155   4.297   6.818   5.630
 9397TIP3    H228156   4.368   6.685   5.640
 9398TIP3   OH228157   4.890   1.162   5.757
 9398TIP3    H128158   4.861   1.078   5.792
 9398TIP3    H228159   4.860   1.163   5.667
 9399TIP3   OH228160   6.349   5.328   3.958
 9399TIP3    H128161   6.259   5.310   3.983
 9399TIP3    H228162   6.363   5.420   3.981
 9400TIP3   OH228163   4.390   3.380   3.359
 9400TIP3    H128164   4.331   3.442   3.403
 9400TIP3    H228165   4.413   3.316   3.426
 9401TIP3   OH228166   6.518   1.126   1.642
 9401TIP3    H128167   6.577   1.190   1.681
 9401TIP3    H228168   6.518   1.053   1.704
 9402TIP3   OH228169   5.320   4.801   0.185
 9402TIP3    H128170   5.303   4.884   0.141
 9402TIP3    H228171   5.372   4.825   0.262
 9403TIP3   OH228172   5.035   3.076   5.619
 9403TIP3    H128173   4.944   3.052   5.638
 9403TIP3    H228174   5.036   3.172   5.623
 9404TIP3   OH228175   0.266   4.874   5.102
 9404TIP3    H128176   0.340   4.931   5.121
 9404TIP3    H228177   0.253   4.882   5.007
 9405TIP3   OH228178   2.672   2.480   1.971
 9405TIP3    H128179   2.697   2.572   1.975
 9405TIP3    H228180   2.609   2.476   1.899
 9406TIP3   OH228181   2.421   6.724   1.857
 9406TIP3    H128182   2.354   6.738   1.790
 9406TIP3    H228183   2.437   6.812   1.893
 9407TIP3   OH228184   1.953   0.233   4.610
 9407TIP3    H128185   1.966   0.149   4.566
 9407TIP3    H228186   1.858   0.239   4.623
 9408TIP3   OH228187   4.596   5.681   1.102
 9408TIP3    H128188   4.519   5.705   1.050
 9408TIP3    H228189   4.601   5.748   1.171
 9409TIP3   OH228190   1.865   6.140   2.869
 9409TIP3    H128191   1.770   6.143   2.861
 9409TIP3    H228192   1.893   6.230   2.850
 9410TIP3   OH228193   1.347   6.271   2.952
 9410TIP3    H128194   1.352   6.261   2.857
 9410TIP3    H228195   1.294   6.349   2.965
 9411TIP3   OH228196   6.086   0.836   1.843
 9411TIP3    H128197   6.089   0.840   1.939
 9411TIP3    H228198   6.179   0.832   1.817
 9412TIP3   OH228199   1.332   4.527   5.732
 9412TIP3    H128200   1.248   4.545   5.690
 9412TIP3    H228201   1.309   4.482   5.814
 9413TIP3   OH228202   6.897   1.404   4.832
 9413TIP3    H128203   6.863   1.375   4.747
 9413TIP3    H228204   6.973   1.458   4.810
 9414TIP3   OH228205   5.145   4.154   1.803
 9414TIP3    H128206   5.145   4.097   1.880
 9414TIP3    H228207   5.176   4.238   1.836
 9415TIP3   OH228208   4.575   0.455   0.845
 9415TIP3    H128209   4.651   0.512   0.834
 9415TIP3    H228210   4.593   0.380   0.788
 9416TIP3   OH228211   0.428   6.531   1.964
 9416TIP3    H128212   0.412   6.445   2.005
 9416TIP3    H228213   0.494   6.572   2.021
 9417TIP3   OH228214   6.572   6.725   2.655
 9417TIP3    H128215   6.610   6.791   2.712
 9417TIP3    H228216   6.529   6.774   2.585
 9418TIP3   OH228217   0.746   3.760   5.329
 9418TIP3    H128218   0.658   3.789   5.306
 9418TIP3    H228219   0.784   3.834   5.377
 9419TIP3   OH228220   1.939   4.082   3.527
 9419TIP3    H128221   2.013   4.022   3.517
 9419TIP3    H228222   1.915   4.075   3.620
 9420TIP3   OH228223   7.110   6.681   3.531
 9420TIP3    H128224   7.053   6.659   3.457
 9420TIP3    H228225   7.148   6.765   3.508
 9421TIP3   OH228226   0.109   6.148   3.364
 9421TIP3    H128227   0.097   6.243   3.359
 9421TIP3    H228228   0.134   6.132   3.455
 9422TIP3   OH228229   3.447   1.970   2.349
 9422TIP3    H128230   3.478   2.029   2.281
 9422TIP3    H228231   3.517   1.968   2.414
 9423TIP3   OH228232   3.452   4.594   2.160
 9423TIP3    H128233   3.382   4.586   2.095
 9423TIP3    H228234   3.413   4.565   2.242
 9424TIP3   OH228235   5.320   4.837   1.286
 9424TIP3    H128236   5.242   4.892   1.285
 9424TIP3    H228237   5.288   4.750   1.308
 9425TIP3   OH228238   4.097   5.695   0.907
 9425TIP3    H128239   4.048   5.777   0.910
 9425TIP3    H228240   4.070   5.653   0.825
 9426TIP3   OH228241   0.703   2.581   0.165
 9426TIP3    H128242   0.651   2.527   0.105
 9426TIP3    H228243   0.717   2.525   0.241
 9427TIP3   OH228244   7.204   6.169   2.195
 9427TIP3    H128245   7.153   6.103   2.241
 9427TIP3    H228246   7.155   6.186   2.114
 9428TIP3   OH228247   2.270   1.533   4.324
 9428TIP3    H128248   2.191   1.587   4.323
 9428TIP3    H228249   2.265   1.481   4.244
 9429TIP3   OH228250   4.263   3.381   0.531
 9429TIP3    H128251   4.357   3.376   0.517
 9429TIP3    H228252   4.252   3.371   0.626
 9430TIP3   OH228253   6.021   0.330   2.702
 9430TIP3    H128254   6.011   0.240   2.731
 9430TIP3    H228255   6.099   0.362   2.748
 9431TIP3   OH228256   6.380   6.721   2.205
 9431TIP3    H128257   6.310   6.738   2.268
 9431TIP3    H228258   6.421   6.807   2.192
 9432TIP3   OH228259   5.859   3.269   0.766
 9432TIP3    H128260   5.813   3.349   0.743
 9432TIP3    H228261   5.830   3.204   0.702
 9433TIP3   OH228262   3.475   0.585   5.295
 9433TIP3    H128263   3.555   0.618   5.254
 9433TIP3    H228264   3.503   0.507   5.343
 9434TIP3   OH228265   6.311   3.421   3.529
 9434TIP3    H128266   6.286   3.410   3.438
 9434TIP3    H228267   6.275   3.505   3.555
 9435TIP3   OH228268   5.328   6.077   4.022
 9435TIP3    H128269   5.303   6.054   3.933
 9435TIP3    H228270   5.348   5.993   4.064
 9436TIP3   OH228271   2.699   1.292   5.345
 9436TIP3    H128272   2.649   1.273   5.424
 9436TIP3    H228273   2.788   1.262   5.365
 9437TIP3   OH228274   3.392   3.745   3.691
 9437TIP3    H128275   3.373   3.664   3.643
 9437TIP3    H228276   3.482   3.767   3.666
 9438TIP3   OH228277   4.513   2.716   1.715
 9438TIP3    H128278   4.483   2.626   1.727
 9438TIP3    H228279   4.545   2.743   1.801
 9439TIP3   OH228280   0.432   2.443   1.094
 9439TIP3    H128281   0.491   2.376   1.060
 9439TIP3    H228282   0.484   2.523   1.096
 9440TIP3   OH228283   3.469   0.982   5.429
 9440TIP3    H128284   3.503   0.979   5.518
 9440TIP3    H228285   3.472   1.074   5.405
 9441TIP3   OH228286   0.085   3.707   2.369
 9441TIP3    H128287   0.042   3.764   2.433
 9441TIP3    H228288   0.145   3.765   2.322
 9442TIP3   OH228289   2.647   6.194   4.748
 9442TIP3    H128290   2.571   6.228   4.795
 9442TIP3    H228291   2.714   6.262   4.759
 9443TIP3   OH228292   5.559   4.532   1.368
 9443TIP3    H128293   5.559   4.445   1.328
 9443TIP3    H228294   5.499   4.584   1.314
 9444TIP3   OH228295   4.015   2.510   4.005
 9444TIP3    H128296   4.082   2.459   4.049
 9444TIP3    H228297   4.030   2.600   4.034
 9445TIP3   OH228298   0.245   2.884   5.655
 9445TIP3    H128299   0.315   2.948   5.646
 9445TIP3    H228300   0.196   2.913   5.732
 9446TIP3   OH228301   0.154   1.470   0.199
 9446TIP3    H128302   0.219   1.535   0.228
 9446TIP3    H228303   0.080   1.482   0.259
 9447TIP3   OH228304   4.755   5.526   3.311
 9447TIP3    H128305   4.835   5.528   3.364
 9447TIP3    H228306   4.766   5.598   3.249
 9448TIP3   OH228307   7.066   2.377   2.501
 9448TIP3    H128308   7.077   2.457   2.554
 9448TIP3    H228309   7.043   2.309   2.565
 9449TIP3   OH228310   5.679   1.921   2.595
 9449TIP3    H128311   5.653   1.897   2.684
 9449TIP3    H228312   5.718   2.008   2.605
 9450TIP3   OH228313   5.152   2.126   1.731
 9450TIP3    H128314   5.103   2.089   1.804
 9450TIP3    H228315   5.227   2.169   1.772
 9451TIP3   OH228316   6.539   6.201   2.641
 9451TIP3    H128317   6.557   6.119   2.687
 9451TIP3    H228318   6.535   6.266   2.711
 9452TIP3   OH228319   4.748   3.447   3.408
 9452TIP3    H128320   4.694   3.379   3.368
 9452TIP3    H228321   4.702   3.529   3.388
 9453TIP3   OH228322   6.969   2.535   4.781
 9453TIP3    H128323   6.915   2.456   4.771
 9453TIP3    H228324   6.928   2.599   4.724
 9454TIP3   OH228325   6.403   2.177   4.899
 9454TIP3    H128326   6.307   2.174   4.899
 9454TIP3    H228327   6.425   2.264   4.864
 9455TIP3   OH228328   0.891   4.840   0.463
 9455TIP3    H128329   0.893   4.794   0.379
 9455TIP3    H228330   0.800   4.870   0.472
 9456TIP3   OH228331   6.573   0.494   4.477
 9456TIP3    H128332   6.516   0.538   4.540
 9456TIP3    H228333   6.651   0.549   4.472
 9457TIP3   OH228334   0.528   2.257   2.910
 9457TIP3    H128335   0.480   2.262   2.993
 9457TIP3    H228336   0.536   2.348   2.881
 9458TIP3   OH228337   2.026   5.162   4.684
 9458TIP3    H128338   2.088   5.139   4.614
 9458TIP3    H228339   2.046   5.253   4.703
 9459TIP3   OH228340   5.137   5.632   2.871
 9459TIP3    H128341   5.173   5.716   2.843
 9459TIP3    H228342   5.182   5.567   2.816
 9460TIP3   OH228343   4.287   2.430   3.183
 9460TIP3    H128344   4.233   2.501   3.217
 9460TIP3    H228345   4.283   2.362   3.250
 9461TIP3   OH228346   0.983   4.146   0.053
 9461TIP3    H128347   1.058   4.088   0.064
 9461TIP3    H228348   1.018   4.234   0.072
 9462TIP3   OH228349   2.899   2.532   3.029
 9462TIP3    H128350   2.882   2.589   2.954
 9462TIP3    H228351   2.946   2.588   3.091
 9463TIP3   OH228352   4.882   1.764   4.210
 9463TIP3    H128353   4.888   1.857   4.233
 9463TIP3    H228354   4.845   1.763   4.122
 9464TIP3   OH228355   3.908   0.374   3.023
 9464TIP3    H128356   3.828   0.344   2.980
 9464TIP3    H228357   3.953   0.425   2.956
 9465TIP3   OH228358   6.435   2.045   0.963
 9465TIP3    H128359   6.465   2.122   0.913
 9465TIP3    H228360   6.368   2.005   0.907
 9466TIP3   OH228361   3.103   3.408   2.894
 9466TIP3    H128362   3.184   3.454   2.918
 9466TIP3    H228363   3.033   3.466   2.925
 9467TIP3   OH228364   3.543   3.275   1.856
 9467TIP3    H128365   3.453   3.306   1.864
 9467TIP3    H228366   3.576   3.318   1.777
 9468TIP3   OH228367   2.081   1.985   4.661
 9468TIP3    H128368   2.043   1.911   4.708
 9468TIP3    H228369   2.113   1.948   4.579
 9469TIP3   OH228370   1.255   2.207   3.834
 9469TIP3    H128371   1.319   2.267   3.874
 9469TIP3    H228372   1.195   2.265   3.787
 9470TIP3   OH228373   1.113   5.708   5.634
 9470TIP3    H128374   1.162   5.628   5.654
 9470TIP3    H228375   1.136   5.728   5.543
 9471TIP3   OH228376   6.153   4.002   5.050
 9471TIP3    H128377   6.093   4.052   5.107
 9471TIP3    H228378   6.138   4.038   4.963
 9472TIP3   OH228379   5.567   6.190   1.980
 9472TIP3    H128380   5.610   6.212   2.062
 9472TIP3    H228381   5.633   6.207   1.913
 9473TIP3   OH228382   2.128   3.654   0.497
 9473TIP3    H128383   2.110   3.740   0.535
 9473TIP3    H228384   2.114   3.665   0.403
 9474TIP3   OH228385   1.489   5.968   0.272
 9474TIP3    H128386   1.548   5.991   0.201
 9474TIP3    H228387   1.511   5.878   0.294
 9475TIP3   OH228388   1.986   0.006   2.221
 9475TIP3    H128389   2.054   0.068   2.250
 9475TIP3    H228390   1.909   0.061   2.208
 9476TIP3   OH228391   5.419   6.466   1.995
 9476TIP3    H128392   5.410   6.387   2.048
 9476TIP3    H228393   5.400   6.537   2.057
 9477TIP3   OH228394   3.369   3.678   3.255
 9477TIP3    H128395   3.450   3.661   3.304
 9477TIP3    H228396   3.339   3.591   3.229
 9478TIP3   OH228397   2.604   5.273   4.955
 9478TIP3    H128398   2.529   5.327   4.929
 9478TIP3    H228399   2.603   5.277   5.051
 9479TIP3   OH228400   2.734   6.574   0.813
 9479TIP3    H128401   2.652   6.553   0.857
 9479TIP3    H228402   2.708   6.619   0.733
 9480TIP3   OH228403   1.568   4.736   1.771
 9480TIP3    H128404   1.606   4.814   1.811
 9480TIP3    H228405   1.625   4.717   1.697
 9481TIP3   OH228406   1.349   3.149   0.809
 9481TIP3    H128407   1.339   3.229   0.861
 9481TIP3    H228408   1.316   3.079   0.865
 9482TIP3   OH228409   6.297   1.267   2.722
 9482TIP3    H128410   6.330   1.339   2.775
 9482TIP3    H228411   6.203   1.265   2.741
 9483TIP3   OH228412   1.171   6.381   1.876
 9483TIP3    H128413   1.120   6.342   1.805
 9483TIP3    H228414   1.125   6.462   1.897
 9484TIP3   OH228415   5.078   4.320   0.231
 9484TIP3    H128416   4.985   4.317   0.209
 9484TIP3    H228417   5.082   4.367   0.314
 9485TIP3   OH228418   6.988   6.678   2.775
 9485TIP3    H128419   6.942   6.667   2.857
 9485TIP3    H228420   6.920   6.670   2.708
 9486TIP3   OH228421   5.260   0.485   0.269
 9486TIP3    H128422   5.175   0.463   0.230
 9486TIP3    H228423   5.259   0.442   0.354
 9487TIP3   OH228424   1.935   6.402   3.961
 9487TIP3    H128425   1.897   6.462   3.897
 9487TIP3    H228426   1.890   6.319   3.946
 9488TIP3   OH228427   4.985   1.050   1.210
 9488TIP3    H128428   5.045   1.102   1.158
 9488TIP3    H228429   4.953   1.110   1.277
 9489TIP3   OH228430   5.206   1.699   5.885
 9489TIP3    H128431   5.172   1.780   5.846
 9489TIP3    H228432   5.274   1.671   5.824
 9490TIP3   OH228433   5.441   1.582   2.465
 9490TIP3    H128434   5.525   1.622   2.489
 9490TIP3    H228435   5.457   1.545   2.378
 9491TIP3   OH228436   1.893   2.347   2.616
 9491TIP3    H128437   1.880   2.281   2.684
 9491TIP3    H228438   1.895   2.297   2.534
 9492TIP3   OH228439   5.854   1.440   2.622
 9492TIP3    H128440   5.882   1.510   2.563
 9492TIP3    H228441   5.935   1.395   2.645
 9493TIP3   OH228442   0.981   1.835   0.711
 9493TIP3    H128443   1.002   1.743   0.729
 9493TIP3    H228444   0.886   1.839   0.714
 9494TIP3   OH228445   2.021   1.509   3.941
 9494TIP3    H128446   1.974   1.547   3.866
 9494TIP3    H228447   2.058   1.427   3.907
 9495TIP3   OH228448   5.184   0.295   3.250
 9495TIP3    H128449   5.176   0.231   3.180
 9495TIP3    H228450   5.243   0.362   3.215
 9496TIP3   OH228451   5.632   4.157   0.515
 9496TIP3    H128452   5.717   4.161   0.559
 9496TIP3    H228453   5.618   4.064   0.498
 9497TIP3   OH228454   5.413   6.552   4.890
 9497TIP3    H128455   5.502   6.576   4.915
 9497TIP3    H228456   5.422   6.465   4.851
 9498TIP3   OH228457   2.064   2.247   4.588
 9498TIP3    H128458   2.062   2.168   4.642
 9498TIP3    H228459   2.039   2.317   4.648
 9499TIP3   OH228460   2.198   0.560   3.019
 9499TIP3    H128461   2.172   0.570   3.111
 9499TIP3    H228462   2.121   0.586   2.969
 9500TIP3   OH228463   2.508   2.485   5.472
 9500TIP3    H128464   2.523   2.392   5.455
 9500TIP3    H228465   2.581   2.529   5.430
 9501TIP3   OH228466   5.343   6.582   2.411
 9501TIP3    H128467   5.285   6.515   2.448
 9501TIP3    H228468   5.430   6.561   2.445
 9502TIP3   OH228469   4.982   2.675   1.621
 9502TIP3    H128470   5.078   2.677   1.622
 9502TIP3    H228471   4.958   2.597   1.671
 9503TIP3   OH228472   1.094   0.977   3.764
 9503TIP3    H128473   1.159   1.032   3.807
 9503TIP3    H228474   1.128   0.965   3.675
 9504TIP3   OH228475   6.342   0.653   4.892
 9504TIP3    H128476   6.380   0.660   4.979
 9504TIP3    H228477   6.251   0.629   4.907
 9505TIP3   OH228478   1.926   4.151   2.772
 9505TIP3    H128479   1.983   4.089   2.727
 9505TIP3    H228480   1.896   4.210   2.703
 9506TIP3   OH228481   3.146   5.929   3.974
 9506TIP3    H128482   3.194   5.937   4.056
 9506TIP3    H228483   3.115   6.017   3.954
 9507TIP3   OH228484   4.189   6.009   0.983
 9507TIP3    H128485   4.142   6.090   0.960
 9507TIP3    H228486   4.282   6.033   0.979
 9508TIP3   OH228487   0.085   4.753   2.088
 9508TIP3    H128488   0.098   4.839   2.048
 9508TIP3    H228489   0.174   4.723   2.109
 9509TIP3   OH228490   4.946   3.912   5.492
 9509TIP3    H128491   4.920   3.977   5.428
 9509TIP3    H228492   5.034   3.938   5.519
 9510TIP3   OH228493   5.973   5.334   4.829
 9510TIP3    H128494   5.963   5.333   4.734
 9510TIP3    H228495   6.068   5.329   4.843
 9511TIP3   OH228496   1.409   5.955   3.241
 9511TIP3    H128497   1.412   6.051   3.247
 9511TIP3    H228498   1.316   5.934   3.237
 9512TIP3   OH228499   6.871   2.287   3.552
 9512TIP3    H128500   6.953   2.278   3.601
 9512TIP3    H228501   6.856   2.381   3.548
 9513TIP3   OH228502   2.642   2.165   1.839
 9513TIP3    H128503   2.734   2.142   1.825
 9513TIP3    H228504   2.645   2.255   1.873
 9514TIP3   OH228505   5.522   3.913   3.991
 9514TIP3    H128506   5.490   3.823   3.986
 9514TIP3    H228507   5.511   3.948   3.903
 9515TIP3   OH228508   5.444   5.866   1.586
 9515TIP3    H128509   5.482   5.954   1.576
 9515TIP3    H228510   5.462   5.842   1.677
 9516TIP3   OH228511   3.259   1.855   1.766
 9516TIP3    H128512   3.286   1.945   1.750
 9516TIP3    H228513   3.236   1.820   1.680
 9517TIP3   OH228514   6.200   5.822   0.327
 9517TIP3    H128515   6.144   5.791   0.255
 9517TIP3    H228516   6.141   5.825   0.402
 9518TIP3   OH228517   5.808   6.412   3.403
 9518TIP3    H128518   5.791   6.346   3.470
 9518TIP3    H228519   5.837   6.363   3.326
 9519TIP3   OH228520   7.082   6.047   2.486
 9519TIP3    H128521   7.086   6.129   2.536
 9519TIP3    H228522   7.146   5.990   2.529
 9520TIP3   OH228523  -0.062   0.227   3.109
 9520TIP3    H128524  -0.066   0.154   3.048
 9520TIP3    H228525   0.000   0.288   3.070
 9521TIP3   OH228526   7.175   5.212   5.002
 9521TIP3    H128527   7.148   5.144   4.941
 9521TIP3    H228528   7.108   5.280   4.994
 9522TIP3   OH228529   3.368   0.965   3.342
 9522TIP3    H128530   3.323   1.022   3.404
 9522TIP3    H228531   3.309   0.960   3.266
 9523TIP3   OH228532   5.912   6.573   2.483
 9523TIP3    H128533   5.850   6.565   2.556
 9523TIP3    H228534   5.860   6.553   2.405
 9524TIP3   OH228535   3.546   1.777   1.501
 9524TIP3    H128536   3.593   1.804   1.580
 9524TIP3    H228537   3.455   1.804   1.516
 9525TIP3   OH228538   1.374   0.574   2.226
 9525TIP3    H128539   1.308   0.562   2.294
 9525TIP3    H228540   1.431   0.498   2.234
 9526TIP3   OH228541   4.373   3.612   2.942
 9526TIP3    H128542   4.289   3.566   2.945
 9526TIP3    H228543   4.431   3.557   2.995
 9527TIP3   OH228544   3.999   5.195   4.441
 9527TIP3    H128545   4.015   5.241   4.358
 9527TIP3    H228546   4.084   5.158   4.464
 9528TIP3   OH228547   3.337   1.284   4.174
 9528TIP3    H128548   3.333   1.188   4.178
 9528TIP3    H228549   3.425   1.303   4.141
 9529TIP3   OH228550   0.522   1.096   1.313
 9529TIP3    H128551   0.567   1.059   1.388
 9529TIP3    H228552   0.572   1.066   1.237
 9530TIP3   OH228553   3.081   4.230   4.572
 9530TIP3    H128554   3.162   4.282   4.570
 9530TIP3    H228555   3.054   4.224   4.481
 9531TIP3   OH228556   2.475   4.014   4.244
 9531TIP3    H128557   2.426   4.096   4.249
 9531TIP3    H228558   2.428   3.956   4.304
 9532TIP3   OH228559   4.612   4.247   3.405
 9532TIP3    H128560   4.706   4.229   3.398
 9532TIP3    H228561   4.606   4.342   3.412
 9533TIP3   OH228562   1.882   1.393   0.608
 9533TIP3    H128563   1.917   1.308   0.582
 9533TIP3    H228564   1.808   1.372   0.664
 9534TIP3   OH228565   5.130   5.062   1.281
 9534TIP3    H128566   5.187   5.120   1.231
 9534TIP3    H228567   5.057   5.117   1.307
 9535TIP3   OH228568   3.243   5.509   5.435
 9535TIP3    H128569   3.210   5.575   5.375
 9535TIP3    H228570   3.314   5.466   5.386
 9536TIP3   OH228571   2.032   2.818   5.387
 9536TIP3    H128572   1.947   2.860   5.399
 9536TIP3    H228573   2.049   2.774   5.470
 9537TIP3   OH228574   5.689   2.394   2.818
 9537TIP3    H128575   5.682   2.326   2.752
 9537TIP3    H228576   5.622   2.458   2.794
 9538TIP3   OH228577   3.537   6.097   3.477
 9538TIP3    H128578   3.460   6.115   3.423
 9538TIP3    H228579   3.514   6.129   3.564
 9539TIP3   OH228580   6.186   3.025   4.691
 9539TIP3    H128581   6.123   3.066   4.749
 9539TIP3    H228582   6.201   3.089   4.621
 9540TIP3   OH228583   1.836   3.050   3.207
 9540TIP3    H128584   1.852   3.144   3.213
 9540TIP3    H228585   1.747   3.043   3.172
 9541TIP3   OH228586   5.469   4.805   4.137
 9541TIP3    H128587   5.380   4.806   4.173
 9541TIP3    H228588   5.523   4.769   4.208
 9542TIP3   OH228589   3.634   5.630   5.254
 9542TIP3    H128590   3.613   5.712   5.298
 9542TIP3    H228591   3.563   5.618   5.191
 9543TIP3   OH228592   2.248   3.970   4.380
 9543TIP3    H128593   2.181   4.029   4.345
 9543TIP3    H228594   2.200   3.892   4.406
 9544TIP3   OH228595   3.471   3.349   5.103
 9544TIP3    H128596   3.392   3.393   5.134
 9544TIP3    H228597   3.530   3.421   5.078
 9545TIP3   OH228598   1.949   2.631   4.951
 9545TIP3    H128599   1.916   2.718   4.971
 9545TIP3    H228600   1.967   2.633   4.857
 9546TIP3   OH228601   6.538   0.471   1.451
 9546TIP3    H128602   6.520   0.558   1.415
 9546TIP3    H228603   6.453   0.426   1.448
 9547TIP3   OH228604   0.508   3.256   2.233
 9547TIP3    H128605   0.548   3.224   2.153
 9547TIP3    H228606   0.577   3.307   2.277
 9548TIP3   OH228607   5.197   3.628   5.686
 9548TIP3    H128608   5.246   3.708   5.663
 9548TIP3    H228609   5.130   3.658   5.748
 9549TIP3   OH228610   1.232   5.858   2.544
 9549TIP3    H128611   1.276   5.804   2.609
 9549TIP3    H228612   1.245   5.812   2.461
 9550TIP3   OH228613   0.862   4.697   2.765
 9550TIP3    H128614   0.809   4.660   2.835
 9550TIP3    H228615   0.919   4.760   2.808
 9551TIP3   OH228616   7.069   1.308   1.294
 9551TIP3    H128617   6.989   1.359   1.296
 9551TIP3    H228618   7.096   1.301   1.386
 9552TIP3   OH228619   4.165   1.423   5.247
 9552TIP3    H128620   4.146   1.345   5.299
 9552TIP3    H228621   4.197   1.388   5.163
 9553TIP3   OH228622   0.849   1.267   3.038
 9553TIP3    H128623   0.789   1.225   2.976
 9553TIP3    H228624   0.823   1.232   3.123
 9554TIP3   OH228625   0.619   3.179   5.179
 9554TIP3    H128626   0.586   3.155   5.266
 9554TIP3    H228627   0.546   3.162   5.119
 9555TIP3   OH228628   2.854   3.532   5.374
 9555TIP3    H128629   2.926   3.592   5.353
 9555TIP3    H228630   2.883   3.447   5.341
 9556TIP3   OH228631   1.821   0.382   1.510
 9556TIP3    H128632   1.899   0.387   1.566
 9556TIP3    H228633   1.778   0.301   1.536
 9557TIP3   OH228634   0.252   6.376   5.771
 9557TIP3    H128635   0.274   6.317   5.699
 9557TIP3    H228636   0.244   6.319   5.848
 9558TIP3   OH228637   1.549   3.160   2.237
 9558TIP3    H128638   1.522   3.233   2.292
 9558TIP3    H228639   1.470   3.106   2.229
 9559TIP3   OH228640   2.804   6.465   3.635
 9559TIP3    H128641   2.789   6.375   3.662
 9559TIP3    H228642   2.717   6.501   3.619
 9560TIP3   OH228643   3.514   5.692   2.188
 9560TIP3    H128644   3.515   5.761   2.254
 9560TIP3    H228645   3.425   5.657   2.190
 9561TIP3   OH228646   1.214   6.060   1.890
 9561TIP3    H128647   1.183   6.140   1.931
 9561TIP3    H228648   1.221   6.082   1.797
 9562TIP3   OH228649   2.639   2.225   3.097
 9562TIP3    H128650   2.724   2.263   3.074
 9562TIP3    H228651   2.628   2.153   3.035
 9563TIP3   OH228652   2.059   5.797   1.355
 9563TIP3    H128653   2.034   5.880   1.397
 9563TIP3    H228654   2.136   5.820   1.303
 9564TIP3   OH228655   3.264   4.868   5.394
 9564TIP3    H128656   3.346   4.908   5.368
 9564TIP3    H228657   3.222   4.842   5.312
 9565TIP3   OH228658   3.209   1.422   4.831
 9565TIP3    H128659   3.227   1.459   4.917
 9565TIP3    H228660   3.143   1.354   4.848
 9566TIP3   OH228661   1.425   2.522   3.241
 9566TIP3    H128662   1.415   2.431   3.267
 9566TIP3    H228663   1.504   2.524   3.187
 9567TIP3   OH228664   5.648   0.407   4.963
 9567TIP3    H128665   5.736   0.388   4.996
 9567TIP3    H228666   5.595   0.332   4.992
 9568TIP3   OH228667   1.023   1.922   5.468
 9568TIP3    H128668   0.966   1.847   5.451
 9568TIP3    H228669   1.077   1.930   5.389
 9569TIP3   OH228670   2.921   6.736   3.412
 9569TIP3    H128671   2.924   6.811   3.352
 9569TIP3    H228672   2.867   6.767   3.485
 9570TIP3   OH228673   1.025   2.703   2.438
 9570TIP3    H128674   1.028   2.693   2.343
 9570TIP3    H228675   0.958   2.640   2.466
 9571TIP3   OH228676   5.633   5.643   3.000
 9571TIP3    H128677   5.543   5.611   2.987
 9571TIP3    H228678   5.688   5.578   2.958
 9572TIP3   OH228679   2.022   4.387   0.930
 9572TIP3    H128680   2.020   4.378   1.025
 9572TIP3    H228681   1.942   4.435   0.909
 9573TIP3   OH228682   6.656   6.022   1.751
 9573TIP3    H128683   6.648   6.092   1.816
 9573TIP3    H228684   6.573   6.023   1.705
 9574TIP3   OH228685   2.585   1.470   0.000
 9574TIP3    H128686   2.515   1.463  -0.065
 9574TIP3    H228687   2.553   1.420   0.075
 9575TIP3   OH228688   5.943   3.670   3.333
 9575TIP3    H128689   6.005   3.633   3.396
 9575TIP3    H228690   5.872   3.607   3.328
 9576TIP3   OH228691   3.620   3.406   0.098
 9576TIP3    H128692   3.650   3.349   0.028
 9576TIP3    H228693   3.526   3.414   0.084
 9577TIP3   OH228694   2.821   5.231   3.082
 9577TIP3    H128695   2.884   5.218   3.011
 9577TIP3    H228696   2.875   5.246   3.160
 9578TIP3   OH228697   5.931   0.076   1.850
 9578TIP3    H128698   5.922   0.012   1.921
 9578TIP3    H228699   5.877   0.150   1.878
 9579TIP3   OH228700   0.839   4.322   4.601
 9579TIP3    H128701   0.927   4.308   4.568
 9579TIP3    H228702   0.797   4.237   4.595
 9580TIP3   OH228703   2.899   2.408   2.432
 9580TIP3    H128704   2.841   2.379   2.361
 9580TIP3    H228705   2.901   2.504   2.423
 9581TIP3   OH228706   1.518   2.083   5.074
 9581TIP3    H128707   1.515   2.035   4.991
 9581TIP3    H228708   1.536   2.016   5.139
 9582TIP3   OH228709   1.600   6.678   4.849
 9582TIP3    H128710   1.644   6.644   4.927
 9582TIP3    H228711   1.649   6.640   4.776
 9583TIP3   OH228712   3.925   6.164   2.758
 9583TIP3    H128713   3.896   6.248   2.722
 9583TIP3    H228714   3.911   6.102   2.686
 9584TIP3   OH228715   2.014   0.099   5.380
 9584TIP3    H128716   1.987   0.181   5.420
 9584TIP3    H228717   2.108   0.093   5.397
 9585TIP3   OH228718   1.648   6.510   2.573
 9585TIP3    H128719   1.609   6.586   2.618
 9585TIP3    H228720   1.580   6.481   2.512
 9586TIP3   OH228721   6.018   2.232   5.201
 9586TIP3    H128722   6.113   2.235   5.211
 9586TIP3    H228723   5.983   2.256   5.286
 9587TIP3   OH228724   4.271   2.575   0.533
 9587TIP3    H128725   4.303   2.504   0.476
 9587TIP3    H228726   4.263   2.650   0.475
 9588TIP3   OH228727   6.255   5.957   4.564
 9588TIP3    H128728   6.268   5.878   4.617
 9588TIP3    H228729   6.171   5.942   4.520
 9589TIP3   OH228730   2.276   2.164   3.185
 9589TIP3    H128731   2.259   2.123   3.270
 9589TIP3    H228732   2.189   2.188   3.153
 9590TIP3   OH228733   4.596   5.828   3.814
 9590TIP3    H128734   4.573   5.921   3.812
 9590TIP3    H228735   4.690   5.827   3.797
 9591TIP3   OH228736   0.809   5.353   1.758
 9591TIP3    H128737   0.802   5.391   1.846
 9591TIP3    H228738   0.903   5.338   1.746
 9592TIP3   OH228739   4.039   1.581   2.831
 9592TIP3    H128740   4.075   1.644   2.893
 9592TIP3    H228741   4.015   1.505   2.884
 9593TIP3   OH228742   4.294   0.075   2.113
 9593TIP3    H128743   4.327   0.102   2.199
 9593TIP3    H228744   4.229   0.008   2.132
 9594TIP3   OH228745   0.565   2.512   5.629
 9594TIP3    H128746   0.631   2.477   5.570
 9594TIP3    H228747   0.500   2.552   5.572
 9595TIP3   OH228748   3.890   3.466   1.878
 9595TIP3    H128749   3.842   3.534   1.925
 9595TIP3    H228750   3.938   3.513   1.810
 9596TIP3   OH228751   6.064   5.248   1.026
 9596TIP3    H128752   6.098   5.315   1.085
 9596TIP3    H228753   6.141   5.212   0.983
 9597TIP3   OH228754   7.181   0.054   4.395
 9597TIP3    H128755   7.241   0.026   4.464
 9597TIP3    H228756   7.229   0.040   4.313
 9598TIP3   OH228757   5.689   0.425   2.995
 9598TIP3    H128758   5.618   0.473   2.952
 9598TIP3    H228759   5.661   0.418   3.086
 9599TIP3   OH228760   6.890   3.269   4.279
 9599TIP3    H128761   6.936   3.212   4.340
 9599TIP3    H228762   6.798   3.266   4.307
 9600TIP3   OH228763   2.459   0.034   1.805
 9600TIP3    H128764   2.382  -0.015   1.776
 9600TIP3    H228765   2.424   0.115   1.841
 9601TIP3   OH228766   5.550   4.537   3.076
 9601TIP3    H128767   5.473   4.489   3.046
 9601TIP3    H228768   5.529   4.560   3.167
 9602TIP3   OH228769   5.872   5.002   1.633
 9602TIP3    H128770   5.781   4.982   1.658
 9602TIP3    H228771   5.907   5.049   1.709
 9603TIP3   OH228772   2.229   0.038   4.803
 9603TIP3    H128773   2.142  -0.001   4.796
 9603TIP3    H228774   2.218   0.128   4.774
 9604TIP3   OH228775   0.276   1.465   3.401
 9604TIP3    H128776   0.271   1.523   3.477
 9604TIP3    H228777   0.342   1.506   3.344
 9605TIP3   OH228778   1.936   6.134   1.984
 9605TIP3    H128779   1.962   6.066   2.047
 9605TIP3    H228780   1.852   6.166   2.018
 9606TIP3   OH228781   5.894   6.540   3.641
 9606TIP3    H128782   5.904   6.494   3.557
 9606TIP3    H228783   5.804   6.571   3.642
 9607TIP3   OH228784   3.160   6.711   2.251
 9607TIP3    H128785   3.184   6.694   2.160
 9607TIP3    H228786   3.243   6.734   2.294
 9608TIP3   OH228787   1.902   4.501   3.178
 9608TIP3    H128788   1.989   4.531   3.208
 9608TIP3    H228789   1.892   4.415   3.219
 9609TIP3   OH228790   5.527   1.078   0.296
 9609TIP3    H128791   5.510   1.031   0.378
 9609TIP3    H228792   5.535   1.009   0.230
 9610TIP3   OH228793   1.959   5.308   0.121
 9610TIP3    H128794   2.035   5.251   0.106
 9610TIP3    H228795   1.888   5.266   0.071
 9611TIP3   OH228796   6.771   5.544   5.732
 9611TIP3    H128797   6.756   5.458   5.772
 9611TIP3    H228798   6.811   5.525   5.647
 9612TIP3   OH228799   2.617   4.059   5.242
 9612TIP3    H128800   2.634   3.977   5.288
 9612TIP3    H228801   2.526   4.080   5.261
 9613TIP3   OH228802   0.126   0.881   1.923
 9613TIP3    H128803   0.083   0.886   1.837
 9613TIP3    H228804   0.214   0.847   1.903
 9614TIP3   OH228805   4.859   4.234   1.297
 9614TIP3    H128806   4.926   4.248   1.364
 9614TIP3    H228807   4.777   4.260   1.338
 9615TIP3   OH228808   7.005   4.092   2.273
 9615TIP3    H128809   7.098   4.078   2.286
 9615TIP3    H228810   6.998   4.128   2.185
 9616TIP3   OH228811   3.028   2.723   3.213
 9616TIP3    H128812   2.972   2.740   3.289
 9616TIP3    H228813   3.022   2.803   3.161
 9617TIP3   OH228814   7.176   6.398   2.377
 9617TIP3    H128815   7.164   6.324   2.318
 9617TIP3    H228816   7.246   6.370   2.436
 9618TIP3   OH228817   0.513   5.440   4.759
 9618TIP3    H128818   0.565   5.456   4.680
 9618TIP3    H228819   0.435   5.495   4.748
 9619TIP3   OH228820   0.223   4.215   3.938
 9619TIP3    H128821   0.190   4.243   3.853
 9619TIP3    H228822   0.155   4.157   3.972
 9620TIP3   OH228823   1.032   2.300   4.640
 9620TIP3    H128824   1.123   2.302   4.671
 9620TIP3    H228825   1.011   2.391   4.621
 9621TIP3   OH228826   4.832   4.521   4.816
 9621TIP3    H128827   4.877   4.465   4.754
 9621TIP3    H228828   4.892   4.595   4.830
 9622TIP3   OH228829   0.467   1.754   3.959
 9622TIP3    H128830   0.502   1.668   3.937
 9622TIP3    H228831   0.530   1.791   4.021
 9623TIP3   OH228832   5.411   2.869   2.469
 9623TIP3    H128833   5.411   2.949   2.522
 9623TIP3    H228834   5.319   2.849   2.455
 9624TIP3   OH228835   6.255   5.011   1.091
 9624TIP3    H128836   6.265   5.065   1.012
 9624TIP3    H228837   6.175   5.044   1.133
 9625TIP3   OH228838   4.662   4.579   0.849
 9625TIP3    H128839   4.637   4.506   0.906
 9625TIP3    H228840   4.731   4.625   0.898
 9626TIP3   OH228841   5.973   4.065   3.676
 9626TIP3    H128842   5.910   4.131   3.647
 9626TIP3    H228843   5.920   3.986   3.689
 9627TIP3   OH228844   0.321   6.718   3.955
 9627TIP3    H128845   0.227   6.698   3.957
 9627TIP3    H228846   0.337   6.749   3.866
 9628TIP3   OH228847   3.897   0.112   0.990
 9628TIP3    H128848   3.805   0.132   0.976
 9628TIP3    H228849   3.942   0.147   0.913
 9629TIP3   OH228850   0.795   1.694   1.805
 9629TIP3    H128851   0.742   1.632   1.756
 9629TIP3    H228852   0.812   1.765   1.742
 9630TIP3   OH228853   2.711   4.789   2.734
 9630TIP3    H128854   2.646   4.856   2.754
 9630TIP3    H228855   2.746   4.763   2.819
 9631TIP3   OH228856   7.147   3.165   5.658
 9631TIP3    H128857   7.107   3.107   5.594
 9631TIP3    H228858   7.148   3.114   5.739
 9632TIP3   OH228859   3.853   5.881   0.873
 9632TIP3    H128860   3.867   5.872   0.779
 9632TIP3    H228861   3.768   5.841   0.890
 9633TIP3   OH228862   4.001   2.611   0.205
 9633TIP3    H128863   4.058   2.655   0.143
 9633TIP3    H228864   3.915   2.650   0.191
 9634TIP3   OH228865   4.666   3.708   3.260
 9634TIP3    H128866   4.707   3.765   3.194
 9634TIP3    H228867   4.686   3.750   3.343
 9635TIP3   OH228868   4.934   2.160   3.420
 9635TIP3    H128869   4.850   2.193   3.451
 9635TIP3    H228870   4.926   2.158   3.325
 9636TIP3   OH228871   4.503   4.905   3.896
 9636TIP3    H128872   4.489   4.887   3.989
 9636TIP3    H228873   4.588   4.947   3.892
 9637TIP3   OH228874   3.243   3.373   5.411
 9637TIP3    H128875   3.237   3.415   5.325
 9637TIP3    H228876   3.165   3.402   5.458
 9638TIP3   OH228877   0.327   6.245   1.787
 9638TIP3    H128878   0.410   6.235   1.739
 9638TIP3    H228879   0.348   6.215   1.875
 9639TIP3   OH228880   0.385   4.309   3.315
 9639TIP3    H128881   0.480   4.320   3.302
 9639TIP3    H228882   0.353   4.397   3.336
 9640TIP3   OH228883   2.441   4.862   0.136
 9640TIP3    H128884   2.431   4.944   0.183
 9640TIP3    H228885   2.409   4.795   0.197
 9641TIP3   OH228886   6.481   0.618   2.584
 9641TIP3    H128887   6.419   0.681   2.546
 9641TIP3    H228888   6.497   0.651   2.672
 9642TIP3   OH228889   5.672   5.682   5.850
 9642TIP3    H128890   5.593   5.652   5.806
 9642TIP3    H228891   5.732   5.607   5.844
 9643TIP3   OH228892   0.210   5.722   4.437
 9643TIP3    H128893   0.210   5.656   4.507
 9643TIP3    H228894   0.128   5.769   4.448
 9644TIP3   OH228895   3.920   4.316   5.402
 9644TIP3    H128896   3.909   4.343   5.493
 9644TIP3    H228897   3.832   4.320   5.365
 9645TIP3   OH228898   2.098   3.101   1.177
 9645TIP3    H128899   2.026   3.103   1.114
 9645TIP3    H228900   2.162   3.041   1.139
 9646TIP3   OH228901   3.676   4.805   2.688
 9646TIP3    H128902   3.635   4.814   2.602
 9646TIP3    H228903   3.661   4.714   2.712
 9647TIP3   OH228904   1.478   3.465   3.970
 9647TIP3    H128905   1.489   3.535   3.906
 9647TIP3    H228906   1.442   3.392   3.921
 9648TIP3   OH228907   6.092   3.490   2.924
 9648TIP3    H128908   6.063   3.565   2.975
 9648TIP3    H228909   6.179   3.469   2.959
 9649TIP3   OH228910   5.156   2.921   2.412
 9649TIP3    H128911   5.103   2.990   2.372
 9649TIP3    H228912   5.100   2.844   2.410
 9650TIP3   OH228913   1.091   5.719   1.644
 9650TIP3    H128914   1.070   5.791   1.585
 9650TIP3    H228915   1.025   5.724   1.713
 9651TIP3   OH228916   4.651   6.599   1.549
 9651TIP3    H128917   4.673   6.691   1.530
 9651TIP3    H228918   4.645   6.558   1.463
 9652TIP3   OH228919   3.420   1.144   0.427
 9652TIP3    H128920   3.348   1.207   0.420
 9652TIP3    H228921   3.490   1.192   0.471
 9653TIP3   OH228922   5.861   2.314   5.453
 9653TIP3    H128923   5.787   2.255   5.462
 9653TIP3    H228924   5.925   2.282   5.517
 9654TIP3   OH228925   1.773   0.702   1.635
 9654TIP3    H128926   1.760   0.774   1.696
 9654TIP3    H228927   1.868   0.686   1.636
 9655TIP3   OH228928   3.179   1.314   3.880
 9655TIP3    H128929   3.121   1.306   3.956
 9655TIP3    H228930   3.227   1.232   3.878
 9656TIP3   OH228931   0.918   0.799   2.728
 9656TIP3    H128932   1.009   0.769   2.729
 9656TIP3    H228933   0.904   0.829   2.638
 9657TIP3   OH228934   2.666   4.879   2.431
 9657TIP3    H128935   2.723   4.855   2.359
 9657TIP3    H228936   2.714   4.854   2.510
 9658TIP3   OH228937   1.895   0.307   3.750
 9658TIP3    H128938   1.853   0.334   3.668
 9658TIP3    H228939   1.988   0.324   3.736
 9659TIP3   OH228940   2.357   5.489   3.573
 9659TIP3    H128941   2.265   5.480   3.548
 9659TIP3    H228942   2.355   5.550   3.646
 9660TIP3   OH228943   5.328   3.077   0.613
 9660TIP3    H128944   5.408   3.054   0.659
 9660TIP3    H228945   5.316   3.170   0.628
 9661TIP3   OH228946   6.564   0.567   3.138
 9661TIP3    H128947   6.641   0.562   3.196
 9661TIP3    H228948   6.493   0.528   3.190
 9662TIP3   OH228949   4.372   3.071   5.472
 9662TIP3    H128950   4.390   3.164   5.462
 9662TIP3    H228951   4.323   3.047   5.393
 9663TIP3   OH228952   6.746   6.511   0.205
 9663TIP3    H128953   6.777   6.541   0.290
 9663TIP3    H228954   6.806   6.551   0.142
 9664TIP3   OH228955   3.080   0.204   5.250
 9664TIP3    H128956   3.084   0.109   5.261
 9664TIP3    H228957   3.020   0.233   5.319
 9665TIP3   OH228958   2.215   3.710   0.889
 9665TIP3    H128959   2.201   3.627   0.934
 9665TIP3    H228960   2.255   3.685   0.805
 9666TIP3   OH228961   5.441   6.167   4.327
 9666TIP3    H128962   5.478   6.101   4.268
 9666TIP3    H228963   5.512   6.185   4.389
 9667TIP3   OH228964   5.235   5.310   3.122
 9667TIP3    H128965   5.201   5.250   3.188
 9667TIP3    H228966   5.189   5.392   3.138
 9668TIP3   OH228967   2.863   0.341   0.884
 9668TIP3    H128968   2.949   0.379   0.906
 9668TIP3    H228969   2.880   0.247   0.880
 9669TIP3   OH228970   1.161   5.517   4.771
 9669TIP3    H128971   1.236   5.469   4.738
 9669TIP3    H228972   1.100   5.449   4.801
 9670TIP3   OH228973   2.022   6.108   4.793
 9670TIP3    H128974   1.993   6.023   4.759
 9670TIP3    H228975   2.078   6.143   4.724
 9671TIP3   OH228976   1.533   0.344   4.938
 9671TIP3    H128977   1.516   0.323   5.030
 9671TIP3    H228978   1.626   0.323   4.927
 9672TIP3   OH228979   5.200   2.410   5.797
 9672TIP3    H128980   5.128   2.463   5.763
 9672TIP3    H228981   5.228   2.358   5.723
 9673TIP3   OH228982   1.129   2.521   0.624
 9673TIP3    H128983   1.130   2.609   0.589
 9673TIP3    H228984   1.047   2.515   0.673
 9674TIP3   OH228985   5.023   4.257   1.493
 9674TIP3    H128986   4.994   4.238   1.582
 9674TIP3    H228987   5.119   4.254   1.497
 9675TIP3   OH228988   3.579   6.239   2.664
 9675TIP3    H128989   3.498   6.283   2.636
 9675TIP3    H228990   3.647   6.280   2.611
 9676TIP3   OH228991   6.032   0.178   5.750
 9676TIP3    H128992   5.970   0.106   5.765
 9676TIP3    H228993   6.117   0.135   5.743
 9677TIP3   OH228994   4.097   5.608   0.617
 9677TIP3    H128995   4.066   5.569   0.535
 9677TIP3    H228996   4.080   5.540   0.683
 9678TIP3   OH228997   5.180   3.423   1.569
 9678TIP3    H128998   5.115   3.406   1.638
 9678TIP3    H228999   5.208   3.513   1.584
 9679TIP3   OH229000   2.458   0.931   1.209
 9679TIP3    H129001   2.554   0.937   1.209
 9679TIP3    H229002   2.429   1.010   1.164
 9680TIP3   OH229003   0.822   3.615   4.768
 9680TIP3    H129004   0.901   3.561   4.767
 9680TIP3    H229005   0.793   3.614   4.859
 9681TIP3   OH229006   1.578   2.352   2.360
 9681TIP3    H129007   1.495   2.396   2.343
 9681TIP3    H229008   1.624   2.353   2.277
 9682TIP3   OH229009   4.785   4.790   5.722
 9682TIP3    H129010   4.772   4.728   5.651
 9682TIP3    H229011   4.697   4.819   5.746
 9683TIP3   OH229012   5.722   2.316   4.538
 9683TIP3    H129013   5.795   2.255   4.531
 9683TIP3    H229014   5.723   2.345   4.629
 9684TIP3   OH229015   0.388   3.713   1.391
 9684TIP3    H129016   0.447   3.646   1.356
 9684TIP3    H229017   0.416   3.794   1.347
 9685TIP3   OH229018   4.452   1.716   5.658
 9685TIP3    H129019   4.371   1.665   5.658
 9685TIP3    H229020   4.499   1.687   5.580
 9686TIP3   OH229021   5.859   5.060   5.104
 9686TIP3    H129022   5.852   4.980   5.051
 9686TIP3    H229023   5.850   5.131   5.042
 9687TIP3   OH229024   1.864   2.755   4.122
 9687TIP3    H129025   1.794   2.721   4.067
 9687TIP3    H229026   1.879   2.687   4.187
 9688TIP3   OH229027   6.330   0.395   2.667
 9688TIP3    H129028   6.339   0.383   2.762
 9688TIP3    H229029   6.395   0.461   2.645
 9689TIP3   OH229030   4.618   5.161   2.208
 9689TIP3    H129031   4.641   5.145   2.300
 9689TIP3    H229032   4.678   5.230   2.180
 9690TIP3   OH229033   6.876   1.535   1.411
 9690TIP3    H129034   6.854   1.595   1.483
 9690TIP3    H229035   6.810   1.554   1.344
 9691TIP3   OH229036   6.210   1.135   4.883
 9691TIP3    H129037   6.225   1.152   4.976
 9691TIP3    H229038   6.272   1.065   4.861
 9692TIP3   OH229039   3.862   0.584   4.131
 9692TIP3    H129040   3.939   0.564   4.183
 9692TIP3    H229041   3.872   0.677   4.107
 9693TIP3   OH229042   5.469   1.242   3.147
 9693TIP3    H129043   5.412   1.204   3.215
 9693TIP3    H229044   5.419   1.232   3.066
 9694TIP3   OH229045   3.401   3.673   3.966
 9694TIP3    H129046   3.421   3.757   4.008
 9694TIP3    H229047   3.390   3.695   3.874
 9695TIP3   OH229048   3.751   1.230   5.754
 9695TIP3    H129049   3.762   1.221   5.849
 9695TIP3    H229050   3.760   1.324   5.738
 9696TIP3   OH229051   4.473   4.780   5.109
 9696TIP3    H129052   4.472   4.751   5.200
 9696TIP3    H229053   4.559   4.753   5.077
 9697TIP3   OH229054   2.517   6.514   0.944
 9697TIP3    H129055   2.494   6.475   1.028
 9697TIP3    H229056   2.462   6.592   0.938
 9698TIP3   OH229057   1.078   6.637   4.857
 9698TIP3    H129058   1.098   6.591   4.938
 9698TIP3    H229059   1.069   6.729   4.884
 9699TIP3   OH229060   2.539   3.106   2.855
 9699TIP3    H129061   2.632   3.083   2.863
 9699TIP3    H229062   2.527   3.180   2.914
 9700TIP3   OH229063   1.031   2.932   4.317
 9700TIP3    H129064   1.101   2.996   4.301
 9700TIP3    H229065   1.077   2.856   4.352
 9701TIP3   OH229066   4.481   6.765   4.792
 9701TIP3    H129067   4.414   6.698   4.803
 9701TIP3    H229068   4.450   6.839   4.844
 9702TIP3   OH229069   4.247   0.311   5.348
 9702TIP3    H129070   4.302   0.261   5.288
 9702TIP3    H229071   4.206   0.378   5.292
 9703TIP3   OH229072   1.688   1.842   5.558
 9703TIP3    H129073   1.699   1.929   5.596
 9703TIP3    H229074   1.661   1.859   5.467
 9704TIP3   OH229075   4.038   4.859   4.569
 9704TIP3    H129076   4.063   4.871   4.478
 9704TIP3    H229077   4.120   4.872   4.618
 9705TIP3   OH229078   1.465   2.993   1.237
 9705TIP3    H129079   1.526   3.063   1.216
 9705TIP3    H229080   1.399   2.997   1.169
 9706TIP3   OH229081   6.531   1.856   5.856
 9706TIP3    H129082   6.463   1.795   5.885
 9706TIP3    H229083   6.488   1.908   5.788
 9707TIP3   OH229084   3.708   1.289   2.905
 9707TIP3    H129085   3.693   1.258   2.994
 9707TIP3    H229086   3.797   1.326   2.907
 9708TIP3   OH229087   4.317   0.169   3.759
 9708TIP3    H129088   4.385   0.163   3.826
 9708TIP3    H229089   4.324   0.086   3.711
 9709TIP3   OH229090   1.429   6.345   4.879
 9709TIP3    H129091   1.354   6.359   4.822
 9709TIP3    H229092   1.397   6.370   4.966
 9710TIP3   OH229093   0.795   5.619   2.710
 9710TIP3    H129094   0.822   5.642   2.799
 9710TIP3    H229095   0.718   5.563   2.722
 9711TIP3   OH229096   0.141   2.951   0.710
 9711TIP3    H129097   0.167   2.925   0.621
 9711TIP3    H229098   0.060   3.001   0.697
 9712TIP3   OH229099   0.484   1.851   5.584
 9712TIP3    H129100   0.511   1.874   5.494
 9712TIP3    H229101   0.400   1.895   5.596
 9713TIP3   OH229102   0.753   0.349   1.829
 9713TIP3    H129103   0.703   0.268   1.835
 9713TIP3    H229104   0.793   0.359   1.916
 9714TIP3   OH229105   6.796   0.971   4.246
 9714TIP3    H129106   6.711   1.009   4.224
 9714TIP3    H229107   6.823   1.017   4.325
 9715TIP3   OH229108   0.203   2.598   0.978
 9715TIP3    H129109   0.272   2.533   0.992
 9715TIP3    H229110   0.125   2.559   1.017
 9716TIP3   OH229111   1.266   3.368   4.726
 9716TIP3    H129112   1.261   3.378   4.630
 9716TIP3    H229113   1.231   3.280   4.743
 9717TIP3   OH229114   5.177   5.684   2.553
 9717TIP3    H129115   5.247   5.633   2.512
 9717TIP3    H229116   5.098   5.632   2.541
 9718TIP3   OH229117   2.487   3.083   3.658
 9718TIP3    H129118   2.526   3.029   3.727
 9718TIP3    H229119   2.496   3.032   3.578
 9719TIP3   OH229120   4.044   4.861   0.050
 9719TIP3    H129121   3.996   4.905   0.121
 9719TIP3    H229122   4.119   4.821   0.094
 9720TIP3   OH229123   5.949   6.457   4.293
 9720TIP3    H129124   6.040   6.426   4.287
 9720TIP3    H229125   5.902   6.404   4.229
 9721TIP3   OH229126   3.636   4.199   1.036
 9721TIP3    H129127   3.567   4.133   1.028
 9721TIP3    H229128   3.716   4.149   1.052
 9722TIP3   OH229129   5.352   4.631   4.843
 9722TIP3    H129130   5.280   4.678   4.885
 9722TIP3    H229131   5.419   4.699   4.827
 9723TIP3   OH229132   1.663   2.485   4.316
 9723TIP3    H129133   1.662   2.393   4.342
 9723TIP3    H229134   1.749   2.517   4.342
 9724TIP3   OH229135   0.054   2.549   3.791
 9724TIP3    H129136  -0.001   2.527   3.716
 9724TIP3    H229137   0.051   2.644   3.797
 9725TIP3   OH229138   5.088   5.852   2.195
 9725TIP3    H129139   5.116   5.860   2.286
 9725TIP3    H229140   5.152   5.792   2.156
 9726TIP3   OH229141   5.328   1.022   1.388
 9726TIP3    H129142   5.365   0.937   1.362
 9726TIP3    H229143   5.355   1.081   1.318
 9727TIP3   OH229144   2.951   2.677   2.393
 9727TIP3    H129145   2.974   2.720   2.475
 9727TIP3    H229146   2.922   2.748   2.335
 9728TIP3   OH229147   2.238   0.660   0.754
 9728TIP3    H129148   2.250   0.566   0.745
 9728TIP3    H229149   2.156   0.670   0.802
 9729TIP3   OH229150   3.878   4.055   4.358
 9729TIP3    H129151   3.843   4.030   4.272
 9729TIP3    H229152   3.973   4.053   4.346
 9730TIP3   OH229153   3.973   4.758   2.546
 9730TIP3    H129154   3.957   4.684   2.604
 9730TIP3    H229155   4.009   4.826   2.602
 9731TIP3   OH229156   0.988   0.730   3.390
 9731TIP3    H129157   0.992   0.825   3.379
 9731TIP3    H229158   1.078   0.704   3.407
 9732TIP3   OH229159   4.128   0.275   3.263
 9732TIP3    H129160   4.184   0.351   3.246
 9732TIP3    H229161   4.133   0.224   3.182
 9733TIP3   OH229162   0.042   0.629   2.858
 9733TIP3    H129163  -0.006   0.650   2.938
 9733TIP3    H229164   0.063   0.536   2.866
 9734TIP3   OH229165   6.508   2.421   4.283
 9734TIP3    H129166   6.496   2.395   4.374
 9734TIP3    H229167   6.517   2.338   4.236
 9735TIP3   OH229168   7.081   5.509   1.303
 9735TIP3    H129169   7.049   5.590   1.263
 9735TIP3    H229170   7.101   5.452   1.229
 9736TIP3   OH229171   5.126   2.245   4.105
 9736TIP3    H129172   5.060   2.190   4.146
 9736TIP3    H229173   5.119   2.226   4.012
 9737TIP3   OH229174   5.810   2.633   4.865
 9737TIP3    H129175   5.737   2.691   4.845
 9737TIP3    H229176   5.792   2.554   4.814
 9738TIP3   OH229177   2.784   5.079   1.771
 9738TIP3    H129178   2.873   5.105   1.744
 9738TIP3    H229179   2.727   5.143   1.729
 9739TIP3   OH229180   0.281   4.490   1.054
 9739TIP3    H129181   0.366   4.458   1.085
 9739TIP3    H229182   0.254   4.426   0.988
 9740TIP3   OH229183   5.264   5.407   4.802
 9740TIP3    H129184   5.212   5.362   4.736
 9740TIP3    H229185   5.355   5.393   4.776
 9741TIP3   OH229186   4.970   2.874   3.413
 9741TIP3    H129187   5.006   2.834   3.333
 9741TIP3    H229188   4.915   2.945   3.381
 9742TIP3   OH229189   2.475   2.987   2.073
 9742TIP3    H129190   2.424   2.982   1.992
 9742TIP3    H229191   2.553   3.038   2.049
 9743TIP3   OH229192   3.249   2.267   2.211
 9743TIP3    H129193   3.193   2.344   2.214
 9743TIP3    H229194   3.220   2.218   2.134
 9744TIP3   OH229195   5.381   1.215   1.183
 9744TIP3    H129196   5.403   1.283   1.247
 9744TIP3    H229197   5.457   1.157   1.184
 9745TIP3   OH229198   5.238   0.164   5.564
 9745TIP3    H129199   5.243   0.072   5.538
 9745TIP3    H229200   5.328   0.196   5.559
 9746TIP3   OH229201   6.682   4.910   2.185
 9746TIP3    H129202   6.700   4.869   2.100
 9746TIP3    H229203   6.648   4.839   2.239
 9747TIP3   OH229204   6.195   3.220   2.465
 9747TIP3    H129205   6.192   3.227   2.561
 9747TIP3    H229206   6.247   3.295   2.437
 9748TIP3   OH229207   1.124   2.121   0.273
 9748TIP3    H129208   1.085   2.034   0.278
 9748TIP3    H229209   1.114   2.157   0.361
 9749TIP3   OH229210   1.557   6.616   0.945
 9749TIP3    H129211   1.594   6.704   0.945
 9749TIP3    H229212   1.628   6.560   0.976
   7.20517   6.79311   5.88299   0.00000   0.00000  -2.40173   0.00000  -2.40173  -3.39655
