Title t= 496.00000 step= 248000
29212
    1ASP      N    1   2.193   1.143   2.744
    1ASP    HT1    2   2.265   1.071   2.762
    1ASP    HT2    3   2.195   1.168   2.642
    1ASP    HT3    4   2.102   1.100   2.771
    1ASP     CA    5   2.236   1.261   2.827
    1ASP     HA    6   2.230   1.223   2.928
    1ASP     CB    7   2.376   1.302   2.790
    1ASP    HB1    8   2.414   1.377   2.863
    1ASP    HB2    9   2.370   1.351   2.690
    1ASP     CG   10   2.475   1.192   2.801
    1ASP    OD1   11   2.440   1.076   2.847
    1ASP    OD2   12   2.593   1.208   2.760
    1ASP      C   13   2.125   1.376   2.829
    1ASP      O   14   2.048   1.387   2.727
    2GLY      N   15   2.113   1.448   2.943
    2GLY     HN   16   2.168   1.434   3.024
    2GLY     CA   17   2.024   1.564   2.964
    2GLY    HA1   18   2.069   1.652   2.922
    2GLY    HA2   19   2.010   1.569   3.071
    2GLY      C   20   1.885   1.562   2.904
    2GLY      O   21   1.822   1.458   2.898
    3ASP      N   22   1.838   1.686   2.873
    3ASP     HN   23   1.900   1.764   2.871
    3ASP     CA   24   1.702   1.713   2.826
    3ASP     HA   25   1.623   1.644   2.851
    3ASP     CB   26   1.656   1.856   2.870
    3ASP    HB1   27   1.557   1.883   2.826
    3ASP    HB2   28   1.734   1.928   2.835
    3ASP     CG   29   1.645   1.857   3.019
    3ASP    OD1   30   1.707   1.937   3.090
    3ASP    OD2   31   1.571   1.769   3.069
    3ASP      C   32   1.712   1.711   2.672
    3ASP      O   33   1.801   1.753   2.596
    4GLY      N   34   1.605   1.654   2.617
    4GLY     HN   35   1.539   1.616   2.682
    4GLY     CA   36   1.587   1.631   2.470
    4GLY    HA1   37   1.496   1.575   2.456
    4GLY    HA2   38   1.674   1.580   2.430
    4GLY      C   39   1.564   1.766   2.395
    4GLY      O   40   1.577   1.871   2.455
    5PRO      N   41   1.531   1.767   2.268
    5PRO     CD   42   1.524   1.641   2.184
    5PRO    HD1   43   1.451   1.566   2.220
    5PRO    HD2   44   1.625   1.597   2.182
    5PRO     CA   45   1.505   1.891   2.195
    5PRO     HA   46   1.584   1.962   2.214
    5PRO     CB   47   1.511   1.850   2.046
    5PRO    HB1   48   1.614   1.869   2.009
    5PRO    HB2   49   1.441   1.906   1.980
    5PRO     CG   50   1.475   1.702   2.047
    5PRO    HG1   51   1.366   1.697   2.028
    5PRO    HG2   52   1.519   1.653   1.958
    5PRO      C   53   1.376   1.960   2.238
    5PRO      O   54   1.382   2.082   2.235
    6GLY      N   55   1.259   1.892   2.265
    6GLY     HN   56   1.261   1.793   2.259
    6GLY     CA   57   1.141   1.951   2.320
    6GLY    HA1   58   1.061   1.879   2.309
    6GLY    HA2   59   1.117   2.041   2.264
    6GLY      C   60   1.159   2.004   2.465
    6GLY      O   61   1.242   1.949   2.545
    7ASP      N   62   1.068   2.093   2.510
    7ASP     HN   63   1.008   2.130   2.440
    7ASP     CA   64   1.046   2.121   2.659
    7ASP     HA   65   1.130   2.172   2.703
    7ASP     CB   66   0.937   2.231   2.667
    7ASP    HB1   67   0.910   2.253   2.772
    7ASP    HB2   68   0.843   2.189   2.626
    7ASP     CG   69   0.983   2.364   2.604
    7ASP    OD1   70   1.102   2.394   2.614
    7ASP    OD2   71   0.895   2.439   2.558
    7ASP      C   72   1.032   1.992   2.748
    7ASP      O   73   0.986   1.887   2.706
    8PRO      N   74   1.075   1.994   2.875
    8PRO     CD   75   1.159   2.101   2.938
    8PRO    HD1   76   1.093   2.186   2.967
    8PRO    HD2   77   1.240   2.136   2.870
    8PRO     CA   78   1.039   1.898   2.975
    8PRO     HA   79   1.078   1.802   2.943
    8PRO     CB   80   1.107   1.948   3.102
    8PRO    HB1   81   1.159   1.863   3.151
    8PRO    HB2   82   1.044   1.992   3.182
    8PRO     CG   83   1.220   2.038   3.060
    8PRO    HG1   84   1.244   2.112   3.139
    8PRO    HG2   85   1.316   1.990   3.032
    8PRO      C   86   0.890   1.879   2.989
    8PRO      O   87   0.814   1.974   2.955
    9GLY      N   88   0.842   1.760   3.027
    9GLY     HN   89   0.898   1.686   3.062
    9GLY     CA   90   0.702   1.720   3.014
    9GLY    HA1   91   0.651   1.814   3.001
    9GLY    HA2   92   0.667   1.669   3.103
    9GLY      C   93   0.671   1.628   2.900
    9GLY      O   94   0.753   1.630   2.805
   10ASP      N   95   0.562   1.554   2.900
   10ASP     HN   96   0.509   1.571   2.983
   10ASP     CA   97   0.509   1.465   2.798
   10ASP     HA   98   0.568   1.375   2.805
   10ASP     CB   99   0.364   1.414   2.838
   10ASP    HB1  100   0.340   1.325   2.777
   10ASP    HB2  101   0.287   1.489   2.812
   10ASP     CG  102   0.363   1.355   2.982
   10ASP    OD1  103   0.472   1.306   3.024
   10ASP    OD2  104   0.259   1.348   3.046
   10ASP      C  105   0.524   1.494   2.644
   10ASP      O  106   0.488   1.599   2.591
   11GLY      N  107   0.564   1.390   2.568
   11GLY     HN  108   0.595   1.303   2.607
   11GLY     CA  109   0.572   1.395   2.419
   11GLY    HA1  110   0.574   1.500   2.391
   11GLY    HA2  111   0.479   1.357   2.380
   11GLY      C  112   0.692   1.312   2.371
   11GLY    OT1  113   0.727   1.313   2.252
   11GLY    OT2  114   0.759   1.254   2.455
   12LIT    LIT  115   4.890   5.104   2.015
   13LIT    LIT  116   5.823   5.456   1.509
   14LIT    LIT  117   5.528   0.889   0.730
   15LIT    LIT  118   3.166   1.877   0.647
   16LIT    LIT  119   0.876   1.194   2.320
   17LIT    LIT  120   0.750   1.829   0.568
   18LIT    LIT  121   4.814   4.954   0.688
   19LIT    LIT  122   3.519   1.155   2.604
   20LIT    LIT  123   0.495   3.415   3.597
   21LIT    LIT  124   1.053   5.757   0.851
   22LIT    LIT  125   3.672   5.223   0.115
   23LIT    LIT  126   6.380   6.306   1.274
   24LIT    LIT  127   6.088   4.980   3.041
   25LIT    LIT  128   6.172   1.016   3.777
   26LIT    LIT  129   0.378   1.273   3.182
   27LIT    LIT  130   3.720   2.321   2.618
   28LIT    LIT  131   0.174   4.638   4.869
   29LIT    LIT  132   1.892   1.942   3.117
   30LIT    LIT  133   6.574   3.567   1.525
   31LIT    LIT  134   4.429   2.252   3.030
   32LIT    LIT  135   5.799   2.779   1.178
   33LIT    LIT  136   3.927   4.177   3.096
   34LIT    LIT  137   5.394   2.405   5.686
   35LIT    LIT  138   7.077   1.227   2.619
   36LIT    LIT  139   3.645   3.530   4.876
   37LIT    LIT  140   3.393   5.257   1.854
   38LIT    LIT  141   2.253   5.347   1.076
   39LIT    LIT  142   2.605   1.001   2.769
   40LIT    LIT  143   2.543   6.796   1.179
   41LIT    LIT  144   2.082   6.303   5.463
   42LIT    LIT  145   1.564   1.747   3.250
   43CLA    CLA  146   4.543   0.227   1.288
   44CLA    CLA  147   6.645   1.908   4.329
   45CLA    CLA  148   2.941   6.721   5.027
   46CLA    CLA  149   0.805   4.976   1.151
   47CLA    CLA  150   1.922   4.023   5.875
   48CLA    CLA  151   2.768   3.117   3.991
   49CLA    CLA  152   6.569   0.132   0.180
   50CLA    CLA  153   4.423   5.823   0.545
   51CLA    CLA  154   1.030   1.170   0.907
   52CLA    CLA  155   5.413   1.389   5.729
   53CLA    CLA  156   3.819   2.293   3.795
   54CLA    CLA  157   5.284   2.472   2.875
   55CLA    CLA  158   1.244   5.223   5.029
   56CLA    CLA  159   4.957   4.233   3.390
   57CLA    CLA  160   6.740   0.185   3.759
   58CLA    CLA  161   5.187   4.619   2.553
   59CLA    CLA  162   4.677   3.405   4.828
   60CLA    CLA  163   0.186   5.522   0.359
   61CLA    CLA  164   6.632   6.684   1.194
   62CLA    CLA  165   0.269   6.667   3.650
   63CLA    CLA  166   0.950   2.407   4.463
   64CLA    CLA  167   5.168   3.605   1.570
   65CLA    CLA  168   6.138   5.754   2.701
   66CLA    CLA  169   3.582   0.289   5.145
   67CLA    CLA  170   2.604   5.672   0.266
   68CLA    CLA  171   1.717   3.103   1.694
   69CLA    CLA  172   6.626   6.084   2.684
   70TIP3   OH2  173   0.514   2.567   2.015
   70TIP3    H1  174   0.496   2.652   2.054
   70TIP3    H2  175   0.428   2.530   1.995
   71TIP3   OH2  176   5.537   2.061   3.623
   71TIP3    H1  177   5.509   1.999   3.691
   71TIP3    H2  178   5.522   2.013   3.541
   72TIP3   OH2  179   3.942   0.955   5.551
   72TIP3    H1  180   3.989   0.910   5.481
   72TIP3    H2  181   4.011   0.991   5.607
   73TIP3   OH2  182   6.106   4.645   0.999
   73TIP3    H1  183   6.066   4.713   1.053
   73TIP3    H2  184   6.193   4.680   0.978
   74TIP3   OH2  185   6.185   6.682   1.292
   74TIP3    H1  186   6.244   6.675   1.367
   74TIP3    H2  187   6.220   6.755   1.241
   75TIP3   OH2  188   1.815   3.513   0.953
   75TIP3    H1  189   1.891   3.488   1.006
   75TIP3    H2  190   1.749   3.446   0.970
   76TIP3   OH2  191   1.400   0.912   4.283
   76TIP3    H1  192   1.416   0.872   4.369
   76TIP3    H2  193   1.478   0.965   4.266
   77TIP3   OH2  194   2.388   4.151   3.143
   77TIP3    H1  195   2.465   4.115   3.186
   77TIP3    H2  196   2.416   4.168   3.053
   78TIP3   OH2  197   2.850   6.041   4.134
   78TIP3    H1  198   2.778   6.040   4.071
   78TIP3    H2  199   2.841   6.124   4.180
   79TIP3   OH2  200   3.721   5.834   2.057
   79TIP3    H1  201   3.788   5.900   2.074
   79TIP3    H2  202   3.652   5.880   2.010
   80TIP3   OH2  203   3.211   2.026   1.625
   80TIP3    H1  204   3.153   2.091   1.587
   80TIP3    H2  205   3.285   2.021   1.564
   81TIP3   OH2  206   1.203   4.922   3.597
   81TIP3    H1  207   1.185   4.997   3.652
   81TIP3    H2  208   1.228   4.853   3.658
   82TIP3   OH2  209   4.895   5.229   5.465
   82TIP3    H1  210   4.860   5.211   5.378
   82TIP3    H2  211   4.831   5.289   5.504
   83TIP3   OH2  212   3.311   6.552   3.097
   83TIP3    H1  213   3.357   6.468   3.107
   83TIP3    H2  214   3.259   6.542   3.017
   84TIP3   OH2  215   3.700   4.863   2.035
   84TIP3    H1  216   3.647   4.785   2.026
   84TIP3    H2  217   3.684   4.894   2.124
   85TIP3   OH2  218   5.400   3.284   2.577
   85TIP3    H1  219   5.417   3.199   2.619
   85TIP3    H2  220   5.321   3.269   2.526
   86TIP3   OH2  221   0.303   2.119   2.433
   86TIP3    H1  222   0.317   2.138   2.526
   86TIP3    H2  223   0.389   2.128   2.393
   87TIP3   OH2  224   4.526   1.382   2.136
   87TIP3    H1  225   4.446   1.337   2.109
   87TIP3    H2  226   4.496   1.470   2.159
   88TIP3   OH2  227   3.827   2.824   1.053
   88TIP3    H1  228   3.890   2.884   1.012
   88TIP3    H2  229   3.744   2.871   1.050
   89TIP3   OH2  230   4.119   4.183   3.082
   89TIP3    H1  231   4.172   4.140   3.016
   89TIP3    H2  232   4.165   4.265   3.100
   90TIP3   OH2  233   3.440   0.630   4.960
   90TIP3    H1  234   3.478   0.551   4.920
   90TIP3    H2  235   3.419   0.604   5.050
   91TIP3   OH2  236   5.974   4.522   2.391
   91TIP3    H1  237   6.040   4.456   2.369
   91TIP3    H2  238   5.893   4.490   2.352
   92TIP3   OH2  239   0.697   5.613   1.325
   92TIP3    H1  240   0.691   5.562   1.406
   92TIP3    H2  241   0.654   5.558   1.259
   93TIP3   OH2  242   0.322   5.376   0.105
   93TIP3    H1  243   0.417   5.365   0.101
   93TIP3    H2  244   0.307   5.421   0.188
   94TIP3   OH2  245   0.711   3.125   5.022
   94TIP3    H1  246   0.632   3.155   5.067
   94TIP3    H2  247   0.728   3.193   4.956
   95TIP3   OH2  248   0.855   0.459   1.170
   95TIP3    H1  249   0.886   0.406   1.096
   95TIP3    H2  250   0.846   0.548   1.135
   96TIP3   OH2  251   5.852   3.185   4.311
   96TIP3    H1  252   5.761   3.200   4.339
   96TIP3    H2  253   5.886   3.122   4.374
   97TIP3   OH2  254   0.897   3.441   1.945
   97TIP3    H1  255   0.990   3.425   1.932
   97TIP3    H2  256   0.881   3.527   1.906
   98TIP3   OH2  257   6.473   6.439   1.629
   98TIP3    H1  258   6.392   6.389   1.630
   98TIP3    H2  259   6.542   6.374   1.618
   99TIP3   OH2  260   5.912   6.451   2.983
   99TIP3    H1  261   5.885   6.494   3.064
   99TIP3    H2  262   5.966   6.377   3.011
  100TIP3   OH2  263   4.040   6.263   2.896
  100TIP3    H1  264   4.122   6.262   2.848
  100TIP3    H2  265   4.040   6.346   2.943
  101TIP3   OH2  266   2.403   4.106   4.360
  101TIP3    H1  267   2.397   4.122   4.454
  101TIP3    H2  268   2.446   4.021   4.352
  102TIP3   OH2  269   2.362   6.657   1.994
  102TIP3    H1  270   2.376   6.667   2.088
  102TIP3    H2  271   2.446   6.627   1.960
  103TIP3   OH2  272   5.828   6.274   1.832
  103TIP3    H1  273   5.774   6.323   1.770
  103TIP3    H2  274   5.913   6.318   1.831
  104TIP3   OH2  275   2.372   5.144   0.099
  104TIP3    H1  276   2.316   5.222   0.106
  104TIP3    H2  277   2.331   5.081   0.158
  105TIP3   OH2  278   0.674   5.197   1.355
  105TIP3    H1  279   0.712   5.128   1.301
  105TIP3    H2  280   0.596   5.156   1.393
  106TIP3   OH2  281   7.074   2.490   0.414
  106TIP3    H1  282   7.112   2.484   0.327
  106TIP3    H2  283   7.070   2.399   0.445
  107TIP3   OH2  284   0.744   4.082   1.506
  107TIP3    H1  285   0.726   4.089   1.413
  107TIP3    H2  286   0.809   4.150   1.524
  108TIP3   OH2  287   0.357   6.315   2.580
  108TIP3    H1  288   0.362   6.374   2.505
  108TIP3    H2  289   0.447   6.306   2.610
  109TIP3   OH2  290   0.878   0.010   0.764
  109TIP3    H1  291   0.923  -0.066   0.728
  109TIP3    H2  292   0.929   0.085   0.735
  110TIP3   OH2  293   0.906   6.725   1.763
  110TIP3    H1  294   0.924   6.811   1.725
  110TIP3    H2  295   0.864   6.676   1.692
  111TIP3   OH2  296   2.850   1.384   4.706
  111TIP3    H1  297   2.903   1.306   4.723
  111TIP3    H2  298   2.838   1.385   4.611
  112TIP3   OH2  299   2.650   1.231   3.064
  112TIP3    H1  300   2.680   1.292   2.997
  112TIP3    H2  301   2.601   1.165   3.016
  113TIP3   OH2  302   4.843   6.119   4.644
  113TIP3    H1  303   4.846   6.044   4.703
  113TIP3    H2  304   4.883   6.190   4.694
  114TIP3   OH2  305   0.025   1.623   0.386
  114TIP3    H1  306   0.076   1.550   0.421
  114TIP3    H2  307   0.013   1.682   0.460
  115TIP3   OH2  308   4.176   0.028   4.926
  115TIP3    H1  309   4.181  -0.026   5.005
  115TIP3    H2  310   4.180   0.118   4.959
  116TIP3   OH2  311   3.906   1.538   4.733
  116TIP3    H1  312   3.927   1.609   4.672
  116TIP3    H2  313   3.841   1.486   4.686
  117TIP3   OH2  314   3.979   0.870   0.213
  117TIP3    H1  315   3.921   0.801   0.245
  117TIP3    H2  316   3.945   0.950   0.251
  118TIP3   OH2  317   6.987   1.783   3.266
  118TIP3    H1  318   6.927   1.857   3.278
  118TIP3    H2  319   7.056   1.798   3.331
  119TIP3   OH2  320   0.946   5.634   0.965
  119TIP3    H1  321   0.900   5.571   0.910
  119TIP3    H2  322   0.971   5.584   1.043
  120TIP3   OH2  323   2.892   0.481   1.975
  120TIP3    H1  324   2.934   0.417   1.918
  120TIP3    H2  325   2.964   0.513   2.030
  121TIP3   OH2  326   3.917   1.009   2.810
  121TIP3    H1  327   3.871   1.015   2.727
  121TIP3    H2  328   3.865   1.061   2.871
  122TIP3   OH2  329   3.151   0.627   1.813
  122TIP3    H1  330   3.140   0.534   1.829
  122TIP3    H2  331   3.067   0.667   1.836
  123TIP3   OH2  332   4.239   6.784   5.681
  123TIP3    H1  333   4.160   6.738   5.652
  123TIP3    H2  334   4.264   6.837   5.605
  124TIP3   OH2  335   3.310   6.768   5.287
  124TIP3    H1  336   3.282   6.677   5.288
  124TIP3    H2  337   3.325   6.788   5.195
  125TIP3   OH2  338   2.020   2.211   2.442
  125TIP3    H1  339   1.960   2.136   2.433
  125TIP3    H2  340   2.083   2.184   2.508
  126TIP3   OH2  341   4.738   1.280   0.776
  126TIP3    H1  342   4.745   1.325   0.860
  126TIP3    H2  343   4.780   1.196   0.790
  127TIP3   OH2  344   3.482   5.563   5.782
  127TIP3    H1  345   3.551   5.591   5.721
  127TIP3    H2  346   3.453   5.478   5.748
  128TIP3   OH2  347   2.292   1.858   5.125
  128TIP3    H1  348   2.198   1.840   5.115
  128TIP3    H2  349   2.322   1.792   5.188
  129TIP3   OH2  350   0.922   1.005   2.374
  129TIP3    H1  351   1.017   1.018   2.378
  129TIP3    H2  352   0.911   0.929   2.316
  130TIP3   OH2  353   0.484   5.864   1.039
  130TIP3    H1  354   0.486   5.953   1.004
  130TIP3    H2  355   0.574   5.846   1.065
  131TIP3   OH2  356   0.364   4.391   0.112
  131TIP3    H1  357   0.374   4.399   0.207
  131TIP3    H2  358   0.444   4.346   0.084
  132TIP3   OH2  359   0.665   1.738   1.231
  132TIP3    H1  360   0.686   1.727   1.139
  132TIP3    H2  361   0.653   1.648   1.263
  133TIP3   OH2  362   1.504   3.877   1.637
  133TIP3    H1  363   1.497   3.876   1.542
  133TIP3    H2  364   1.430   3.930   1.666
  134TIP3   OH2  365   6.140   2.608   2.464
  134TIP3    H1  366   6.061   2.570   2.503
  134TIP3    H2  367   6.130   2.702   2.475
  135TIP3   OH2  368   6.676   4.720   3.713
  135TIP3    H1  369   6.588   4.726   3.750
  135TIP3    H2  370   6.730   4.772   3.772
  136TIP3   OH2  371   4.921   3.067   5.497
  136TIP3    H1  372   4.964   3.098   5.577
  136TIP3    H2  373   4.838   3.031   5.527
  137TIP3   OH2  374   0.544   3.776   3.877
  137TIP3    H1  375   0.450   3.780   3.857
  137TIP3    H2  376   0.587   3.799   3.795
  138TIP3   OH2  377   1.112   0.914   1.710
  138TIP3    H1  378   1.111   0.898   1.616
  138TIP3    H2  379   1.164   0.843   1.746
  139TIP3   OH2  380   4.733   0.484   3.053
  139TIP3    H1  381   4.742   0.416   3.121
  139TIP3    H2  382   4.642   0.512   3.060
  140TIP3   OH2  383   2.452   4.365   1.864
  140TIP3    H1  384   2.454   4.459   1.848
  140TIP3    H2  385   2.379   4.333   1.810
  141TIP3   OH2  386   1.571   2.340   4.610
  141TIP3    H1  387   1.663   2.361   4.600
  141TIP3    H2  388   1.542   2.319   4.521
  142TIP3   OH2  389   5.997   1.235   5.057
  142TIP3    H1  390   5.914   1.190   5.041
  142TIP3    H2  391   5.973   1.314   5.106
  143TIP3   OH2  392   6.296   5.705   1.906
  143TIP3    H1  393   6.243   5.643   1.957
  143TIP3    H2  394   6.373   5.721   1.961
  144TIP3   OH2  395   0.720   4.245   2.806
  144TIP3    H1  396   0.814   4.258   2.818
  144TIP3    H2  397   0.705   4.154   2.829
  145TIP3   OH2  398   0.917   1.857   0.480
  145TIP3    H1  399   0.917   1.802   0.402
  145TIP3    H2  400   1.007   1.889   0.486
  146TIP3   OH2  401   3.064   3.298   4.046
  146TIP3    H1  402   2.993   3.236   4.031
  146TIP3    H2  403   3.119   3.292   3.968
  147TIP3   OH2  404   1.534   6.525   0.054
  147TIP3    H1  405   1.564   6.616   0.047
  147TIP3    H2  406   1.448   6.531   0.095
  148TIP3   OH2  407   2.661   3.510   3.234
  148TIP3    H1  408   2.636   3.513   3.326
  148TIP3    H2  409   2.580   3.492   3.187
  149TIP3   OH2  410   5.821   0.441   4.118
  149TIP3    H1  411   5.802   0.495   4.042
  149TIP3    H2  412   5.852   0.504   4.185
  150TIP3   OH2  413   6.660   3.015   3.681
  150TIP3    H1  414   6.592   3.033   3.615
  150TIP3    H2  415   6.634   3.068   3.756
  151TIP3   OH2  416   1.955   5.600   4.638
  151TIP3    H1  417   1.929   5.508   4.626
  151TIP3    H2  418   2.039   5.607   4.593
  152TIP3   OH2  419   5.971   5.248   0.050
  152TIP3    H1  420   5.953   5.156   0.032
  152TIP3    H2  421   5.988   5.287  -0.036
  153TIP3   OH2  422   3.327   1.506   4.258
  153TIP3    H1  423   3.291   1.557   4.331
  153TIP3    H2  424   3.364   1.428   4.300
  154TIP3   OH2  425   2.099   2.529   5.023
  154TIP3    H1  426   2.157   2.599   4.992
  154TIP3    H2  427   2.104   2.462   4.954
  155TIP3   OH2  428   2.293   3.810   0.078
  155TIP3    H1  429   2.236   3.789   0.152
  155TIP3    H2  430   2.354   3.736   0.074
  156TIP3   OH2  431   2.560   2.010   3.717
  156TIP3    H1  432   2.593   2.042   3.801
  156TIP3    H2  433   2.631   1.956   3.683
  157TIP3   OH2  434   0.682   6.104   1.868
  157TIP3    H1  435   0.706   6.172   1.932
  157TIP3    H2  436   0.685   6.149   1.784
  158TIP3   OH2  437   2.684   5.035   2.953
  158TIP3    H1  438   2.703   4.953   3.000
  158TIP3    H2  439   2.596   5.023   2.918
  159TIP3   OH2  440   3.654   5.005   2.277
  159TIP3    H1  441   3.741   5.029   2.309
  159TIP3    H2  442   3.615   5.089   2.251
  160TIP3   OH2  443   1.106   4.831   2.416
  160TIP3    H1  444   1.169   4.765   2.444
  160TIP3    H2  445   1.102   4.893   2.489
  161TIP3   OH2  446   5.573   0.140   5.461
  161TIP3    H1  447   5.497   0.086   5.481
  161TIP3    H2  448   5.610   0.101   5.382
  162TIP3   OH2  449   3.045   6.836   4.781
  162TIP3    H1  450   3.020   6.785   4.858
  162TIP3    H2  451   3.080   6.772   4.719
  163TIP3   OH2  452   3.541   1.172   2.796
  163TIP3    H1  453   3.464   1.191   2.850
  163TIP3    H2  454   3.616   1.189   2.853
  164TIP3   OH2  455   3.444   2.819   0.926
  164TIP3    H1  456   3.435   2.788   0.836
  164TIP3    H2  457   3.530   2.861   0.929
  165TIP3   OH2  458   3.811   1.911   3.047
  165TIP3    H1  459   3.870   1.976   3.084
  165TIP3    H2  460   3.779   1.950   2.966
  166TIP3   OH2  461   2.424   4.077   3.627
  166TIP3    H1  462   2.423   4.172   3.636
  166TIP3    H2  463   2.335   4.050   3.650
  167TIP3   OH2  464   1.034   3.124   3.779
  167TIP3    H1  465   1.093   3.072   3.833
  167TIP3    H2  466   0.953   3.131   3.831
  168TIP3   OH2  467   6.270   1.670   1.219
  168TIP3    H1  468   6.240   1.627   1.299
  168TIP3    H2  469   6.195   1.721   1.189
  169TIP3   OH2  470   6.538   3.230   1.786
  169TIP3    H1  471   6.455   3.204   1.747
  169TIP3    H2  472   6.588   3.267   1.714
  170TIP3   OH2  473   4.729   4.150   4.614
  170TIP3    H1  474   4.772   4.235   4.609
  170TIP3    H2  475   4.641   4.170   4.647
  171TIP3   OH2  476   3.099   1.351   4.920
  171TIP3    H1  477   3.173   1.294   4.943
  171TIP3    H2  478   3.124   1.437   4.952
  172TIP3   OH2  479   0.935   5.537   2.179
  172TIP3    H1  480   0.919   5.591   2.101
  172TIP3    H2  481   0.870   5.565   2.242
  173TIP3   OH2  482   0.777   1.400   0.550
  173TIP3    H1  483   0.861   1.424   0.589
  173TIP3    H2  484   0.793   1.314   0.510
  174TIP3   OH2  485   3.785   0.248   3.067
  174TIP3    H1  486   3.763   0.178   3.128
  174TIP3    H2  487   3.730   0.232   2.990
  175TIP3   OH2  488   0.811   1.050   3.519
  175TIP3    H1  489   0.809   0.956   3.507
  175TIP3    H2  490   0.727   1.071   3.559
  176TIP3   OH2  491   6.612   5.224   2.585
  176TIP3    H1  492   6.546   5.239   2.518
  176TIP3    H2  493   6.655   5.308   2.596
  177TIP3   OH2  494   2.706   5.241   2.471
  177TIP3    H1  495   2.629   5.291   2.444
  177TIP3    H2  496   2.696   5.229   2.565
  178TIP3   OH2  497   1.273   0.106   2.022
  178TIP3    H1  498   1.308   0.191   1.993
  178TIP3    H2  499   1.261   0.117   2.117
  179TIP3   OH2  500   5.782   5.077   1.806
  179TIP3    H1  501   5.871   5.081   1.772
  179TIP3    H2  502   5.777   4.993   1.851
  180TIP3   OH2  503   3.574   0.405   4.842
  180TIP3    H1  504   3.663   0.439   4.853
  180TIP3    H2  505   3.567   0.335   4.907
  181TIP3   OH2  506   5.199   3.439   2.320
  181TIP3    H1  507   5.149   3.395   2.389
  181TIP3    H2  508   5.215   3.527   2.354
  182TIP3   OH2  509   1.418   3.226   4.139
  182TIP3    H1  510   1.505   3.190   4.156
  182TIP3    H2  511   1.358   3.163   4.179
  183TIP3   OH2  512   1.952   0.756   1.637
  183TIP3    H1  513   2.024   0.696   1.655
  183TIP3    H2  514   1.948   0.763   1.542
  184TIP3   OH2  515   0.476   1.856   5.110
  184TIP3    H1  516   0.427   1.784   5.070
  184TIP3    H2  517   0.487   1.920   5.039
  185TIP3   OH2  518   6.546   4.160   5.884
  185TIP3    H1  519   6.519   4.208   5.806
  185TIP3    H2  520   6.494   4.197   5.955
  186TIP3   OH2  521   3.809   1.339   5.202
  186TIP3    H1  522   3.872   1.302   5.264
  186TIP3    H2  523   3.806   1.432   5.222
  187TIP3   OH2  524   1.408   1.730   1.060
  187TIP3    H1  525   1.428   1.750   1.151
  187TIP3    H2  526   1.337   1.666   1.063
  188TIP3   OH2  527   3.732   0.682   0.295
  188TIP3    H1  528   3.766   0.593   0.290
  188TIP3    H2  529   3.673   0.682   0.371
  189TIP3   OH2  530   7.007   3.531   4.847
  189TIP3    H1  531   6.937   3.545   4.783
  189TIP3    H2  532   6.987   3.446   4.887
  190TIP3   OH2  533   3.158   0.141   5.190
  190TIP3    H1  534   3.203   0.058   5.204
  190TIP3    H2  535   3.089   0.143   5.256
  191TIP3   OH2  536   4.270   3.399   5.125
  191TIP3    H1  537   4.330   3.447   5.069
  191TIP3    H2  538   4.309   3.312   5.133
  192TIP3   OH2  539   0.423   3.694   3.030
  192TIP3    H1  540   0.440   3.772   2.978
  192TIP3    H2  541   0.330   3.675   3.016
  193TIP3   OH2  542   3.081   5.241   0.991
  193TIP3    H1  543   3.009   5.229   0.930
  193TIP3    H2  544   3.131   5.315   0.955
  194TIP3   OH2  545   2.649   1.942   5.007
  194TIP3    H1  546   2.567   1.913   4.968
  194TIP3    H2  547   2.677   2.015   4.951
  195TIP3   OH2  548   4.835   6.172   4.080
  195TIP3    H1  549   4.894   6.236   4.118
  195TIP3    H2  550   4.778   6.145   4.152
  196TIP3   OH2  551   3.663   1.520   1.483
  196TIP3    H1  552   3.707   1.463   1.420
  196TIP3    H2  553   3.678   1.478   1.568
  197TIP3   OH2  554   2.907   5.593   0.797
  197TIP3    H1  555   2.869   5.516   0.838
  197TIP3    H2  556   3.000   5.588   0.817
  198TIP3   OH2  557   6.276   4.199   4.638
  198TIP3    H1  558   6.357   4.154   4.616
  198TIP3    H2  559   6.247   4.158   4.720
  199TIP3   OH2  560   1.230   1.081   2.864
  199TIP3    H1  561   1.228   1.062   2.958
  199TIP3    H2  562   1.213   1.175   2.858
  200TIP3   OH2  563   7.146   4.042   0.758
  200TIP3    H1  564   7.089   4.108   0.795
  200TIP3    H2  565   7.195   4.088   0.690
  201TIP3   OH2  566   4.901   6.285   2.519
  201TIP3    H1  567   4.845   6.239   2.457
  201TIP3    H2  568   4.970   6.323   2.465
  202TIP3   OH2  569   5.486   3.057   5.812
  202TIP3    H1  570   5.576   3.060   5.842
  202TIP3    H2  571   5.434   3.075   5.890
  203TIP3   OH2  572   0.168   3.541   3.564
  203TIP3    H1  573   0.091   3.489   3.540
  203TIP3    H2  574   0.239   3.504   3.513
  204TIP3   OH2  575   0.863   4.536   3.848
  204TIP3    H1  576   0.776   4.521   3.886
  204TIP3    H2  577   0.896   4.448   3.829
  205TIP3   OH2  578   4.396   3.169   4.410
  205TIP3    H1  579   4.339   3.245   4.418
  205TIP3    H2  580   4.365   3.125   4.331
  206TIP3   OH2  581   3.888   3.980   1.937
  206TIP3    H1  582   3.869   3.929   2.016
  206TIP3    H2  583   3.826   3.946   1.872
  207TIP3   OH2  584   3.558   1.240   0.357
  207TIP3    H1  585   3.527   1.234   0.448
  207TIP3    H2  586   3.478   1.239   0.305
  208TIP3   OH2  587   5.387   5.953   1.720
  208TIP3    H1  588   5.328   5.878   1.727
  208TIP3    H2  589   5.389   5.972   1.626
  209TIP3   OH2  590   5.934   5.298   2.377
  209TIP3    H1  591   6.016   5.348   2.371
  209TIP3    H2  592   5.954   5.215   2.334
  210TIP3   OH2  593   5.890   5.910   2.268
  210TIP3    H1  594   5.885   5.859   2.187
  210TIP3    H2  595   5.803   5.902   2.307
  211TIP3   OH2  596   1.867   6.388   0.481
  211TIP3    H1  597   1.842   6.395   0.573
  211TIP3    H2  598   1.951   6.342   0.482
  212TIP3   OH2  599   6.463   4.576   1.758
  212TIP3    H1  600   6.410   4.500   1.732
  212TIP3    H2  601   6.480   4.563   1.851
  213TIP3   OH2  602   6.369   4.031   3.245
  213TIP3    H1  603   6.437   4.022   3.311
  213TIP3    H2  604   6.287   4.020   3.294
  214TIP3   OH2  605   7.158   3.388   2.074
  214TIP3    H1  606   7.103   3.402   2.152
  214TIP3    H2  607   7.100   3.405   2.000
  215TIP3   OH2  608   4.276   0.674   4.590
  215TIP3    H1  609   4.234   0.603   4.543
  215TIP3    H2  610   4.222   0.686   4.668
  216TIP3   OH2  611   1.950   3.037   2.287
  216TIP3    H1  612   1.932   2.993   2.204
  216TIP3    H2  613   1.960   2.966   2.351
  217TIP3   OH2  614   4.581   1.222   4.660
  217TIP3    H1  615   4.495   1.202   4.699
  217TIP3    H2  616   4.643   1.172   4.713
  218TIP3   OH2  617   4.213   2.132   5.300
  218TIP3    H1  618   4.225   2.097   5.388
  218TIP3    H2  619   4.299   2.126   5.259
  219TIP3   OH2  620   3.353   4.208   0.193
  219TIP3    H1  621   3.298   4.239   0.122
  219TIP3    H2  622   3.320   4.253   0.271
  220TIP3   OH2  623   4.066   4.728   2.192
  220TIP3    H1  624   3.971   4.724   2.183
  220TIP3    H2  625   4.087   4.667   2.263
  221TIP3   OH2  626   5.476   2.542   2.649
  221TIP3    H1  627   5.545   2.602   2.676
  221TIP3    H2  628   5.422   2.532   2.727
  222TIP3   OH2  629   4.783   0.690   3.757
  222TIP3    H1  630   4.713   0.702   3.694
  222TIP3    H2  631   4.779   0.597   3.781
  223TIP3   OH2  632   2.658   2.488   2.909
  223TIP3    H1  633   2.581   2.445   2.946
  223TIP3    H2  634   2.649   2.579   2.936
  224TIP3   OH2  635   2.146   4.669   0.519
  224TIP3    H1  636   2.073   4.644   0.575
  224TIP3    H2  637   2.126   4.627   0.435
  225TIP3   OH2  638   7.101   0.267   3.600
  225TIP3    H1  639   7.073   0.300   3.686
  225TIP3    H2  640   7.195   0.251   3.610
  226TIP3   OH2  641   1.021   2.281   1.458
  226TIP3    H1  642   1.017   2.254   1.550
  226TIP3    H2  643   1.115   2.293   1.441
  227TIP3   OH2  644   3.264   2.984   4.765
  227TIP3    H1  645   3.339   2.925   4.756
  227TIP3    H2  646   3.244   3.012   4.676
  228TIP3   OH2  647   0.137   0.959  -0.010
  228TIP3    H1  648   0.113   0.919   0.073
  228TIP3    H2  649   0.233   0.959  -0.010
  229TIP3   OH2  650   5.587   3.737   3.330
  229TIP3    H1  651   5.679   3.716   3.313
  229TIP3    H2  652   5.539   3.659   3.304
  230TIP3   OH2  653   6.591   3.600   3.477
  230TIP3    H1  654   6.558   3.514   3.505
  230TIP3    H2  655   6.531   3.628   3.408
  231TIP3   OH2  656   5.023   2.688   1.042
  231TIP3    H1  657   5.101   2.642   1.074
  231TIP3    H2  658   5.052   2.779   1.033
  232TIP3   OH2  659   5.244   0.502   2.901
  232TIP3    H1  660   5.268   0.523   2.811
  232TIP3    H2  661   5.326   0.504   2.949
  233TIP3   OH2  662   6.863   1.514   3.364
  233TIP3    H1  663   6.921   1.464   3.306
  233TIP3    H2  664   6.863   1.603   3.326
  234TIP3   OH2  665   4.278   2.870   2.673
  234TIP3    H1  666   4.238   2.840   2.591
  234TIP3    H2  667   4.296   2.963   2.658
  235TIP3   OH2  668   3.967   3.041   0.945
  235TIP3    H1  669   3.988   3.127   0.981
  235TIP3    H2  670   3.906   3.060   0.873
  236TIP3   OH2  671   0.281   5.033   3.152
  236TIP3    H1  672   0.190   5.033   3.182
  236TIP3    H2  673   0.331   5.063   3.228
  237TIP3   OH2  674   4.054   5.920   1.323
  237TIP3    H1  675   3.966   5.916   1.363
  237TIP3    H2  676   4.041   5.970   1.243
  238TIP3   OH2  677   1.946   2.979   0.837
  238TIP3    H1  678   1.853   3.003   0.839
  238TIP3    H2  679   1.950   2.892   0.877
  239TIP3   OH2  680   1.814   0.602   0.547
  239TIP3    H1  681   1.885   0.635   0.492
  239TIP3    H2  682   1.813   0.661   0.623
  240TIP3   OH2  683   6.303   1.663   0.780
  240TIP3    H1  684   6.322   1.587   0.835
  240TIP3    H2  685   6.327   1.635   0.691
  241TIP3   OH2  686   1.291   5.639   1.195
  241TIP3    H1  687   1.291   5.731   1.169
  241TIP3    H2  688   1.201   5.611   1.184
  242TIP3   OH2  689   6.521   3.185   3.867
  242TIP3    H1  690   6.543   3.237   3.944
  242TIP3    H2  691   6.428   3.164   3.878
  243TIP3   OH2  692   0.844   3.494   4.467
  243TIP3    H1  693   0.801   3.574   4.498
  243TIP3    H2  694   0.772   3.435   4.444
  244TIP3   OH2  695   0.432   5.624   3.580
  244TIP3    H1  696   0.478   5.641   3.662
  244TIP3    H2  697   0.501   5.615   3.514
  245TIP3   OH2  698   6.031   5.881   3.077
  245TIP3    H1  699   5.999   5.967   3.104
  245TIP3    H2  700   6.100   5.899   3.014
  246TIP3   OH2  701   2.909   0.416   0.681
  246TIP3    H1  702   2.848   0.344   0.665
  246TIP3    H2  703   2.915   0.461   0.597
  247TIP3   OH2  704   4.317   5.199   2.593
  247TIP3    H1  705   4.361   5.132   2.646
  247TIP3    H2  706   4.359   5.281   2.619
  248TIP3   OH2  707   0.905   1.802   1.022
  248TIP3    H1  708   0.825   1.795   0.970
  248TIP3    H2  709   0.971   1.755   0.970
  249TIP3   OH2  710   2.416   5.952   2.442
  249TIP3    H1  711   2.369   5.869   2.455
  249TIP3    H2  712   2.507   5.927   2.428
  250TIP3   OH2  713   3.852   2.198   2.535
  250TIP3    H1  714   3.938   2.237   2.521
  250TIP3    H2  715   3.840   2.140   2.460
  251TIP3   OH2  716   3.895   3.154   5.144
  251TIP3    H1  717   3.801   3.137   5.157
  251TIP3    H2  718   3.899   3.247   5.120
  252TIP3   OH2  719   7.035   1.836   3.640
  252TIP3    H1  720   7.078   1.816   3.724
  252TIP3    H2  721   7.068   1.770   3.579
  253TIP3   OH2  722   5.159   5.999   1.257
  253TIP3    H1  723   5.169   5.990   1.162
  253TIP3    H2  724   5.134   6.090   1.271
  254TIP3   OH2  725   5.695   4.745   1.098
  254TIP3    H1  726   5.695   4.803   1.174
  254TIP3    H2  727   5.613   4.696   1.106
  255TIP3   OH2  728   5.675   3.298   0.529
  255TIP3    H1  729   5.586   3.264   0.518
  255TIP3    H2  730   5.715   3.236   0.591
  256TIP3   OH2  731   2.166   5.228   4.319
  256TIP3    H1  732   2.220   5.307   4.320
  256TIP3    H2  733   2.230   5.156   4.318
  257TIP3   OH2  734   5.473   4.602   1.136
  257TIP3    H1  735   5.416   4.664   1.090
  257TIP3    H2  736   5.445   4.516   1.104
  258TIP3   OH2  737   4.621   2.329   4.721
  258TIP3    H1  738   4.632   2.235   4.737
  258TIP3    H2  739   4.531   2.338   4.690
  259TIP3   OH2  740   2.204   5.537   4.537
  259TIP3    H1  741   2.211   5.504   4.447
  259TIP3    H2  742   2.293   5.563   4.560
  260TIP3   OH2  743   2.061   4.282   0.458
  260TIP3    H1  744   2.051   4.202   0.406
  260TIP3    H2  745   2.155   4.295   0.466
  261TIP3   OH2  746   6.763   2.740   2.918
  261TIP3    H1  747   6.792   2.668   2.974
  261TIP3    H2  748   6.734   2.698   2.837
  262TIP3   OH2  749   4.038   3.931   0.989
  262TIP3    H1  750   4.078   3.917   1.075
  262TIP3    H2  751   3.947   3.902   0.999
  263TIP3   OH2  752   0.956   1.785   4.439
  263TIP3    H1  753   0.947   1.878   4.463
  263TIP3    H2  754   1.016   1.749   4.504
  264TIP3   OH2  755   2.567   3.582   0.800
  264TIP3    H1  756   2.608   3.560   0.716
  264TIP3    H2  757   2.586   3.676   0.811
  265TIP3   OH2  758   4.116   3.522   0.075
  265TIP3    H1  759   4.047   3.478   0.025
  265TIP3    H2  760   4.185   3.456   0.084
  266TIP3   OH2  761   6.802   4.152   0.060
  266TIP3    H1  762   6.731   4.172   0.000
  266TIP3    H2  763   6.784   4.204   0.138
  267TIP3   OH2  764   5.755   3.617   0.671
  267TIP3    H1  765   5.820   3.623   0.741
  267TIP3    H2  766   5.693   3.687   0.690
  268TIP3   OH2  767   3.384   1.514   5.124
  268TIP3    H1  768   3.399   1.588   5.182
  268TIP3    H2  769   3.302   1.535   5.078
  269TIP3   OH2  770   3.735   4.768   2.644
  269TIP3    H1  771   3.828   4.792   2.637
  269TIP3    H2  772   3.702   4.770   2.554
  270TIP3   OH2  773   3.167   6.208   3.053
  270TIP3    H1  774   3.148   6.264   3.129
  270TIP3    H2  775   3.166   6.269   2.979
  271TIP3   OH2  776   3.594   1.810   4.210
  271TIP3    H1  777   3.604   1.716   4.225
  271TIP3    H2  778   3.681   1.840   4.184
  272TIP3   OH2  779   5.805   6.457   1.273
  272TIP3    H1  780   5.711   6.440   1.286
  272TIP3    H2  781   5.818   6.545   1.310
  273TIP3   OH2  782   7.108   0.305   0.114
  273TIP3    H1  783   7.192   0.263   0.134
  273TIP3    H2  784   7.116   0.393   0.150
  274TIP3   OH2  785   3.419   0.861   3.302
  274TIP3    H1  786   3.413   0.767   3.283
  274TIP3    H2  787   3.338   0.882   3.348
  275TIP3   OH2  788   3.363   4.318   5.311
  275TIP3    H1  789   3.324   4.284   5.230
  275TIP3    H2  790   3.339   4.410   5.312
  276TIP3   OH2  791   3.613   0.609   4.094
  276TIP3    H1  792   3.565   0.689   4.076
  276TIP3    H2  793   3.657   0.625   4.178
  277TIP3   OH2  794   6.577   2.194   4.182
  277TIP3    H1  795   6.550   2.235   4.264
  277TIP3    H2  796   6.603   2.106   4.207
  278TIP3   OH2  797   4.155   6.658   1.172
  278TIP3    H1  798   4.129   6.749   1.155
  278TIP3    H2  799   4.249   6.657   1.153
  279TIP3   OH2  800   1.346   4.594   5.417
  279TIP3    H1  801   1.407   4.562   5.483
  279TIP3    H2  802   1.356   4.689   5.420
  280TIP3   OH2  803   6.614   4.792   1.657
  280TIP3    H1  804   6.559   4.725   1.697
  280TIP3    H2  805   6.690   4.744   1.625
  281TIP3   OH2  806   0.573   6.086   2.552
  281TIP3    H1  807   0.589   6.152   2.485
  281TIP3    H2  808   0.479   6.068   2.547
  282TIP3   OH2  809   4.671   4.521   4.356
  282TIP3    H1  810   4.620   4.562   4.427
  282TIP3    H2  811   4.606   4.472   4.305
  283TIP3   OH2  812   4.856   5.307   1.974
  283TIP3    H1  813   4.766   5.332   1.955
  283TIP3    H2  814   4.905   5.390   1.971
  284TIP3   OH2  815   4.997   1.568   2.487
  284TIP3    H1  816   4.961   1.483   2.462
  284TIP3    H2  817   4.964   1.584   2.575
  285TIP3   OH2  818   0.519   6.655   4.846
  285TIP3    H1  819   0.604   6.614   4.862
  285TIP3    H2  820   0.512   6.722   4.915
  286TIP3   OH2  821   6.273   0.037   2.209
  286TIP3    H1  822   6.349   0.096   2.213
  286TIP3    H2  823   6.274   0.003   2.120
  287TIP3   OH2  824   4.623   1.051   4.029
  287TIP3    H1  825   4.588   1.114   3.966
  287TIP3    H2  826   4.616   0.966   3.984
  288TIP3   OH2  827   1.572   4.735   4.838
  288TIP3    H1  828   1.520   4.768   4.911
  288TIP3    H2  829   1.585   4.811   4.782
  289TIP3   OH2  830   5.246   6.117   2.101
  289TIP3    H1  831   5.315   6.051   2.108
  289TIP3    H2  832   5.164   6.066   2.101
  290TIP3   OH2  833   2.653   6.299   4.510
  290TIP3    H1  834   2.635   6.220   4.561
  290TIP3    H2  835   2.630   6.371   4.569
  291TIP3   OH2  836   2.026   4.842   3.568
  291TIP3    H1  837   2.009   4.937   3.569
  291TIP3    H2  838   2.036   4.818   3.660
  292TIP3   OH2  839   4.607   5.523   2.115
  292TIP3    H1  840   4.689   5.553   2.075
  292TIP3    H2  841   4.600   5.573   2.196
  293TIP3   OH2  842   5.256   0.628   3.761
  293TIP3    H1  843   5.209   0.601   3.839
  293TIP3    H2  844   5.188   0.640   3.695
  294TIP3   OH2  845   2.650   1.449   4.899
  294TIP3    H1  846   2.719   1.437   4.834
  294TIP3    H2  847   2.636   1.362   4.936
  295TIP3   OH2  848   2.258   0.482   0.725
  295TIP3    H1  849   2.313   0.461   0.801
  295TIP3    H2  850   2.173   0.442   0.746
  296TIP3   OH2  851   4.947   0.287   5.734
  296TIP3    H1  852   5.015   0.344   5.771
  296TIP3    H2  853   4.895   0.262   5.810
  297TIP3   OH2  854   2.347   0.756   4.270
  297TIP3    H1  855   2.355   0.696   4.196
  297TIP3    H2  856   2.319   0.701   4.343
  298TIP3   OH2  857   4.677   5.905   4.944
  298TIP3    H1  858   4.597   5.860   4.970
  298TIP3    H2  859   4.730   5.908   5.024
  299TIP3   OH2  860   3.735   4.179   1.818
  299TIP3    H1  861   3.815   4.129   1.806
  299TIP3    H2  862   3.748   4.226   1.900
  300TIP3   OH2  863   4.342   2.136   0.934
  300TIP3    H1  864   4.363   2.227   0.917
  300TIP3    H2  865   4.342   2.128   1.030
  301TIP3   OH2  866   0.992   3.053   0.973
  301TIP3    H1  867   1.017   3.133   1.020
  301TIP3    H2  868   1.072   3.002   0.968
  302TIP3   OH2  869   1.929   4.932   5.759
  302TIP3    H1  870   1.929   4.959   5.851
  302TIP3    H2  871   1.947   4.838   5.761
  303TIP3   OH2  872   0.577   1.617   3.597
  303TIP3    H1  873   0.589   1.554   3.668
  303TIP3    H2  874   0.489   1.598   3.564
  304TIP3   OH2  875   6.828   5.155   4.990
  304TIP3    H1  876   6.814   5.082   5.050
  304TIP3    H2  877   6.740   5.182   4.964
  305TIP3   OH2  878   6.072   5.530   3.100
  305TIP3    H1  879   6.019   5.509   3.023
  305TIP3    H2  880   6.148   5.577   3.064
  306TIP3   OH2  881   1.160   5.517   4.260
  306TIP3    H1  882   1.064   5.516   4.254
  306TIP3    H2  883   1.181   5.438   4.311
  307TIP3   OH2  884   3.863   2.698   3.637
  307TIP3    H1  885   3.904   2.697   3.724
  307TIP3    H2  886   3.913   2.764   3.588
  308TIP3   OH2  887   0.107   4.330   5.828
  308TIP3    H1  888   0.090   4.288   5.744
  308TIP3    H2  889   0.097   4.424   5.811
  309TIP3   OH2  890   1.775   0.307   0.871
  309TIP3    H1  891   1.762   0.317   0.965
  309TIP3    H2  892   1.706   0.361   0.832
  310TIP3   OH2  893   2.800   0.805   5.048
  310TIP3    H1  894   2.858   0.843   5.114
  310TIP3    H2  895   2.714   0.843   5.067
  311TIP3   OH2  896   6.953   6.560   2.535
  311TIP3    H1  897   7.017   6.593   2.598
  311TIP3    H2  898   6.873   6.550   2.585
  312TIP3   OH2  899   0.562   5.790   2.596
  312TIP3    H1  900   0.625   5.862   2.606
  312TIP3    H2  901   0.584   5.729   2.666
  313TIP3   OH2  902   0.207   2.508   0.797
  313TIP3    H1  903   0.189   2.423   0.757
  313TIP3    H2  904   0.155   2.508   0.877
  314TIP3   OH2  905   2.736   3.423   0.545
  314TIP3    H1  906   2.670   3.418   0.477
  314TIP3    H2  907   2.725   3.342   0.595
  315TIP3   OH2  908   0.357   4.502   2.181
  315TIP3    H1  909   0.332   4.593   2.166
  315TIP3    H2  910   0.426   4.485   2.117
  316TIP3   OH2  911   3.266   5.031   0.863
  316TIP3    H1  912   3.205   4.966   0.828
  316TIP3    H2  913   3.223   5.115   0.847
  317TIP3   OH2  914   0.115   0.985   4.409
  317TIP3    H1  915   0.068   0.965   4.489
  317TIP3    H2  916   0.134   1.078   4.413
  318TIP3   OH2  917   6.718   4.294   5.121
  318TIP3    H1  918   6.781   4.227   5.146
  318TIP3    H2  919   6.694   4.272   5.031
  319TIP3   OH2  920   5.620   0.680   1.167
  319TIP3    H1  921   5.673   0.724   1.101
  319TIP3    H2  922   5.530   0.686   1.134
  320TIP3   OH2  923   5.876   3.850   1.340
  320TIP3    H1  924   5.804   3.789   1.325
  320TIP3    H2  925   5.909   3.828   1.427
  321TIP3   OH2  926   3.936   4.733   1.585
  321TIP3    H1  927   3.845   4.713   1.606
  321TIP3    H2  928   3.933   4.768   1.496
  322TIP3   OH2  929   2.634   4.428   5.084
  322TIP3    H1  930   2.670   4.453   5.169
  322TIP3    H2  931   2.540   4.422   5.098
  323TIP3   OH2  932   0.804   0.983   1.984
  323TIP3    H1  933   0.890   1.023   1.993
  323TIP3    H2  934   0.749   1.030   2.047
  324TIP3   OH2  935   6.635   2.089   1.860
  324TIP3    H1  936   6.556   2.113   1.908
  324TIP3    H2  937   6.705   2.094   1.924
  325TIP3   OH2  938   2.801   5.629   3.410
  325TIP3    H1  939   2.743   5.591   3.476
  325TIP3    H2  940   2.746   5.688   3.360
  326TIP3   OH2  941   6.801   4.187   4.005
  326TIP3    H1  942   6.735   4.214   3.942
  326TIP3    H2  943   6.785   4.093   4.018
  327TIP3   OH2  944   2.163   3.795   2.814
  327TIP3    H1  945   2.210   3.774   2.733
  327TIP3    H2  946   2.218   3.760   2.883
  328TIP3   OH2  947   2.768   1.763   3.930
  328TIP3    H1  948   2.853   1.808   3.934
  328TIP3    H2  949   2.706   1.826   3.966
  329TIP3   OH2  950   7.063   5.978   1.045
  329TIP3    H1  951   7.136   5.990   1.107
  329TIP3    H2  952   7.070   5.886   1.019
  330TIP3   OH2  953   5.326   0.361   2.083
  330TIP3    H1  954   5.273   0.282   2.100
  330TIP3    H2  955   5.369   0.343   2.000
  331TIP3   OH2  956   4.875   1.270   2.444
  331TIP3    H1  957   4.895   1.209   2.372
  331TIP3    H2  958   4.781   1.286   2.435
  332TIP3   OH2  959   4.535   1.964   3.732
  332TIP3    H1  960   4.612   2.015   3.758
  332TIP3    H2  961   4.549   1.878   3.772
  333TIP3   OH2  962   4.636   6.356   1.228
  333TIP3    H1  963   4.544   6.337   1.207
  333TIP3    H2  964   4.640   6.354   1.324
  334TIP3   OH2  965   4.471   2.066   1.815
  334TIP3    H1  966   4.508   2.152   1.831
  334TIP3    H2  967   4.536   2.021   1.761
  335TIP3   OH2  968   3.022   1.592   5.768
  335TIP3    H1  969   2.983   1.507   5.749
  335TIP3    H2  970   3.116   1.576   5.773
  336TIP3   OH2  971   0.205   6.011   4.644
  336TIP3    H1  972   0.129   6.056   4.680
  336TIP3    H2  973   0.228   6.062   4.566
  337TIP3   OH2  974   6.354   6.809   0.763
  337TIP3    H1  975   6.300   6.741   0.725
  337TIP3    H2  976   6.442   6.793   0.728
  338TIP3   OH2  977   5.416   5.943   4.493
  338TIP3    H1  978   5.382   5.956   4.581
  338TIP3    H2  979   5.388   5.854   4.469
  339TIP3   OH2  980   4.325   2.323   0.284
  339TIP3    H1  981   4.258   2.279   0.336
  339TIP3    H2  982   4.284   2.403   0.253
  340TIP3   OH2  983   5.887   1.856   1.295
  340TIP3    H1  984   5.832   1.804   1.236
  340TIP3    H2  985   5.885   1.809   1.378
  341TIP3   OH2  986   5.941   0.017   2.988
  341TIP3    H1  987   5.846   0.031   2.991
  341TIP3    H2  988   5.977   0.097   2.952
  342TIP3   OH2  989   1.806   2.201   1.162
  342TIP3    H1  990   1.763   2.128   1.119
  342TIP3    H2  991   1.765   2.279   1.124
  343TIP3   OH2  992   3.646   0.831   2.361
  343TIP3    H1  993   3.726   0.785   2.387
  343TIP3    H2  994   3.635   0.808   2.269
  344TIP3   OH2  995   2.809   0.093   2.514
  344TIP3    H1  996   2.886   0.096   2.458
  344TIP3    H2  997   2.842   0.062   2.598
  345TIP3   OH2  998   0.571   2.728   5.148
  345TIP3    H1  999   0.574   2.824   5.147
  345TIP3    H2 1000   0.663   2.702   5.146
  346TIP3   OH2 1001   4.683   6.367   3.032
  346TIP3    H1 1002   4.619   6.297   3.014
  346TIP3    H2 1003   4.766   6.333   2.998
  347TIP3   OH2 1004   0.261   6.270   1.621
  347TIP3    H1 1005   0.183   6.225   1.654
  347TIP3    H2 1006   0.228   6.355   1.591
  348TIP3   OH2 1007   5.578   4.049   0.608
  348TIP3    H1 1008   5.674   4.050   0.605
  348TIP3    H2 1009   5.553   4.141   0.615
  349TIP3   OH2 1010   1.032   5.161   1.254
  349TIP3    H1 1011   0.962   5.112   1.211
  349TIP3    H2 1012   1.005   5.167   1.345
  350TIP3   OH2 1013   3.462   3.875   0.210
  350TIP3    H1 1014   3.441   3.795   0.164
  350TIP3    H2 1015   3.414   3.869   0.293
  351TIP3   OH2 1016   4.850   5.057   4.584
  351TIP3    H1 1017   4.809   4.994   4.525
  351TIP3    H2 1018   4.944   5.043   4.573
  352TIP3   OH2 1019   2.804   6.008   4.420
  352TIP3    H1 1020   2.869   5.973   4.360
  352TIP3    H2 1021   2.793   6.100   4.394
  353TIP3   OH2 1022   2.355   1.717   5.349
  353TIP3    H1 1023   2.424   1.705   5.414
  353TIP3    H2 1024   2.274   1.722   5.400
  354TIP3   OH2 1025   6.060   6.319   5.688
  354TIP3    H1 1026   6.103   6.361   5.614
  354TIP3    H2 1027   6.128   6.312   5.755
  355TIP3   OH2 1028   4.994   3.856   3.614
  355TIP3    H1 1029   5.072   3.872   3.561
  355TIP3    H2 1030   4.939   3.933   3.600
  356TIP3   OH2 1031   1.078   5.577   3.987
  356TIP3    H1 1032   1.160   5.585   4.035
  356TIP3    H2 1033   1.028   5.656   4.009
  357TIP3   OH2 1034   1.452   3.278   3.601
  357TIP3    H1 1035   1.385   3.231   3.552
  357TIP3    H2 1036   1.425   3.271   3.692
  358TIP3   OH2 1037   0.960   2.146   5.769
  358TIP3    H1 1038   0.931   2.237   5.760
  358TIP3    H2 1039   0.885   2.101   5.809
  359TIP3   OH2 1040   3.971   1.757   4.594
  359TIP3    H1 1041   4.057   1.737   4.558
  359TIP3    H2 1042   3.912   1.756   4.518
  360TIP3   OH2 1043   5.018   6.703   4.469
  360TIP3    H1 1044   4.939   6.648   4.470
  360TIP3    H2 1045   5.065   6.678   4.549
  361TIP3   OH2 1046   3.818   4.366   1.347
  361TIP3    H1 1047   3.797   4.279   1.381
  361TIP3    H2 1048   3.821   4.354   1.252
  362TIP3   OH2 1049   3.677   3.256   4.192
  362TIP3    H1 1050   3.646   3.322   4.130
  362TIP3    H2 1051   3.741   3.302   4.246
  363TIP3   OH2 1052   3.820   5.325   2.287
  363TIP3    H1 1053   3.896   5.268   2.274
  363TIP3    H2 1054   3.834   5.398   2.227
  364TIP3   OH2 1055   4.422   6.497   3.979
  364TIP3    H1 1056   4.474   6.449   4.044
  364TIP3    H2 1057   4.472   6.490   3.898
  365TIP3   OH2 1058   2.370   3.134   0.633
  365TIP3    H1 1059   2.278   3.112   0.622
  365TIP3    H2 1060   2.371   3.230   0.641
  366TIP3   OH2 1061   5.452   2.922   3.460
  366TIP3    H1 1062   5.431   3.011   3.488
  366TIP3    H2 1063   5.456   2.872   3.542
  367TIP3   OH2 1064   6.050   6.417   3.245
  367TIP3    H1 1065   6.112   6.364   3.196
  367TIP3    H2 1066   6.103   6.462   3.311
  368TIP3   OH2 1067   6.760   0.226   0.960
  368TIP3    H1 1068   6.729   0.314   0.937
  368TIP3    H2 1069   6.780   0.232   1.054
  369TIP3   OH2 1070   1.873   2.401   5.683
  369TIP3    H1 1071   1.864   2.336   5.752
  369TIP3    H2 1072   1.965   2.426   5.685
  370TIP3   OH2 1073   7.226   3.353   3.338
  370TIP3    H1 1074   7.184   3.268   3.329
  370TIP3    H2 1075   7.158   3.410   3.374
  371TIP3   OH2 1076   1.314   4.255   2.124
  371TIP3    H1 1077   1.298   4.213   2.209
  371TIP3    H2 1078   1.252   4.212   2.065
  372TIP3   OH2 1079   1.301   4.007   1.023
  372TIP3    H1 1080   1.257   3.927   1.051
  372TIP3    H2 1081   1.272   4.020   0.933
  373TIP3   OH2 1082   0.951   5.819   4.039
  373TIP3    H1 1083   1.006   5.877   3.986
  373TIP3    H2 1084   0.885   5.877   4.076
  374TIP3   OH2 1085   3.865   0.170   4.862
  374TIP3    H1 1086   3.872   0.164   4.957
  374TIP3    H2 1087   3.858   0.264   4.845
  375TIP3   OH2 1088   0.826   0.617   2.021
  375TIP3    H1 1089   0.884   0.541   2.013
  375TIP3    H2 1090   0.877   0.681   2.070
  376TIP3   OH2 1091   4.999   5.720   5.864
  376TIP3    H1 1092   4.933   5.690   5.927
  376TIP3    H2 1093   4.991   5.659   5.790
  377TIP3   OH2 1094   0.895   3.628   2.989
  377TIP3    H1 1095   0.932   3.540   2.997
  377TIP3    H2 1096   0.818   3.628   3.045
  378TIP3   OH2 1097   4.955   3.535   4.261
  378TIP3    H1 1098   4.944   3.628   4.241
  378TIP3    H2 1099   5.050   3.521   4.257
  379TIP3   OH2 1100   4.280   0.088   0.925
  379TIP3    H1 1101   4.289   0.145   0.848
  379TIP3    H2 1102   4.240   0.145   0.992
  380TIP3   OH2 1103   1.111   2.458   4.718
  380TIP3    H1 1104   1.070   2.432   4.636
  380TIP3    H2 1105   1.042   2.502   4.767
  381TIP3   OH2 1106   0.161   1.109   5.061
  381TIP3    H1 1107   0.102   1.125   4.988
  381TIP3    H2 1108   0.199   1.194   5.081
  382TIP3   OH2 1109   4.392   5.425   2.731
  382TIP3    H1 1110   4.337   5.464   2.800
  382TIP3    H2 1111   4.462   5.489   2.717
  383TIP3   OH2 1112   6.348   2.942   3.055
  383TIP3    H1 1113   6.364   2.969   2.964
  383TIP3    H2 1114   6.388   2.855   3.062
  384TIP3   OH2 1115   0.422   3.895   5.230
  384TIP3    H1 1116   0.423   3.804   5.260
  384TIP3    H2 1117   0.366   3.941   5.292
  385TIP3   OH2 1118   7.175   6.758   4.011
  385TIP3    H1 1119   7.202   6.815   3.939
  385TIP3    H2 1120   7.098   6.802   4.048
  386TIP3   OH2 1121   6.653   4.667   3.365
  386TIP3    H1 1122   6.690   4.659   3.453
  386TIP3    H2 1123   6.570   4.620   3.370
  387TIP3   OH2 1124   6.472   1.398   0.474
  387TIP3    H1 1125   6.483   1.335   0.402
  387TIP3    H2 1126   6.543   1.379   0.534
  388TIP3   OH2 1127   1.868   1.308   5.520
  388TIP3    H1 1128   1.798   1.247   5.545
  388TIP3    H2 1129   1.875   1.298   5.425
  389TIP3   OH2 1130   5.885   5.693   3.223
  389TIP3    H1 1131   5.937   5.614   3.204
  389TIP3    H2 1132   5.938   5.765   3.188
  390TIP3   OH2 1133   5.380   2.079   0.648
  390TIP3    H1 1134   5.450   2.140   0.671
  390TIP3    H2 1135   5.320   2.131   0.595
  391TIP3   OH2 1136   1.858   4.655   4.769
  391TIP3    H1 1137   1.895   4.593   4.832
  391TIP3    H2 1138   1.776   4.685   4.810
  392TIP3   OH2 1139   2.040   6.774   3.017
  392TIP3    H1 1140   2.129   6.740   3.018
  392TIP3    H2 1141   1.991   6.715   3.074
  393TIP3   OH2 1142   3.629   4.724   5.682
  393TIP3    H1 1143   3.614   4.637   5.643
  393TIP3    H2 1144   3.655   4.705   5.772
  394TIP3   OH2 1145   0.350   5.310   4.121
  394TIP3    H1 1146   0.275   5.264   4.158
  394TIP3    H2 1147   0.365   5.384   4.180
  395TIP3   OH2 1148   7.141   0.341   0.527
  395TIP3    H1 1149   7.094   0.318   0.607
  395TIP3    H2 1150   7.150   0.258   0.480
  396TIP3   OH2 1151   1.187   4.397   5.306
  396TIP3    H1 1152   1.275   4.358   5.303
  396TIP3    H2 1153   1.199   4.480   5.354
  397TIP3   OH2 1154   1.760   5.403   3.819
  397TIP3    H1 1155   1.809   5.371   3.894
  397TIP3    H2 1156   1.690   5.339   3.806
  398TIP3   OH2 1157   1.003   6.341   2.024
  398TIP3    H1 1158   1.029   6.417   2.076
  398TIP3    H2 1159   0.916   6.318   2.057
  399TIP3   OH2 1160   6.887   5.951   2.812
  399TIP3    H1 1161   6.820   5.976   2.749
  399TIP3    H2 1162   6.861   5.993   2.894
  400TIP3   OH2 1163   6.976   2.265   2.272
  400TIP3    H1 1164   6.998   2.177   2.304
  400TIP3    H2 1165   6.924   2.250   2.193
  401TIP3   OH2 1166   0.835   0.775   4.082
  401TIP3    H1 1167   0.924   0.772   4.049
  401TIP3    H2 1168   0.787   0.711   4.029
  402TIP3   OH2 1169   2.882   3.736   5.822
  402TIP3    H1 1170   2.890   3.644   5.850
  402TIP3    H2 1171   2.788   3.753   5.821
  403TIP3   OH2 1172   2.127   5.986   4.544
  403TIP3    H1 1173   2.171   6.062   4.505
  403TIP3    H2 1174   2.198   5.934   4.581
  404TIP3   OH2 1175   0.629   3.200   0.810
  404TIP3    H1 1176   0.617   3.250   0.891
  404TIP3    H2 1177   0.588   3.115   0.827
  405TIP3   OH2 1178   4.323   1.093   4.017
  405TIP3    H1 1179   4.228   1.084   4.027
  405TIP3    H2 1180   4.359   1.051   4.095
  406TIP3   OH2 1181   2.337   3.278   5.099
  406TIP3    H1 1182   2.324   3.345   5.167
  406TIP3    H2 1183   2.250   3.246   5.080
  407TIP3   OH2 1184   3.104   5.009   3.539
  407TIP3    H1 1185   3.049   5.010   3.460
  407TIP3    H2 1186   3.131   5.100   3.550
  408TIP3   OH2 1187   5.539   2.864   4.144
  408TIP3    H1 1188   5.445   2.868   4.158
  408TIP3    H2 1189   5.573   2.815   4.219
  409TIP3   OH2 1190   0.441   4.738   5.737
  409TIP3    H1 1191   0.425   4.775   5.824
  409TIP3    H2 1192   0.528   4.770   5.714
  410TIP3   OH2 1193   5.078   5.590   4.401
  410TIP3    H1 1194   5.094   5.685   4.398
  410TIP3    H2 1195   5.054   5.567   4.312
  411TIP3   OH2 1196   3.154   0.220   1.135
  411TIP3    H1 1197   3.235   0.271   1.131
  411TIP3    H2 1198   3.085   0.282   1.108
  412TIP3   OH2 1199   6.553   2.495   3.480
  412TIP3    H1 1200   6.462   2.524   3.478
  412TIP3    H2 1201   6.604   2.575   3.498
  413TIP3   OH2 1202   6.290   3.015   3.926
  413TIP3    H1 1203   6.346   2.976   3.993
  413TIP3    H2 1204   6.228   2.946   3.903
  414TIP3   OH2 1205   4.752   2.493   2.059
  414TIP3    H1 1206   4.781   2.568   2.007
  414TIP3    H2 1207   4.754   2.524   2.149
  415TIP3   OH2 1208   2.632   0.852   2.376
  415TIP3    H1 1209   2.599   0.785   2.435
  415TIP3    H2 1210   2.556   0.906   2.356
  416TIP3   OH2 1211   5.984   2.707   1.700
  416TIP3    H1 1212   5.929   2.662   1.764
  416TIP3    H2 1213   5.996   2.643   1.629
  417TIP3   OH2 1214   1.935   5.653   0.049
  417TIP3    H1 1215   1.945   5.654  -0.046
  417TIP3    H2 1216   2.023   5.669   0.083
  418TIP3   OH2 1217   4.425   1.333   5.571
  418TIP3    H1 1218   4.498   1.347   5.632
  418TIP3    H2 1219   4.392   1.421   5.554
  419TIP3   OH2 1220   6.632   6.735   2.144
  419TIP3    H1 1221   6.702   6.681   2.181
  419TIP3    H2 1222   6.661   6.825   2.161
  420TIP3   OH2 1223   5.729   3.444   3.416
  420TIP3    H1 1224   5.792   3.396   3.361
  420TIP3    H2 1225   5.746   3.412   3.504
  421TIP3   OH2 1226   6.844   1.242   3.012
  421TIP3    H1 1227   6.899   1.173   2.974
  421TIP3    H2 1228   6.761   1.198   3.032
  422TIP3   OH2 1229   5.329   3.794   4.058
  422TIP3    H1 1230   5.348   3.873   4.007
  422TIP3    H2 1231   5.338   3.722   3.996
  423TIP3   OH2 1232   0.073   4.456   2.519
  423TIP3    H1 1233   0.068   4.417   2.607
  423TIP3    H2 1234   0.133   4.399   2.471
  424TIP3   OH2 1235   4.626   5.978   0.072
  424TIP3    H1 1236   4.573   5.911   0.028
  424TIP3    H2 1237   4.567   6.017   0.137
  425TIP3   OH2 1238   4.630   6.227   5.559
  425TIP3    H1 1239   4.538   6.241   5.536
  425TIP3    H2 1240   4.628   6.210   5.653
  426TIP3   OH2 1241   5.858   0.297   4.483
  426TIP3    H1 1242   5.903   0.283   4.400
  426TIP3    H2 1243   5.923   0.341   4.538
  427TIP3   OH2 1244   6.995   3.041   4.685
  427TIP3    H1 1245   6.941   2.966   4.710
  427TIP3    H2 1246   7.017   3.083   4.768
  428TIP3   OH2 1247   6.348   1.063   3.596
  428TIP3    H1 1248   6.403   1.131   3.635
  428TIP3    H2 1249   6.409   0.994   3.571
  429TIP3   OH2 1250   2.294   5.697   2.446
  429TIP3    H1 1251   2.211   5.651   2.451
  429TIP3    H2 1252   2.360   5.632   2.470
  430TIP3   OH2 1253   5.788   2.803   3.105
  430TIP3    H1 1254   5.726   2.734   3.126
  430TIP3    H2 1255   5.736   2.869   3.059
  431TIP3   OH2 1256   3.694   6.241   0.462
  431TIP3    H1 1257   3.730   6.304   0.524
  431TIP3    H2 1258   3.700   6.157   0.506
  432TIP3   OH2 1259   7.166   1.212   3.337
  432TIP3    H1 1260   7.160   1.244   3.427
  432TIP3    H2 1261   7.118   1.277   3.285
  433TIP3   OH2 1262   0.868   5.199   4.180
  433TIP3    H1 1263   0.852   5.119   4.229
  433TIP3    H2 1264   0.782   5.227   4.150
  434TIP3   OH2 1265   6.974   5.098   3.319
  434TIP3    H1 1266   6.985   5.156   3.394
  434TIP3    H2 1267   7.055   5.109   3.268
  435TIP3   OH2 1268   2.214   5.598   4.819
  435TIP3    H1 1269   2.163   5.523   4.850
  435TIP3    H2 1270   2.199   5.599   4.724
  436TIP3   OH2 1271   0.706   4.617   0.813
  436TIP3    H1 1272   0.689   4.533   0.855
  436TIP3    H2 1273   0.684   4.682   0.879
  437TIP3   OH2 1274   3.559   0.458   3.226
  437TIP3    H1 1275   3.622   0.491   3.290
  437TIP3    H2 1276   3.491   0.416   3.278
  438TIP3   OH2 1277   2.206   0.862   1.626
  438TIP3    H1 1278   2.259   0.941   1.625
  438TIP3    H2 1279   2.159   0.863   1.542
  439TIP3   OH2 1280   7.116   4.312   4.312
  439TIP3    H1 1281   7.147   4.403   4.307
  439TIP3    H2 1282   7.104   4.286   4.221
  440TIP3   OH2 1283   4.229   6.068   4.116
  440TIP3    H1 1284   4.309   6.018   4.096
  440TIP3    H2 1285   4.229   6.140   4.053
  441TIP3   OH2 1286   2.956   4.255   2.339
  441TIP3    H1 1287   2.966   4.343   2.373
  441TIP3    H2 1288   2.952   4.266   2.244
  442TIP3   OH2 1289   4.526   4.270   3.883
  442TIP3    H1 1290   4.570   4.219   3.951
  442TIP3    H2 1291   4.448   4.218   3.860
  443TIP3   OH2 1292   4.083   3.896   3.320
  443TIP3    H1 1293   4.154   3.950   3.285
  443TIP3    H2 1294   4.127   3.831   3.374
  444TIP3   OH2 1295   3.079   5.257   2.206
  444TIP3    H1 1296   3.023   5.253   2.283
  444TIP3    H2 1297   3.036   5.320   2.148
  445TIP3   OH2 1298   5.746   0.502   2.603
  445TIP3    H1 1299   5.767   0.575   2.660
  445TIP3    H2 1300   5.799   0.516   2.524
  446TIP3   OH2 1301   4.970   0.876   4.813
  446TIP3    H1 1302   4.930   0.790   4.797
  446TIP3    H2 1303   5.008   0.870   4.900
  447TIP3   OH2 1304   4.355   6.399   5.040
  447TIP3    H1 1305   4.447   6.414   5.018
  447TIP3    H2 1306   4.349   6.415   5.134
  448TIP3   OH2 1307   4.945   0.253   4.165
  448TIP3    H1 1308   4.862   0.249   4.118
  448TIP3    H2 1309   5.004   0.301   4.107
  449TIP3   OH2 1310   2.557   2.475   4.582
  449TIP3    H1 1311   2.534   2.455   4.673
  449TIP3    H2 1312   2.554   2.391   4.537
  450TIP3   OH2 1313   7.041   4.776   3.736
  450TIP3    H1 1314   6.990   4.734   3.666
  450TIP3    H2 1315   7.129   4.785   3.699
  451TIP3   OH2 1316   4.290   4.288   3.298
  451TIP3    H1 1317   4.234   4.304   3.374
  451TIP3    H2 1318   4.328   4.373   3.278
  452TIP3   OH2 1319   5.852   1.089   1.765
  452TIP3    H1 1320   5.807   1.096   1.849
  452TIP3    H2 1321   5.782   1.092   1.699
  453TIP3   OH2 1322   2.285   0.518   5.255
  453TIP3    H1 1323   2.229   0.595   5.267
  453TIP3    H2 1324   2.364   0.552   5.212
  454TIP3   OH2 1325   6.404   1.653   0.527
  454TIP3    H1 1326   6.425   1.568   0.489
  454TIP3    H2 1327   6.467   1.714   0.487
  455TIP3   OH2 1328   0.128   3.587   1.239
  455TIP3    H1 1329   0.143   3.497   1.212
  455TIP3    H2 1330   0.076   3.580   1.319
  456TIP3   OH2 1331   6.525   1.695   2.957
  456TIP3    H1 1332   6.518   1.764   3.023
  456TIP3    H2 1333   6.454   1.634   2.978
  457TIP3   OH2 1334   2.716   4.891   0.059
  457TIP3    H1 1335   2.724   4.973   0.010
  457TIP3    H2 1336   2.683   4.828  -0.006
  458TIP3   OH2 1337   6.450   3.203   0.665
  458TIP3    H1 1338   6.406   3.269   0.611
  458TIP3    H2 1339   6.489   3.142   0.602
  459TIP3   OH2 1340   0.436   1.675   4.764
  459TIP3    H1 1341   0.388   1.743   4.717
  459TIP3    H2 1342   0.456   1.610   4.697
  460TIP3   OH2 1343   4.039   5.510   0.190
  460TIP3    H1 1344   3.951   5.516   0.228
  460TIP3    H2 1345   4.085   5.586   0.224
  461TIP3   OH2 1346   4.666   0.780   2.223
  461TIP3    H1 1347   4.641   0.695   2.260
  461TIP3    H2 1348   4.656   0.842   2.296
  462TIP3   OH2 1349   1.280   6.660   5.897
  462TIP3    H1 1350   1.364   6.695   5.925
  462TIP3    H2 1351   1.301   6.595   5.830
  463TIP3   OH2 1352   1.909   1.443   1.398
  463TIP3    H1 1353   1.934   1.467   1.309
  463TIP3    H2 1354   1.813   1.443   1.398
  464TIP3   OH2 1355   2.150   1.677   4.831
  464TIP3    H1 1356   2.067   1.725   4.837
  464TIP3    H2 1357   2.190   1.708   4.750
  465TIP3   OH2 1358   2.944   0.164   5.407
  465TIP3    H1 1359   2.910   0.108   5.477
  465TIP3    H2 1360   2.893   0.244   5.412
  466TIP3   OH2 1361   1.835   5.640   5.903
  466TIP3    H1 1362   1.923   5.650   5.867
  466TIP3    H2 1363   1.792   5.577   5.845
  467TIP3   OH2 1364   3.680   2.278   2.058
  467TIP3    H1 1365   3.671   2.200   2.004
  467TIP3    H2 1366   3.592   2.316   2.061
  468TIP3   OH2 1367   4.862   6.817   5.240
  468TIP3    H1 1368   4.842   6.726   5.263
  468TIP3    H2 1369   4.936   6.810   5.179
  469TIP3   OH2 1370   5.186   0.463   4.197
  469TIP3    H1 1371   5.137   0.492   4.120
  469TIP3    H2 1372   5.168   0.529   4.264
  470TIP3   OH2 1373   4.523   3.268   1.612
  470TIP3    H1 1374   4.541   3.353   1.652
  470TIP3    H2 1375   4.465   3.288   1.538
  471TIP3   OH2 1376   3.256   2.020   0.530
  471TIP3    H1 1377   3.230   2.084   0.464
  471TIP3    H2 1378   3.341   2.051   0.561
  472TIP3   OH2 1379   1.412   2.241   5.443
  472TIP3    H1 1380   1.435   2.327   5.407
  472TIP3    H2 1381   1.352   2.260   5.515
  473TIP3   OH2 1382   3.136   3.560   2.219
  473TIP3    H1 1383   3.136   3.541   2.313
  473TIP3    H2 1384   3.162   3.652   2.212
  474TIP3   OH2 1385   6.084   3.068   4.693
  474TIP3    H1 1386   6.025   3.116   4.635
  474TIP3    H2 1387   6.026   3.013   4.746
  475TIP3   OH2 1388   2.428   2.287   1.150
  475TIP3    H1 1389   2.488   2.229   1.196
  475TIP3    H2 1390   2.469   2.300   1.064
  476TIP3   OH2 1391   3.203   6.135   2.547
  476TIP3    H1 1392   3.129   6.151   2.488
  476TIP3    H2 1393   3.228   6.044   2.529
  477TIP3   OH2 1394   5.365   1.942   5.132
  477TIP3    H1 1395   5.290   1.883   5.119
  477TIP3    H2 1396   5.440   1.883   5.139
  478TIP3   OH2 1397   1.514   6.314   3.767
  478TIP3    H1 1398   1.457   6.377   3.811
  478TIP3    H2 1399   1.475   6.229   3.789
  479TIP3   OH2 1400   0.067   1.426   5.025
  479TIP3    H1 1401   0.062   1.372   5.103
  479TIP3    H2 1402   0.159   1.420   4.997
  480TIP3   OH2 1403   1.169   4.693   0.780
  480TIP3    H1 1404   1.112   4.655   0.714
  480TIP3    H2 1405   1.120   4.767   0.815
  481TIP3   OH2 1406   6.646   2.575   5.590
  481TIP3    H1 1407   6.712   2.506   5.587
  481TIP3    H2 1408   6.648   2.608   5.680
  482TIP3   OH2 1409   4.819   4.699   1.971
  482TIP3    H1 1410   4.744   4.756   1.991
  482TIP3    H2 1411   4.783   4.611   1.970
  483TIP3   OH2 1412   1.570   3.152   0.616
  483TIP3    H1 1413   1.503   3.206   0.659
  483TIP3    H2 1414   1.605   3.097   0.686
  484TIP3   OH2 1415   5.889   3.466   4.559
  484TIP3    H1 1416   5.983   3.450   4.569
  484TIP3    H2 1417   5.884   3.547   4.508
  485TIP3   OH2 1418   5.652   3.968   1.948
  485TIP3    H1 1419   5.682   4.058   1.932
  485TIP3    H2 1420   5.673   3.921   1.867
  486TIP3   OH2 1421   3.978   1.909   0.684
  486TIP3    H1 1422   3.944   1.904   0.773
  486TIP3    H2 1423   3.939   1.833   0.640
  487TIP3   OH2 1424   0.879   0.132   5.453
  487TIP3    H1 1425   0.949   0.162   5.394
  487TIP3    H2 1426   0.800   0.176   5.419
  488TIP3   OH2 1427   0.288   3.572   4.552
  488TIP3    H1 1428   0.196   3.547   4.557
  488TIP3    H2 1429   0.304   3.621   4.632
  489TIP3   OH2 1430   5.438   2.741   3.684
  489TIP3    H1 1431   5.463   2.741   3.776
  489TIP3    H2 1432   5.369   2.675   3.677
  490TIP3   OH2 1433   5.072   0.885   3.449
  490TIP3    H1 1434   5.160   0.861   3.419
  490TIP3    H2 1435   5.053   0.822   3.519
  491TIP3   OH2 1436   3.860   1.765   0.896
  491TIP3    H1 1437   3.908   1.714   0.962
  491TIP3    H2 1438   3.769   1.736   0.905
  492TIP3   OH2 1439   4.477   3.303   1.014
  492TIP3    H1 1440   4.539   3.231   1.009
  492TIP3    H2 1441   4.409   3.281   0.950
  493TIP3   OH2 1442   2.893   0.515   1.509
  493TIP3    H1 1443   2.854   0.550   1.429
  493TIP3    H2 1444   2.857   0.427   1.518
  494TIP3   OH2 1445   0.595   0.438   5.042
  494TIP3    H1 1446   0.580   0.511   4.983
  494TIP3    H2 1447   0.577   0.473   5.129
  495TIP3   OH2 1448   1.700   2.667   2.173
  495TIP3    H1 1449   1.637   2.724   2.129
  495TIP3    H2 1450   1.700   2.697   2.264
  496TIP3   OH2 1451   3.605   6.061   5.265
  496TIP3    H1 1452   3.665   6.100   5.202
  496TIP3    H2 1453   3.655   6.057   5.346
  497TIP3   OH2 1454   1.059   4.652   1.473
  497TIP3    H1 1455   1.105   4.733   1.495
  497TIP3    H2 1456   1.042   4.659   1.379
  498TIP3   OH2 1457   2.101   3.229   1.920
  498TIP3    H1 1458   2.074   3.270   2.002
  498TIP3    H2 1459   2.045   3.151   1.912
  499TIP3   OH2 1460   0.243   4.730   3.002
  499TIP3    H1 1461   0.288   4.807   2.968
  499TIP3    H2 1462   0.289   4.710   3.084
  500TIP3   OH2 1463   1.025   1.807   1.922
  500TIP3    H1 1464   1.115   1.774   1.921
  500TIP3    H2 1465   1.001   1.806   2.015
  501TIP3   OH2 1466   6.565   0.877   0.790
  501TIP3    H1 1467   6.555   0.860   0.884
  501TIP3    H2 1468   6.585   0.971   0.785
  502TIP3   OH2 1469   0.658   3.391   2.075
  502TIP3    H1 1470   0.602   3.393   1.998
  502TIP3    H2 1471   0.745   3.413   2.043
  503TIP3   OH2 1472   6.326   6.632   1.515
  503TIP3    H1 1473   6.333   6.701   1.581
  503TIP3    H2 1474   6.385   6.564   1.545
  504TIP3   OH2 1475   4.769   2.347   2.667
  504TIP3    H1 1476   4.817   2.429   2.672
  504TIP3    H2 1477   4.810   2.291   2.734
  505TIP3   OH2 1478   2.406   3.192   2.065
  505TIP3    H1 1479   2.360   3.126   2.117
  505TIP3    H2 1480   2.343   3.264   2.057
  506TIP3   OH2 1481   5.267   6.771   4.340
  506TIP3    H1 1482   5.173   6.757   4.352
  506TIP3    H2 1483   5.299   6.797   4.427
  507TIP3   OH2 1484   3.538   0.335   2.693
  507TIP3    H1 1485   3.611   0.391   2.668
  507TIP3    H2 1486   3.510   0.370   2.778
  508TIP3   OH2 1487   1.317   0.183   5.557
  508TIP3    H1 1488   1.400   0.138   5.543
  508TIP3    H2 1489   1.256   0.141   5.496
  509TIP3   OH2 1490   6.691   2.831   4.557
  509TIP3    H1 1491   6.739   2.824   4.640
  509TIP3    H2 1492   6.712   2.750   4.510
  510TIP3   OH2 1493   2.609   2.780   2.329
  510TIP3    H1 1494   2.569   2.781   2.242
  510TIP3    H2 1495   2.537   2.756   2.387
  511TIP3   OH2 1496   1.428   4.123   3.022
  511TIP3    H1 1497   1.387   4.204   3.053
  511TIP3    H2 1498   1.374   4.096   2.948
  512TIP3   OH2 1499   0.945   3.964   4.203
  512TIP3    H1 1500   0.877   3.969   4.136
  512TIP3    H2 1501   1.022   4.002   4.162
  513TIP3   OH2 1502   4.091   3.300   0.289
  513TIP3    H1 1503   4.039   3.372   0.254
  513TIP3    H2 1504   4.072   3.299   0.382
  514TIP3   OH2 1505   4.318   3.337   1.443
  514TIP3    H1 1506   4.359   3.352   1.358
  514TIP3    H2 1507   4.249   3.403   1.449
  515TIP3   OH2 1508   5.420   6.585   0.854
  515TIP3    H1 1509   5.388   6.649   0.790
  515TIP3    H2 1510   5.349   6.578   0.918
  516TIP3   OH2 1511   3.838   6.677   1.992
  516TIP3    H1 1512   3.744   6.673   2.008
  516TIP3    H2 1513   3.852   6.623   1.914
  517TIP3   OH2 1514   6.304   6.449   0.327
  517TIP3    H1 1515   6.305   6.532   0.279
  517TIP3    H2 1516   6.358   6.390   0.274
  518TIP3   OH2 1517   5.671   6.687   1.027
  518TIP3    H1 1518   5.628   6.731   0.954
  518TIP3    H2 1519   5.760   6.670   0.996
  519TIP3   OH2 1520   5.049   6.174   5.744
  519TIP3    H1 1521   5.096   6.249   5.709
  519TIP3    H2 1522   5.038   6.115   5.669
  520TIP3   OH2 1523   5.764   5.746   4.815
  520TIP3    H1 1524   5.768   5.697   4.733
  520TIP3    H2 1525   5.671   5.768   4.825
  521TIP3   OH2 1526   0.430   2.585   1.579
  521TIP3    H1 1527   0.352   2.532   1.593
  521TIP3    H2 1528   0.496   2.546   1.637
  522TIP3   OH2 1529   6.178   2.775   4.466
  522TIP3    H1 1530   6.117   2.845   4.489
  522TIP3    H2 1531   6.145   2.698   4.513
  523TIP3   OH2 1532   5.426   3.114   4.938
  523TIP3    H1 1533   5.331   3.113   4.934
  523TIP3    H2 1534   5.455   3.136   4.850
  524TIP3   OH2 1535   2.837   3.238   0.854
  524TIP3    H1 1536   2.762   3.211   0.802
  524TIP3    H2 1537   2.877   3.157   0.884
  525TIP3   OH2 1538   0.977   1.208   2.155
  525TIP3    H1 1539   0.953   1.274   2.090
  525TIP3    H2 1540   1.029   1.144   2.108
  526TIP3   OH2 1541   6.356   2.032   5.250
  526TIP3    H1 1542   6.309   2.025   5.167
  526TIP3    H2 1543   6.353   2.125   5.271
  527TIP3   OH2 1544   1.670   1.902   1.727
  527TIP3    H1 1545   1.635   1.937   1.809
  527TIP3    H2 1546   1.592   1.889   1.672
  528TIP3   OH2 1547   6.342   5.848   0.229
  528TIP3    H1 1548   6.317   5.883   0.315
  528TIP3    H2 1549   6.379   5.762   0.248
  529TIP3   OH2 1550   1.641   4.396   5.117
  529TIP3    H1 1551   1.723   4.395   5.166
  529TIP3    H2 1552   1.652   4.331   5.048
  530TIP3   OH2 1553   1.304   4.310   0.965
  530TIP3    H1 1554   1.228   4.313   0.907
  530TIP3    H2 1555   1.358   4.239   0.930
  531TIP3   OH2 1556   1.608   0.507   4.689
  531TIP3    H1 1557   1.666   0.434   4.710
  531TIP3    H2 1558   1.626   0.573   4.756
  532TIP3   OH2 1559   5.687   5.362   3.335
  532TIP3    H1 1560   5.773   5.331   3.365
  532TIP3    H2 1561   5.627   5.291   3.356
  533TIP3   OH2 1562   2.600   6.009   3.491
  533TIP3    H1 1563   2.619   5.918   3.468
  533TIP3    H2 1564   2.629   6.017   3.582
  534TIP3   OH2 1565   3.342   6.152   0.794
  534TIP3    H1 1566   3.248   6.152   0.776
  534TIP3    H2 1567   3.357   6.069   0.840
  535TIP3   OH2 1568   2.439   1.958   2.745
  535TIP3    H1 1569   2.464   1.910   2.667
  535TIP3    H2 1570   2.499   2.033   2.747
  536TIP3   OH2 1571   6.081   1.678   1.951
  536TIP3    H1 1572   6.090   1.770   1.976
  536TIP3    H2 1573   6.037   1.637   2.026
  537TIP3   OH2 1574   2.420   6.579   4.414
  537TIP3    H1 1575   2.351   6.548   4.355
  537TIP3    H2 1576   2.377   6.642   4.471
  538TIP3   OH2 1577   3.516   4.158   2.881
  538TIP3    H1 1578   3.539   4.243   2.919
  538TIP3    H2 1579   3.496   4.102   2.956
  539TIP3   OH2 1580   1.565   3.273   4.753
  539TIP3    H1 1581   1.527   3.194   4.792
  539TIP3    H2 1582   1.501   3.300   4.687
  540TIP3   OH2 1583   2.728   4.427   3.635
  540TIP3    H1 1584   2.730   4.506   3.690
  540TIP3    H2 1585   2.745   4.459   3.546
  541TIP3   OH2 1586   1.120   6.122   3.118
  541TIP3    H1 1587   1.178   6.081   3.182
  541TIP3    H2 1588   1.052   6.164   3.171
  542TIP3   OH2 1589   0.248   5.808   1.148
  542TIP3    H1 1590   0.250   5.713   1.152
  542TIP3    H2 1591   0.333   5.832   1.111
  543TIP3   OH2 1592   1.224   1.410   0.413
  543TIP3    H1 1593   1.197   1.501   0.408
  543TIP3    H2 1594   1.248   1.387   0.323
  544TIP3   OH2 1595   3.360   2.522   4.804
  544TIP3    H1 1596   3.370   2.507   4.898
  544TIP3    H2 1597   3.446   2.504   4.767
  545TIP3   OH2 1598   1.039   0.287   5.891
  545TIP3    H1 1599   1.134   0.296   5.900
  545TIP3    H2 1600   1.025   0.278   5.797
  546TIP3   OH2 1601   5.537   5.107   5.418
  546TIP3    H1 1602   5.508   5.189   5.457
  546TIP3    H2 1603   5.508   5.111   5.327
  547TIP3   OH2 1604   6.237   1.339   5.246
  547TIP3    H1 1605   6.211   1.247   5.255
  547TIP3    H2 1606   6.256   1.349   5.153
  548TIP3   OH2 1607   0.401   4.810   0.303
  548TIP3    H1 1608   0.410   4.740   0.239
  548TIP3    H2 1609   0.371   4.766   0.383
  549TIP3   OH2 1610   2.580   1.737   0.423
  549TIP3    H1 1611   2.570   1.687   0.504
  549TIP3    H2 1612   2.648   1.801   0.443
  550TIP3   OH2 1613   1.027   2.932   1.427
  550TIP3    H1 1614   0.985   2.949   1.511
  550TIP3    H2 1615   1.026   2.836   1.419
  551TIP3   OH2 1616   0.886   5.265   2.297
  551TIP3    H1 1617   0.932   5.268   2.381
  551TIP3    H2 1618   0.895   5.354   2.262
  552TIP3   OH2 1619   1.359   3.565   2.728
  552TIP3    H1 1620   1.360   3.501   2.799
  552TIP3    H2 1621   1.267   3.579   2.708
  553TIP3   OH2 1622   5.393   6.627   3.489
  553TIP3    H1 1623   5.356   6.645   3.576
  553TIP3    H2 1624   5.483   6.599   3.507
  554TIP3   OH2 1625   6.058   1.805   0.842
  554TIP3    H1 1626   6.147   1.774   0.821
  554TIP3    H2 1627   6.058   1.812   0.938
  555TIP3   OH2 1628   6.017   1.080   3.882
  555TIP3    H1 1629   6.012   1.138   3.806
  555TIP3    H2 1630   5.948   1.111   3.941
  556TIP3   OH2 1631   0.524   0.288   3.025
  556TIP3    H1 1632   0.459   0.357   3.011
  556TIP3    H2 1633   0.607   0.328   3.002
  557TIP3   OH2 1634   5.742   0.618   4.757
  557TIP3    H1 1635   5.668   0.621   4.696
  557TIP3    H2 1636   5.814   0.583   4.705
  558TIP3   OH2 1637   2.156   3.932   5.661
  558TIP3    H1 1638   2.092   3.963   5.726
  558TIP3    H2 1639   2.173   3.841   5.687
  559TIP3   OH2 1640   3.677   0.763   0.804
  559TIP3    H1 1641   3.728   0.835   0.767
  559TIP3    H2 1642   3.711   0.684   0.763
  560TIP3   OH2 1643   3.810   0.645   4.279
  560TIP3    H1 1644   3.815   0.594   4.359
  560TIP3    H2 1645   3.835   0.734   4.305
  561TIP3   OH2 1646   3.881   2.800   4.581
  561TIP3    H1 1647   3.841   2.887   4.575
  561TIP3    H2 1648   3.864   2.759   4.496
  562TIP3   OH2 1649   2.550   1.007   0.965
  562TIP3    H1 1650   2.627   1.002   0.909
  562TIP3    H2 1651   2.585   1.001   1.054
  563TIP3   OH2 1652   0.765   4.605   1.111
  563TIP3    H1 1653   0.690   4.654   1.144
  563TIP3    H2 1654   0.728   4.537   1.055
  564TIP3   OH2 1655   4.860   1.187   1.410
  564TIP3    H1 1656   4.886   1.181   1.318
  564TIP3    H2 1657   4.790   1.252   1.411
  565TIP3   OH2 1658   4.690   0.512   4.960
  565TIP3    H1 1659   4.634   0.459   4.903
  565TIP3    H2 1660   4.629   0.552   5.023
  566TIP3   OH2 1661   4.898   0.913   2.498
  566TIP3    H1 1662   4.804   0.910   2.513
  566TIP3    H2 1663   4.908   0.955   2.412
  567TIP3   OH2 1664   2.106   4.255   3.823
  567TIP3    H1 1665   2.194   4.258   3.861
  567TIP3    H2 1666   2.071   4.170   3.849
  568TIP3   OH2 1667   2.441   0.518   4.792
  568TIP3    H1 1668   2.530   0.538   4.822
  568TIP3    H2 1669   2.452   0.445   4.731
  569TIP3   OH2 1670   2.339   3.470   2.537
  569TIP3    H1 1671   2.357   3.509   2.623
  569TIP3    H2 1672   2.422   3.430   2.511
  570TIP3   OH2 1673   5.626   6.184   3.380
  570TIP3    H1 1674   5.701   6.217   3.429
  570TIP3    H2 1675   5.660   6.111   3.328
  571TIP3   OH2 1676   4.337   6.026   0.286
  571TIP3    H1 1677   4.352   5.948   0.339
  571TIP3    H2 1678   4.389   6.094   0.328
  572TIP3   OH2 1679   4.247   2.841   3.319
  572TIP3    H1 1680   4.290   2.801   3.394
  572TIP3    H2 1681   4.182   2.900   3.357
  573TIP3   OH2 1682   6.678   6.600   3.800
  573TIP3    H1 1683   6.713   6.598   3.889
  573TIP3    H2 1684   6.719   6.677   3.760
  574TIP3   OH2 1685   5.825   2.753   0.749
  574TIP3    H1 1686   5.874   2.816   0.801
  574TIP3    H2 1687   5.868   2.669   0.764
  575TIP3   OH2 1688   4.730   1.792   3.555
  575TIP3    H1 1689   4.642   1.827   3.540
  575TIP3    H2 1690   4.722   1.698   3.540
  576TIP3   OH2 1691   4.906   3.742   5.598
  576TIP3    H1 1692   4.965   3.709   5.530
  576TIP3    H2 1693   4.863   3.663   5.632
  577TIP3   OH2 1694   4.876   2.513   3.355
  577TIP3    H1 1695   4.882   2.428   3.399
  577TIP3    H2 1696   4.844   2.492   3.267
  578TIP3   OH2 1697   6.787   5.974   1.535
  578TIP3    H1 1698   6.824   6.054   1.574
  578TIP3    H2 1699   6.734   5.936   1.604
  579TIP3   OH2 1700   5.112   4.064   5.529
  579TIP3    H1 1701   5.167   4.105   5.462
  579TIP3    H2 1702   5.173   4.015   5.584
  580TIP3   OH2 1703   4.039   0.479   1.939
  580TIP3    H1 1704   4.097   0.555   1.933
  580TIP3    H2 1705   3.998   0.473   1.853
  581TIP3   OH2 1706   6.689   5.140   4.053
  581TIP3    H1 1707   6.727   5.195   3.985
  581TIP3    H2 1708   6.648   5.067   4.006
  582TIP3   OH2 1709   7.080   4.826   2.191
  582TIP3    H1 1710   7.115   4.895   2.248
  582TIP3    H2 1711   7.136   4.750   2.208
  583TIP3   OH2 1712   3.229   2.641   0.761
  583TIP3    H1 1713   3.217   2.719   0.814
  583TIP3    H2 1714   3.213   2.568   0.821
  584TIP3   OH2 1715   0.580   4.774   1.971
  584TIP3    H1 1716   0.558   4.807   1.883
  584TIP3    H2 1717   0.674   4.755   1.967
  585TIP3   OH2 1718   5.093   3.007   3.095
  585TIP3    H1 1719   5.072   3.097   3.119
  585TIP3    H2 1720   5.124   2.967   3.176
  586TIP3   OH2 1721   4.799   3.827   1.952
  586TIP3    H1 1722   4.791   3.912   1.910
  586TIP3    H2 1723   4.824   3.768   1.881
  587TIP3   OH2 1724   6.569   2.945   2.838
  587TIP3    H1 1725   6.610   2.872   2.886
  587TIP3    H2 1726   6.643   2.999   2.810
  588TIP3   OH2 1727   4.853   3.295   1.656
  588TIP3    H1 1728   4.920   3.324   1.718
  588TIP3    H2 1729   4.853   3.199   1.666
  589TIP3   OH2 1730   6.703   3.433   2.473
  589TIP3    H1 1731   6.625   3.486   2.458
  589TIP3    H2 1732   6.685   3.350   2.429
  590TIP3   OH2 1733   0.692   5.062   4.820
  590TIP3    H1 1734   0.733   5.145   4.846
  590TIP3    H2 1735   0.715   5.001   4.890
  591TIP3   OH2 1736   6.462   4.817   4.196
  591TIP3    H1 1737   6.413   4.875   4.137
  591TIP3    H2 1738   6.394   4.771   4.245
  592TIP3   OH2 1739   0.614   0.199   3.565
  592TIP3    H1 1740   0.635   0.110   3.539
  592TIP3    H2 1741   0.662   0.213   3.646
  593TIP3   OH2 1742   5.594   2.181   0.986
  593TIP3    H1 1743   5.675   2.220   1.018
  593TIP3    H2 1744   5.605   2.178   0.891
  594TIP3   OH2 1745   4.947   2.554   2.819
  594TIP3    H1 1746   5.027   2.507   2.841
  594TIP3    H2 1747   4.932   2.614   2.892
  595TIP3   OH2 1748   2.228   2.987   0.324
  595TIP3    H1 1749   2.181   2.993   0.241
  595TIP3    H2 1750   2.222   3.075   0.362
  596TIP3   OH2 1751   0.712   3.505   1.381
  596TIP3    H1 1752   0.660   3.435   1.420
  596TIP3    H2 1753   0.782   3.521   1.443
  597TIP3   OH2 1754   1.973   4.716   2.583
  597TIP3    H1 1755   2.066   4.701   2.568
  597TIP3    H2 1756   1.929   4.645   2.535
  598TIP3   OH2 1757   0.538   4.497   1.961
  598TIP3    H1 1758   0.542   4.588   1.991
  598TIP3    H2 1759   0.623   4.481   1.920
  599TIP3   OH2 1760   0.841   3.137   3.985
  599TIP3    H1 1761   0.790   3.077   4.039
  599TIP3    H2 1762   0.780   3.208   3.963
  600TIP3   OH2 1763   3.368   2.563   4.388
  600TIP3    H1 1764   3.335   2.485   4.343
  600TIP3    H2 1765   3.291   2.619   4.397
  601TIP3   OH2 1766   2.179   5.542   0.271
  601TIP3    H1 1767   2.098   5.504   0.303
  601TIP3    H2 1768   2.167   5.636   0.281
  602TIP3   OH2 1769   2.555   4.223   2.116
  602TIP3    H1 1770   2.481   4.239   2.057
  602TIP3    H2 1771   2.539   4.135   2.151
  603TIP3   OH2 1772   0.751   1.063   5.189
  603TIP3    H1 1773   0.761   1.117   5.267
  603TIP3    H2 1774   0.763   0.973   5.220
  604TIP3   OH2 1775   7.061   1.325   1.027
  604TIP3    H1 1776   6.975   1.284   1.025
  604TIP3    H2 1777   7.082   1.343   0.935
  605TIP3   OH2 1778   0.440   4.584   3.660
  605TIP3    H1 1779   0.485   4.503   3.683
  605TIP3    H2 1780   0.493   4.653   3.701
  606TIP3   OH2 1781   6.748   4.348   1.678
  606TIP3    H1 1782   6.706   4.264   1.660
  606TIP3    H2 1783   6.685   4.414   1.647
  607TIP3   OH2 1784   6.546   4.778   1.319
  607TIP3    H1 1785   6.625   4.754   1.368
  607TIP3    H2 1786   6.474   4.768   1.382
  608TIP3   OH2 1787   1.555   0.501   3.823
  608TIP3    H1 1788   1.480   0.477   3.877
  608TIP3    H2 1789   1.553   0.439   3.750
  609TIP3   OH2 1790   4.000   3.480   5.423
  609TIP3    H1 1791   4.051   3.488   5.504
  609TIP3    H2 1792   3.910   3.496   5.451
  610TIP3   OH2 1793   0.621   4.808   5.534
  610TIP3    H1 1794   0.672   4.887   5.551
  610TIP3    H2 1795   0.657   4.773   5.453
  611TIP3   OH2 1796   6.017   3.498   3.774
  611TIP3    H1 1797   5.949   3.445   3.815
  611TIP3    H2 1798   6.099   3.465   3.811
  612TIP3   OH2 1799   7.111   2.677   5.007
  612TIP3    H1 1800   7.091   2.585   4.994
  612TIP3    H2 1801   7.065   2.701   5.088
  613TIP3   OH2 1802   5.703   0.100   1.788
  613TIP3    H1 1803   5.663   0.126   1.705
  613TIP3    H2 1804   5.737   0.181   1.825
  614TIP3   OH2 1805   2.707   1.443   2.715
  614TIP3    H1 1806   2.668   1.356   2.726
  614TIP3    H2 1807   2.710   1.456   2.620
  615TIP3   OH2 1808   4.932   4.302   0.861
  615TIP3    H1 1809   4.988   4.378   0.876
  615TIP3    H2 1810   4.873   4.330   0.791
  616TIP3   OH2 1811   1.517   2.850   3.823
  616TIP3    H1 1812   1.604   2.883   3.845
  616TIP3    H2 1813   1.467   2.856   3.904
  617TIP3   OH2 1814   3.567   4.966   0.745
  617TIP3    H1 1815   3.537   4.878   0.722
  617TIP3    H2 1816   3.563   5.015   0.663
  618TIP3   OH2 1817   2.136   6.497   5.407
  618TIP3    H1 1818   2.097   6.572   5.451
  618TIP3    H2 1819   2.209   6.534   5.356
  619TIP3   OH2 1820   3.137   3.558   2.500
  619TIP3    H1 1821   3.164   3.470   2.526
  619TIP3    H2 1822   3.178   3.615   2.565
  620TIP3   OH2 1823   6.604   4.156   4.635
  620TIP3    H1 1824   6.641   4.155   4.547
  620TIP3    H2 1825   6.677   4.131   4.692
  621TIP3   OH2 1826   1.673   4.368   0.643
  621TIP3    H1 1827   1.689   4.273   0.645
  621TIP3    H2 1828   1.682   4.390   0.550
  622TIP3   OH2 1829   3.995   5.533   5.694
  622TIP3    H1 1830   4.027   5.594   5.760
  622TIP3    H2 1831   3.926   5.484   5.737
  623TIP3   OH2 1832   2.187   1.982   1.785
  623TIP3    H1 1833   2.190   1.887   1.797
  623TIP3    H2 1834   2.156   1.994   1.695
  624TIP3   OH2 1835   4.300   0.398   2.157
  624TIP3    H1 1836   4.282   0.413   2.065
  624TIP3    H2 1837   4.268   0.476   2.202
  625TIP3   OH2 1838   5.203   3.315   5.799
  625TIP3    H1 1839   5.116   3.350   5.780
  625TIP3    H2 1840   5.230   3.361   5.879
  626TIP3   OH2 1841   1.768   5.122   3.058
  626TIP3    H1 1842   1.687   5.170   3.074
  626TIP3    H2 1843   1.826   5.185   3.017
  627TIP3   OH2 1844   0.589   5.015   4.551
  627TIP3    H1 1845   0.527   5.086   4.531
  627TIP3    H2 1846   0.626   5.039   4.636
  628TIP3   OH2 1847   5.011   1.846   3.188
  628TIP3    H1 1848   4.920   1.850   3.218
  628TIP3    H2 1849   5.013   1.901   3.110
  629TIP3   OH2 1850   2.610   4.641   0.813
  629TIP3    H1 1851   2.518   4.665   0.799
  629TIP3    H2 1852   2.618   4.633   0.908
  630TIP3   OH2 1853   2.004   6.685   4.851
  630TIP3    H1 1854   1.922   6.730   4.871
  630TIP3    H2 1855   2.071   6.736   4.897
  631TIP3   OH2 1856   6.132   3.800   2.680
  631TIP3    H1 1857   6.096   3.876   2.724
  631TIP3    H2 1858   6.059   3.739   2.673
  632TIP3   OH2 1859   2.105   2.774   3.697
  632TIP3    H1 1860   2.114   2.716   3.773
  632TIP3    H2 1861   2.015   2.806   3.702
  633TIP3   OH2 1862   4.967   4.169   2.949
  633TIP3    H1 1863   4.908   4.113   3.000
  633TIP3    H2 1864   5.030   4.108   2.911
  634TIP3   OH2 1865   3.516   1.996   3.729
  634TIP3    H1 1866   3.607   1.982   3.753
  634TIP3    H2 1867   3.468   1.993   3.812
  635TIP3   OH2 1868   7.011   3.024   0.794
  635TIP3    H1 1869   6.921   3.051   0.812
  635TIP3    H2 1870   7.059   3.105   0.784
  636TIP3   OH2 1871   5.547   4.532   3.373
  636TIP3    H1 1872   5.611   4.501   3.310
  636TIP3    H2 1873   5.462   4.507   3.336
  637TIP3   OH2 1874   1.521   5.224   4.639
  637TIP3    H1 1875   1.435   5.219   4.681
  637TIP3    H2 1876   1.537   5.318   4.628
  638TIP3   OH2 1877   6.596   6.601   0.252
  638TIP3    H1 1878   6.687   6.623   0.234
  638TIP3    H2 1879   6.564   6.674   0.305
  639TIP3   OH2 1880   4.828   1.475   1.664
  639TIP3    H1 1881   4.849   1.382   1.673
  639TIP3    H2 1882   4.768   1.493   1.736
  640TIP3   OH2 1883   2.407   2.088   1.478
  640TIP3    H1 1884   2.433   2.021   1.542
  640TIP3    H2 1885   2.313   2.073   1.465
  641TIP3   OH2 1886   3.268   0.304   1.420
  641TIP3    H1 1887   3.229   0.390   1.436
  641TIP3    H2 1888   3.335   0.321   1.354
  642TIP3   OH2 1889   4.705   1.619   2.359
  642TIP3    H1 1890   4.786   1.655   2.323
  642TIP3    H2 1891   4.638   1.684   2.338
  643TIP3   OH2 1892   6.586   1.840   1.699
  643TIP3    H1 1893   6.571   1.847   1.793
  643TIP3    H2 1894   6.536   1.763   1.672
  644TIP3   OH2 1895   5.587   0.501   1.992
  644TIP3    H1 1896   5.641   0.565   1.946
  644TIP3    H2 1897   5.524   0.471   1.926
  645TIP3   OH2 1898   0.487   5.969   5.309
  645TIP3    H1 1899   0.406   6.018   5.327
  645TIP3    H2 1900   0.479   5.889   5.360
  646TIP3   OH2 1901   2.564   3.324   0.327
  646TIP3    H1 1902   2.513   3.244   0.344
  646TIP3    H2 1903   2.634   3.296   0.269
  647TIP3   OH2 1904   4.116   5.224   0.869
  647TIP3    H1 1905   4.093   5.208   0.960
  647TIP3    H2 1906   4.038   5.265   0.832
  648TIP3   OH2 1907   0.771   0.185   4.060
  648TIP3    H1 1908   0.683   0.200   4.096
  648TIP3    H2 1909   0.800   0.104   4.102
  649TIP3   OH2 1910   3.908   3.960   3.939
  649TIP3    H1 1911   3.858   3.882   3.917
  649TIP3    H2 1912   3.977   3.928   3.998
  650TIP3   OH2 1913   4.985   6.239   4.825
  650TIP3    H1 1914   5.051   6.207   4.887
  650TIP3    H2 1915   4.990   6.334   4.831
  651TIP3   OH2 1916   4.166   3.622   3.422
  651TIP3    H1 1917   4.185   3.553   3.359
  651TIP3    H2 1918   4.223   3.603   3.497
  652TIP3   OH2 1919   7.001   4.909   0.267
  652TIP3    H1 1920   6.975   4.817   0.265
  652TIP3    H2 1921   7.085   4.910   0.311
  653TIP3   OH2 1922   6.493   5.506   2.886
  653TIP3    H1 1923   6.559   5.524   2.954
  653TIP3    H2 1924   6.481   5.411   2.889
  654TIP3   OH2 1925   1.082   4.813   3.000
  654TIP3    H1 1926   1.001   4.815   3.050
  654TIP3    H2 1927   1.139   4.876   3.045
  655TIP3   OH2 1928   1.253   0.275   1.047
  655TIP3    H1 1929   1.255   0.285   0.952
  655TIP3    H2 1930   1.299   0.193   1.064
  656TIP3   OH2 1931   7.025   2.934   2.049
  656TIP3    H1 1932   6.946   2.980   2.079
  656TIP3    H2 1933   6.996   2.844   2.034
  657TIP3   OH2 1934   2.451   5.545   0.010
  657TIP3    H1 1935   2.481   5.604   0.080
  657TIP3    H2 1936   2.488   5.460   0.033
  658TIP3   OH2 1937   4.243   5.442   0.698
  658TIP3    H1 1938   4.208   5.391   0.771
  658TIP3    H2 1939   4.166   5.467   0.647
  659TIP3   OH2 1940   4.839   0.245   1.681
  659TIP3    H1 1941   4.757   0.267   1.636
  659TIP3    H2 1942   4.898   0.317   1.660
  660TIP3   OH2 1943   0.928   4.812   1.692
  660TIP3    H1 1944   0.952   4.841   1.780
  660TIP3    H2 1945   0.879   4.885   1.655
  661TIP3   OH2 1946   1.404   3.604   0.848
  661TIP3    H1 1947   1.327   3.648   0.883
  661TIP3    H2 1948   1.465   3.600   0.922
  662TIP3   OH2 1949   6.132   0.593   2.403
  662TIP3    H1 1950   6.210   0.538   2.402
  662TIP3    H2 1951   6.139   0.644   2.484
  663TIP3   OH2 1952   0.400   3.321   4.562
  663TIP3    H1 1953   0.336   3.391   4.569
  663TIP3    H2 1954   0.482   3.366   4.540
  664TIP3   OH2 1955   5.039   0.325   5.083
  664TIP3    H1 1956   5.069   0.267   5.154
  664TIP3    H2 1957   5.085   0.294   5.005
  665TIP3   OH2 1958   6.639   2.885   1.545
  665TIP3    H1 1959   6.658   2.792   1.527
  665TIP3    H2 1960   6.715   2.915   1.595
  666TIP3   OH2 1961   5.698   4.375   4.219
  666TIP3    H1 1962   5.774   4.377   4.277
  666TIP3    H2 1963   5.638   4.312   4.261
  667TIP3   OH2 1964   2.593   0.239   2.664
  667TIP3    H1 1965   2.598   0.174   2.594
  667TIP3    H2 1966   2.681   0.276   2.669
  668TIP3   OH2 1967   6.791   2.191   1.369
  668TIP3    H1 1968   6.787   2.123   1.437
  668TIP3    H2 1969   6.755   2.149   1.291
  669TIP3   OH2 1970   2.287   0.165   1.690
  669TIP3    H1 1971   2.259   0.199   1.776
  669TIP3    H2 1972   2.206   0.138   1.648
  670TIP3   OH2 1973   0.006   4.743   2.858
  670TIP3    H1 1974   0.012   4.765   2.950
  670TIP3    H2 1975   0.087   4.776   2.819
  671TIP3   OH2 1976   4.404   2.978   0.097
  671TIP3    H1 1977   4.348   3.025   0.159
  671TIP3    H2 1978   4.491   3.018   0.107
  672TIP3   OH2 1979   3.033   1.844   3.946
  672TIP3    H1 1980   3.034   1.928   3.992
  672TIP3    H2 1981   3.077   1.784   4.006
  673TIP3   OH2 1982   5.380   2.908   2.408
  673TIP3    H1 1983   5.442   2.920   2.336
  673TIP3    H2 1984   5.357   2.815   2.404
  674TIP3   OH2 1985   5.347   3.286   5.543
  674TIP3    H1 1986   5.299   3.303   5.625
  674TIP3    H2 1987   5.423   3.235   5.570
  675TIP3   OH2 1988   1.660   0.931   3.144
  675TIP3    H1 1989   1.658   0.835   3.149
  675TIP3    H2 1990   1.581   0.959   3.190
  676TIP3   OH2 1991   5.618   1.964   0.501
  676TIP3    H1 1992   5.544   1.978   0.560
  676TIP3    H2 1993   5.584   1.904   0.435
  677TIP3   OH2 1994   1.853   4.840   4.550
  677TIP3    H1 1995   1.783   4.882   4.600
  677TIP3    H2 1996   1.880   4.765   4.604
  678TIP3   OH2 1997   0.344   4.918   3.678
  678TIP3    H1 1998   0.307   4.998   3.640
  678TIP3    H2 1999   0.297   4.906   3.760
  679TIP3   OH2 2000   3.081   5.466   4.231
  679TIP3    H1 2001   3.153   5.425   4.182
  679TIP3    H2 2002   3.027   5.392   4.261
  680TIP3   OH2 2003   6.912   6.105   4.803
  680TIP3    H1 2004   6.911   6.026   4.857
  680TIP3    H2 2005   6.930   6.176   4.865
  681TIP3   OH2 2006   1.844   2.757   3.341
  681TIP3    H1 2007   1.874   2.788   3.255
  681TIP3    H2 2008   1.917   2.705   3.374
  682TIP3   OH2 2009   5.690   0.186   1.541
  682TIP3    H1 2010   5.727   0.186   1.453
  682TIP3    H2 2011   5.605   0.229   1.531
  683TIP3   OH2 2012   4.449   0.233   4.855
  683TIP3    H1 2013   4.439   0.320   4.893
  683TIP3    H2 2014   4.508   0.187   4.916
  684TIP3   OH2 2015   0.040   4.597   5.776
  684TIP3    H1 2016  -0.051   4.591   5.746
  684TIP3    H2 2017   0.090   4.615   5.697
  685TIP3   OH2 2018   2.536   4.164   1.454
  685TIP3    H1 2019   2.522   4.073   1.478
  685TIP3    H2 2020   2.579   4.160   1.369
  686TIP3   OH2 2021   0.919   2.477   0.563
  686TIP3    H1 2022   0.980   2.536   0.607
  686TIP3    H2 2023   0.872   2.532   0.501
  687TIP3   OH2 2024   2.982   0.280   4.441
  687TIP3    H1 2025   2.986   0.239   4.355
  687TIP3    H2 2026   3.073   0.297   4.464
  688TIP3   OH2 2027   2.046   5.958   2.777
  688TIP3    H1 2028   1.980   5.915   2.722
  688TIP3    H2 2029   2.017   5.942   2.867
  689TIP3   OH2 2030   0.754   2.276   1.370
  689TIP3    H1 2031   0.849   2.281   1.383
  689TIP3    H2 2032   0.731   2.358   1.325
  690TIP3   OH2 2033   3.090   2.235   3.695
  690TIP3    H1 2034   3.173   2.270   3.727
  690TIP3    H2 2035   3.025   2.263   3.761
  691TIP3   OH2 2036   5.728   5.343   4.395
  691TIP3    H1 2037   5.806   5.346   4.340
  691TIP3    H2 2038   5.760   5.364   4.483
  692TIP3   OH2 2039   6.762   2.076   4.560
  692TIP3    H1 2040   6.855   2.087   4.543
  692TIP3    H2 2041   6.735   2.005   4.503
  693TIP3   OH2 2042   2.903   3.832   3.402
  693TIP3    H1 2043   2.934   3.855   3.489
  693TIP3    H2 2044   2.830   3.772   3.417
  694TIP3   OH2 2045   5.494   0.277   3.062
  694TIP3    H1 2046   5.411   0.286   3.110
  694TIP3    H2 2047   5.471   0.224   2.986
  695TIP3   OH2 2048   1.066   0.755   4.779
  695TIP3    H1 2049   1.122   0.756   4.701
  695TIP3    H2 2050   1.110   0.815   4.840
  696TIP3   OH2 2051   6.051   4.108   5.099
  696TIP3    H1 2052   6.030   4.024   5.141
  696TIP3    H2 2053   6.081   4.163   5.171
  697TIP3   OH2 2054   0.151   2.479   3.603
  697TIP3    H1 2055   0.235   2.484   3.648
  697TIP3    H2 2056   0.165   2.416   3.532
  698TIP3   OH2 2057   5.135   2.430   4.010
  698TIP3    H1 2058   5.180   2.357   4.054
  698TIP3    H2 2059   5.206   2.481   3.971
  699TIP3   OH2 2060   6.055   6.535   4.816
  699TIP3    H1 2061   6.148   6.559   4.814
  699TIP3    H2 2062   6.042   6.479   4.740
  700TIP3   OH2 2063   4.043   3.673   2.560
  700TIP3    H1 2064   4.057   3.595   2.613
  700TIP3    H2 2065   4.090   3.656   2.478
  701TIP3   OH2 2066   3.965   6.109   4.043
  701TIP3    H1 2067   3.964   6.062   3.960
  701TIP3    H2 2068   4.053   6.096   4.077
  702TIP3   OH2 2069   2.328   6.145   3.561
  702TIP3    H1 2070   2.405   6.200   3.547
  702TIP3    H2 2071   2.334   6.077   3.494
  703TIP3   OH2 2072   2.855   2.914   1.526
  703TIP3    H1 2073   2.843   2.857   1.450
  703TIP3    H2 2074   2.768   2.950   1.543
  704TIP3   OH2 2075   3.255   5.953   1.725
  704TIP3    H1 2076   3.300   6.002   1.656
  704TIP3    H2 2077   3.179   5.914   1.682
  705TIP3   OH2 2078   6.872   3.267   1.528
  705TIP3    H1 2079   6.926   3.254   1.605
  705TIP3    H2 2080   6.864   3.180   1.489
  706TIP3   OH2 2081   4.618   3.005   0.369
  706TIP3    H1 2082   4.646   2.914   0.382
  706TIP3    H2 2083   4.545   3.016   0.430
  707TIP3   OH2 2084   6.940   3.136   1.808
  707TIP3    H1 2085   6.858   3.088   1.816
  707TIP3    H2 2086   6.985   3.123   1.891
  708TIP3   OH2 2087   0.141   0.895   0.247
  708TIP3    H1 2088   0.204   0.828   0.222
  708TIP3    H2 2089   0.110   0.869   0.333
  709TIP3   OH2 2090   3.624   4.002   1.204
  709TIP3    H1 2091   3.570   3.952   1.266
  709TIP3    H2 2092   3.646   4.083   1.252
  710TIP3   OH2 2093   6.679   0.482   4.605
  710TIP3    H1 2094   6.640   0.570   4.598
  710TIP3    H2 2095   6.635   0.432   4.536
  711TIP3   OH2 2096   3.278   2.769   5.216
  711TIP3    H1 2097   3.191   2.739   5.190
  711TIP3    H2 2098   3.309   2.821   5.142
  712TIP3   OH2 2099   0.763   1.480   3.310
  712TIP3    H1 2100   0.848   1.492   3.352
  712TIP3    H2 2101   0.784   1.445   3.223
  713TIP3   OH2 2102   2.505   0.474   3.285
  713TIP3    H1 2103   2.492   0.536   3.213
  713TIP3    H2 2104   2.492   0.527   3.364
  714TIP3   OH2 2105   5.191   0.230   0.719
  714TIP3    H1 2106   5.111   0.252   0.670
  714TIP3    H2 2107   5.258   0.288   0.683
  715TIP3   OH2 2108   1.273   5.018   4.333
  715TIP3    H1 2109   1.245   4.957   4.401
  715TIP3    H2 2110   1.350   4.976   4.294
  716TIP3   OH2 2111   0.872   1.899   2.158
  716TIP3    H1 2112   0.830   1.869   2.240
  716TIP3    H2 2113   0.815   1.970   2.128
  717TIP3   OH2 2114   3.247   6.091   2.030
  717TIP3    H1 2115   3.233   6.079   1.936
  717TIP3    H2 2116   3.319   6.033   2.052
  718TIP3   OH2 2117   6.786   0.114   3.185
  718TIP3    H1 2118   6.881   0.116   3.170
  718TIP3    H2 2119   6.774   0.048   3.254
  719TIP3   OH2 2120   7.011   1.787   4.993
  719TIP3    H1 2121   6.989   1.696   5.013
  719TIP3    H2 2122   7.102   1.783   4.963
  720TIP3   OH2 2123   1.442   3.201   2.401
  720TIP3    H1 2124   1.489   3.191   2.318
  720TIP3    H2 2125   1.472   3.284   2.436
  721TIP3   OH2 2126   6.983   3.811   1.554
  721TIP3    H1 2127   7.054   3.848   1.502
  721TIP3    H2 2128   7.027   3.753   1.616
  722TIP3   OH2 2129   4.161   5.152   4.598
  722TIP3    H1 2130   4.226   5.199   4.545
  722TIP3    H2 2131   4.142   5.212   4.670
  723TIP3   OH2 2132   4.216   1.274   0.379
  723TIP3    H1 2133   4.251   1.359   0.403
  723TIP3    H2 2134   4.124   1.291   0.357
  724TIP3   OH2 2135   4.240   4.365   0.625
  724TIP3    H1 2136   4.149   4.386   0.601
  724TIP3    H2 2137   4.292   4.401   0.554
  725TIP3   OH2 2138   4.340   0.572   5.454
  725TIP3    H1 2139   4.389   0.555   5.535
  725TIP3    H2 2140   4.363   0.500   5.397
  726TIP3   OH2 2141   4.653   2.480   5.207
  726TIP3    H1 2142   4.637   2.398   5.255
  726TIP3    H2 2143   4.739   2.469   5.167
  727TIP3   OH2 2144   2.321   6.043   1.338
  727TIP3    H1 2145   2.232   6.032   1.304
  727TIP3    H2 2146   2.345   6.131   1.312
  728TIP3   OH2 2147   5.296   6.543   3.771
  728TIP3    H1 2148   5.225   6.606   3.783
  728TIP3    H2 2149   5.266   6.464   3.816
  729TIP3   OH2 2150   5.419   3.454   4.086
  729TIP3    H1 2151   5.457   3.457   4.174
  729TIP3    H2 2152   5.485   3.497   4.030
  730TIP3   OH2 2153   1.269   0.480   2.784
  730TIP3    H1 2154   1.276   0.570   2.817
  730TIP3    H2 2155   1.180   0.453   2.807
  731TIP3   OH2 2156   3.997   2.116   4.566
  731TIP3    H1 2157   4.031   2.181   4.504
  731TIP3    H2 2158   3.980   2.166   4.646
  732TIP3   OH2 2159   0.874   1.851   3.726
  732TIP3    H1 2160   0.837   1.939   3.719
  732TIP3    H2 2161   0.966   1.866   3.751
  733TIP3   OH2 2162   6.522   1.818   4.611
  733TIP3    H1 2163   6.588   1.800   4.678
  733TIP3    H2 2164   6.573   1.846   4.535
  734TIP3   OH2 2165   6.397   3.279   4.121
  734TIP3    H1 2166   6.468   3.263   4.183
  734TIP3    H2 2167   6.364   3.191   4.099
  735TIP3   OH2 2168   5.312   3.336   4.470
  735TIP3    H1 2169   5.244   3.403   4.471
  735TIP3    H2 2170   5.265   3.254   4.454
  736TIP3   OH2 2171   3.819   0.277   4.494
  736TIP3    H1 2172   3.835   0.372   4.491
  736TIP3    H2 2173   3.725   0.268   4.479
  737TIP3   OH2 2174   3.574   2.647   1.657
  737TIP3    H1 2175   3.519   2.726   1.665
  737TIP3    H2 2176   3.605   2.649   1.567
  738TIP3   OH2 2177   4.471   6.177   2.991
  738TIP3    H1 2178   4.407   6.193   3.060
  738TIP3    H2 2179   4.460   6.084   2.970
  739TIP3   OH2 2180   2.457   2.316   2.624
  739TIP3    H1 2181   2.509   2.256   2.677
  739TIP3    H2 2182   2.488   2.302   2.535
  740TIP3   OH2 2183   0.682   6.776   0.234
  740TIP3    H1 2184   0.609   6.766   0.294
  740TIP3    H2 2185   0.680   6.697   0.180
  741TIP3   OH2 2186   5.433   6.691   2.942
  741TIP3    H1 2187   5.398   6.770   2.984
  741TIP3    H2 2188   5.522   6.716   2.916
  742TIP3   OH2 2189   5.562   4.602   2.730
  742TIP3    H1 2190   5.634   4.637   2.783
  742TIP3    H2 2191   5.559   4.509   2.752
  743TIP3   OH2 2192   4.420   0.872   4.699
  743TIP3    H1 2193   4.448   0.847   4.787
  743TIP3    H2 2194   4.367   0.799   4.669
  744TIP3   OH2 2195   6.505   5.504   1.731
  744TIP3    H1 2196   6.569   5.566   1.695
  744TIP3    H2 2197   6.518   5.508   1.826
  745TIP3   OH2 2198   3.029   1.525   1.030
  745TIP3    H1 2199   2.938   1.543   1.053
  745TIP3    H2 2200   3.080   1.554   1.106
  746TIP3   OH2 2201   6.730   3.431   5.136
  746TIP3    H1 2202   6.639   3.405   5.126
  746TIP3    H2 2203   6.778   3.348   5.143
  747TIP3   OH2 2204   1.877   3.808   5.417
  747TIP3    H1 2205   1.869   3.717   5.446
  747TIP3    H2 2206   1.810   3.854   5.466
  748TIP3   OH2 2207   4.075   2.870   1.555
  748TIP3    H1 2208   4.163   2.868   1.517
  748TIP3    H2 2209   4.026   2.930   1.499
  749TIP3   OH2 2210   5.781   0.917   3.836
  749TIP3    H1 2211   5.836   0.988   3.804
  749TIP3    H2 2212   5.706   0.916   3.777
  750TIP3   OH2 2213   1.910   4.307   1.939
  750TIP3    H1 2214   1.921   4.219   1.974
  750TIP3    H2 2215   1.957   4.305   1.856
  751TIP3   OH2 2216   4.791   6.174   2.308
  751TIP3    H1 2217   4.817   6.151   2.219
  751TIP3    H2 2218   4.719   6.237   2.296
  752TIP3   OH2 2219   0.527   4.381   1.441
  752TIP3    H1 2220   0.506   4.330   1.519
  752TIP3    H2 2221   0.612   4.420   1.460
  753TIP3   OH2 2222   0.065   4.491   1.252
  753TIP3    H1 2223   0.062   4.442   1.169
  753TIP3    H2 2224   0.089   4.426   1.318
  754TIP3   OH2 2225   5.846   4.396   4.821
  754TIP3    H1 2226   5.857   4.302   4.813
  754TIP3    H2 2227   5.754   4.412   4.802
  755TIP3   OH2 2228   5.901   0.863   1.480
  755TIP3    H1 2229   5.805   0.869   1.485
  755TIP3    H2 2230   5.930   0.952   1.464
  756TIP3   OH2 2231   2.444   5.995   1.601
  756TIP3    H1 2232   2.437   5.907   1.637
  756TIP3    H2 2233   2.397   5.991   1.518
  757TIP3   OH2 2234   0.399   5.105   2.228
  757TIP3    H1 2235   0.353   5.121   2.311
  757TIP3    H2 2236   0.489   5.135   2.244
  758TIP3   OH2 2237   4.128   2.174   2.474
  758TIP3    H1 2238   4.194   2.118   2.516
  758TIP3    H2 2239   4.116   2.136   2.387
  759TIP3   OH2 2240   6.898   1.667   4.294
  759TIP3    H1 2241   6.864   1.652   4.206
  759TIP3    H2 2242   6.822   1.697   4.344
  760TIP3   OH2 2243   6.529   5.955   2.965
  760TIP3    H1 2244   6.477   5.982   2.889
  760TIP3    H2 2245   6.611   6.002   2.956
  761TIP3   OH2 2246   3.711   6.812   4.850
  761TIP3    H1 2247   3.712   6.748   4.778
  761TIP3    H2 2248   3.619   6.830   4.865
  762TIP3   OH2 2249   2.724   0.167   1.969
  762TIP3    H1 2250   2.784   0.115   2.022
  762TIP3    H2 2251   2.714   0.116   1.889
  763TIP3   OH2 2252   4.154   4.557   4.210
  763TIP3    H1 2253   4.084   4.502   4.244
  763TIP3    H2 2254   4.184   4.512   4.131
  764TIP3   OH2 2255   6.793   4.111   2.281
  764TIP3    H1 2256   6.880   4.089   2.247
  764TIP3    H2 2257   6.732   4.081   2.214
  765TIP3   OH2 2258   2.265   3.053   1.775
  765TIP3    H1 2259   2.214   2.991   1.722
  765TIP3    H2 2260   2.199   3.108   1.818
  766TIP3   OH2 2261   4.760   4.456   1.264
  766TIP3    H1 2262   4.812   4.385   1.300
  766TIP3    H2 2263   4.672   4.419   1.253
  767TIP3   OH2 2264   0.411   2.183   2.699
  767TIP3    H1 2265   0.485   2.125   2.715
  767TIP3    H2 2266   0.429   2.261   2.751
  768TIP3   OH2 2267   6.392   0.474   1.056
  768TIP3    H1 2268   6.432   0.467   0.970
  768TIP3    H2 2269   6.300   0.449   1.042
  769TIP3   OH2 2270   6.253   0.367   0.500
  769TIP3    H1 2271   6.297   0.297   0.549
  769TIP3    H2 2272   6.323   0.428   0.477
  770TIP3   OH2 2273   0.090   5.224   4.692
  770TIP3    H1 2274   0.098   5.246   4.785
  770TIP3    H2 2275   0.128   5.136   4.686
  771TIP3   OH2 2276   1.887   2.252   4.095
  771TIP3    H1 2277   1.876   2.196   4.019
  771TIP3    H2 2278   1.819   2.319   4.086
  772TIP3   OH2 2279   0.369   2.096   4.405
  772TIP3    H1 2280   0.286   2.047   4.403
  772TIP3    H2 2281   0.372   2.141   4.321
  773TIP3   OH2 2282   4.631   0.261   4.246
  773TIP3    H1 2283   4.646   0.211   4.166
  773TIP3    H2 2284   4.563   0.323   4.224
  774TIP3   OH2 2285   0.329   4.481   5.350
  774TIP3    H1 2286   0.417   4.482   5.312
  774TIP3    H2 2287   0.328   4.405   5.407
  775TIP3   OH2 2288   6.086   4.372   0.972
  775TIP3    H1 2289   6.101   4.457   1.013
  775TIP3    H2 2290   6.003   4.382   0.926
  776TIP3   OH2 2291   2.093   4.296   5.297
  776TIP3    H1 2292   2.083   4.211   5.341
  776TIP3    H2 2293   2.144   4.349   5.359
  777TIP3   OH2 2294   1.036   0.378   4.951
  777TIP3    H1 2295   1.075   0.294   4.929
  777TIP3    H2 2296   1.037   0.381   5.046
  778TIP3   OH2 2297   2.857   3.582   1.590
  778TIP3    H1 2298   2.834   3.665   1.549
  778TIP3    H2 2299   2.925   3.605   1.654
  779TIP3   OH2 2300   2.833   0.866   0.045
  779TIP3    H1 2301   2.865   0.862  -0.045
  779TIP3    H2 2302   2.900   0.916   0.092
  780TIP3   OH2 2303   4.932   2.256   3.448
  780TIP3    H1 2304   5.001   2.260   3.514
  780TIP3    H2 2305   4.893   2.169   3.458
  781TIP3   OH2 2306   1.776   1.335   0.921
  781TIP3    H1 2307   1.737   1.268   0.865
  781TIP3    H2 2308   1.703   1.372   0.970
  782TIP3   OH2 2309   2.707   5.638   5.865
  782TIP3    H1 2310   2.709   5.612   5.773
  782TIP3    H2 2311   2.787   5.599   5.902
  783TIP3   OH2 2312   3.288   4.222   5.044
  783TIP3    H1 2313   3.267   4.316   5.041
  783TIP3    H2 2314   3.205   4.179   5.023
  784TIP3   OH2 2315   0.874   4.268   2.089
  784TIP3    H1 2316   0.869   4.328   2.163
  784TIP3    H2 2317   0.936   4.201   2.116
  785TIP3   OH2 2318   4.657   5.521   3.161
  785TIP3    H1 2319   4.686   5.603   3.120
  785TIP3    H2 2320   4.706   5.516   3.242
  786TIP3   OH2 2321   2.980   5.004   0.306
  786TIP3    H1 2322   2.940   4.917   0.309
  786TIP3    H2 2323   3.048   5.001   0.374
  787TIP3   OH2 2324   5.955   5.108   2.626
  787TIP3    H1 2325   5.882   5.155   2.666
  787TIP3    H2 2326   5.939   5.116   2.532
  788TIP3   OH2 2327   1.806   2.300   5.046
  788TIP3    H1 2328   1.889   2.255   5.056
  788TIP3    H2 2329   1.777   2.318   5.135
  789TIP3   OH2 2330   5.405   4.172   1.010
  789TIP3    H1 2331   5.346   4.149   1.082
  789TIP3    H2 2332   5.426   4.088   0.969
  790TIP3   OH2 2333   1.715   6.130   2.329
  790TIP3    H1 2334   1.755   6.142   2.415
  790TIP3    H2 2335   1.711   6.035   2.319
  791TIP3   OH2 2336   0.070   6.337   4.721
  791TIP3    H1 2337   0.164   6.352   4.728
  791TIP3    H2 2338   0.031   6.389   4.792
  792TIP3   OH2 2339   3.485   3.657   2.316
  792TIP3    H1 2340   3.442   3.574   2.337
  792TIP3    H2 2341   3.578   3.635   2.311
  793TIP3   OH2 2342   4.002   5.559   3.249
  793TIP3    H1 2343   4.066   5.622   3.279
  793TIP3    H2 2344   3.988   5.579   3.157
  794TIP3   OH2 2345   5.531   5.060   0.897
  794TIP3    H1 2346   5.526   5.030   0.988
  794TIP3    H2 2347   5.467   5.131   0.893
  795TIP3   OH2 2348   5.286   6.781   5.246
  795TIP3    H1 2349   5.328   6.748   5.325
  795TIP3    H2 2350   5.222   6.845   5.277
  796TIP3   OH2 2351   3.983   1.488   3.397
  796TIP3    H1 2352   3.978   1.415   3.459
  796TIP3    H2 2353   4.072   1.523   3.409
  797TIP3   OH2 2354   2.756   3.881   2.362
  797TIP3    H1 2355   2.784   3.809   2.419
  797TIP3    H2 2356   2.722   3.837   2.284
  798TIP3   OH2 2357   6.837   0.835   1.480
  798TIP3    H1 2358   6.895   0.795   1.546
  798TIP3    H2 2359   6.749   0.818   1.513
  799TIP3   OH2 2360   0.190   0.145   2.895
  799TIP3    H1 2361   0.118   0.083   2.907
  799TIP3    H2 2362   0.245   0.104   2.828
  800TIP3   OH2 2363   0.828   5.020   5.563
  800TIP3    H1 2364   0.869   5.047   5.645
  800TIP3    H2 2365   0.899   4.982   5.512
  801TIP3   OH2 2366   5.763   0.226   0.655
  801TIP3    H1 2367   5.673   0.225   0.623
  801TIP3    H2 2368   5.811   0.171   0.594
  802TIP3   OH2 2369   5.466   4.791   0.929
  802TIP3    H1 2370   5.479   4.870   0.877
  802TIP3    H2 2371   5.549   4.745   0.925
  803TIP3   OH2 2372   1.897   0.646   0.824
  803TIP3    H1 2373   1.836   0.638   0.897
  803TIP3    H2 2374   1.975   0.686   0.862
  804TIP3   OH2 2375   6.769   6.071   3.960
  804TIP3    H1 2376   6.825   6.007   3.918
  804TIP3    H2 2377   6.829   6.125   4.012
  805TIP3   OH2 2378   4.896   1.843   1.854
  805TIP3    H1 2379   4.867   1.825   1.764
  805TIP3    H2 2380   4.819   1.826   1.908
  806TIP3   OH2 2381   1.330   6.447   4.388
  806TIP3    H1 2382   1.341   6.488   4.474
  806TIP3    H2 2383   1.258   6.495   4.348
  807TIP3   OH2 2384   5.304   3.577   5.620
  807TIP3    H1 2385   5.293   3.483   5.629
  807TIP3    H2 2386   5.227   3.606   5.571
  808TIP3   OH2 2387   2.812   2.067   5.621
  808TIP3    H1 2388   2.889   2.012   5.607
  808TIP3    H2 2389   2.775   2.080   5.534
  809TIP3   OH2 2390   0.905   1.589   5.251
  809TIP3    H1 2391   0.914   1.498   5.224
  809TIP3    H2 2392   0.853   1.630   5.182
  810TIP3   OH2 2393   3.486   5.358   4.502
  810TIP3    H1 2394   3.488   5.265   4.482
  810TIP3    H2 2395   3.572   5.391   4.475
  811TIP3   OH2 2396   6.445   0.664   4.561
  811TIP3    H1 2397   6.480   0.748   4.590
  811TIP3    H2 2398   6.374   0.687   4.500
  812TIP3   OH2 2399   5.044   2.267   3.204
  812TIP3    H1 2400   5.139   2.277   3.216
  812TIP3    H2 2401   5.007   2.276   3.291
  813TIP3   OH2 2402   6.007   1.420   1.775
  813TIP3    H1 2403   5.931   1.362   1.786
  813TIP3    H2 2404   5.973   1.507   1.793
  814TIP3   OH2 2405   6.970   0.034   4.471
  814TIP3    H1 2406   7.045   0.093   4.479
  814TIP3    H2 2407   6.923   0.042   4.554
  815TIP3   OH2 2408   5.167   1.310   3.788
  815TIP3    H1 2409   5.083   1.353   3.772
  815TIP3    H2 2410   5.179   1.314   3.883
  816TIP3   OH2 2411   1.100   0.064   2.688
  816TIP3    H1 2412   1.184   0.080   2.646
  816TIP3    H2 2413   1.047   0.022   2.619
  817TIP3   OH2 2414   5.633   3.436   2.513
  817TIP3    H1 2415   5.563   3.376   2.540
  817TIP3    H2 2416   5.593   3.523   2.519
  818TIP3   OH2 2417   5.132   2.000   1.901
  818TIP3    H1 2418   5.054   1.963   1.859
  818TIP3    H2 2419   5.190   1.925   1.916
  819TIP3   OH2 2420   1.325   6.487   3.886
  819TIP3    H1 2421   1.244   6.488   3.834
  819TIP3    H2 2422   1.305   6.543   3.961
  820TIP3   OH2 2423   6.229   0.615   4.969
  820TIP3    H1 2424   6.187   0.691   4.929
  820TIP3    H2 2425   6.293   0.586   4.903
  821TIP3   OH2 2426   2.302   4.828   5.760
  821TIP3    H1 2427   2.292   4.920   5.784
  821TIP3    H2 2428   2.396   4.814   5.755
  822TIP3   OH2 2429   3.789   0.220   1.987
  822TIP3    H1 2430   3.788   0.289   1.921
  822TIP3    H2 2431   3.816   0.265   2.067
  823TIP3   OH2 2432   5.773   4.200   2.591
  823TIP3    H1 2433   5.791   4.141   2.518
  823TIP3    H2 2434   5.779   4.288   2.554
  824TIP3   OH2 2435   3.725   1.559   2.969
  824TIP3    H1 2436   3.672   1.579   3.046
  824TIP3    H2 2437   3.797   1.506   3.002
  825TIP3   OH2 2438   6.754   1.611   0.130
  825TIP3    H1 2439   6.690   1.682   0.141
  825TIP3    H2 2440   6.756   1.567   0.215
  826TIP3   OH2 2441   4.819   3.098   3.809
  826TIP3    H1 2442   4.906   3.064   3.786
  826TIP3    H2 2443   4.835   3.184   3.847
  827TIP3   OH2 2444   2.525   3.695   0.393
  827TIP3    H1 2445   2.463   3.765   0.412
  827TIP3    H2 2446   2.484   3.616   0.429
  828TIP3   OH2 2447   2.266   1.170   1.677
  828TIP3    H1 2448   2.257   1.222   1.597
  828TIP3    H2 2449   2.180   1.175   1.718
  829TIP3   OH2 2450   5.303   4.418   1.004
  829TIP3    H1 2451   5.337   4.331   0.984
  829TIP3    H2 2452   5.229   4.402   1.062
  830TIP3   OH2 2453   5.887   3.459   3.187
  830TIP3    H1 2454   5.837   3.522   3.135
  830TIP3    H2 2455   5.972   3.500   3.200
  831TIP3   OH2 2456   0.625   3.419   2.940
  831TIP3    H1 2457   0.618   3.351   3.007
  831TIP3    H2 2458   0.614   3.501   2.989
  832TIP3   OH2 2459   3.365   5.332   5.731
  832TIP3    H1 2460   3.304   5.294   5.667
  832TIP3    H2 2461   3.318   5.327   5.814
  833TIP3   OH2 2462   1.863   1.436   3.603
  833TIP3    H1 2463   1.819   1.354   3.625
  833TIP3    H2 2464   1.883   1.476   3.688
  834TIP3   OH2 2465   2.780   1.679   2.256
  834TIP3    H1 2466   2.854   1.739   2.262
  834TIP3    H2 2467   2.762   1.673   2.162
  835TIP3   OH2 2468   4.486   0.427   4.571
  835TIP3    H1 2469   4.465   0.515   4.542
  835TIP3    H2 2470   4.462   0.426   4.664
  836TIP3   OH2 2471   1.647   6.280   3.222
  836TIP3    H1 2472   1.710   6.259   3.291
  836TIP3    H2 2473   1.611   6.365   3.248
  837TIP3   OH2 2474   0.650   2.993   4.716
  837TIP3    H1 2475   0.564   3.024   4.743
  837TIP3    H2 2476   0.647   2.898   4.729
  838TIP3   OH2 2477   4.039   0.217   1.623
  838TIP3    H1 2478   4.079   0.184   1.704
  838TIP3    H2 2479   4.042   0.312   1.632
  839TIP3   OH2 2480   1.428   2.646   5.861
  839TIP3    H1 2481   1.475   2.634   5.779
  839TIP3    H2 2482   1.343   2.603   5.845
  840TIP3   OH2 2483   1.688   6.752   3.075
  840TIP3    H1 2484   1.707   6.741   3.168
  840TIP3    H2 2485   1.709   6.667   3.036
  841TIP3   OH2 2486   1.998   2.164   1.720
  841TIP3    H1 2487   1.976   2.254   1.696
  841TIP3    H2 2488   2.068   2.140   1.659
  842TIP3   OH2 2489   0.484   2.512   2.420
  842TIP3    H1 2490   0.467   2.455   2.345
  842TIP3    H2 2491   0.399   2.551   2.440
  843TIP3   OH2 2492   1.966   2.855   0.138
  843TIP3    H1 2493   1.952   2.848   0.233
  843TIP3    H2 2494   1.890   2.812   0.100
  844TIP3   OH2 2495   2.964   1.510   1.537
  844TIP3    H1 2496   2.929   1.464   1.613
  844TIP3    H2 2497   3.003   1.590   1.572
  845TIP3   OH2 2498   3.614   6.590   4.427
  845TIP3    H1 2499   3.562   6.617   4.352
  845TIP3    H2 2500   3.556   6.534   4.478
  846TIP3   OH2 2501   5.878   0.678   0.015
  846TIP3    H1 2502   5.904   0.751   0.071
  846TIP3    H2 2503   5.956   0.623   0.009
  847TIP3   OH2 2504   1.157   2.643   2.940
  847TIP3    H1 2505   1.195   2.588   3.009
  847TIP3    H2 2506   1.125   2.720   2.986
  848TIP3   OH2 2507   5.331   3.102   1.264
  848TIP3    H1 2508   5.386   3.102   1.186
  848TIP3    H2 2509   5.388   3.073   1.335
  849TIP3   OH2 2510   6.879   1.344   0.040
  849TIP3    H1 2511   6.965   1.343  -0.002
  849TIP3    H2 2512   6.876   1.429   0.085
  850TIP3   OH2 2513   3.094   5.214   4.761
  850TIP3    H1 2514   3.139   5.245   4.683
  850TIP3    H2 2515   3.042   5.289   4.790
  851TIP3   OH2 2516   6.452   2.968   4.588
  851TIP3    H1 2517   6.397   2.906   4.636
  851TIP3    H2 2518   6.533   2.919   4.571
  852TIP3   OH2 2519   4.822   0.067   4.832
  852TIP3    H1 2520   4.858   0.154   4.813
  852TIP3    H2 2521   4.898   0.009   4.832
  853TIP3   OH2 2522   0.710   3.578   0.770
  853TIP3    H1 2523   0.644   3.609   0.708
  853TIP3    H2 2524   0.683   3.488   0.791
  854TIP3   OH2 2525   1.580   0.903   3.589
  854TIP3    H1 2526   1.658   0.956   3.603
  854TIP3    H2 2527   1.604   0.841   3.520
  855TIP3   OH2 2528   6.552   0.519   1.271
  855TIP3    H1 2529   6.637   0.515   1.227
  855TIP3    H2 2530   6.489   0.488   1.205
  856TIP3   OH2 2531   5.587   6.763   5.727
  856TIP3    H1 2532   5.645   6.811   5.668
  856TIP3    H2 2533   5.587   6.814   5.808
  857TIP3   OH2 2534   1.999   3.396   0.074
  857TIP3    H1 2535   1.920   3.413   0.023
  857TIP3    H2 2536   2.056   3.346   0.015
  858TIP3   OH2 2537   5.261   3.310   5.280
  858TIP3    H1 2538   5.173   3.348   5.283
  858TIP3    H2 2539   5.285   3.299   5.372
  859TIP3   OH2 2540   7.164   0.795   0.413
  859TIP3    H1 2541   7.147   0.816   0.504
  859TIP3    H2 2542   7.132   0.871   0.364
  860TIP3   OH2 2543   2.234   1.603   3.598
  860TIP3    H1 2544   2.252   1.580   3.690
  860TIP3    H2 2545   2.286   1.683   3.584
  861TIP3   OH2 2546   1.694   6.727   0.610
  861TIP3    H1 2547   1.788   6.737   0.617
  861TIP3    H2 2548   1.673   6.656   0.670
  862TIP3   OH2 2549   4.853   2.963   2.127
  862TIP3    H1 2550   4.814   3.041   2.167
  862TIP3    H2 2551   4.939   2.992   2.097
  863TIP3   OH2 2552   3.444   5.845   1.919
  863TIP3    H1 2553   3.380   5.893   1.868
  863TIP3    H2 2554   3.461   5.766   1.867
  864TIP3   OH2 2555   4.372   2.542   5.826
  864TIP3    H1 2556   4.405   2.470   5.771
  864TIP3    H2 2557   4.363   2.503   5.913
  865TIP3   OH2 2558   5.574   3.196   4.334
  865TIP3    H1 2559   5.502   3.133   4.341
  865TIP3    H2 2560   5.530   3.281   4.333
  866TIP3   OH2 2561   1.798   4.695   1.101
  866TIP3    H1 2562   1.705   4.687   1.121
  866TIP3    H2 2563   1.801   4.744   1.019
  867TIP3   OH2 2564   1.963   6.012   1.210
  867TIP3    H1 2565   1.919   5.971   1.285
  867TIP3    H2 2566   1.940   6.104   1.217
  868TIP3   OH2 2567   3.186   3.366   1.069
  868TIP3    H1 2568   3.213   3.276   1.053
  868TIP3    H2 2569   3.132   3.362   1.148
  869TIP3   OH2 2570   1.003   0.307   2.829
  869TIP3    H1 2571   1.018   0.223   2.785
  869TIP3    H2 2572   0.950   0.357   2.768
  870TIP3   OH2 2573   2.598   6.650   5.414
  870TIP3    H1 2574   2.565   6.737   5.394
  870TIP3    H2 2575   2.618   6.611   5.329
  871TIP3   OH2 2576   5.590   2.335   3.617
  871TIP3    H1 2577   5.575   2.242   3.599
  871TIP3    H2 2578   5.641   2.366   3.543
  872TIP3   OH2 2579   0.504   3.366   4.910
  872TIP3    H1 2580   0.470   3.446   4.869
  872TIP3    H2 2581   0.590   3.353   4.870
  873TIP3   OH2 2582   0.308   6.152   0.036
  873TIP3    H1 2583   0.251   6.094   0.086
  873TIP3    H2 2584   0.384   6.165   0.092
  874TIP3   OH2 2585   6.247   2.093   0.023
  874TIP3    H1 2586   6.314   2.032  -0.006
  874TIP3    H2 2587   6.217   2.058   0.107
  875TIP3   OH2 2588   6.941   4.163   2.934
  875TIP3    H1 2589   7.032   4.155   2.962
  875TIP3    H2 2590   6.920   4.255   2.945
  876TIP3   OH2 2591   1.438   2.819   1.007
  876TIP3    H1 2592   1.346   2.809   0.980
  876TIP3    H2 2593   1.443   2.908   1.042
  877TIP3   OH2 2594   3.661   5.278   0.557
  877TIP3    H1 2595   3.734   5.240   0.509
  877TIP3    H2 2596   3.621   5.340   0.496
  878TIP3   OH2 2597   3.806   4.988   3.217
  878TIP3    H1 2598   3.745   4.972   3.144
  878TIP3    H2 2599   3.833   5.079   3.207
  879TIP3   OH2 2600   6.801   0.230   2.710
  879TIP3    H1 2601   6.829   0.197   2.796
  879TIP3    H2 2602   6.847   0.175   2.647
  880TIP3   OH2 2603   0.757   3.063   5.751
  880TIP3    H1 2604   0.685   3.119   5.723
  880TIP3    H2 2605   0.715   2.984   5.784
  881TIP3   OH2 2606   0.806   0.809   3.400
  881TIP3    H1 2607   0.727   0.797   3.346
  881TIP3    H2 2608   0.814   0.726   3.448
  882TIP3   OH2 2609   5.109   6.590   4.705
  882TIP3    H1 2610   5.171   6.525   4.739
  882TIP3    H2 2611   5.026   6.569   4.748
  883TIP3   OH2 2612   2.712   0.110   1.153
  883TIP3    H1 2613   2.669   0.139   1.073
  883TIP3    H2 2614   2.655   0.142   1.223
  884TIP3   OH2 2615   4.009   2.896   5.175
  884TIP3    H1 2616   3.978   2.987   5.175
  884TIP3    H2 2617   4.021   2.875   5.267
  885TIP3   OH2 2618   5.712   2.701   5.849
  885TIP3    H1 2619   5.743   2.611   5.848
  885TIP3    H2 2620   5.763   2.745   5.780
  886TIP3   OH2 2621   0.315   6.599   2.460
  886TIP3    H1 2622   0.268   6.671   2.502
  886TIP3    H2 2623   0.253   6.564   2.396
  887TIP3   OH2 2624   4.520   6.780   1.783
  887TIP3    H1 2625   4.607   6.748   1.807
  887TIP3    H2 2626   4.491   6.832   1.858
  888TIP3   OH2 2627   3.686   4.430   0.896
  888TIP3    H1 2628   3.682   4.523   0.916
  888TIP3    H2 2629   3.714   4.425   0.805
  889TIP3   OH2 2630   6.872   3.770   1.222
  889TIP3    H1 2631   6.869   3.686   1.268
  889TIP3    H2 2632   6.945   3.761   1.161
  890TIP3   OH2 2633   1.166   2.836   0.984
  890TIP3    H1 2634   1.124   2.775   0.923
  890TIP3    H2 2635   1.144   2.802   1.070
  891TIP3   OH2 2636   0.663   4.838   1.379
  891TIP3    H1 2637   0.617   4.767   1.334
  891TIP3    H2 2638   0.722   4.873   1.312
  892TIP3   OH2 2639   0.457   3.043   2.554
  892TIP3    H1 2640   0.513   3.118   2.537
  892TIP3    H2 2641   0.514   2.967   2.544
  893TIP3   OH2 2642   3.452   3.875   5.624
  893TIP3    H1 2643   3.381   3.811   5.620
  893TIP3    H2 2644   3.433   3.937   5.554
  894TIP3   OH2 2645   3.978   1.197   0.015
  894TIP3    H1 2646   3.995   1.291   0.008
  894TIP3    H2 2647   3.998   1.176   0.106
  895TIP3   OH2 2648   7.186   2.868   0.618
  895TIP3    H1 2649   7.117   2.933   0.609
  895TIP3    H2 2650   7.141   2.789   0.647
  896TIP3   OH2 2651   6.322   2.378   1.311
  896TIP3    H1 2652   6.376   2.420   1.378
  896TIP3    H2 2653   6.312   2.287   1.341
  897TIP3   OH2 2654   4.107   4.573   1.784
  897TIP3    H1 2655   4.078   4.641   1.725
  897TIP3    H2 2656   4.172   4.524   1.734
  898TIP3   OH2 2657   7.068   1.249   4.608
  898TIP3    H1 2658   7.147   1.303   4.614
  898TIP3    H2 2659   7.007   1.301   4.555
  899TIP3   OH2 2660   2.573   5.295   0.014
  899TIP3    H1 2661   2.628   5.219  -0.007
  899TIP3    H2 2662   2.509   5.262   0.076
  900TIP3   OH2 2663   5.836   3.997   4.798
  900TIP3    H1 2664   5.769   4.056   4.830
  900TIP3    H2 2665   5.847   3.932   4.868
  901TIP3   OH2 2666   0.870   1.298   4.935
  901TIP3    H1 2667   0.928   1.269   4.865
  901TIP3    H2 2668   0.783   1.266   4.909
  902TIP3   OH2 2669   1.686   1.181   1.891
  902TIP3    H1 2670   1.692   1.225   1.806
  902TIP3    H2 2671   1.715   1.247   1.954
  903TIP3   OH2 2672   0.342   4.306   0.856
  903TIP3    H1 2673   0.397   4.245   0.905
  903TIP3    H2 2674   0.403   4.374   0.825
  904TIP3   OH2 2675   3.434   2.067   5.787
  904TIP3    H1 2676   3.391   2.136   5.735
  904TIP3    H2 2677   3.388   1.987   5.764
  905TIP3   OH2 2678   0.949   6.539   5.479
  905TIP3    H1 2679   0.873   6.597   5.489
  905TIP3    H2 2680   0.925   6.482   5.406
  906TIP3   OH2 2681   4.988   0.022   1.647
  906TIP3    H1 2682   4.929   0.089   1.683
  906TIP3    H2 2683   5.048   0.071   1.591
  907TIP3   OH2 2684   5.312   6.440   5.304
  907TIP3    H1 2685   5.350   6.516   5.347
  907TIP3    H2 2686   5.382   6.375   5.303
  908TIP3   OH2 2687   1.985   5.396   1.841
  908TIP3    H1 2688   2.021   5.471   1.888
  908TIP3    H2 2689   2.047   5.325   1.859
  909TIP3   OH2 2690   2.795   0.722   5.743
  909TIP3    H1 2691   2.748   0.644   5.712
  909TIP3    H2 2692   2.888   0.700   5.730
  910TIP3   OH2 2693   5.206   1.627   5.800
  910TIP3    H1 2694   5.187   1.631   5.893
  910TIP3    H2 2695   5.279   1.565   5.793
  911TIP3   OH2 2696   5.260   2.914   4.122
  911TIP3    H1 2697   5.216   2.841   4.079
  911TIP3    H2 2698   5.274   2.978   4.053
  912TIP3   OH2 2699   3.234   0.580   3.122
  912TIP3    H1 2700   3.206   0.539   3.040
  912TIP3    H2 2701   3.326   0.556   3.130
  913TIP3   OH2 2702   4.493   2.502   1.659
  913TIP3    H1 2703   4.504   2.472   1.749
  913TIP3    H2 2704   4.447   2.585   1.667
  914TIP3   OH2 2705   4.735   2.817   4.610
  914TIP3    H1 2706   4.676   2.893   4.612
  914TIP3    H2 2707   4.795   2.832   4.683
  915TIP3   OH2 2708   5.282   5.137   3.708
  915TIP3    H1 2709   5.201   5.147   3.658
  915TIP3    H2 2710   5.301   5.044   3.705
  916TIP3   OH2 2711   4.894   1.263   5.483
  916TIP3    H1 2712   4.949   1.328   5.526
  916TIP3    H2 2713   4.953   1.190   5.464
  917TIP3   OH2 2714   1.236   0.919   4.907
  917TIP3    H1 2715   1.203   0.971   4.980
  917TIP3    H2 2716   1.331   0.926   4.914
  918TIP3   OH2 2717   4.064   1.603   3.972
  918TIP3    H1 2718   4.004   1.534   4.000
  918TIP3    H2 2719   4.146   1.558   3.955
  919TIP3   OH2 2720   0.503   0.210   4.042
  919TIP3    H1 2721   0.420   0.225   4.089
  919TIP3    H2 2722   0.506   0.116   4.028
  920TIP3   OH2 2723   2.524   1.347   1.161
  920TIP3    H1 2724   2.593   1.399   1.202
  920TIP3    H2 2725   2.497   1.284   1.228
  921TIP3   OH2 2726   5.846   6.356   2.107
  921TIP3    H1 2727   5.799   6.345   2.024
  921TIP3    H2 2728   5.931   6.392   2.082
  922TIP3   OH2 2729   0.274   4.300   3.069
  922TIP3    H1 2730   0.330   4.288   2.993
  922TIP3    H2 2731   0.332   4.293   3.144
  923TIP3   OH2 2732   6.236   2.525   1.934
  923TIP3    H1 2733   6.157   2.470   1.930
  923TIP3    H2 2734   6.306   2.470   1.899
  924TIP3   OH2 2735   1.487   6.491   0.440
  924TIP3    H1 2736   1.422   6.501   0.370
  924TIP3    H2 2737   1.460   6.412   0.487
  925TIP3   OH2 2738   3.783   6.147   1.354
  925TIP3    H1 2739   3.821   6.234   1.337
  925TIP3    H2 2740   3.729   6.129   1.277
  926TIP3   OH2 2741   7.007   0.373   1.048
  926TIP3    H1 2742   7.072   0.430   1.007
  926TIP3    H2 2743   6.944   0.434   1.088
  927TIP3   OH2 2744   6.521   4.747   5.199
  927TIP3    H1 2745   6.447   4.703   5.241
  927TIP3    H2 2746   6.547   4.689   5.128
  928TIP3   OH2 2747   4.506   6.285   0.081
  928TIP3    H1 2748   4.572   6.329   0.135
  928TIP3    H2 2749   4.434   6.348   0.074
  929TIP3   OH2 2750   6.018   0.433   4.945
  929TIP3    H1 2751   5.989   0.401   5.030
  929TIP3    H2 2752   6.095   0.487   4.965
  930TIP3   OH2 2753   5.401   1.560   0.335
  930TIP3    H1 2754   5.449   1.523   0.261
  930TIP3    H2 2755   5.451   1.534   0.412
  931TIP3   OH2 2756   1.391   1.671   0.036
  931TIP3    H1 2757   1.335   1.727  -0.016
  931TIP3    H2 2758   1.426   1.728   0.105
  932TIP3   OH2 2759   1.410   6.746   1.693
  932TIP3    H1 2760   1.409   6.838   1.668
  932TIP3    H2 2761   1.490   6.735   1.743
  933TIP3   OH2 2762   3.277   2.386   3.444
  933TIP3    H1 2763   3.231   2.302   3.437
  933TIP3    H2 2764   3.361   2.364   3.484
  934TIP3   OH2 2765   5.533   0.662   3.764
  934TIP3    H1 2766   5.543   0.657   3.860
  934TIP3    H2 2767   5.440   0.676   3.750
  935TIP3   OH2 2768   0.665   5.052   3.493
  935TIP3    H1 2769   0.602   5.021   3.557
  935TIP3    H2 2770   0.744   5.072   3.543
  936TIP3   OH2 2771   4.465   3.736   5.203
  936TIP3    H1 2772   4.487   3.675   5.133
  936TIP3    H2 2773   4.495   3.694   5.283
  937TIP3   OH2 2774   5.376   1.726   0.586
  937TIP3    H1 2775   5.291   1.700   0.552
  937TIP3    H2 2776   5.358   1.805   0.637
  938TIP3   OH2 2777   4.086   6.225   3.494
  938TIP3    H1 2778   4.052   6.262   3.575
  938TIP3    H2 2779   4.016   6.241   3.430
  939TIP3   OH2 2780   3.278   6.757   3.757
  939TIP3    H1 2781   3.301   6.789   3.844
  939TIP3    H2 2782   3.333   6.679   3.746
  940TIP3   OH2 2783   5.127   6.567   0.014
  940TIP3    H1 2784   5.055   6.517  -0.025
  940TIP3    H2 2785   5.199   6.505   0.021
  941TIP3   OH2 2786   2.524   6.100   5.218
  941TIP3    H1 2787   2.585   6.132   5.285
  941TIP3    H2 2788   2.557   6.137   5.137
  942TIP3   OH2 2789   2.020   2.761   5.340
  942TIP3    H1 2790   1.927   2.758   5.362
  942TIP3    H2 2791   2.024   2.811   5.259
  943TIP3   OH2 2792   5.096   6.080   0.221
  943TIP3    H1 2793   5.008   6.043   0.221
  943TIP3    H2 2794   5.142   6.034   0.150
  944TIP3   OH2 2795   3.863   2.975   4.818
  944TIP3    H1 2796   3.913   3.052   4.845
  944TIP3    H2 2797   3.916   2.901   4.848
  945TIP3   OH2 2798   1.298   3.978   2.788
  945TIP3    H1 2799   1.207   3.949   2.793
  945TIP3    H2 2800   1.349   3.897   2.795
  946TIP3   OH2 2801   5.428   3.158   3.604
  946TIP3    H1 2802   5.485   3.137   3.678
  946TIP3    H2 2803   5.390   3.243   3.627
  947TIP3   OH2 2804   6.805   6.055   3.056
  947TIP3    H1 2805   6.841   6.124   3.112
  947TIP3    H2 2806   6.832   5.974   3.097
  948TIP3   OH2 2807   3.345   5.394   2.305
  948TIP3    H1 2808   3.267   5.339   2.299
  948TIP3    H2 2809   3.313   5.482   2.286
  949TIP3   OH2 2810   2.767   2.874   5.200
  949TIP3    H1 2811   2.752   2.922   5.119
  949TIP3    H2 2812   2.686   2.885   5.250
  950TIP3   OH2 2813   6.584   5.238   5.545
  950TIP3    H1 2814   6.498   5.229   5.586
  950TIP3    H2 2815   6.568   5.228   5.451
  951TIP3   OH2 2816   7.070   1.038   2.580
  951TIP3    H1 2817   7.161   1.009   2.572
  951TIP3    H2 2818   7.018   0.960   2.561
  952TIP3   OH2 2819   0.106   1.749   5.538
  952TIP3    H1 2820   0.185   1.792   5.570
  952TIP3    H2 2821   0.092   1.675   5.598
  953TIP3   OH2 2822   5.469   1.379   4.390
  953TIP3    H1 2823   5.563   1.369   4.403
  953TIP3    H2 2824   5.445   1.307   4.331
  954TIP3   OH2 2825   3.074   2.887   2.125
  954TIP3    H1 2826   3.155   2.837   2.133
  954TIP3    H2 2827   3.009   2.837   2.176
  955TIP3   OH2 2828   2.216   5.931   4.201
  955TIP3    H1 2829   2.180   5.860   4.253
  955TIP3    H2 2830   2.196   5.907   4.110
  956TIP3   OH2 2831   5.074   4.881   1.463
  956TIP3    H1 2832   5.154   4.930   1.443
  956TIP3    H2 2833   5.003   4.944   1.454
  957TIP3   OH2 2834   7.147   4.003   2.599
  957TIP3    H1 2835   7.113   4.031   2.684
  957TIP3    H2 2836   7.158   3.909   2.606
  958TIP3   OH2 2837   0.497   3.908   0.812
  958TIP3    H1 2838   0.438   3.852   0.863
  958TIP3    H2 2839   0.494   3.871   0.724
  959TIP3   OH2 2840   6.811   5.700   4.768
  959TIP3    H1 2841   6.761   5.763   4.822
  959TIP3    H2 2842   6.767   5.701   4.683
  960TIP3   OH2 2843   0.754   0.717   0.241
  960TIP3    H1 2844   0.752   0.674   0.155
  960TIP3    H2 2845   0.735   0.809   0.222
  961TIP3   OH2 2846   1.129   1.871   5.471
  961TIP3    H1 2847   1.036   1.894   5.467
  961TIP3    H2 2848   1.171   1.934   5.411
  962TIP3   OH2 2849   6.404   1.212   0.991
  962TIP3    H1 2850   6.420   1.175   1.078
  962TIP3    H2 2851   6.308   1.218   0.985
  963TIP3   OH2 2852   3.721   6.078   3.656
  963TIP3    H1 2853   3.801   6.074   3.707
  963TIP3    H2 2854   3.673   6.152   3.692
  964TIP3   OH2 2855   6.818   4.129   5.800
  964TIP3    H1 2856   6.862   4.182   5.866
  964TIP3    H2 2857   6.727   4.125   5.829
  965TIP3   OH2 2858   0.888   1.388   3.811
  965TIP3    H1 2859   0.850   1.331   3.745
  965TIP3    H2 2860   0.924   1.327   3.877
  966TIP3   OH2 2861   6.520   5.696   3.314
  966TIP3    H1 2862   6.467   5.672   3.390
  966TIP3    H2 2863   6.477   5.774   3.279
  967TIP3   OH2 2864   5.756   1.466   4.973
  967TIP3    H1 2865   5.725   1.437   4.887
  967TIP3    H2 2866   5.715   1.405   5.035
  968TIP3   OH2 2867   2.022   2.154   4.587
  968TIP3    H1 2868   1.953   2.193   4.534
  968TIP3    H2 2869   2.104   2.185   4.547
  969TIP3   OH2 2870   1.243   0.942   3.136
  969TIP3    H1 2871   1.292   0.946   3.218
  969TIP3    H2 2872   1.151   0.941   3.163
  970TIP3   OH2 2873   5.103   5.791   2.422
  970TIP3    H1 2874   5.147   5.779   2.507
  970TIP3    H2 2875   5.019   5.831   2.445
  971TIP3   OH2 2876   5.979   2.744   0.483
  971TIP3    H1 2877   5.906   2.804   0.498
  971TIP3    H2 2878   5.953   2.662   0.525
  972TIP3   OH2 2879   0.600   3.262   1.076
  972TIP3    H1 2880   0.658   3.328   1.114
  972TIP3    H2 2881   0.512   3.295   1.092
  973TIP3   OH2 2882   4.891   1.406   3.519
  973TIP3    H1 2883   4.924   1.326   3.479
  973TIP3    H2 2884   4.961   1.469   3.507
  974TIP3   OH2 2885   3.574   4.176   2.480
  974TIP3    H1 2886   3.550   4.149   2.391
  974TIP3    H2 2887   3.668   4.160   2.485
  975TIP3   OH2 2888   1.408   1.047   2.527
  975TIP3    H1 2889   1.474   1.057   2.459
  975TIP3    H2 2890   1.418   0.957   2.557
  976TIP3   OH2 2891   0.204   0.462   3.310
  976TIP3    H1 2892   0.222   0.524   3.381
  976TIP3    H2 2893   0.253   0.383   3.335
  977TIP3   OH2 2894   2.474   1.041   0.457
  977TIP3    H1 2895   2.511   1.129   0.451
  977TIP3    H2 2896   2.521   0.991   0.391
  978TIP3   OH2 2897   0.381   6.348   1.873
  978TIP3    H1 2898   0.332   6.283   1.925
  978TIP3    H2 2899   0.362   6.324   1.782
  979TIP3   OH2 2900   0.968   4.227   3.436
  979TIP3    H1 2901   0.927   4.292   3.378
  979TIP3    H2 2902   1.014   4.279   3.501
  980TIP3   OH2 2903   2.910   5.103   2.384
  980TIP3    H1 2904   2.985   5.121   2.441
  980TIP3    H2 2905   2.836   5.147   2.426
  981TIP3   OH2 2906   1.209   3.711   0.985
  981TIP3    H1 2907   1.197   3.726   1.079
  981TIP3    H2 2908   1.129   3.667   0.957
  982TIP3   OH2 2909   3.096   4.730   3.980
  982TIP3    H1 2910   3.184   4.750   4.011
  982TIP3    H2 2911   3.070   4.806   3.928
  983TIP3   OH2 2912   6.387   5.221   2.405
  983TIP3    H1 2913   6.342   5.284   2.348
  983TIP3    H2 2914   6.319   5.157   2.428
  984TIP3   OH2 2915   6.653   1.571   3.565
  984TIP3    H1 2916   6.595   1.494   3.572
  984TIP3    H2 2917   6.740   1.534   3.555
  985TIP3   OH2 2918   6.619   3.187   0.426
  985TIP3    H1 2919   6.536   3.214   0.387
  985TIP3    H2 2920   6.648   3.263   0.476
  986TIP3   OH2 2921   3.659   2.784   5.412
  986TIP3    H1 2922   3.740   2.836   5.415
  986TIP3    H2 2923   3.649   2.761   5.320
  987TIP3   OH2 2924   2.364   5.994   5.573
  987TIP3    H1 2925   2.332   5.938   5.502
  987TIP3    H2 2926   2.366   5.937   5.650
  988TIP3   OH2 2927   0.389   3.759   0.287
  988TIP3    H1 2928   0.422   3.668   0.290
  988TIP3    H2 2929   0.294   3.750   0.288
  989TIP3   OH2 2930   1.216   3.118   0.668
  989TIP3    H1 2931   1.166   3.163   0.600
  989TIP3    H2 2932   1.287   3.178   0.689
  990TIP3   OH2 2933   3.171   5.897   4.280
  990TIP3    H1 2934   3.153   5.834   4.350
  990TIP3    H2 2935   3.092   5.894   4.225
  991TIP3   OH2 2936   6.059   1.755   5.869
  991TIP3    H1 2937   6.040   1.834   5.818
  991TIP3    H2 2938   5.982   1.699   5.855
  992TIP3   OH2 2939   6.369   0.149   4.830
  992TIP3    H1 2940   6.430   0.085   4.868
  992TIP3    H2 2941   6.283   0.110   4.844
  993TIP3   OH2 2942   3.500   0.187   1.648
  993TIP3    H1 2943   3.591   0.163   1.636
  993TIP3    H2 2944   3.500   0.282   1.655
  994TIP3   OH2 2945   6.230   0.717   3.123
  994TIP3    H1 2946   6.135   0.726   3.131
  994TIP3    H2 2947   6.262   0.715   3.213
  995TIP3   OH2 2948   0.529   6.414   5.422
  995TIP3    H1 2949   0.477   6.338   5.449
  995TIP3    H2 2950   0.618   6.394   5.453
  996TIP3   OH2 2951   2.137   1.292   5.175
  996TIP3    H1 2952   2.213   1.323   5.126
  996TIP3    H2 2953   2.103   1.371   5.218
  997TIP3   OH2 2954   2.672   4.690   4.051
  997TIP3    H1 2955   2.755   4.652   4.024
  997TIP3    H2 2956   2.672   4.778   4.013
  998TIP3   OH2 2957   3.679   4.900   4.791
  998TIP3    H1 2958   3.679   4.805   4.784
  998TIP3    H2 2959   3.589   4.923   4.812
  999TIP3   OH2 2960   0.232   5.474   3.249
  999TIP3    H1 2961   0.177   5.531   3.302
  999TIP3    H2 2962   0.218   5.503   3.159
 1000TIP3   OH2 2963   6.877   1.790   2.658
 1000TIP3    H1 2964   6.784   1.790   2.683
 1000TIP3    H2 2965   6.918   1.726   2.716
 1001TIP3   OH2 2966   0.701   5.516   2.358
 1001TIP3    H1 2967   0.613   5.545   2.332
 1001TIP3    H2 2968   0.687   5.466   2.438
 1002TIP3   OH2 2969   7.051   2.147   4.444
 1002TIP3    H1 2970   6.991   2.157   4.370
 1002TIP3    H2 2971   7.050   2.232   4.487
 1003TIP3   OH2 2972   5.860   5.803   5.861
 1003TIP3    H1 2973   5.789   5.763   5.811
 1003TIP3    H2 2974   5.910   5.854   5.797
 1004TIP3   OH2 2975   3.091   4.108   3.773
 1004TIP3    H1 2976   3.013   4.156   3.801
 1004TIP3    H2 2977   3.163   4.156   3.814
 1005TIP3   OH2 2978   7.090   1.132   4.064
 1005TIP3    H1 2979   7.008   1.180   4.076
 1005TIP3    H2 2980   7.157   1.200   4.058
 1006TIP3   OH2 2981   1.305   2.087   4.322
 1006TIP3    H1 2982   1.266   2.142   4.255
 1006TIP3    H2 2983   1.238   2.022   4.343
 1007TIP3   OH2 2984   1.292   4.907   0.165
 1007TIP3    H1 2985   1.362   4.848   0.139
 1007TIP3    H2 2986   1.299   4.981   0.105
 1008TIP3   OH2 2987   3.050   6.107   1.122
 1008TIP3    H1 2988   2.994   6.083   1.196
 1008TIP3    H2 2989   2.998   6.169   1.071
 1009TIP3   OH2 2990   0.778   0.099   5.085
 1009TIP3    H1 2991   0.774   0.148   5.003
 1009TIP3    H2 2992   0.710   0.033   5.076
 1010TIP3   OH2 2993   3.849   3.372   5.890
 1010TIP3    H1 2994   3.931   3.323   5.889
 1010TIP3    H2 2995   3.784   3.311   5.855
 1011TIP3   OH2 2996   6.287   4.959   3.434
 1011TIP3    H1 2997   6.327   4.905   3.366
 1011TIP3    H2 2998   6.361   4.996   3.481
 1012TIP3   OH2 2999   4.790   3.283   4.376
 1012TIP3    H1 3000   4.812   3.376   4.368
 1012TIP3    H2 3001   4.791   3.265   4.470
 1013TIP3   OH2 3002   2.223   6.456   2.650
 1013TIP3    H1 3003   2.171   6.380   2.675
 1013TIP3    H2 3004   2.310   6.437   2.684
 1014TIP3   OH2 3005   4.999   0.809   3.957
 1014TIP3    H1 3006   5.008   0.892   3.910
 1014TIP3    H2 3007   4.905   0.791   3.958
 1015TIP3   OH2 3008   1.160   6.509   5.142
 1015TIP3    H1 3009   1.201   6.497   5.228
 1015TIP3    H2 3010   1.180   6.599   5.118
 1016TIP3   OH2 3011   3.222   2.500   2.280
 1016TIP3    H1 3012   3.209   2.541   2.365
 1016TIP3    H2 3013   3.150   2.438   2.271
 1017TIP3   OH2 3014   2.510   6.634   5.673
 1017TIP3    H1 3015   2.572   6.686   5.724
 1017TIP3    H2 3016   2.536   6.646   5.582
 1018TIP3   OH2 3017   0.331   5.104   5.353
 1018TIP3    H1 3018   0.333   5.104   5.257
 1018TIP3    H2 3019   0.288   5.186   5.376
 1019TIP3   OH2 3020   5.169   4.235   2.242
 1019TIP3    H1 3021   5.122   4.276   2.315
 1019TIP3    H2 3022   5.101   4.219   2.176
 1020TIP3   OH2 3023   0.479   1.817   2.139
 1020TIP3    H1 3024   0.555   1.801   2.195
 1020TIP3    H2 3025   0.486   1.909   2.114
 1021TIP3   OH2 3026   4.956   0.285   0.553
 1021TIP3    H1 3027   4.965   0.208   0.496
 1021TIP3    H2 3028   4.917   0.352   0.496
 1022TIP3   OH2 3029   6.612   5.336   4.637
 1022TIP3    H1 3030   6.628   5.425   4.666
 1022TIP3    H2 3031   6.569   5.346   4.552
 1023TIP3   OH2 3032   5.410   0.016   2.042
 1023TIP3    H1 3033   5.332  -0.027   2.078
 1023TIP3    H2 3034   5.375   0.081   1.981
 1024TIP3   OH2 3035   3.270   4.015   2.784
 1024TIP3    H1 3036   3.231   4.102   2.775
 1024TIP3    H2 3037   3.364   4.032   2.795
 1025TIP3   OH2 3038   0.667   5.813   0.333
 1025TIP3    H1 3039   0.737   5.749   0.319
 1025TIP3    H2 3040   0.586   5.765   0.316
 1026TIP3   OH2 3041   1.028   3.059   0.042
 1026TIP3    H1 3042   1.124   3.058   0.033
 1026TIP3    H2 3043   1.001   2.971   0.018
 1027TIP3   OH2 3044   4.059   2.114   1.091
 1027TIP3    H1 3045   4.130   2.052   1.075
 1027TIP3    H2 3046   4.029   2.139   1.004
 1028TIP3   OH2 3047   0.739   4.936   0.797
 1028TIP3    H1 3048   0.656   4.910   0.756
 1028TIP3    H2 3049   0.722   4.929   0.891
 1029TIP3   OH2 3050   1.903   5.788   0.509
 1029TIP3    H1 3051   1.882   5.861   0.566
 1029TIP3    H2 3052   1.996   5.799   0.489
 1030TIP3   OH2 3053   0.650   2.227   0.558
 1030TIP3    H1 3054   0.645   2.319   0.531
 1030TIP3    H2 3055   0.726   2.223   0.615
 1031TIP3   OH2 3056   3.731   6.573   1.696
 1031TIP3    H1 3057   3.645   6.569   1.738
 1031TIP3    H2 3058   3.778   6.496   1.729
 1032TIP3   OH2 3059   1.008   3.588   3.880
 1032TIP3    H1 3060   1.094   3.575   3.919
 1032TIP3    H2 3061   1.026   3.598   3.786
 1033TIP3   OH2 3062   0.870   5.621   5.636
 1033TIP3    H1 3063   0.856   5.643   5.544
 1033TIP3    H2 3064   0.891   5.527   5.636
 1034TIP3   OH2 3065   5.341   3.730   3.777
 1034TIP3    H1 3066   5.329   3.753   3.685
 1034TIP3    H2 3067   5.287   3.651   3.788
 1035TIP3   OH2 3068   2.086   6.616   3.260
 1035TIP3    H1 3069   2.141   6.652   3.329
 1035TIP3    H2 3070   2.094   6.521   3.269
 1036TIP3   OH2 3071   4.123   3.690   4.376
 1036TIP3    H1 3072   4.193   3.754   4.367
 1036TIP3    H2 3073   4.070   3.722   4.448
 1037TIP3   OH2 3074   5.598   3.025   0.236
 1037TIP3    H1 3075   5.653   2.980   0.173
 1037TIP3    H2 3076   5.523   3.057   0.185
 1038TIP3   OH2 3077   2.922   4.775   1.558
 1038TIP3    H1 3078   2.902   4.868   1.544
 1038TIP3    H2 3079   2.889   4.732   1.479
 1039TIP3   OH2 3080   5.057   3.268   3.856
 1039TIP3    H1 3081   5.002   3.299   3.928
 1039TIP3    H2 3082   5.092   3.348   3.817
 1040TIP3   OH2 3083   2.343   5.459   1.217
 1040TIP3    H1 3084   2.271   5.522   1.217
 1040TIP3    H2 3085   2.393   5.480   1.297
 1041TIP3   OH2 3086   5.243   4.230   0.501
 1041TIP3    H1 3087   5.216   4.181   0.579
 1041TIP3    H2 3088   5.170   4.288   0.482
 1042TIP3   OH2 3089   1.301   2.658   4.720
 1042TIP3    H1 3090   1.394   2.637   4.725
 1042TIP3    H2 3091   1.258   2.572   4.711
 1043TIP3   OH2 3092   6.527   6.782   2.417
 1043TIP3    H1 3093   6.482   6.751   2.495
 1043TIP3    H2 3094   6.541   6.703   2.365
 1044TIP3   OH2 3095   2.155   0.827   1.890
 1044TIP3    H1 3096   2.246   0.831   1.920
 1044TIP3    H2 3097   2.161   0.814   1.796
 1045TIP3   OH2 3098   3.887   0.212   5.145
 1045TIP3    H1 3099   3.794   0.235   5.147
 1045TIP3    H2 3100   3.888   0.117   5.155
 1046TIP3   OH2 3101   0.639   1.248   3.938
 1046TIP3    H1 3102   0.733   1.235   3.948
 1046TIP3    H2 3103   0.600   1.179   3.992
 1047TIP3   OH2 3104   5.104   3.668   2.632
 1047TIP3    H1 3105   5.170   3.658   2.564
 1047TIP3    H2 3106   5.023   3.690   2.585
 1048TIP3   OH2 3107   6.385   0.002   3.538
 1048TIP3    H1 3108   6.333   0.081   3.553
 1048TIP3    H2 3109   6.419  -0.021   3.624
 1049TIP3   OH2 3110   0.058   0.390   1.846
 1049TIP3    H1 3111   0.118   0.458   1.880
 1049TIP3    H2 3112   0.058   0.404   1.751
 1050TIP3   OH2 3113   1.524   2.180   2.862
 1050TIP3    H1 3114   1.483   2.262   2.832
 1050TIP3    H2 3115   1.524   2.124   2.785
 1051TIP3   OH2 3116   2.270   2.624   5.370
 1051TIP3    H1 3117   2.187   2.651   5.331
 1051TIP3    H2 3118   2.333   2.689   5.338
 1052TIP3   OH2 3119   0.749   0.330   3.276
 1052TIP3    H1 3120   0.734   0.236   3.267
 1052TIP3    H2 3121   0.764   0.361   3.187
 1053TIP3   OH2 3122   6.563   4.608   2.017
 1053TIP3    H1 3123   6.543   4.562   2.099
 1053TIP3    H2 3124   6.652   4.642   2.030
 1054TIP3   OH2 3125   2.984   0.966   2.926
 1054TIP3    H1 3126   3.016   0.878   2.944
 1054TIP3    H2 3127   3.053   1.006   2.872
 1055TIP3   OH2 3128   0.932   4.272   1.556
 1055TIP3    H1 3129   0.884   4.325   1.621
 1055TIP3    H2 3130   1.017   4.315   1.549
 1056TIP3   OH2 3131   5.670   0.149   2.401
 1056TIP3    H1 3132   5.593   0.133   2.456
 1056TIP3    H2 3133   5.660   0.240   2.372
 1057TIP3   OH2 3134   1.755   0.482   5.374
 1057TIP3    H1 3135   1.732   0.560   5.324
 1057TIP3    H2 3136   1.821   0.511   5.437
 1058TIP3   OH2 3137   2.233   2.784   0.790
 1058TIP3    H1 3138   2.180   2.757   0.715
 1058TIP3    H2 3139   2.306   2.723   0.790
 1059TIP3   OH2 3140   5.248   1.664   5.051
 1059TIP3    H1 3141   5.188   1.590   5.044
 1059TIP3    H2 3142   5.297   1.647   5.131
 1060TIP3   OH2 3143   1.185   1.301   5.881
 1060TIP3    H1 3144   1.210   1.223   5.831
 1060TIP3    H2 3145   1.137   1.355   5.819
 1061TIP3   OH2 3146   6.374   2.763   1.311
 1061TIP3    H1 3147   6.370   2.679   1.357
 1061TIP3    H2 3148   6.316   2.820   1.361
 1062TIP3   OH2 3149   7.129   6.611   4.634
 1062TIP3    H1 3150   7.115   6.556   4.711
 1062TIP3    H2 3151   7.136   6.549   4.561
 1063TIP3   OH2 3152   6.953   1.397   3.865
 1063TIP3    H1 3153   7.030   1.427   3.914
 1063TIP3    H2 3154   6.979   1.403   3.773
 1064TIP3   OH2 3155   5.973   0.415   0.712
 1064TIP3    H1 3156   5.898   0.356   0.715
 1064TIP3    H2 3157   6.043   0.364   0.671
 1065TIP3   OH2 3158   0.507   4.778   3.418
 1065TIP3    H1 3159   0.509   4.872   3.400
 1065TIP3    H2 3160   0.457   4.771   3.500
 1066TIP3   OH2 3161   2.099   3.787   3.310
 1066TIP3    H1 3162   2.160   3.781   3.383
 1066TIP3    H2 3163   2.042   3.860   3.332
 1067TIP3   OH2 3164   2.837   6.477   2.030
 1067TIP3    H1 3165   2.775   6.412   2.063
 1067TIP3    H2 3166   2.922   6.435   2.037
 1068TIP3   OH2 3167   2.308   0.777   0.478
 1068TIP3    H1 3168   2.241   0.798   0.413
 1068TIP3    H2 3169   2.332   0.861   0.516
 1069TIP3   OH2 3170  -0.011   5.160   3.877
 1069TIP3    H1 3171   0.041   5.081   3.893
 1069TIP3    H2 3172   0.050   5.233   3.891
 1070TIP3   OH2 3173   1.104   2.067   0.441
 1070TIP3    H1 3174   1.187   2.077   0.487
 1070TIP3    H2 3175   1.061   2.152   0.449
 1071TIP3   OH2 3176   1.522   1.361   1.077
 1071TIP3    H1 3177   1.527   1.323   1.165
 1071TIP3    H2 3178   1.435   1.340   1.046
 1072TIP3   OH2 3179   6.897   5.401   3.912
 1072TIP3    H1 3180   6.952   5.382   3.988
 1072TIP3    H2 3181   6.959   5.416   3.841
 1073TIP3   OH2 3182   4.025   4.527   1.241
 1073TIP3    H1 3183   3.962   4.600   1.244
 1073TIP3    H2 3184   3.976   4.451   1.271
 1074TIP3   OH2 3185   1.329   3.006   5.320
 1074TIP3    H1 3186   1.236   3.019   5.335
 1074TIP3    H2 3187   1.373   3.063   5.383
 1075TIP3   OH2 3188   6.783   3.235   5.478
 1075TIP3    H1 3189   6.709   3.218   5.420
 1075TIP3    H2 3190   6.746   3.238   5.566
 1076TIP3   OH2 3191   0.157   5.540   1.575
 1076TIP3    H1 3192   0.125   5.619   1.531
 1076TIP3    H2 3193   0.192   5.571   1.658
 1077TIP3   OH2 3194   2.706   2.569   1.238
 1077TIP3    H1 3195   2.769   2.524   1.182
 1077TIP3    H2 3196   2.750   2.650   1.263
 1078TIP3   OH2 3197   3.201   3.417   0.523
 1078TIP3    H1 3198   3.204   3.322   0.520
 1078TIP3    H2 3199   3.111   3.439   0.498
 1079TIP3   OH2 3200   6.060   3.728   3.970
 1079TIP3    H1 3201   6.021   3.680   3.898
 1079TIP3    H2 3202   6.041   3.676   4.048
 1080TIP3   OH2 3203   2.721   0.775   4.316
 1080TIP3    H1 3204   2.685   0.695   4.278
 1080TIP3    H2 3205   2.721   0.760   4.410
 1081TIP3   OH2 3206   4.831   6.554   5.319
 1081TIP3    H1 3207   4.846   6.485   5.255
 1081TIP3    H2 3208   4.849   6.512   5.403
 1082TIP3   OH2 3209   2.089   4.082   3.407
 1082TIP3    H1 3210   2.118   4.028   3.480
 1082TIP3    H2 3211   2.052   4.160   3.448
 1083TIP3   OH2 3212   4.055   5.783   5.838
 1083TIP3    H1 3213   3.978   5.820   5.879
 1083TIP3    H2 3214   4.113   5.759   5.910
 1084TIP3   OH2 3215   0.944   6.392   3.555
 1084TIP3    H1 3216   1.022   6.356   3.514
 1084TIP3    H2 3217   0.871   6.351   3.509
 1085TIP3   OH2 3218   2.359   5.431   3.701
 1085TIP3    H1 3219   2.297   5.484   3.751
 1085TIP3    H2 3220   2.399   5.373   3.766
 1086TIP3   OH2 3221   2.229   4.062   2.645
 1086TIP3    H1 3222   2.183   4.013   2.576
 1086TIP3    H2 3223   2.275   3.995   2.695
 1087TIP3   OH2 3224   1.637   6.287   0.068
 1087TIP3    H1 3225   1.555   6.240   0.051
 1087TIP3    H2 3226   1.611   6.379   0.071
 1088TIP3   OH2 3227   6.876   2.808   4.774
 1088TIP3    H1 3228   6.961   2.768   4.757
 1088TIP3    H2 3229   6.838   2.756   4.845
 1089TIP3   OH2 3230   6.954   1.031   2.263
 1089TIP3    H1 3231   6.940   0.937   2.261
 1089TIP3    H2 3232   7.047   1.042   2.247
 1090TIP3   OH2 3233   2.900   1.744   2.559
 1090TIP3    H1 3234   2.886   1.820   2.503
 1090TIP3    H2 3235   2.856   1.673   2.514
 1091TIP3   OH2 3236   5.580   6.649   0.452
 1091TIP3    H1 3237   5.580   6.744   0.456
 1091TIP3    H2 3238   5.502   6.627   0.400
 1092TIP3   OH2 3239   0.363   4.658   0.544
 1092TIP3    H1 3240   0.401   4.576   0.575
 1092TIP3    H2 3241   0.412   4.726   0.590
 1093TIP3   OH2 3242   1.468   2.886   2.690
 1093TIP3    H1 3243   1.559   2.917   2.698
 1093TIP3    H2 3244   1.476   2.802   2.644
 1094TIP3   OH2 3245   4.058   6.126   3.137
 1094TIP3    H1 3246   4.116   6.050   3.135
 1094TIP3    H2 3247   4.054   6.155   3.046
 1095TIP3   OH2 3248   1.198   1.767   5.132
 1095TIP3    H1 3249   1.115   1.726   5.156
 1095TIP3    H2 3250   1.175   1.855   5.102
 1096TIP3   OH2 3251   3.688   0.056   3.242
 1096TIP3    H1 3252   3.747   0.045   3.316
 1096TIP3    H2 3253   3.634  -0.023   3.242
 1097TIP3   OH2 3254   3.968   1.709   0.008
 1097TIP3    H1 3255   3.888   1.740   0.050
 1097TIP3    H2 3256   4.028   1.692   0.081
 1098TIP3   OH2 3257   0.963   6.110   4.198
 1098TIP3    H1 3258   0.936   6.125   4.107
 1098TIP3    H2 3259   1.052   6.145   4.203
 1099TIP3   OH2 3260   2.943   5.526   3.817
 1099TIP3    H1 3261   3.011   5.477   3.862
 1099TIP3    H2 3262   2.918   5.471   3.743
 1100TIP3   OH2 3263   6.935   6.762   5.035
 1100TIP3    H1 3264   6.870   6.719   4.981
 1100TIP3    H2 3265   6.962   6.839   4.985
 1101TIP3   OH2 3266   6.586   1.791   5.114
 1101TIP3    H1 3267   6.510   1.735   5.101
 1101TIP3    H2 3268   6.652   1.734   5.154
 1102TIP3   OH2 3269   0.205   6.693   1.841
 1102TIP3    H1 3270   0.114   6.713   1.863
 1102TIP3    H2 3271   0.213   6.711   1.748
 1103TIP3   OH2 3272   3.825   0.350   5.449
 1103TIP3    H1 3273   3.807   0.310   5.364
 1103TIP3    H2 3274   3.905   0.400   5.436
 1104TIP3   OH2 3275   0.686   1.805   4.498
 1104TIP3    H1 3276   0.769   1.767   4.468
 1104TIP3    H2 3277   0.646   1.842   4.420
 1105TIP3   OH2 3278   0.375   2.935   1.419
 1105TIP3    H1 3279   0.350   2.919   1.510
 1105TIP3    H2 3280   0.444   2.871   1.401
 1106TIP3   OH2 3281   1.537   0.920   4.953
 1106TIP3    H1 3282   1.559   0.883   4.867
 1106TIP3    H2 3283   1.620   0.922   5.000
 1107TIP3   OH2 3284   4.584   3.057   4.587
 1107TIP3    H1 3285   4.662   3.111   4.597
 1107TIP3    H2 3286   4.538   3.094   4.512
 1108TIP3   OH2 3287   1.749   3.587   4.350
 1108TIP3    H1 3288   1.682   3.526   4.380
 1108TIP3    H2 3289   1.753   3.575   4.255
 1109TIP3   OH2 3290   4.099   3.620   1.015
 1109TIP3    H1 3291   4.195   3.613   1.011
 1109TIP3    H2 3292   4.076   3.591   1.103
 1110TIP3   OH2 3293   5.259   6.279   3.590
 1110TIP3    H1 3294   5.280   6.291   3.497
 1110TIP3    H2 3295   5.271   6.366   3.629
 1111TIP3   OH2 3296   0.305   6.377   1.285
 1111TIP3    H1 3297   0.322   6.288   1.252
 1111TIP3    H2 3298   0.283   6.428   1.208
 1112TIP3   OH2 3299   1.225   3.938   3.178
 1112TIP3    H1 3300   1.295   3.979   3.128
 1112TIP3    H2 3301   1.145   3.980   3.147
 1113TIP3   OH2 3302   0.270   6.632   2.109
 1113TIP3    H1 3303   0.272   6.633   2.014
 1113TIP3    H2 3304   0.294   6.721   2.134
 1114TIP3   OH2 3305   6.274   2.892   0.005
 1114TIP3    H1 3306   6.292   2.821   0.067
 1114TIP3    H2 3307   6.357   2.909  -0.039
 1115TIP3   OH2 3308   1.567   5.212   3.740
 1115TIP3    H1 3309   1.585   5.120   3.719
 1115TIP3    H2 3310   1.482   5.210   3.784
 1116TIP3   OH2 3311   1.954   4.798   2.094
 1116TIP3    H1 3312   1.953   4.835   2.182
 1116TIP3    H2 3313   1.939   4.873   2.036
 1117TIP3   OH2 3314   6.384   5.745   3.550
 1117TIP3    H1 3315   6.445   5.807   3.589
 1117TIP3    H2 3316   6.385   5.670   3.608
 1118TIP3   OH2 3317   2.488   2.523   3.925
 1118TIP3    H1 3318   2.412   2.466   3.942
 1118TIP3    H2 3319   2.463   2.574   3.848
 1119TIP3   OH2 3320   4.540   5.809   1.489
 1119TIP3    H1 3321   4.521   5.835   1.399
 1119TIP3    H2 3322   4.634   5.820   1.498
 1120TIP3   OH2 3323   2.887   0.129   4.681
 1120TIP3    H1 3324   2.878   0.191   4.608
 1120TIP3    H2 3325   2.862   0.045   4.645
 1121TIP3   OH2 3326   7.104   6.645   5.427
 1121TIP3    H1 3327   7.171   6.577   5.433
 1121TIP3    H2 3328   7.054   6.637   5.509
 1122TIP3   OH2 3329   0.481   5.399   4.594
 1122TIP3    H1 3330   0.566   5.397   4.639
 1122TIP3    H2 3331   0.419   5.429   4.661
 1123TIP3   OH2 3332   4.815   3.177   4.632
 1123TIP3    H1 3333   4.785   3.232   4.704
 1123TIP3    H2 3334   4.896   3.138   4.663
 1124TIP3   OH2 3335   0.056   0.581   0.281
 1124TIP3    H1 3336   0.014   0.645   0.339
 1124TIP3    H2 3337   0.112   0.634   0.224
 1125TIP3   OH2 3338   6.882   1.467   4.758
 1125TIP3    H1 3339   6.849   1.434   4.674
 1125TIP3    H2 3340   6.804   1.472   4.814
 1126TIP3   OH2 3341   5.911   6.489   2.577
 1126TIP3    H1 3342   5.907   6.396   2.601
 1126TIP3    H2 3343   5.996   6.519   2.609
 1127TIP3   OH2 3344   6.876   1.940   5.721
 1127TIP3    H1 3345   6.852   1.847   5.720
 1127TIP3    H2 3346   6.920   1.952   5.805
 1128TIP3   OH2 3347   0.812   0.783   4.351
 1128TIP3    H1 3348   0.810   0.768   4.257
 1128TIP3    H2 3349   0.893   0.830   4.367
 1129TIP3   OH2 3350   3.343   2.185   4.767
 1129TIP3    H1 3351   3.279   2.128   4.725
 1129TIP3    H2 3352   3.327   2.271   4.729
 1130TIP3   OH2 3353   3.849   5.901   2.952
 1130TIP3    H1 3354   3.779   5.843   2.923
 1130TIP3    H2 3355   3.929   5.861   2.919
 1131TIP3   OH2 3356   6.822   5.982   1.253
 1131TIP3    H1 3357   6.791   6.022   1.335
 1131TIP3    H2 3358   6.875   6.050   1.212
 1132TIP3   OH2 3359   5.676   4.196   4.897
 1132TIP3    H1 3360   5.665   4.163   4.986
 1132TIP3    H2 3361   5.631   4.280   4.897
 1133TIP3   OH2 3362   0.068   6.619   0.952
 1133TIP3    H1 3363   0.146   6.594   1.002
 1133TIP3    H2 3364  -0.005   6.586   1.003
 1134TIP3   OH2 3365   0.841   2.549   1.792
 1134TIP3    H1 3366   0.763   2.498   1.768
 1134TIP3    H2 3367   0.843   2.546   1.887
 1135TIP3   OH2 3368   1.769   6.214   3.467
 1135TIP3    H1 3369   1.852   6.179   3.437
 1135TIP3    H2 3370   1.774   6.210   3.563
 1136TIP3   OH2 3371   4.098   3.897   0.254
 1136TIP3    H1 3372   4.062   3.847   0.328
 1136TIP3    H2 3373   4.049   3.866   0.178
 1137TIP3   OH2 3374   4.389   3.810   0.689
 1137TIP3    H1 3375   4.300   3.820   0.723
 1137TIP3    H2 3376   4.404   3.889   0.637
 1138TIP3   OH2 3377   4.784   3.076   1.409
 1138TIP3    H1 3378   4.865   3.086   1.359
 1138TIP3    H2 3379   4.748   3.165   1.414
 1139TIP3   OH2 3380   5.409   1.279   1.196
 1139TIP3    H1 3381   5.465   1.230   1.136
 1139TIP3    H2 3382   5.332   1.224   1.208
 1140TIP3   OH2 3383   4.282   1.837   1.255
 1140TIP3    H1 3384   4.226   1.890   1.198
 1140TIP3    H2 3385   4.368   1.879   1.249
 1141TIP3   OH2 3386   0.158   0.028   1.473
 1141TIP3    H1 3387   0.149  -0.008   1.561
 1141TIP3    H2 3388   0.068   0.028   1.438
 1142TIP3   OH2 3389   0.572   0.737   3.622
 1142TIP3    H1 3390   0.487   0.719   3.583
 1142TIP3    H2 3391   0.632   0.673   3.583
 1143TIP3   OH2 3392   3.444   5.772   4.177
 1143TIP3    H1 3393   3.416   5.698   4.123
 1143TIP3    H2 3394   3.417   5.748   4.266
 1144TIP3   OH2 3395   2.478   6.816   3.232
 1144TIP3    H1 3396   2.565   6.785   3.206
 1144TIP3    H2 3397   2.418   6.750   3.195
 1145TIP3   OH2 3398   1.913   4.625   1.753
 1145TIP3    H1 3399   1.829   4.667   1.736
 1145TIP3    H2 3400   1.933   4.578   1.673
 1146TIP3   OH2 3401   6.468   0.652   2.590
 1146TIP3    H1 3402   6.535   0.591   2.619
 1146TIP3    H2 3403   6.386   0.602   2.593
 1147TIP3   OH2 3404   0.142   6.529   2.760
 1147TIP3    H1 3405   0.078   6.600   2.762
 1147TIP3    H2 3406   0.127   6.486   2.675
 1148TIP3   OH2 3407   1.934   0.130   0.346
 1148TIP3    H1 3408   1.961   0.217   0.374
 1148TIP3    H2 3409   1.844   0.121   0.378
 1149TIP3   OH2 3410   6.090   3.985   3.254
 1149TIP3    H1 3411   6.070   3.921   3.185
 1149TIP3    H2 3412   6.025   3.968   3.322
 1150TIP3   OH2 3413   1.873   5.857   3.393
 1150TIP3    H1 3414   1.855   5.884   3.303
 1150TIP3    H2 3415   1.920   5.931   3.431
 1151TIP3   OH2 3416   6.397   4.015   0.967
 1151TIP3    H1 3417   6.365   4.105   0.961
 1151TIP3    H2 3418   6.430   3.996   0.879
 1152TIP3   OH2 3419   4.656   5.552   1.227
 1152TIP3    H1 3420   4.608   5.612   1.170
 1152TIP3    H2 3421   4.593   5.528   1.295
 1153TIP3   OH2 3422   4.413   4.617   4.961
 1153TIP3    H1 3423   4.504   4.637   4.980
 1153TIP3    H2 3424   4.376   4.590   5.045
 1154TIP3   OH2 3425   3.770   1.221   5.703
 1154TIP3    H1 3426   3.832   1.260   5.765
 1154TIP3    H2 3427   3.769   1.128   5.726
 1155TIP3   OH2 3428   0.176   6.236   2.763
 1155TIP3    H1 3429   0.187   6.245   2.668
 1155TIP3    H2 3430   0.264   6.251   2.798
 1156TIP3   OH2 3431   5.010   1.852   4.293
 1156TIP3    H1 3432   4.954   1.923   4.325
 1156TIP3    H2 3433   5.052   1.818   4.372
 1157TIP3   OH2 3434   3.539   0.636   2.801
 1157TIP3    H1 3435   3.547   0.560   2.859
 1157TIP3    H2 3436   3.627   0.675   2.802
 1158TIP3   OH2 3437   2.258   0.597   2.855
 1158TIP3    H1 3438   2.314   0.574   2.929
 1158TIP3    H2 3439   2.217   0.515   2.829
 1159TIP3   OH2 3440   5.867   2.585   5.468
 1159TIP3    H1 3441   5.857   2.677   5.492
 1159TIP3    H2 3442   5.900   2.543   5.547
 1160TIP3   OH2 3443   4.257   5.820   1.553
 1160TIP3    H1 3444   4.352   5.833   1.548
 1160TIP3    H2 3445   4.226   5.835   1.464
 1161TIP3   OH2 3446   6.997   4.383   3.717
 1161TIP3    H1 3447   6.990   4.290   3.738
 1161TIP3    H2 3448   6.958   4.428   3.792
 1162TIP3   OH2 3449   0.208   3.351   0.991
 1162TIP3    H1 3450   0.289   3.389   1.024
 1162TIP3    H2 3451   0.233   3.308   0.910
 1163TIP3   OH2 3452   3.185   3.254   4.310
 1163TIP3    H1 3453   3.167   3.299   4.227
 1163TIP3    H2 3454   3.258   3.303   4.348
 1164TIP3   OH2 3455   0.824   2.359   5.704
 1164TIP3    H1 3456   0.730   2.374   5.704
 1164TIP3    H2 3457   0.844   2.331   5.614
 1165TIP3   OH2 3458   4.867   2.732   5.683
 1165TIP3    H1 3459   4.809   2.714   5.757
 1165TIP3    H2 3460   4.874   2.827   5.680
 1166TIP3   OH2 3461   5.108   2.249   3.662
 1166TIP3    H1 3462   5.115   2.342   3.683
 1166TIP3    H2 3463   5.105   2.205   3.746
 1167TIP3   OH2 3464   3.625   2.735   5.115
 1167TIP3    H1 3465   3.702   2.696   5.074
 1167TIP3    H2 3466   3.598   2.804   5.055
 1168TIP3   OH2 3467   0.799   0.745   3.064
 1168TIP3    H1 3468   0.825   0.719   2.975
 1168TIP3    H2 3469   0.824   0.671   3.119
 1169TIP3   OH2 3470   5.588   5.957   4.271
 1169TIP3    H1 3471   5.555   5.870   4.249
 1169TIP3    H2 3472   5.533   5.986   4.344
 1170TIP3   OH2 3473   2.354   2.141   2.188
 1170TIP3    H1 3474   2.270   2.182   2.208
 1170TIP3    H2 3475   2.349   2.123   2.094
 1171TIP3   OH2 3476   5.174   1.351   2.814
 1171TIP3    H1 3477   5.194   1.277   2.870
 1171TIP3    H2 3478   5.088   1.331   2.777
 1172TIP3   OH2 3479   2.973   2.766   2.533
 1172TIP3    H1 3480   3.036   2.837   2.547
 1172TIP3    H2 3481   2.894   2.795   2.579
 1173TIP3   OH2 3482   2.519   5.107   5.058
 1173TIP3    H1 3483   2.567   5.081   5.136
 1173TIP3    H2 3484   2.555   5.053   4.988
 1174TIP3   OH2 3485   4.085   0.714   5.051
 1174TIP3    H1 3486   4.117   0.804   5.042
 1174TIP3    H2 3487   3.990   0.721   5.044
 1175TIP3   OH2 3488   1.213   1.242   5.233
 1175TIP3    H1 3489   1.269   1.278   5.303
 1175TIP3    H2 3490   1.275   1.219   5.163
 1176TIP3   OH2 3491   2.529   2.857   3.587
 1176TIP3    H1 3492   2.622   2.875   3.574
 1176TIP3    H2 3493   2.503   2.918   3.656
 1177TIP3   OH2 3494   2.170   0.973   4.343
 1177TIP3    H1 3495   2.247   0.917   4.345
 1177TIP3    H2 3496   2.105   0.926   4.395
 1178TIP3   OH2 3497   1.371   1.618   3.695
 1178TIP3    H1 3498   1.410   1.553   3.636
 1178TIP3    H2 3499   1.317   1.567   3.755
 1179TIP3   OH2 3500   3.060   1.087   5.392
 1179TIP3    H1 3501   3.027   1.050   5.474
 1179TIP3    H2 3502   3.155   1.091   5.405
 1180TIP3   OH2 3503   1.952   5.837   4.323
 1180TIP3    H1 3504   1.929   5.898   4.253
 1180TIP3    H2 3505   2.014   5.885   4.378
 1181TIP3   OH2 3506   1.894   3.948   0.727
 1181TIP3    H1 3507   1.900   3.932   0.821
 1181TIP3    H2 3508   1.933   4.035   0.715
 1182TIP3   OH2 3509   0.328   0.710   0.530
 1182TIP3    H1 3510   0.263   0.642   0.545
 1182TIP3    H2 3511   0.385   0.675   0.462
 1183TIP3   OH2 3512   0.709   1.515   4.891
 1183TIP3    H1 3513   0.639   1.450   4.885
 1183TIP3    H2 3514   0.783   1.467   4.927
 1184TIP3   OH2 3515   6.608   1.886   4.001
 1184TIP3    H1 3516   6.698   1.920   3.999
 1184TIP3    H2 3517   6.592   1.865   4.093
 1185TIP3   OH2 3518   4.989   5.374   0.281
 1185TIP3    H1 3519   5.083   5.358   0.271
 1185TIP3    H2 3520   4.974   5.376   0.375
 1186TIP3   OH2 3521   5.218   4.026   3.450
 1186TIP3    H1 3522   5.140   4.077   3.429
 1186TIP3    H2 3523   5.291   4.080   3.420
 1187TIP3   OH2 3524   5.812   1.549   2.737
 1187TIP3    H1 3525   5.820   1.456   2.761
 1187TIP3    H2 3526   5.717   1.564   2.733
 1188TIP3   OH2 3527   6.449   6.268   0.165
 1188TIP3    H1 3528   6.520   6.282   0.103
 1188TIP3    H2 3529   6.369   6.274   0.113
 1189TIP3   OH2 3530   6.633   5.987   1.978
 1189TIP3    H1 3531   6.719   6.026   1.993
 1189TIP3    H2 3532   6.619   5.996   1.883
 1190TIP3   OH2 3533   3.586   0.824   0.108
 1190TIP3    H1 3534   3.630   0.772   0.041
 1190TIP3    H2 3535   3.633   0.803   0.189
 1191TIP3   OH2 3536   7.163   6.548   0.718
 1191TIP3    H1 3537   7.219   6.591   0.783
 1191TIP3    H2 3538   7.090   6.513   0.770
 1192TIP3   OH2 3539   5.863   0.433   1.037
 1192TIP3    H1 3540   5.806   0.431   1.114
 1192TIP3    H2 3541   5.851   0.348   0.995
 1193TIP3   OH2 3542   4.436   4.377   2.240
 1193TIP3    H1 3543   4.455   4.380   2.333
 1193TIP3    H2 3544   4.351   4.420   2.231
 1194TIP3   OH2 3545   5.628   4.681   1.816
 1194TIP3    H1 3546   5.541   4.700   1.779
 1194TIP3    H2 3547   5.611   4.613   1.881
 1195TIP3   OH2 3548   7.145   3.568   1.414
 1195TIP3    H1 3549   7.141   3.663   1.398
 1195TIP3    H2 3550   7.061   3.535   1.381
 1196TIP3   OH2 3551   3.652   5.752   2.834
 1196TIP3    H1 3552   3.564   5.745   2.870
 1196TIP3    H2 3553   3.674   5.664   2.805
 1197TIP3   OH2 3554   4.050   2.725   4.256
 1197TIP3    H1 3555   4.059   2.805   4.204
 1197TIP3    H2 3556   3.957   2.721   4.278
 1198TIP3   OH2 3557   1.676   3.199   1.365
 1198TIP3    H1 3558   1.692   3.188   1.459
 1198TIP3    H2 3559   1.754   3.163   1.323
 1199TIP3   OH2 3560   3.674   0.806   1.073
 1199TIP3    H1 3561   3.755   0.850   1.098
 1199TIP3    H2 3562   3.666   0.821   0.979
 1200TIP3   OH2 3563   0.228   3.880   3.551
 1200TIP3    H1 3564   0.260   3.837   3.472
 1200TIP3    H2 3565   0.236   3.974   3.531
 1201TIP3   OH2 3566   6.017   4.771   4.409
 1201TIP3    H1 3567   5.999   4.812   4.494
 1201TIP3    H2 3568   5.936   4.725   4.386
 1202TIP3   OH2 3569   1.479   0.327   4.899
 1202TIP3    H1 3570   1.403   0.359   4.852
 1202TIP3    H2 3571   1.535   0.405   4.909
 1203TIP3   OH2 3572   6.903   5.433   4.499
 1203TIP3    H1 3573   6.858   5.354   4.471
 1203TIP3    H2 3574   6.906   5.427   4.594
 1204TIP3   OH2 3575   3.017   3.819   4.199
 1204TIP3    H1 3576   3.077   3.861   4.137
 1204TIP3    H2 3577   2.977   3.747   4.149
 1205TIP3   OH2 3578   4.727   4.932   3.682
 1205TIP3    H1 3579   4.638   4.925   3.717
 1205TIP3    H2 3580   4.721   4.900   3.592
 1206TIP3   OH2 3581   2.924   4.107   0.990
 1206TIP3    H1 3582   2.992   4.137   0.930
 1206TIP3    H2 3583   2.932   4.166   1.066
 1207TIP3   OH2 3584   3.738   5.027   3.505
 1207TIP3    H1 3585   3.720   5.003   3.415
 1207TIP3    H2 3586   3.753   4.944   3.550
 1208TIP3   OH2 3587   2.069   1.124   4.680
 1208TIP3    H1 3588   2.027   1.132   4.766
 1208TIP3    H2 3589   2.038   1.201   4.632
 1209TIP3   OH2 3590   4.111   4.849   2.873
 1209TIP3    H1 3591   4.175   4.778   2.880
 1209TIP3    H2 3592   4.063   4.846   2.956
 1210TIP3   OH2 3593   4.398   2.058   5.524
 1210TIP3    H1 3594   4.457   2.126   5.557
 1210TIP3    H2 3595   4.340   2.038   5.597
 1211TIP3   OH2 3596   1.102   2.632   3.837
 1211TIP3    H1 3597   1.011   2.654   3.857
 1211TIP3    H2 3598   1.098   2.587   3.753
 1212TIP3   OH2 3599   4.889   2.662   3.707
 1212TIP3    H1 3600   4.884   2.593   3.774
 1212TIP3    H2 3601   4.800   2.665   3.670
 1213TIP3   OH2 3602   2.079   4.360   1.164
 1213TIP3    H1 3603   2.113   4.310   1.091
 1213TIP3    H2 3604   1.999   4.402   1.130
 1214TIP3   OH2 3605   7.149   3.073   5.788
 1214TIP3    H1 3606   7.206   3.091   5.713
 1214TIP3    H2 3607   7.176   3.136   5.855
 1215TIP3   OH2 3608   3.841   1.788   2.076
 1215TIP3    H1 3609   3.774   1.802   2.010
 1215TIP3    H2 3610   3.921   1.824   2.037
 1216TIP3   OH2 3611   4.110   1.651   0.237
 1216TIP3    H1 3612   4.079   1.656   0.328
 1216TIP3    H2 3613   4.203   1.673   0.243
 1217TIP3   OH2 3614   2.719   3.305   4.755
 1217TIP3    H1 3615   2.638   3.290   4.803
 1217TIP3    H2 3616   2.707   3.258   4.672
 1218TIP3   OH2 3617   2.130   5.647   1.252
 1218TIP3    H1 3618   2.050   5.679   1.210
 1218TIP3    H2 3619   2.121   5.675   1.343
 1219TIP3   OH2 3620   0.103   6.374   3.047
 1219TIP3    H1 3621   0.036   6.441   3.033
 1219TIP3    H2 3622   0.125   6.343   2.959
 1220TIP3   OH2 3623   1.014   3.602   0.549
 1220TIP3    H1 3624   1.034   3.683   0.596
 1220TIP3    H2 3625   0.951   3.557   0.605
 1221TIP3   OH2 3626   5.421   5.476   3.089
 1221TIP3    H1 3627   5.515   5.471   3.110
 1221TIP3    H2 3628   5.401   5.392   3.047
 1222TIP3   OH2 3629   4.466   5.839   5.849
 1222TIP3    H1 3630   4.393   5.799   5.895
 1222TIP3    H2 3631   4.425   5.889   5.778
 1223TIP3   OH2 3632   4.135   4.327   3.544
 1223TIP3    H1 3633   4.121   4.248   3.597
 1223TIP3    H2 3634   4.164   4.393   3.608
 1224TIP3   OH2 3635   1.520   5.627   4.476
 1224TIP3    H1 3636   1.614   5.616   4.477
 1224TIP3    H2 3637   1.489   5.588   4.558
 1225TIP3   OH2 3638   4.947   2.058   4.451
 1225TIP3    H1 3639   5.039   2.082   4.436
 1225TIP3    H2 3640   4.905   2.141   4.474
 1226TIP3   OH2 3641   0.141   3.936   5.710
 1226TIP3    H1 3642   0.102   3.889   5.636
 1226TIP3    H2 3643   0.074   3.998   5.737
 1227TIP3   OH2 3644   3.618   6.425   2.186
 1227TIP3    H1 3645   3.569   6.506   2.203
 1227TIP3    H2 3646   3.699   6.455   2.145
 1228TIP3   OH2 3647   3.991   4.156   5.505
 1228TIP3    H1 3648   4.008   4.188   5.593
 1228TIP3    H2 3649   3.897   4.139   5.504
 1229TIP3   OH2 3650   5.750   4.073   3.655
 1229TIP3    H1 3651   5.681   4.069   3.589
 1229TIP3    H2 3652   5.761   4.166   3.673
 1230TIP3   OH2 3653   3.268   1.261   1.906
 1230TIP3    H1 3654   3.255   1.216   1.823
 1230TIP3    H2 3655   3.362   1.279   1.910
 1231TIP3   OH2 3656   1.880   2.693   5.043
 1231TIP3    H1 3657   1.957   2.637   5.029
 1231TIP3    H2 3658   1.872   2.699   5.138
 1232TIP3   OH2 3659   1.482   4.169   2.720
 1232TIP3    H1 3660   1.419   4.097   2.715
 1232TIP3    H2 3661   1.567   4.125   2.722
 1233TIP3   OH2 3662   6.383   0.710   3.679
 1233TIP3    H1 3663   6.424   0.626   3.657
 1233TIP3    H2 3664   6.447   0.776   3.653
 1234TIP3   OH2 3665   6.954   1.673   5.683
 1234TIP3    H1 3666   6.983   1.727   5.610
 1234TIP3    H2 3667   7.034   1.636   5.720
 1235TIP3   OH2 3668   3.704   3.428   3.640
 1235TIP3    H1 3669   3.769   3.409   3.708
 1235TIP3    H2 3670   3.743   3.499   3.589
 1236TIP3   OH2 3671   6.565   2.506   0.987
 1236TIP3    H1 3672   6.595   2.593   1.014
 1236TIP3    H2 3673   6.606   2.492   0.902
 1237TIP3   OH2 3674   4.206   2.783   2.400
 1237TIP3    H1 3675   4.283   2.742   2.359
 1237TIP3    H2 3676   4.147   2.710   2.417
 1238TIP3   OH2 3677   1.647   4.981   1.139
 1238TIP3    H1 3678   1.665   4.967   1.047
 1238TIP3    H2 3679   1.637   5.076   1.148
 1239TIP3   OH2 3680   5.943   0.482   2.997
 1239TIP3    H1 3681   5.858   0.464   3.036
 1239TIP3    H2 3682   5.997   0.511   3.071
 1240TIP3   OH2 3683   2.273   6.543   3.478
 1240TIP3    H1 3684   2.353   6.544   3.424
 1240TIP3    H2 3685   2.281   6.621   3.533
 1241TIP3   OH2 3686   2.554   2.788   0.214
 1241TIP3    H1 3687   2.464   2.792   0.246
 1241TIP3    H2 3688   2.566   2.697   0.188
 1242TIP3   OH2 3689   1.967   6.577   2.785
 1242TIP3    H1 3690   1.916   6.561   2.865
 1242TIP3    H2 3691   2.058   6.583   2.816
 1243TIP3   OH2 3692   3.086   1.771   4.559
 1243TIP3    H1 3693   3.031   1.759   4.636
 1243TIP3    H2 3694   3.152   1.701   4.564
 1244TIP3   OH2 3695   0.111   6.490   5.441
 1244TIP3    H1 3696   0.122   6.401   5.407
 1244TIP3    H2 3697   0.197   6.530   5.430
 1245TIP3   OH2 3698   5.978   0.153   0.045
 1245TIP3    H1 3699   5.995   0.217  -0.024
 1245TIP3    H2 3700   6.050   0.164   0.107
 1246TIP3   OH2 3701   1.012   1.348   1.438
 1246TIP3    H1 3702   0.973   1.262   1.424
 1246TIP3    H2 3703   1.058   1.341   1.521
 1247TIP3   OH2 3704   2.704   2.367   0.541
 1247TIP3    H1 3705   2.701   2.462   0.528
 1247TIP3    H2 3706   2.717   2.331   0.453
 1248TIP3   OH2 3707   2.635   6.044   3.972
 1248TIP3    H1 3708   2.652   5.984   3.900
 1248TIP3    H2 3709   2.642   6.131   3.934
 1249TIP3   OH2 3710   0.294   0.849   3.352
 1249TIP3    H1 3711   0.386   0.828   3.341
 1249TIP3    H2 3712   0.257   0.775   3.401
 1250TIP3   OH2 3713   5.270   5.217   2.369
 1250TIP3    H1 3714   5.288   5.131   2.408
 1250TIP3    H2 3715   5.346   5.235   2.314
 1251TIP3   OH2 3716   3.290   0.425   4.756
 1251TIP3    H1 3717   3.381   0.439   4.730
 1251TIP3    H2 3718   3.295   0.365   4.830
 1252TIP3   OH2 3719   6.654   3.443   1.129
 1252TIP3    H1 3720   6.610   3.362   1.155
 1252TIP3    H2 3721   6.585   3.509   1.129
 1253TIP3   OH2 3722   4.182   4.390   0.202
 1253TIP3    H1 3723   4.218   4.341   0.128
 1253TIP3    H2 3724   4.114   4.445   0.163
 1254TIP3   OH2 3725   1.662   4.094   0.631
 1254TIP3    H1 3726   1.694   4.007   0.655
 1254TIP3    H2 3727   1.588   4.076   0.573
 1255TIP3   OH2 3728   1.529   6.317   4.221
 1255TIP3    H1 3729   1.560   6.379   4.155
 1255TIP3    H2 3730   1.470   6.369   4.276
 1256TIP3   OH2 3731   2.388   5.940   1.916
 1256TIP3    H1 3732   2.483   5.949   1.918
 1256TIP3    H2 3733   2.360   5.962   2.004
 1257TIP3   OH2 3734   4.466   1.574   0.733
 1257TIP3    H1 3735   4.405   1.647   0.735
 1257TIP3    H2 3736   4.486   1.556   0.825
 1258TIP3   OH2 3737   6.822   4.517   0.452
 1258TIP3    H1 3738   6.749   4.548   0.505
 1258TIP3    H2 3739   6.898   4.526   0.508
 1259TIP3   OH2 3740   1.717   5.841   2.406
 1259TIP3    H1 3741   1.782   5.783   2.367
 1259TIP3    H2 3742   1.745   5.851   2.497
 1260TIP3   OH2 3743   2.411   5.351   2.500
 1260TIP3    H1 3744   2.342   5.329   2.437
 1260TIP3    H2 3745   2.395   5.292   2.574
 1261TIP3   OH2 3746   2.100   3.411   0.955
 1261TIP3    H1 3747   2.129   3.320   0.959
 1261TIP3    H2 3748   2.180   3.462   0.949
 1262TIP3   OH2 3749   3.630   6.063   1.116
 1262TIP3    H1 3750   3.535   6.077   1.122
 1262TIP3    H2 3751   3.652   6.091   1.027
 1263TIP3   OH2 3752   1.866   0.461   2.864
 1263TIP3    H1 3753   1.774   0.450   2.887
 1263TIP3    H2 3754   1.907   0.377   2.886
 1264TIP3   OH2 3755   1.361   0.756   5.772
 1264TIP3    H1 3756   1.437   0.787   5.820
 1264TIP3    H2 3757   1.360   0.661   5.787
 1265TIP3   OH2 3758   6.293   3.078   1.222
 1265TIP3    H1 3759   6.248   3.057   1.140
 1265TIP3    H2 3760   6.254   3.019   1.286
 1266TIP3   OH2 3761   4.552   3.278   4.110
 1266TIP3    H1 3762   4.576   3.211   4.174
 1266TIP3    H2 3763   4.460   3.297   4.130
 1267TIP3   OH2 3764   5.404   1.916   5.534
 1267TIP3    H1 3765   5.444   1.840   5.578
 1267TIP3    H2 3766   5.319   1.884   5.504
 1268TIP3   OH2 3767   5.471   4.237   3.564
 1268TIP3    H1 3768   5.517   4.169   3.515
 1268TIP3    H2 3769   5.402   4.266   3.505
 1269TIP3   OH2 3770   2.667   1.332   0.841
 1269TIP3    H1 3771   2.641   1.354   0.752
 1269TIP3    H2 3772   2.585   1.331   0.891
 1270TIP3   OH2 3773   3.897   3.171   3.024
 1270TIP3    H1 3774   3.921   3.208   3.109
 1270TIP3    H2 3775   3.949   3.091   3.017
 1271TIP3   OH2 3776   3.797   3.052   2.334
 1271TIP3    H1 3777   3.730   3.112   2.301
 1271TIP3    H2 3778   3.759   3.014   2.412
 1272TIP3   OH2 3779   3.418   5.633   5.053
 1272TIP3    H1 3780   3.351   5.676   5.107
 1272TIP3    H2 3781   3.389   5.649   4.963
 1273TIP3   OH2 3782   1.109   1.193   3.290
 1273TIP3    H1 3783   1.097   1.156   3.203
 1273TIP3    H2 3784   1.090   1.121   3.350
 1274TIP3   OH2 3785   0.152   4.666   0.957
 1274TIP3    H1 3786   0.180   4.701   1.041
 1274TIP3    H2 3787   0.125   4.576   0.977
 1275TIP3   OH2 3788   3.217   5.477   0.855
 1275TIP3    H1 3789   3.303   5.446   0.884
 1275TIP3    H2 3790   3.236   5.548   0.795
 1276TIP3   OH2 3791   4.934   0.916   3.158
 1276TIP3    H1 3792   4.980   0.834   3.141
 1276TIP3    H2 3793   4.887   0.901   3.240
 1277TIP3   OH2 3794   4.648   2.292   1.043
 1277TIP3    H1 3795   4.655   2.218   1.104
 1277TIP3    H2 3796   4.731   2.339   1.054
 1278TIP3   OH2 3797   0.045   5.615   3.416
 1278TIP3    H1 3798   0.052   5.572   3.502
 1278TIP3    H2 3799  -0.038   5.663   3.421
 1279TIP3   OH2 3800   6.862   3.667   3.943
 1279TIP3    H1 3801   6.867   3.632   3.854
 1279TIP3    H2 3802   6.901   3.598   3.997
 1280TIP3   OH2 3803   0.425   6.791   2.778
 1280TIP3    H1 3804   0.344   6.793   2.828
 1280TIP3    H2 3805   0.447   6.698   2.773
 1281TIP3   OH2 3806   6.948   4.541   1.668
 1281TIP3    H1 3807   6.876   4.481   1.648
 1281TIP3    H2 3808   6.970   4.523   1.759
 1282TIP3   OH2 3809   5.155   1.894   4.066
 1282TIP3    H1 3810   5.236   1.855   4.098
 1282TIP3    H2 3811   5.099   1.898   4.143
 1283TIP3   OH2 3812   4.913   3.794   4.218
 1283TIP3    H1 3813   5.001   3.827   4.237
 1283TIP3    H2 3814   4.857   3.838   4.283
 1284TIP3   OH2 3815   0.956   2.399   4.999
 1284TIP3    H1 3816   0.863   2.381   5.009
 1284TIP3    H2 3817   0.998   2.347   5.068
 1285TIP3   OH2 3818   5.732   2.689   3.363
 1285TIP3    H1 3819   5.776   2.759   3.314
 1285TIP3    H2 3820   5.712   2.728   3.448
 1286TIP3   OH2 3821   2.480   5.835   1.321
 1286TIP3    H1 3822   2.403   5.891   1.324
 1286TIP3    H2 3823   2.541   5.881   1.263
 1287TIP3   OH2 3824   6.374   0.048   4.495
 1287TIP3    H1 3825   6.369   0.143   4.479
 1287TIP3    H2 3826   6.439   0.039   4.565
 1288TIP3   OH2 3827   3.516   1.132   3.625
 1288TIP3    H1 3828   3.470   1.141   3.542
 1288TIP3    H2 3829   3.587   1.196   3.620
 1289TIP3   OH2 3830   6.026   1.202   2.428
 1289TIP3    H1 3831   5.952   1.145   2.407
 1289TIP3    H2 3832   6.028   1.267   2.358
 1290TIP3   OH2 3833   4.057   3.066   2.431
 1290TIP3    H1 3834   3.963   3.075   2.417
 1290TIP3    H2 3835   4.073   2.972   2.427
 1291TIP3   OH2 3836   0.818   0.298   0.117
 1291TIP3    H1 3837   0.846   0.227   0.060
 1291TIP3    H2 3838   0.839   0.378   0.069
 1292TIP3   OH2 3839   0.402   3.451   5.429
 1292TIP3    H1 3840   0.497   3.440   5.437
 1292TIP3    H2 3841   0.367   3.362   5.431
 1293TIP3   OH2 3842   3.758   1.249   4.300
 1293TIP3    H1 3843   3.686   1.190   4.321
 1293TIP3    H2 3844   3.739   1.281   4.212
 1294TIP3   OH2 3845   1.581   1.586   0.922
 1294TIP3    H1 3846   1.532   1.663   0.950
 1294TIP3    H2 3847   1.552   1.517   0.981
 1295TIP3   OH2 3848   4.364   0.144   2.810
 1295TIP3    H1 3849   4.401   0.097   2.886
 1295TIP3    H2 3850   4.407   0.103   2.735
 1296TIP3   OH2 3851   5.849   2.297   4.150
 1296TIP3    H1 3852   5.903   2.369   4.117
 1296TIP3    H2 3853   5.863   2.226   4.088
 1297TIP3   OH2 3854   6.424   5.611   0.302
 1297TIP3    H1 3855   6.514   5.598   0.332
 1297TIP3    H2 3856   6.371   5.554   0.358
 1298TIP3   OH2 3857   4.814   0.959   5.733
 1298TIP3    H1 3858   4.740   0.965   5.672
 1298TIP3    H2 3859   4.885   0.924   5.681
 1299TIP3   OH2 3860   0.421   0.231   2.760
 1299TIP3    H1 3861   0.418   0.234   2.856
 1299TIP3    H2 3862   0.491   0.168   2.740
 1300TIP3   OH2 3863   6.598   4.492   3.968
 1300TIP3    H1 3864   6.516   4.465   3.928
 1300TIP3    H2 3865   6.598   4.449   4.054
 1301TIP3   OH2 3866   1.560   0.589   2.685
 1301TIP3    H1 3867   1.526   0.628   2.766
 1301TIP3    H2 3868   1.548   0.495   2.697
 1302TIP3   OH2 3869   5.517   3.633   2.259
 1302TIP3    H1 3870   5.535   3.543   2.283
 1302TIP3    H2 3871   5.602   3.671   2.240
 1303TIP3   OH2 3872   5.127   3.022   4.972
 1303TIP3    H1 3873   5.124   2.941   4.921
 1303TIP3    H2 3874   5.056   3.075   4.937
 1304TIP3   OH2 3875   3.136   4.236   0.849
 1304TIP3    H1 3876   3.223   4.256   0.884
 1304TIP3    H2 3877   3.092   4.321   0.842
 1305TIP3   OH2 3878   1.122   0.533   1.788
 1305TIP3    H1 3879   1.129   0.471   1.715
 1305TIP3    H2 3880   1.065   0.489   1.851
 1306TIP3   OH2 3881   3.844   3.514   0.554
 1306TIP3    H1 3882   3.876   3.604   0.546
 1306TIP3    H2 3883   3.767   3.522   0.612
 1307TIP3   OH2 3884   1.121   5.126   5.621
 1307TIP3    H1 3885   1.134   5.139   5.527
 1307TIP3    H2 3886   1.187   5.061   5.645
 1308TIP3   OH2 3887   4.061   1.758   1.753
 1308TIP3    H1 3888   4.000   1.700   1.708
 1308TIP3    H2 3889   4.106   1.804   1.683
 1309TIP3   OH2 3890   0.867   0.115   4.373
 1309TIP3    H1 3891   0.891   0.049   4.438
 1309TIP3    H2 3892   0.850   0.064   4.293
 1310TIP3   OH2 3893   6.544   0.424   0.816
 1310TIP3    H1 3894   6.589   0.486   0.758
 1310TIP3    H2 3895   6.504   0.361   0.757
 1311TIP3   OH2 3896   5.803   5.818   2.018
 1311TIP3    H1 3897   5.725   5.762   2.015
 1311TIP3    H2 3898   5.792   5.880   1.946
 1312TIP3   OH2 3899   5.835   0.685   5.016
 1312TIP3    H1 3900   5.805   0.632   4.942
 1312TIP3    H2 3901   5.924   0.710   4.992
 1313TIP3   OH2 3902   0.120   5.510   2.974
 1313TIP3    H1 3903   0.141   5.588   2.922
 1313TIP3    H2 3904   0.078   5.451   2.912
 1314TIP3   OH2 3905   3.396   0.335   1.164
 1314TIP3    H1 3906   3.486   0.345   1.197
 1314TIP3    H2 3907   3.406   0.306   1.074
 1315TIP3   OH2 3908   1.273   4.883   5.385
 1315TIP3    H1 3909   1.262   4.922   5.298
 1315TIP3    H2 3910   1.367   4.864   5.391
 1316TIP3   OH2 3911   0.897   3.238   0.554
 1316TIP3    H1 3912   0.871   3.163   0.607
 1316TIP3    H2 3913   0.897   3.205   0.464
 1317TIP3   OH2 3914   1.506   5.200   2.630
 1317TIP3    H1 3915   1.531   5.108   2.620
 1317TIP3    H2 3916   1.589   5.246   2.641
 1318TIP3   OH2 3917   0.195   1.190   2.458
 1318TIP3    H1 3918   0.284   1.156   2.466
 1318TIP3    H2 3919   0.203   1.266   2.400
 1319TIP3   OH2 3920   6.032   4.228   2.963
 1319TIP3    H1 3921   6.000   4.178   2.887
 1319TIP3    H2 3922   5.975   4.200   3.035
 1320TIP3   OH2 3923   1.666   0.945   2.869
 1320TIP3    H1 3924   1.660   0.923   2.962
 1320TIP3    H2 3925   1.616   1.027   2.861
 1321TIP3   OH2 3926   3.706   1.435   5.470
 1321TIP3    H1 3927   3.612   1.445   5.486
 1321TIP3    H2 3928   3.729   1.510   5.415
 1322TIP3   OH2 3929   4.282   5.734   4.379
 1322TIP3    H1 3930   4.375   5.758   4.380
 1322TIP3    H2 3931   4.236   5.818   4.374
 1323TIP3   OH2 3932   4.625   4.640   1.730
 1323TIP3    H1 3933   4.560   4.601   1.788
 1323TIP3    H2 3934   4.648   4.571   1.669
 1324TIP3   OH2 3935   0.963   1.193   4.522
 1324TIP3    H1 3936   0.878   1.154   4.542
 1324TIP3    H2 3937   1.014   1.180   4.602
 1325TIP3   OH2 3938   3.698   5.513   5.590
 1325TIP3    H1 3939   3.628   5.482   5.533
 1325TIP3    H2 3940   3.738   5.586   5.543
 1326TIP3   OH2 3941   6.193   1.570   1.503
 1326TIP3    H1 3942   6.133   1.585   1.576
 1326TIP3    H2 3943   6.279   1.558   1.544
 1327TIP3   OH2 3944   0.852   4.148   5.106
 1327TIP3    H1 3945   0.852   4.108   5.019
 1327TIP3    H2 3946   0.798   4.226   5.096
 1328TIP3   OH2 3947   6.287   5.999   3.377
 1328TIP3    H1 3948   6.191   6.003   3.373
 1328TIP3    H2 3949   6.312   5.951   3.298
 1329TIP3   OH2 3950   3.599   5.767   3.129
 1329TIP3    H1 3951   3.591   5.792   3.222
 1329TIP3    H2 3952   3.682   5.804   3.101
 1330TIP3   OH2 3953   6.209   2.746   0.353
 1330TIP3    H1 3954   6.132   2.765   0.408
 1330TIP3    H2 3955   6.172   2.722   0.268
 1331TIP3   OH2 3956   1.276   4.806   1.772
 1331TIP3    H1 3957   1.195   4.777   1.731
 1331TIP3    H2 3958   1.322   4.725   1.796
 1332TIP3   OH2 3959   6.003   5.961   3.399
 1332TIP3    H1 3960   5.957   6.020   3.339
 1332TIP3    H2 3961   5.993   5.874   3.361
 1333TIP3   OH2 3962   1.343   4.660   2.879
 1333TIP3    H1 3963   1.338   4.700   2.966
 1333TIP3    H2 3964   1.382   4.573   2.894
 1334TIP3   OH2 3965   6.336   3.887   2.111
 1334TIP3    H1 3966   6.347   3.869   2.205
 1334TIP3    H2 3967   6.420   3.921   2.083
 1335TIP3   OH2 3968   1.727   6.695   4.444
 1335TIP3    H1 3969   1.658   6.679   4.508
 1335TIP3    H2 3970   1.731   6.790   4.437
 1336TIP3   OH2 3971   4.935   1.937   3.682
 1336TIP3    H1 3972   4.880   1.968   3.754
 1336TIP3    H2 3973   4.877   1.882   3.629
 1337TIP3   OH2 3974   1.920   1.785   0.064
 1337TIP3    H1 3975   1.857   1.808   0.133
 1337TIP3    H2 3976   1.866   1.748  -0.006
 1338TIP3   OH2 3977   2.352   2.183   3.695
 1338TIP3    H1 3978   2.340   2.205   3.602
 1338TIP3    H2 3979   2.429   2.126   3.695
 1339TIP3   OH2 3980   4.739   0.250   3.614
 1339TIP3    H1 3981   4.659   0.213   3.652
 1339TIP3    H2 3982   4.809   0.195   3.647
 1340TIP3   OH2 3983   4.093   0.607   0.671
 1340TIP3    H1 3984   4.110   0.530   0.725
 1340TIP3    H2 3985   4.174   0.658   0.677
 1341TIP3   OH2 3986   2.494   0.452   2.435
 1341TIP3    H1 3987   2.549   0.388   2.390
 1341TIP3    H2 3988   2.438   0.488   2.367
 1342TIP3   OH2 3989   4.557   4.333   1.133
 1342TIP3    H1 3990   4.598   4.285   1.060
 1342TIP3    H2 3991   4.490   4.386   1.091
 1343TIP3   OH2 3992   5.617   1.278   0.634
 1343TIP3    H1 3993   5.604   1.242   0.546
 1343TIP3    H2 3994   5.583   1.367   0.629
 1344TIP3   OH2 3995   4.397   2.959   0.542
 1344TIP3    H1 3996   4.373   2.977   0.633
 1344TIP3    H2 3997   4.350   2.878   0.520
 1345TIP3   OH2 3998   1.631   0.785   4.724
 1345TIP3    H1 3999   1.717   0.758   4.691
 1345TIP3    H2 4000   1.587   0.822   4.647
 1346TIP3   OH2 4001   0.072   1.522   3.100
 1346TIP3    H1 4002   0.112   1.588   3.157
 1346TIP3    H2 4003   0.144   1.464   3.076
 1347TIP3   OH2 4004   5.645   2.148   1.829
 1347TIP3    H1 4005   5.661   2.061   1.867
 1347TIP3    H2 4006   5.732   2.177   1.800
 1348TIP3   OH2 4007   2.004   4.721   2.917
 1348TIP3    H1 4008   2.032   4.698   2.828
 1348TIP3    H2 4009   1.909   4.723   2.913
 1349TIP3   OH2 4010   1.826   3.792   4.935
 1349TIP3    H1 4011   1.827   3.878   4.977
 1349TIP3    H2 4012   1.791   3.734   5.003
 1350TIP3   OH2 4013   1.927   6.749   1.564
 1350TIP3    H1 4014   1.845   6.786   1.531
 1350TIP3    H2 4015   1.913   6.741   1.658
 1351TIP3   OH2 4016   2.871   0.377   3.666
 1351TIP3    H1 4017   2.855   0.283   3.658
 1351TIP3    H2 4018   2.941   0.395   3.603
 1352TIP3   OH2 4019   5.171   1.270   0.849
 1352TIP3    H1 4020   5.106   1.328   0.890
 1352TIP3    H2 4021   5.247   1.327   0.834
 1353TIP3   OH2 4022   1.169   4.149   0.081
 1353TIP3    H1 4023   1.190   4.242   0.080
 1353TIP3    H2 4024   1.188   4.119  -0.008
 1354TIP3   OH2 4025   3.181   3.891   3.991
 1354TIP3    H1 4026   3.265   3.922   4.024
 1354TIP3    H2 4027   3.161   3.951   3.919
 1355TIP3   OH2 4028   3.548   4.650   4.194
 1355TIP3    H1 4029   3.614   4.718   4.183
 1355TIP3    H2 4030   3.468   4.687   4.157
 1356TIP3   OH2 4031   0.780   3.503   1.112
 1356TIP3    H1 4032   0.758   3.517   1.203
 1356TIP3    H2 4033   0.821   3.584   1.084
 1357TIP3   OH2 4034   5.589   0.653   4.063
 1357TIP3    H1 4035   5.628   0.692   4.141
 1357TIP3    H2 4036   5.526   0.719   4.033
 1358TIP3   OH2 4037   3.394   6.219   5.806
 1358TIP3    H1 4038   3.339   6.231   5.728
 1358TIP3    H2 4039   3.345   6.157   5.860
 1359TIP3   OH2 4040   0.739   6.289   5.619
 1359TIP3    H1 4041   0.744   6.199   5.650
 1359TIP3    H2 4042   0.750   6.342   5.699
 1360TIP3   OH2 4043   4.477   2.270   2.416
 1360TIP3    H1 4044   4.522   2.220   2.484
 1360TIP3    H2 4045   4.501   2.361   2.434
 1361TIP3   OH2 4046   5.746   3.332   2.297
 1361TIP3    H1 4047   5.725   3.367   2.384
 1361TIP3    H2 4048   5.759   3.410   2.243
 1362TIP3   OH2 4049   6.865   1.025   1.302
 1362TIP3    H1 4050   6.856   0.951   1.362
 1362TIP3    H2 4051   6.868   1.102   1.359
 1363TIP3   OH2 4052   4.001   3.433   5.155
 1363TIP3    H1 4053   3.986   3.471   5.242
 1363TIP3    H2 4054   4.092   3.404   5.156
 1364TIP3   OH2 4055   1.926   6.737   1.860
 1364TIP3    H1 4056   1.902   6.770   1.947
 1364TIP3    H2 4057   2.014   6.770   1.845
 1365TIP3   OH2 4058   1.297   1.370   3.460
 1365TIP3    H1 4059   1.238   1.358   3.534
 1365TIP3    H2 4060   1.278   1.296   3.402
 1366TIP3   OH2 4061   0.936   6.748   1.166
 1366TIP3    H1 4062   0.875   6.714   1.100
 1366TIP3    H2 4063   0.915   6.841   1.173
 1367TIP3   OH2 4064   4.763   1.432   4.175
 1367TIP3    H1 4065   4.764   1.367   4.105
 1367TIP3    H2 4066   4.840   1.486   4.160
 1368TIP3   OH2 4067   5.977   5.819   1.628
 1368TIP3    H1 4068   6.006   5.862   1.709
 1368TIP3    H2 4069   5.916   5.881   1.589
 1369TIP3   OH2 4070   3.156   6.414   2.316
 1369TIP3    H1 4071   3.085   6.350   2.324
 1369TIP3    H2 4072   3.209   6.402   2.395
 1370TIP3   OH2 4073   1.047   1.500   4.573
 1370TIP3    H1 4074   1.107   1.545   4.513
 1370TIP3    H2 4075   1.025   1.419   4.527
 1371TIP3   OH2 4076   2.955   4.439   3.182
 1371TIP3    H1 4077   3.002   4.366   3.142
 1371TIP3    H2 4078   2.899   4.472   3.112
 1372TIP3   OH2 4079   3.432   3.912   4.120
 1372TIP3    H1 4080   3.497   3.843   4.130
 1372TIP3    H2 4081   3.407   3.936   4.209
 1373TIP3   OH2 4082   6.862   1.162   3.312
 1373TIP3    H1 4083   6.842   1.221   3.239
 1373TIP3    H2 4084   6.837   1.075   3.280
 1374TIP3   OH2 4085   2.011   6.050   0.355
 1374TIP3    H1 4086   2.074   6.103   0.404
 1374TIP3    H2 4087   1.935   6.107   0.344
 1375TIP3   OH2 4088   2.039   6.741   5.490
 1375TIP3    H1 4089   2.063   6.809   5.426
 1375TIP3    H2 4090   2.082   6.768   5.571
 1376TIP3   OH2 4091   0.062   0.512   2.959
 1376TIP3    H1 4092   0.090   0.426   2.926
 1376TIP3    H2 4093  -0.031   0.500   2.978
 1377TIP3   OH2 4094   5.547   4.713   3.041
 1377TIP3    H1 4095   5.613   4.650   3.070
 1377TIP3    H2 4096   5.509   4.674   2.963
 1378TIP3   OH2 4097   6.844   6.006   5.252
 1378TIP3    H1 4098   6.871   6.097   5.257
 1378TIP3    H2 4099   6.753   6.006   5.281
 1379TIP3   OH2 4100   4.448   2.883   4.295
 1379TIP3    H1 4101   4.531   2.930   4.304
 1379TIP3    H2 4102   4.399   2.932   4.229
 1380TIP3   OH2 4103   1.907   6.231   2.018
 1380TIP3    H1 4104   1.887   6.303   1.958
 1380TIP3    H2 4105   1.923   6.273   2.102
 1381TIP3   OH2 4106   3.985   4.783   3.591
 1381TIP3    H1 4107   4.011   4.751   3.505
 1381TIP3    H2 4108   3.889   4.776   3.591
 1382TIP3   OH2 4109   0.060   3.453   5.570
 1382TIP3    H1 4110  -0.024   3.422   5.536
 1382TIP3    H2 4111   0.102   3.374   5.605
 1383TIP3   OH2 4112   0.072   6.754   1.377
 1383TIP3    H1 4113   0.049   6.678   1.323
 1383TIP3    H2 4114   0.037   6.829   1.329
 1384TIP3   OH2 4115   2.605   4.692   1.103
 1384TIP3    H1 4116   2.681   4.745   1.125
 1384TIP3    H2 4117   2.530   4.747   1.126
 1385TIP3   OH2 4118   3.957   1.930   5.155
 1385TIP3    H1 4119   3.947   1.989   5.080
 1385TIP3    H2 4120   3.925   1.981   5.230
 1386TIP3   OH2 4121   1.785   1.589   0.476
 1386TIP3    H1 4122   1.791   1.494   0.473
 1386TIP3    H2 4123   1.720   1.606   0.545
 1387TIP3   OH2 4124   6.896   3.238   5.779
 1387TIP3    H1 4125   6.962   3.169   5.780
 1387TIP3    H2 4126   6.823   3.202   5.830
 1388TIP3   OH2 4127   6.035   2.857   2.510
 1388TIP3    H1 4128   6.019   2.871   2.604
 1388TIP3    H2 4129   5.969   2.910   2.466
 1389TIP3   OH2 4130   0.253   1.398   0.799
 1389TIP3    H1 4131   0.316   1.326   0.803
 1389TIP3    H2 4132   0.299   1.473   0.836
 1390TIP3   OH2 4133   0.064   1.769   1.132
 1390TIP3    H1 4134   0.009   1.801   1.061
 1390TIP3    H2 4135   0.123   1.706   1.091
 1391TIP3   OH2 4136   3.499   3.437   0.996
 1391TIP3    H1 4137   3.439   3.363   0.997
 1391TIP3    H2 4138   3.443   3.514   0.989
 1392TIP3   OH2 4139   6.779   2.689   2.207
 1392TIP3    H1 4140   6.787   2.711   2.300
 1392TIP3    H2 4141   6.754   2.772   2.165
 1393TIP3   OH2 4142   1.328   6.421   1.876
 1393TIP3    H1 4143   1.297   6.510   1.896
 1393TIP3    H2 4144   1.342   6.381   1.962
 1394TIP3   OH2 4145   1.422   2.580   0.853
 1394TIP3    H1 4146   1.434   2.642   0.781
 1394TIP3    H2 4147   1.445   2.630   0.931
 1395TIP3   OH2 4148   6.257   5.907   1.589
 1395TIP3    H1 4149   6.196   5.953   1.531
 1395TIP3    H2 4150   6.210   5.900   1.672
 1396TIP3   OH2 4151   6.768   0.174   1.984
 1396TIP3    H1 4152   6.688   0.216   1.953
 1396TIP3    H2 4153   6.799   0.233   2.053
 1397TIP3   OH2 4154   2.552   0.293   1.593
 1397TIP3    H1 4155   2.524   0.267   1.681
 1397TIP3    H2 4156   2.480   0.265   1.536
 1398TIP3   OH2 4157   6.759   0.777   1.042
 1398TIP3    H1 4158   6.669   0.805   1.060
 1398TIP3    H2 4159   6.813   0.829   1.101
 1399TIP3   OH2 4160   1.635   3.442   3.919
 1399TIP3    H1 4161   1.613   3.498   3.845
 1399TIP3    H2 4162   1.580   3.365   3.908
 1400TIP3   OH2 4163   2.120   6.519   1.987
 1400TIP3    H1 4164   2.068   6.587   2.031
 1400TIP3    H2 4165   2.209   6.553   1.988
 1401TIP3   OH2 4166   1.045   4.694   4.738
 1401TIP3    H1 4167   1.114   4.628   4.725
 1401TIP3    H2 4168   1.044   4.709   4.832
 1402TIP3   OH2 4169   2.260   6.223   4.486
 1402TIP3    H1 4170   2.180   6.272   4.465
 1402TIP3    H2 4171   2.317   6.237   4.411
 1403TIP3   OH2 4172   6.770   5.593   1.119
 1403TIP3    H1 4173   6.805   5.504   1.121
 1403TIP3    H2 4174   6.765   5.619   1.210
 1404TIP3   OH2 4175   4.169   6.411   5.630
 1404TIP3    H1 4176   4.184   6.475   5.699
 1404TIP3    H2 4177   4.114   6.344   5.671
 1405TIP3   OH2 4178   5.494   2.336   4.673
 1405TIP3    H1 4179   5.570   2.280   4.691
 1405TIP3    H2 4180   5.423   2.274   4.655
 1406TIP3   OH2 4181   4.340   2.549   1.152
 1406TIP3    H1 4182   4.427   2.587   1.142
 1406TIP3    H2 4183   4.335   2.482   1.083
 1407TIP3   OH2 4184   0.440   5.459   3.851
 1407TIP3    H1 4185   0.453   5.504   3.934
 1407TIP3    H2 4186   0.529   5.443   3.818
 1408TIP3   OH2 4187   0.807   2.785   3.736
 1408TIP3    H1 4188   0.792   2.732   3.814
 1408TIP3    H2 4189   0.721   2.791   3.694
 1409TIP3   OH2 4190   3.991   5.456   2.928
 1409TIP3    H1 4191   3.979   5.492   2.840
 1409TIP3    H2 4192   4.078   5.487   2.954
 1410TIP3   OH2 4193   4.152   2.016   4.248
 1410TIP3    H1 4194   4.085   2.047   4.187
 1410TIP3    H2 4195   4.140   2.070   4.326
 1411TIP3   OH2 4196   0.058   3.972   4.119
 1411TIP3    H1 4197   0.119   3.913   4.074
 1411TIP3    H2 4198  -0.026   3.957   4.075
 1412TIP3   OH2 4199   4.241   5.554   3.011
 1412TIP3    H1 4200   4.268   5.635   2.968
 1412TIP3    H2 4201   4.283   5.556   3.097
 1413TIP3   OH2 4202   2.573   1.025   3.627
 1413TIP3    H1 4203   2.580   1.038   3.721
 1413TIP3    H2 4204   2.619   1.101   3.589
 1414TIP3   OH2 4205   6.134   4.779   1.610
 1414TIP3    H1 4206   6.166   4.833   1.682
 1414TIP3    H2 4207   6.050   4.745   1.641
 1415TIP3   OH2 4208   1.668   2.178   5.772
 1415TIP3    H1 4209   1.750   2.173   5.723
 1415TIP3    H2 4210   1.695   2.188   5.863
 1416TIP3   OH2 4211   0.696   4.514   3.094
 1416TIP3    H1 4212   0.667   4.530   3.004
 1416TIP3    H2 4213   0.619   4.531   3.148
 1417TIP3   OH2 4214   3.468   3.621   1.765
 1417TIP3    H1 4215   3.420   3.539   1.769
 1417TIP3    H2 4216   3.413   3.684   1.811
 1418TIP3   OH2 4217   4.333   4.878   5.096
 1418TIP3    H1 4218   4.428   4.885   5.096
 1418TIP3    H2 4219   4.303   4.941   5.031
 1419TIP3   OH2 4220   0.913   2.345   5.426
 1419TIP3    H1 4221   0.843   2.389   5.377
 1419TIP3    H2 4222   0.994   2.373   5.383
 1420TIP3   OH2 4223   5.291   6.018   3.292
 1420TIP3    H1 4224   5.300   5.988   3.382
 1420TIP3    H2 4225   5.330   6.106   3.291
 1421TIP3   OH2 4226   0.718   0.224   1.209
 1421TIP3    H1 4227   0.754   0.312   1.219
 1421TIP3    H2 4228   0.794   0.166   1.214
 1422TIP3   OH2 4229   6.420   4.453   3.348
 1422TIP3    H1 4230   6.360   4.387   3.384
 1422TIP3    H2 4231   6.504   4.407   3.341
 1423TIP3   OH2 4232   3.169   3.725   3.149
 1423TIP3    H1 4233   3.231   3.683   3.208
 1423TIP3    H2 4234   3.084   3.691   3.176
 1424TIP3   OH2 4235   6.844   3.365   0.907
 1424TIP3    H1 4236   6.894   3.423   0.850
 1424TIP3    H2 4237   6.813   3.422   0.978
 1425TIP3   OH2 4238   6.767   4.712   5.740
 1425TIP3    H1 4239   6.730   4.690   5.825
 1425TIP3    H2 4240   6.827   4.785   5.758
 1426TIP3   OH2 4241   6.802   1.212   3.565
 1426TIP3    H1 4242   6.821   1.175   3.478
 1426TIP3    H2 4243   6.859   1.164   3.625
 1427TIP3   OH2 4244   6.136   1.962   4.585
 1427TIP3    H1 4245   6.102   1.878   4.553
 1427TIP3    H2 4246   6.211   1.980   4.527
 1428TIP3   OH2 4247   4.743   3.589  -0.011
 1428TIP3    H1 4248   4.749   3.564   0.081
 1428TIP3    H2 4249   4.672   3.652  -0.014
 1429TIP3   OH2 4250   3.787   0.806   5.714
 1429TIP3    H1 4251   3.785   0.873   5.782
 1429TIP3    H2 4252   3.834   0.847   5.641
 1430TIP3   OH2 4253   5.262   3.994   4.468
 1430TIP3    H1 4254   5.244   3.961   4.380
 1430TIP3    H2 4255   5.310   3.922   4.510
 1431TIP3   OH2 4256   2.214   0.768   5.618
 1431TIP3    H1 4257   2.149   0.732   5.678
 1431TIP3    H2 4258   2.253   0.692   5.576
 1432TIP3   OH2 4259   1.891   4.663   0.594
 1432TIP3    H1 4260   1.880   4.756   0.576
 1432TIP3    H2 4261   1.808   4.636   0.633
 1433TIP3   OH2 4262   2.083   5.019   4.790
 1433TIP3    H1 4263   1.991   5.045   4.783
 1433TIP3    H2 4264   2.112   5.059   4.872
 1434TIP3   OH2 4265   1.708   2.889   3.573
 1434TIP3    H1 4266   1.748   2.860   3.491
 1434TIP3    H2 4267   1.646   2.820   3.596
 1435TIP3   OH2 4268   1.258   3.428   2.291
 1435TIP3    H1 4269   1.283   3.511   2.330
 1435TIP3    H2 4270   1.192   3.392   2.350
 1436TIP3   OH2 4271   2.421   3.152   0.932
 1436TIP3    H1 4272   2.490   3.085   0.937
 1436TIP3    H2 4273   2.415   3.173   0.839
 1437TIP3   OH2 4274   5.385   0.695   3.376
 1437TIP3    H1 4275   5.379   0.721   3.468
 1437TIP3    H2 4276   5.446   0.757   3.337
 1438TIP3   OH2 4277   1.921   5.018   5.278
 1438TIP3    H1 4278   1.868   4.978   5.347
 1438TIP3    H2 4279   2.010   5.019   5.313
 1439TIP3   OH2 4280   1.983   1.762   0.411
 1439TIP3    H1 4281   2.048   1.707   0.367
 1439TIP3    H2 4282   1.910   1.703   0.429
 1440TIP3   OH2 4283   4.758   2.261   0.730
 1440TIP3    H1 4284   4.780   2.168   0.730
 1440TIP3    H2 4285   4.718   2.276   0.816
 1441TIP3   OH2 4286   1.294   4.017   5.496
 1441TIP3    H1 4287   1.229   4.074   5.538
 1441TIP3    H2 4288   1.252   3.931   5.493
 1442TIP3   OH2 4289   4.982   2.475   5.825
 1442TIP3    H1 4290   4.968   2.548   5.766
 1442TIP3    H2 4291   4.961   2.509   5.912
 1443TIP3   OH2 4292   4.630   6.709   0.157
 1443TIP3    H1 4293   4.563   6.773   0.180
 1443TIP3    H2 4294   4.668   6.741   0.075
 1444TIP3   OH2 4295   6.867   4.431   2.089
 1444TIP3    H1 4296   6.848   4.519   2.057
 1444TIP3    H2 4297   6.861   4.438   2.184
 1445TIP3   OH2 4298   1.482   5.701   3.771
 1445TIP3    H1 4299   1.395   5.731   3.798
 1445TIP3    H2 4300   1.464   5.643   3.696
 1446TIP3   OH2 4301   5.285   6.413   2.358
 1446TIP3    H1 4302   5.234   6.392   2.436
 1446TIP3    H2 4303   5.373   6.432   2.392
 1447TIP3   OH2 4304   3.743   5.144   3.764
 1447TIP3    H1 4305   3.757   5.236   3.784
 1447TIP3    H2 4306   3.713   5.143   3.673
 1448TIP3   OH2 4307   2.435   3.534   0.101
 1448TIP3    H1 4308   2.509   3.545   0.161
 1448TIP3    H2 4309   2.401   3.446   0.120
 1449TIP3   OH2 4310   3.290   3.080   3.948
 1449TIP3    H1 4311   3.219   3.095   3.885
 1449TIP3    H2 4312   3.246   3.074   4.033
 1450TIP3   OH2 4313   5.046   0.684   0.655
 1450TIP3    H1 4314   4.985   0.613   0.679
 1450TIP3    H2 4315   5.037   0.691   0.560
 1451TIP3   OH2 4316   1.434   4.274   5.298
 1451TIP3    H1 4317   1.432   4.181   5.319
 1451TIP3    H2 4318   1.517   4.286   5.251
 1452TIP3   OH2 4319   6.966   5.653   4.353
 1452TIP3    H1 4320   6.940   5.648   4.261
 1452TIP3    H2 4321   6.926   5.576   4.394
 1453TIP3   OH2 4322   3.635   0.123   2.843
 1453TIP3    H1 4323   3.594   0.179   2.777
 1453TIP3    H2 4324   3.572   0.052   2.857
 1454TIP3   OH2 4325   4.009   2.241   0.851
 1454TIP3    H1 4326   4.067   2.304   0.809
 1454TIP3    H2 4327   3.929   2.244   0.798
 1455TIP3   OH2 4328   2.105   3.107   0.644
 1455TIP3    H1 4329   2.073   3.034   0.697
 1455TIP3    H2 4330   2.026   3.152   0.614
 1456TIP3   OH2 4331   2.636   5.364   5.291
 1456TIP3    H1 4332   2.710   5.316   5.328
 1456TIP3    H2 4333   2.563   5.344   5.350
 1457TIP3   OH2 4334   3.003   3.465   4.979
 1457TIP3    H1 4335   2.988   3.376   4.948
 1457TIP3    H2 4336   3.062   3.455   5.054
 1458TIP3   OH2 4337   5.726   6.680   2.849
 1458TIP3    H1 4338   5.798   6.726   2.805
 1458TIP3    H2 4339   5.761   6.658   2.935
 1459TIP3   OH2 4340   3.996   6.112   1.084
 1459TIP3    H1 4341   4.085   6.111   1.048
 1459TIP3    H2 4342   3.978   6.204   1.102
 1460TIP3   OH2 4343   6.310   1.863   1.491
 1460TIP3    H1 4344   6.393   1.843   1.448
 1460TIP3    H2 4345   6.260   1.781   1.487
 1461TIP3   OH2 4346   4.398   4.435   0.865
 1461TIP3    H1 4347   4.343   4.462   0.939
 1461TIP3    H2 4348   4.339   4.433   0.790
 1462TIP3   OH2 4349   6.515   3.561   5.347
 1462TIP3    H1 4350   6.435   3.601   5.383
 1462TIP3    H2 4351   6.577   3.633   5.340
 1463TIP3   OH2 4352   0.584   3.273   3.963
 1463TIP3    H1 4353   0.524   3.347   3.952
 1463TIP3    H2 4354   0.574   3.247   4.055
 1464TIP3   OH2 4355   7.164   5.212   0.717
 1464TIP3    H1 4356   7.220   5.260   0.656
 1464TIP3    H2 4357   7.085   5.265   0.724
 1465TIP3   OH2 4358   6.036   2.933   2.797
 1465TIP3    H1 4359   6.131   2.940   2.810
 1465TIP3    H2 4360   6.009   2.866   2.860
 1466TIP3   OH2 4361   0.303   5.036   0.170
 1466TIP3    H1 4362   0.365   5.095   0.213
 1466TIP3    H2 4363   0.315   4.952   0.215
 1467TIP3   OH2 4364   1.553   1.329   2.400
 1467TIP3    H1 4365   1.586   1.271   2.331
 1467TIP3    H2 4366   1.604   1.305   2.477
 1468TIP3   OH2 4367   3.868   6.393   1.257
 1468TIP3    H1 4368   3.906   6.440   1.183
 1468TIP3    H2 4369   3.867   6.456   1.329
 1469TIP3   OH2 4370   1.023   0.986   0.519
 1469TIP3    H1 4371   1.063   0.907   0.483
 1469TIP3    H2 4372   0.942   0.956   0.561
 1470TIP3   OH2 4373   0.058   1.398   1.549
 1470TIP3    H1 4374   0.054   1.405   1.454
 1470TIP3    H2 4375   0.111   1.473   1.577
 1471TIP3   OH2 4376   6.661   1.952   0.889
 1471TIP3    H1 4377   6.575   1.910   0.890
 1471TIP3    H2 4378   6.655   2.018   0.820
 1472TIP3   OH2 4379   0.592   4.832   3.774
 1472TIP3    H1 4380   0.661   4.898   3.782
 1472TIP3    H2 4381   0.514   4.882   3.750
 1473TIP3   OH2 4382   3.745   0.200   1.557
 1473TIP3    H1 4383   3.827   0.244   1.580
 1473TIP3    H2 4384   3.772   0.131   1.497
 1474TIP3   OH2 4385   6.841   3.046   1.372
 1474TIP3    H1 4386   6.851   3.017   1.281
 1474TIP3    H2 4387   6.874   2.972   1.424
 1475TIP3   OH2 4388   2.028   3.858   5.174
 1475TIP3    H1 4389   1.952   3.841   5.230
 1475TIP3    H2 4390   2.065   3.771   5.159
 1476TIP3   OH2 4391   2.550   5.175   4.182
 1476TIP3    H1 4392   2.466   5.131   4.192
 1476TIP3    H2 4393   2.615   5.105   4.190
 1477TIP3   OH2 4394   0.203   5.119   0.822
 1477TIP3    H1 4395   0.227   5.046   0.766
 1477TIP3    H2 4396   0.110   5.133   0.805
 1478TIP3   OH2 4397   4.395   6.299   4.709
 1478TIP3    H1 4398   4.427   6.223   4.759
 1478TIP3    H2 4399   4.299   6.291   4.712
 1479TIP3   OH2 4400   6.675   5.517   3.467
 1479TIP3    H1 4401   6.716   5.437   3.434
 1479TIP3    H2 4402   6.604   5.535   3.405
 1480TIP3   OH2 4403   5.837   5.809   4.284
 1480TIP3    H1 4404   5.769   5.875   4.270
 1480TIP3    H2 4405   5.883   5.804   4.201
 1481TIP3   OH2 4406   1.630   1.448   3.859
 1481TIP3    H1 4407   1.659   1.466   3.770
 1481TIP3    H2 4408   1.620   1.535   3.899
 1482TIP3   OH2 4409   5.778   5.589   1.362
 1482TIP3    H1 4410   5.712   5.583   1.293
 1482TIP3    H2 4411   5.834   5.662   1.335
 1483TIP3   OH2 4412   7.030   6.727   1.896
 1483TIP3    H1 4413   7.078   6.688   1.823
 1483TIP3    H2 4414   6.965   6.784   1.854
 1484TIP3   OH2 4415   3.081   2.458   4.752
 1484TIP3    H1 4416   3.167   2.500   4.760
 1484TIP3    H2 4417   3.093   2.392   4.683
 1485TIP3   OH2 4418   0.221   1.473   2.389
 1485TIP3    H1 4419   0.231   1.522   2.471
 1485TIP3    H2 4420   0.236   1.537   2.321
 1486TIP3   OH2 4421   0.156   6.113   3.276
 1486TIP3    H1 4422   0.223   6.144   3.336
 1486TIP3    H2 4423   0.119   6.192   3.238
 1487TIP3   OH2 4424   2.280   5.808   4.969
 1487TIP3    H1 4425   2.209   5.844   5.021
 1487TIP3    H2 4426   2.237   5.750   4.906
 1488TIP3   OH2 4427   4.105   4.338   2.430
 1488TIP3    H1 4428   4.191   4.368   2.460
 1488TIP3    H2 4429   4.123   4.264   2.373
 1489TIP3   OH2 4430   0.684   3.657   3.162
 1489TIP3    H1 4431   0.599   3.672   3.122
 1489TIP3    H2 4432   0.667   3.653   3.256
 1490TIP3   OH2 4433   3.499   6.311   3.054
 1490TIP3    H1 4434   3.460   6.226   3.036
 1490TIP3    H2 4435   3.588   6.304   3.020
 1491TIP3   OH2 4436   4.595   5.331   1.909
 1491TIP3    H1 4437   4.560   5.390   1.975
 1491TIP3    H2 4438   4.530   5.261   1.902
 1492TIP3   OH2 4439   3.745   0.399   1.787
 1492TIP3    H1 4440   3.663   0.399   1.737
 1492TIP3    H2 4441   3.806   0.449   1.733
 1493TIP3   OH2 4442   6.738   2.762   1.053
 1493TIP3    H1 4443   6.659   2.784   1.102
 1493TIP3    H2 4444   6.740   2.822   0.979
 1494TIP3   OH2 4445   0.283   1.572   3.468
 1494TIP3    H1 4446   0.200   1.560   3.423
 1494TIP3    H2 4447   0.261   1.620   3.548
 1495TIP3   OH2 4448   3.064   3.565   4.099
 1495TIP3    H1 4449   3.151   3.586   4.065
 1495TIP3    H2 4450   3.058   3.470   4.091
 1496TIP3   OH2 4451   2.816   0.639   4.619
 1496TIP3    H1 4452   2.848   0.722   4.652
 1496TIP3    H2 4453   2.843   0.575   4.684
 1497TIP3   OH2 4454   3.796   3.905   1.606
 1497TIP3    H1 4455   3.887   3.891   1.581
 1497TIP3    H2 4456   3.774   3.832   1.662
 1498TIP3   OH2 4457   1.543   2.263   4.929
 1498TIP3    H1 4458   1.632   2.261   4.964
 1498TIP3    H2 4459   1.551   2.308   4.845
 1499TIP3   OH2 4460   5.945   4.983   0.024
 1499TIP3    H1 4461   5.935   4.902   0.076
 1499TIP3    H2 4462   6.037   4.983  -0.001
 1500TIP3   OH2 4463   2.601   0.523   5.718
 1500TIP3    H1 4464   2.552   0.539   5.799
 1500TIP3    H2 4465   2.618   0.429   5.719
 1501TIP3   OH2 4466   5.737   2.339   4.971
 1501TIP3    H1 4467   5.642   2.336   4.983
 1501TIP3    H2 4468   5.770   2.368   5.056
 1502TIP3   OH2 4469   4.417   6.002   3.924
 1502TIP3    H1 4470   4.497   6.047   3.898
 1502TIP3    H2 4471   4.347   6.065   3.905
 1503TIP3   OH2 4472   6.313   5.300   5.640
 1503TIP3    H1 4473   6.234   5.259   5.605
 1503TIP3    H2 4474   6.322   5.264   5.729
 1504TIP3   OH2 4475   1.165   1.714   0.428
 1504TIP3    H1 4476   1.141   1.729   0.336
 1504TIP3    H2 4477   1.257   1.738   0.432
 1505TIP3   OH2 4478   3.587   2.060   3.183
 1505TIP3    H1 4479   3.616   1.985   3.132
 1505TIP3    H2 4480   3.544   2.022   3.259
 1506TIP3   OH2 4481   2.463   4.081   2.861
 1506TIP3    H1 4482   2.551   4.045   2.854
 1506TIP3    H2 4483   2.457   4.145   2.790
 1507TIP3   OH2 4484   0.290   4.461   1.596
 1507TIP3    H1 4485   0.264   4.534   1.652
 1507TIP3    H2 4486   0.381   4.479   1.573
 1508TIP3   OH2 4487   4.396   4.710   3.869
 1508TIP3    H1 4488   4.326   4.651   3.897
 1508TIP3    H2 4489   4.475   4.656   3.869
 1509TIP3   OH2 4490   2.171   4.525   1.475
 1509TIP3    H1 4491   2.258   4.488   1.457
 1509TIP3    H2 4492   2.135   4.545   1.389
 1510TIP3   OH2 4493   3.809   5.723   3.440
 1510TIP3    H1 4494   3.853   5.770   3.369
 1510TIP3    H2 4495   3.820   5.631   3.418
 1511TIP3   OH2 4496   3.976   1.393   3.013
 1511TIP3    H1 4497   3.935   1.360   3.093
 1511TIP3    H2 4498   4.062   1.423   3.041
 1512TIP3   OH2 4499   0.673   6.004   0.861
 1512TIP3    H1 4500   0.680   6.066   0.934
 1512TIP3    H2 4501   0.721   6.047   0.790
 1513TIP3   OH2 4502   6.817   0.083   0.693
 1513TIP3    H1 4503   6.838  -0.010   0.703
 1513TIP3    H2 4504   6.769   0.088   0.610
 1514TIP3   OH2 4505   2.837   3.957   1.381
 1514TIP3    H1 4506   2.917   3.908   1.362
 1514TIP3    H2 4507   2.849   4.041   1.338
 1515TIP3   OH2 4508   0.843   6.759   2.022
 1515TIP3    H1 4509   0.850   6.762   1.926
 1515TIP3    H2 4510   0.813   6.847   2.046
 1516TIP3   OH2 4511   3.233   1.538   0.820
 1516TIP3    H1 4512   3.175   1.501   0.754
 1516TIP3    H2 4513   3.184   1.531   0.902
 1517TIP3   OH2 4514   2.774   5.065   4.588
 1517TIP3    H1 4515   2.720   5.002   4.540
 1517TIP3    H2 4516   2.722   5.146   4.587
 1518TIP3   OH2 4517   4.351   4.008   3.307
 1518TIP3    H1 4518   4.325   4.084   3.255
 1518TIP3    H2 4519   4.378   4.045   3.391
 1519TIP3   OH2 4520   2.635   3.198   0.671
 1519TIP3    H1 4521   2.685   3.122   0.641
 1519TIP3    H2 4522   2.545   3.180   0.643
 1520TIP3   OH2 4523   0.730   0.653   3.853
 1520TIP3    H1 4524   0.661   0.718   3.848
 1520TIP3    H2 4525   0.692   0.581   3.903
 1521TIP3   OH2 4526   1.077   0.729   3.946
 1521TIP3    H1 4527   1.154   0.770   3.906
 1521TIP3    H2 4528   1.108   0.694   4.029
 1522TIP3   OH2 4529   3.177   0.836   1.223
 1522TIP3    H1 4530   3.261   0.794   1.203
 1522TIP3    H2 4531   3.140   0.856   1.137
 1523TIP3   OH2 4532   3.733   5.957   0.443
 1523TIP3    H1 4533   3.654   5.938   0.393
 1523TIP3    H2 4534   3.723   5.908   0.524
 1524TIP3   OH2 4535   0.093   4.396   0.981
 1524TIP3    H1 4536   0.022   4.410   0.918
 1524TIP3    H2 4537   0.171   4.383   0.927
 1525TIP3   OH2 4538   4.600   0.759   3.144
 1525TIP3    H1 4539   4.666   0.758   3.074
 1525TIP3    H2 4540   4.528   0.810   3.108
 1526TIP3   OH2 4541   4.222   3.581   2.369
 1526TIP3    H1 4542   4.180   3.519   2.309
 1526TIP3    H2 4543   4.296   3.532   2.405
 1527TIP3   OH2 4544   6.594   1.836   0.432
 1527TIP3    H1 4545   6.685   1.864   0.446
 1527TIP3    H2 4546   6.584   1.834   0.337
 1528TIP3   OH2 4547   3.200   3.559   0.019
 1528TIP3    H1 4548   3.123   3.610  -0.009
 1528TIP3    H2 4549   3.274   3.616   0.000
 1529TIP3   OH2 4550   2.337   1.272   5.484
 1529TIP3    H1 4551   2.378   1.297   5.401
 1529TIP3    H2 4552   2.410   1.244   5.539
 1530TIP3   OH2 4553   6.780   1.618   5.264
 1530TIP3    H1 4554   6.775   1.544   5.324
 1530TIP3    H2 4555   6.869   1.615   5.229
 1531TIP3   OH2 4556   0.036   5.109   3.589
 1531TIP3    H1 4557  -0.031   5.160   3.633
 1531TIP3    H2 4558   0.056   5.037   3.649
 1532TIP3   OH2 4559   0.310  -0.015   1.238
 1532TIP3    H1 4560   0.376   0.054   1.228
 1532TIP3    H2 4561   0.271   0.003   1.324
 1533TIP3   OH2 4562   6.062   6.763   3.682
 1533TIP3    H1 4563   6.095   6.677   3.656
 1533TIP3    H2 4564   6.035   6.751   3.774
 1534TIP3   OH2 4565   4.468   4.878   1.711
 1534TIP3    H1 4566   4.424   4.841   1.634
 1534TIP3    H2 4567   4.529   4.809   1.738
 1535TIP3   OH2 4568   4.083   2.037   2.227
 1535TIP3    H1 4569   4.016   2.098   2.258
 1535TIP3    H2 4570   4.067   2.030   2.133
 1536TIP3   OH2 4571   2.680   3.007   4.937
 1536TIP3    H1 4572   2.617   3.078   4.925
 1536TIP3    H2 4573   2.731   3.007   4.856
 1537TIP3   OH2 4574   6.984   4.599   0.641
 1537TIP3    H1 4575   7.071   4.618   0.676
 1537TIP3    H2 4576   6.924   4.635   0.706
 1538TIP3   OH2 4577   1.051   0.840   3.649
 1538TIP3    H1 4578   1.021   0.767   3.703
 1538TIP3    H2 4579   1.039   0.917   3.704
 1539TIP3   OH2 4580   5.052   3.048   3.579
 1539TIP3    H1 4581   5.078   3.136   3.552
 1539TIP3    H2 4582   5.084   2.991   3.509
 1540TIP3   OH2 4583   3.167   6.777   1.035
 1540TIP3    H1 4584   3.220   6.701   1.012
 1540TIP3    H2 4585   3.103   6.785   0.964
 1541TIP3   OH2 4586   0.218   1.161   1.647
 1541TIP3    H1 4587   0.147   1.218   1.677
 1541TIP3    H2 4588   0.284   1.167   1.716
 1542TIP3   OH2 4589   0.283   0.657   0.118
 1542TIP3    H1 4590   0.353   0.624   0.173
 1542TIP3    H2 4591   0.325   0.722   0.062
 1543TIP3   OH2 4592   6.583   4.190   2.932
 1543TIP3    H1 4593   6.628   4.235   3.004
 1543TIP3    H2 4594   6.495   4.175   2.965
 1544TIP3   OH2 4595   0.376   6.821   5.577
 1544TIP3    H1 4596   0.364   6.739   5.530
 1544TIP3    H2 4597   0.343   6.803   5.665
 1545TIP3   OH2 4598   4.678   0.423   1.479
 1545TIP3    H1 4599   4.625   0.371   1.419
 1545TIP3    H2 4600   4.615   0.481   1.522
 1546TIP3   OH2 4601   4.351   5.858   5.438
 1546TIP3    H1 4602   4.327   5.870   5.346
 1546TIP3    H2 4603   4.298   5.783   5.466
 1547TIP3   OH2 4604   0.592   1.035   0.411
 1547TIP3    H1 4605   0.497   1.019   0.414
 1547TIP3    H2 4606   0.609   1.092   0.486
 1548TIP3   OH2 4607   3.415   6.435   1.438
 1548TIP3    H1 4608   3.464   6.397   1.511
 1548TIP3    H2 4609   3.404   6.527   1.462
 1549TIP3   OH2 4610   5.427   0.892   4.306
 1549TIP3    H1 4611   5.356   0.903   4.368
 1549TIP3    H2 4612   5.383   0.878   4.221
 1550TIP3   OH2 4613   2.463   5.629   4.543
 1550TIP3    H1 4614   2.544   5.629   4.594
 1550TIP3    H2 4615   2.492   5.645   4.453
 1551TIP3   OH2 4616   6.578   3.102   4.927
 1551TIP3    H1 4617   6.628   3.154   4.865
 1551TIP3    H2 4618   6.641   3.040   4.964
 1552TIP3   OH2 4619   1.701   3.244   5.500
 1552TIP3    H1 4620   1.647   3.178   5.544
 1552TIP3    H2 4621   1.726   3.304   5.570
 1553TIP3   OH2 4622   0.726   4.055   4.583
 1553TIP3    H1 4623   0.800   3.996   4.570
 1553TIP3    H2 4624   0.710   4.092   4.496
 1554TIP3   OH2 4625   2.935   4.164   1.780
 1554TIP3    H1 4626   2.982   4.245   1.797
 1554TIP3    H2 4627   2.856   4.191   1.733
 1555TIP3   OH2 4628   2.520   4.389   2.883
 1555TIP3    H1 4629   2.587   4.395   2.815
 1555TIP3    H2 4630   2.452   4.333   2.845
 1556TIP3   OH2 4631   6.454   0.142   0.481
 1556TIP3    H1 4632   6.476   0.125   0.389
 1556TIP3    H2 4633   6.511   0.215   0.506
 1557TIP3   OH2 4634   4.496   5.166   0.463
 1557TIP3    H1 4635   4.507   5.072   0.476
 1557TIP3    H2 4636   4.435   5.173   0.390
 1558TIP3   OH2 4637   2.741   1.837   2.777
 1558TIP3    H1 4638   2.789   1.815   2.697
 1558TIP3    H2 4639   2.710   1.927   2.762
 1559TIP3   OH2 4640   5.215   0.024   3.765
 1559TIP3    H1 4641   5.252   0.073   3.838
 1559TIP3    H2 4642   5.281   0.031   3.696
 1560TIP3   OH2 4643   0.651   1.854   2.355
 1560TIP3    H1 4644   0.660   1.830   2.447
 1560TIP3    H2 4645   0.594   1.931   2.356
 1561TIP3   OH2 4646   4.698   1.734   0.764
 1561TIP3    H1 4647   4.689   1.653   0.714
 1561TIP3    H2 4648   4.740   1.707   0.846
 1562TIP3   OH2 4649  -0.018   1.722   3.453
 1562TIP3    H1 4650   0.043   1.690   3.520
 1562TIP3    H2 4651   0.038   1.746   3.379
 1563TIP3   OH2 4652   2.561   5.906   0.725
 1563TIP3    H1 4653   2.577   5.917   0.631
 1563TIP3    H2 4654   2.558   5.995   0.759
 1564TIP3   OH2 4655   3.895   1.381   1.882
 1564TIP3    H1 4656   3.899   1.406   1.974
 1564TIP3    H2 4657   3.866   1.460   1.837
 1565TIP3   OH2 4658   4.774   5.829   2.678
 1565TIP3    H1 4659   4.803   5.867   2.595
 1565TIP3    H2 4660   4.785   5.899   2.742
 1566TIP3   OH2 4661   5.735   3.349   3.678
 1566TIP3    H1 4662   5.780   3.350   3.762
 1566TIP3    H2 4663   5.646   3.320   3.699
 1567TIP3   OH2 4664   3.424   1.467   2.291
 1567TIP3    H1 4665   3.483   1.489   2.219
 1567TIP3    H2 4666   3.341   1.445   2.249
 1568TIP3   OH2 4667   3.167   4.496   5.015
 1568TIP3    H1 4668   3.219   4.576   5.010
 1568TIP3    H2 4669   3.112   4.498   4.937
 1569TIP3   OH2 4670   5.811   0.723   0.966
 1569TIP3    H1 4671   5.851   0.777   0.898
 1569TIP3    H2 4672   5.852   0.637   0.956
 1570TIP3   OH2 4673   5.244   5.038   3.140
 1570TIP3    H1 4674   5.182   4.978   3.099
 1570TIP3    H2 4675   5.315   4.981   3.171
 1571TIP3   OH2 4676   3.500   5.923   5.044
 1571TIP3    H1 4677   3.551   5.927   5.126
 1571TIP3    H2 4678   3.443   5.847   5.056
 1572TIP3   OH2 4679   2.877   5.315   0.846
 1572TIP3    H1 4680   2.786   5.343   0.845
 1572TIP3    H2 4681   2.898   5.301   0.754
 1573TIP3   OH2 4682   2.506   0.871   4.603
 1573TIP3    H1 4683   2.521   0.792   4.551
 1573TIP3    H2 4684   2.454   0.841   4.678
 1574TIP3   OH2 4685   3.417   5.900   5.405
 1574TIP3    H1 4686   3.450   5.813   5.385
 1574TIP3    H2 4687   3.479   5.959   5.362
 1575TIP3   OH2 4688   2.305   6.787   5.391
 1575TIP3    H1 4689   2.311   6.714   5.330
 1575TIP3    H2 4690   2.331   6.863   5.340
 1576TIP3   OH2 4691   1.646   5.095   4.404
 1576TIP3    H1 4692   1.599   5.155   4.347
 1576TIP3    H2 4693   1.704   5.152   4.455
 1577TIP3   OH2 4694   2.090   1.918   0.769
 1577TIP3    H1 4695   2.022   1.985   0.768
 1577TIP3    H2 4696   2.158   1.952   0.711
 1578TIP3   OH2 4697   1.055   3.587   4.290
 1578TIP3    H1 4698   0.998   3.535   4.346
 1578TIP3    H2 4699   1.111   3.523   4.246
 1579TIP3   OH2 4700   2.477   3.182   4.873
 1579TIP3    H1 4701   2.449   3.260   4.824
 1579TIP3    H2 4702   2.445   3.196   4.962
 1580TIP3   OH2 4703   4.111   0.269   5.797
 1580TIP3    H1 4704   4.113   0.246   5.890
 1580TIP3    H2 4705   4.199   0.252   5.766
 1581TIP3   OH2 4706   5.488   0.479   2.437
 1581TIP3    H1 4707   5.560   0.500   2.497
 1581TIP3    H2 4708   5.532   0.452   2.356
 1582TIP3   OH2 4709   4.427   0.153   3.257
 1582TIP3    H1 4710   4.409   0.096   3.182
 1582TIP3    H2 4711   4.486   0.102   3.312
 1583TIP3   OH2 4712   0.819   5.745   5.131
 1583TIP3    H1 4713   0.907   5.725   5.162
 1583TIP3    H2 4714   0.820   5.719   5.039
 1584TIP3   OH2 4715   6.782   3.953   2.019
 1584TIP3    H1 4716   6.707   4.010   2.006
 1584TIP3    H2 4717   6.857   4.012   2.017
 1585TIP3   OH2 4718   4.022   5.513   5.359
 1585TIP3    H1 4719   3.935   5.490   5.327
 1585TIP3    H2 4720   4.011   5.525   5.454
 1586TIP3   OH2 4721   0.458   4.169   1.638
 1586TIP3    H1 4722   0.551   4.150   1.642
 1586TIP3    H2 4723   0.416   4.083   1.643
 1587TIP3   OH2 4724   6.482   0.630   0.188
 1587TIP3    H1 4725   6.563   0.658   0.144
 1587TIP3    H2 4726   6.453   0.554   0.138
 1588TIP3   OH2 4727   1.104   6.524   3.739
 1588TIP3    H1 4728   1.090   6.491   3.651
 1588TIP3    H2 4729   1.017   6.551   3.769
 1589TIP3   OH2 4730   1.757   5.305   2.661
 1589TIP3    H1 4731   1.831   5.295   2.602
 1589TIP3    H2 4732   1.797   5.321   2.747
 1590TIP3   OH2 4733   3.766   3.408   2.588
 1590TIP3    H1 4734   3.745   3.465   2.662
 1590TIP3    H2 4735   3.706   3.334   2.596
 1591TIP3   OH2 4736   1.670   1.102   2.341
 1591TIP3    H1 4737   1.656   1.086   2.248
 1591TIP3    H2 4738   1.742   1.044   2.365
 1592TIP3   OH2 4739   3.421   3.852   3.568
 1592TIP3    H1 4740   3.440   3.897   3.650
 1592TIP3    H2 4741   3.336   3.811   3.582
 1593TIP3   OH2 4742   2.209   6.571   0.760
 1593TIP3    H1 4743   2.130   6.613   0.726
 1593TIP3    H2 4744   2.252   6.534   0.682
 1594TIP3   OH2 4745   2.874   6.131   2.138
 1594TIP3    H1 4746   2.925   6.085   2.071
 1594TIP3    H2 4747   2.786   6.092   2.132
 1595TIP3   OH2 4748   4.870   1.978   4.690
 1595TIP3    H1 4749   4.939   1.916   4.713
 1595TIP3    H2 4750   4.878   1.989   4.595
 1596TIP3   OH2 4751   5.637   3.566   2.829
 1596TIP3    H1 4752   5.717   3.514   2.828
 1596TIP3    H2 4753   5.567   3.503   2.840
 1597TIP3   OH2 4754   6.673   5.608   5.502
 1597TIP3    H1 4755   6.620   5.663   5.559
 1597TIP3    H2 4756   6.737   5.668   5.463
 1598TIP3   OH2 4757   3.980   4.793   5.095
 1598TIP3    H1 4758   3.918   4.721   5.107
 1598TIP3    H2 4759   4.038   4.787   5.171
 1599TIP3   OH2 4760   7.168   1.634   2.479
 1599TIP3    H1 4761   7.206   1.599   2.560
 1599TIP3    H2 4762   7.182   1.729   2.486
 1600TIP3   OH2 4763   3.342   5.702   4.806
 1600TIP3    H1 4764   3.288   5.625   4.790
 1600TIP3    H2 4765   3.421   5.687   4.755
 1601TIP3   OH2 4766   0.481   0.561   1.147
 1601TIP3    H1 4767   0.546   0.563   1.217
 1601TIP3    H2 4768   0.533   0.567   1.066
 1602TIP3   OH2 4769   0.468   3.148   0.387
 1602TIP3    H1 4770   0.378   3.158   0.355
 1602TIP3    H2 4771   0.478   3.220   0.450
 1603TIP3   OH2 4772   0.513   0.774   2.987
 1603TIP3    H1 4773   0.469   0.851   2.951
 1603TIP3    H2 4774   0.606   0.790   2.971
 1604TIP3   OH2 4775   0.253   2.295   5.047
 1604TIP3    H1 4776   0.288   2.384   5.040
 1604TIP3    H2 4777   0.283   2.251   4.968
 1605TIP3   OH2 4778   4.151   2.255   0.529
 1605TIP3    H1 4779   4.178   2.172   0.568
 1605TIP3    H2 4780   4.164   2.320   0.599
 1606TIP3   OH2 4781   7.173   4.090   4.669
 1606TIP3    H1 4782   7.215   4.151   4.730
 1606TIP3    H2 4783   7.160   4.010   4.720
 1607TIP3   OH2 4784   1.886   3.311   0.770
 1607TIP3    H1 4785   1.831   3.386   0.792
 1607TIP3    H2 4786   1.973   3.335   0.801
 1608TIP3   OH2 4787   7.091   2.404   1.952
 1608TIP3    H1 4788   7.164   2.344   1.969
 1608TIP3    H2 4789   7.111   2.482   2.005
 1609TIP3   OH2 4790   6.836   1.910   0.537
 1609TIP3    H1 4791   6.869   1.821   0.546
 1609TIP3    H2 4792   6.820   1.939   0.627
 1610TIP3   OH2 4793   2.887   6.453   2.971
 1610TIP3    H1 4794   2.912   6.541   2.942
 1610TIP3    H2 4795   2.897   6.455   3.066
 1611TIP3   OH2 4796   5.738   2.274   0.451
 1611TIP3    H1 4797   5.656   2.286   0.403
 1611TIP3    H2 4798   5.785   2.357   0.439
 1612TIP3   OH2 4799   4.742   4.861   2.334
 1612TIP3    H1 4800   4.820   4.811   2.311
 1612TIP3    H2 4801   4.755   4.884   2.426
 1613TIP3   OH2 4802   1.006   1.050   3.087
 1613TIP3    H1 4803   0.921   1.060   3.130
 1613TIP3    H2 4804   0.986   1.053   2.994
 1614TIP3   OH2 4805   2.460   3.717   4.152
 1614TIP3    H1 4806   2.419   3.632   4.134
 1614TIP3    H2 4807   2.501   3.742   4.070
 1615TIP3   OH2 4808   0.358   1.711   5.785
 1615TIP3    H1 4809   0.392   1.797   5.761
 1615TIP3    H2 4810   0.400   1.651   5.724
 1616TIP3   OH2 4811   6.190   3.270   5.358
 1616TIP3    H1 4812   6.248   3.207   5.314
 1616TIP3    H2 4813   6.102   3.246   5.330
 1617TIP3   OH2 4814   0.823   0.491   4.722
 1617TIP3    H1 4815   0.763   0.541   4.667
 1617TIP3    H2 4816   0.824   0.537   4.806
 1618TIP3   OH2 4817   4.989   3.156   4.192
 1618TIP3    H1 4818   5.048   3.182   4.122
 1618TIP3    H2 4819   4.943   3.236   4.216
 1619TIP3   OH2 4820   5.317   5.438   5.231
 1619TIP3    H1 4821   5.400   5.427   5.185
 1619TIP3    H2 4822   5.329   5.391   5.314
 1620TIP3   OH2 4823   5.411   4.481   4.456
 1620TIP3    H1 4824   5.436   4.456   4.367
 1620TIP3    H2 4825   5.393   4.398   4.500
 1621TIP3   OH2 4826   5.526   2.481   2.253
 1621TIP3    H1 4827   5.569   2.554   2.299
 1621TIP3    H2 4828   5.432   2.501   2.260
 1622TIP3   OH2 4829   6.874   4.586   3.163
 1622TIP3    H1 4830   6.885   4.672   3.122
 1622TIP3    H2 4831   6.834   4.606   3.248
 1623TIP3   OH2 4832   5.627   5.527   1.855
 1623TIP3    H1 4833   5.610   5.571   1.939
 1623TIP3    H2 4834   5.546   5.537   1.806
 1624TIP3   OH2 4835   3.702   1.142   1.213
 1624TIP3    H1 4836   3.609   1.129   1.194
 1624TIP3    H2 4837   3.711   1.116   1.305
 1625TIP3   OH2 4838   3.533   3.412   4.763
 1625TIP3    H1 4839   3.548   3.373   4.677
 1625TIP3    H2 4840   3.446   3.380   4.789
 1626TIP3   OH2 4841   0.401   1.448   1.515
 1626TIP3    H1 4842   0.442   1.385   1.575
 1626TIP3    H2 4843   0.338   1.495   1.569
 1627TIP3   OH2 4844   5.359   4.196   2.501
 1627TIP3    H1 4845   5.327   4.183   2.412
 1627TIP3    H2 4846   5.447   4.232   2.489
 1628TIP3   OH2 4847   5.462   6.335   0.763
 1628TIP3    H1 4848   5.428   6.421   0.789
 1628TIP3    H2 4849   5.469   6.287   0.846
 1629TIP3   OH2 4850   1.618   1.309   5.150
 1629TIP3    H1 4851   1.592   1.256   5.225
 1629TIP3    H2 4852   1.610   1.399   5.180
 1630TIP3   OH2 4853   4.795   5.115   2.858
 1630TIP3    H1 4854   4.876   5.089   2.902
 1630TIP3    H2 4855   4.729   5.119   2.928
 1631TIP3   OH2 4856   1.904   3.059   1.947
 1631TIP3    H1 4857   1.886   2.975   1.989
 1631TIP3    H2 4858   1.825   3.078   1.896
 1632TIP3   OH2 4859   1.416   0.082   4.806
 1632TIP3    H1 4860   1.449   0.171   4.822
 1632TIP3    H2 4861   1.420   0.073   4.711
 1633TIP3   OH2 4862   4.058   0.157   4.476
 1633TIP3    H1 4863   3.987   0.220   4.479
 1633TIP3    H2 4864   4.101   0.166   4.562
 1634TIP3   OH2 4865   2.999   5.761   3.592
 1634TIP3    H1 4866   3.066   5.695   3.608
 1634TIP3    H2 4867   2.938   5.719   3.531
 1635TIP3   OH2 4868   5.728   1.804   4.156
 1635TIP3    H1 4869   5.670   1.762   4.220
 1635TIP3    H2 4870   5.697   1.894   4.152
 1636TIP3   OH2 4871   1.537   0.714   2.963
 1636TIP3    H1 4872   1.582   0.657   3.025
 1636TIP3    H2 4873   1.456   0.738   3.007
 1637TIP3   OH2 4874   2.887   1.380   4.437
 1637TIP3    H1 4875   2.947   1.445   4.400
 1637TIP3    H2 4876   2.804   1.395   4.392
 1638TIP3   OH2 4877   5.640   3.358   5.709
 1638TIP3    H1 4878   5.590   3.411   5.771
 1638TIP3    H2 4879   5.665   3.280   5.759
 1639TIP3   OH2 4880   0.155   6.780   2.905
 1639TIP3    H1 4881   0.101   6.859   2.905
 1639TIP3    H2 4882   0.167   6.759   2.997
 1640TIP3   OH2 4883   6.850   6.373   3.355
 1640TIP3    H1 4884   6.787   6.371   3.428
 1640TIP3    H2 4885   6.920   6.431   3.385
 1641TIP3   OH2 4886   2.807   4.517   0.332
 1641TIP3    H1 4887   2.784   4.458   0.404
 1641TIP3    H2 4888   2.759   4.482   0.257
 1642TIP3   OH2 4889   4.591   0.042   1.875
 1642TIP3    H1 4890   4.666  -0.007   1.909
 1642TIP3    H2 4891   4.581   0.114   1.937
 1643TIP3   OH2 4892   2.275   6.190   5.100
 1643TIP3    H1 4893   2.347   6.168   5.159
 1643TIP3    H2 4894   2.287   6.132   5.025
 1644TIP3   OH2 4895   7.105   5.364   4.282
 1644TIP3    H1 4896   7.092   5.301   4.211
 1644TIP3    H2 4897   7.026   5.358   4.334
 1645TIP3   OH2 4898   2.502   4.794   2.556
 1645TIP3    H1 4899   2.547   4.720   2.597
 1645TIP3    H2 4900   2.554   4.815   2.479
 1646TIP3   OH2 4901   4.352   4.164   2.967
 1646TIP3    H1 4902   4.391   4.187   2.883
 1646TIP3    H2 4903   4.399   4.085   2.994
 1647TIP3   OH2 4904   2.001   1.488   1.138
 1647TIP3    H1 4905   1.999   1.396   1.114
 1647TIP3    H2 4906   1.965   1.534   1.062
 1648TIP3   OH2 4907   5.959   3.653   3.521
 1648TIP3    H1 4908   5.985   3.608   3.602
 1648TIP3    H2 4909   5.877   3.611   3.495
 1649TIP3   OH2 4910   7.104   3.240   4.143
 1649TIP3    H1 4911   7.196   3.263   4.159
 1649TIP3    H2 4912   7.075   3.199   4.225
 1650TIP3   OH2 4913   6.771   3.294   4.828
 1650TIP3    H1 4914   6.864   3.272   4.833
 1650TIP3    H2 4915   6.740   3.249   4.750
 1651TIP3   OH2 4916   6.179   0.850   1.977
 1651TIP3    H1 4917   6.141   0.812   1.898
 1651TIP3    H2 4918   6.256   0.796   1.995
 1652TIP3   OH2 4919   2.711   0.293   4.485
 1652TIP3    H1 4920   2.692   0.258   4.398
 1652TIP3    H2 4921   2.805   0.312   4.484
 1653TIP3   OH2 4922   4.836   5.662   3.679
 1653TIP3    H1 4923   4.918   5.612   3.670
 1653TIP3    H2 4924   4.831   5.714   3.598
 1654TIP3   OH2 4925   1.565   4.664   4.460
 1654TIP3    H1 4926   1.601   4.666   4.371
 1654TIP3    H2 4927   1.642   4.655   4.517
 1655TIP3   OH2 4928   3.048   4.180   4.902
 1655TIP3    H1 4929   3.088   4.187   4.815
 1655TIP3    H2 4930   2.962   4.222   4.892
 1656TIP3   OH2 4931   6.869   5.611   5.751
 1656TIP3    H1 4932   6.909   5.618   5.664
 1656TIP3    H2 4933   6.838   5.521   5.755
 1657TIP3   OH2 4934   6.143   1.510   5.578
 1657TIP3    H1 4935   6.209   1.505   5.509
 1657TIP3    H2 4936   6.193   1.512   5.659
 1658TIP3   OH2 4937   2.519   0.196   3.991
 1658TIP3    H1 4938   2.554   0.245   3.916
 1658TIP3    H2 4939   2.482   0.263   4.048
 1659TIP3   OH2 4940   1.727   0.226   2.708
 1659TIP3    H1 4941   1.634   0.235   2.726
 1659TIP3    H2 4942   1.769   0.239   2.793
 1660TIP3   OH2 4943   0.074   4.922   0.313
 1660TIP3    H1 4944   0.063   4.829   0.294
 1660TIP3    H2 4945   0.147   4.950   0.258
 1661TIP3   OH2 4946   5.855   2.235   3.510
 1661TIP3    H1 4947   5.918   2.295   3.551
 1661TIP3    H2 4948   5.802   2.291   3.454
 1662TIP3   OH2 4949   0.305   0.136   2.229
 1662TIP3    H1 4950   0.256   0.101   2.155
 1662TIP3    H2 4951   0.288   0.231   2.226
 1663TIP3   OH2 4952   1.942   1.369   4.607
 1663TIP3    H1 4953   1.936   1.463   4.622
 1663TIP3    H2 4954   1.854   1.336   4.624
 1664TIP3   OH2 4955   4.189   1.297   0.712
 1664TIP3    H1 4956   4.188   1.276   0.619
 1664TIP3    H2 4957   4.102   1.334   0.729
 1665TIP3   OH2 4958   6.390   3.536   3.711
 1665TIP3    H1 4959   6.374   3.475   3.640
 1665TIP3    H2 4960   6.484   3.528   3.729
 1666TIP3   OH2 4961   0.881   3.960   3.504
 1666TIP3    H1 4962   0.875   3.910   3.423
 1666TIP3    H2 4963   0.931   4.038   3.480
 1667TIP3   OH2 4964   0.770   4.848   0.101
 1667TIP3    H1 4965   0.832   4.776   0.093
 1667TIP3    H2 4966   0.701   4.829   0.037
 1668TIP3   OH2 4967   1.949   6.732   3.731
 1668TIP3    H1 4968   2.011   6.667   3.764
 1668TIP3    H2 4969   1.884   6.681   3.683
 1669TIP3   OH2 4970   0.536   6.218   0.197
 1669TIP3    H1 4971   0.610   6.278   0.209
 1669TIP3    H2 4972   0.577   6.131   0.196
 1670TIP3   OH2 4973   7.112   6.222   0.378
 1670TIP3    H1 4974   7.055   6.150   0.351
 1670TIP3    H2 4975   7.069   6.258   0.456
 1671TIP3   OH2 4976   5.808   1.385   0.294
 1671TIP3    H1 4977   5.741   1.334   0.340
 1671TIP3    H2 4978   5.790   1.370   0.202
 1672TIP3   OH2 4979   1.506   2.957   0.217
 1672TIP3    H1 4980   1.429   3.014   0.207
 1672TIP3    H2 4981   1.570   3.013   0.261
 1673TIP3   OH2 4982   4.663   0.093   3.387
 1673TIP3    H1 4983   4.742   0.092   3.333
 1673TIP3    H2 4984   4.678   0.164   3.450
 1674TIP3   OH2 4985   6.312   6.304   5.823
 1674TIP3    H1 4986   6.359   6.372   5.775
 1674TIP3    H2 4987   6.378   6.268   5.883
 1675TIP3   OH2 4988   3.565   0.388   0.710
 1675TIP3    H1 4989   3.614   0.374   0.629
 1675TIP3    H2 4990   3.620   0.448   0.760
 1676TIP3   OH2 4991   0.393   6.384   0.896
 1676TIP3    H1 4992   0.413   6.454   0.958
 1676TIP3    H2 4993   0.431   6.414   0.814
 1677TIP3   OH2 4994   3.121   2.352   1.968
 1677TIP3    H1 4995   3.192   2.409   1.939
 1677TIP3    H2 4996   3.056   2.411   2.005
 1678TIP3   OH2 4997   0.700   6.324   3.362
 1678TIP3    H1 4998   0.637   6.394   3.343
 1678TIP3    H2 4999   0.765   6.332   3.292
 1679TIP3   OH2 5000   4.555   2.038   4.491
 1679TIP3    H1 5001   4.601   1.955   4.473
 1679TIP3    H2 5002   4.555   2.044   4.586
 1680TIP3   OH2 5003   0.787   4.992   4.325
 1680TIP3    H1 5004   0.714   4.989   4.387
 1680TIP3    H2 5005   0.846   4.922   4.354
 1681TIP3   OH2 5006   6.338   0.009   3.991
 1681TIP3    H1 5007   6.374   0.060   3.919
 1681TIP3    H2 5008   6.395   0.028   4.066
 1682TIP3   OH2 5009   5.523   3.565   3.620
 1682TIP3    H1 5010   5.602   3.532   3.579
 1682TIP3    H2 5011   5.452   3.536   3.563
 1683TIP3   OH2 5012   2.773   4.082   0.463
 1683TIP3    H1 5013   2.816   4.002   0.492
 1683TIP3    H2 5014   2.692   4.086   0.514
 1684TIP3   OH2 5015   6.925   0.387   2.478
 1684TIP3    H1 5016   7.014   0.413   2.499
 1684TIP3    H2 5017   6.882   0.375   2.563
 1685TIP3   OH2 5018   4.837   0.498   3.516
 1685TIP3    H1 5019   4.774   0.549   3.465
 1685TIP3    H2 5020   4.791   0.417   3.538
 1686TIP3   OH2 5021   0.871   3.429   0.067
 1686TIP3    H1 5022   0.842   3.455  -0.020
 1686TIP3    H2 5023   0.914   3.507   0.103
 1687TIP3   OH2 5024   6.331   2.482   5.113
 1687TIP3    H1 5025   6.356   2.574   5.117
 1687TIP3    H2 5026   6.237   2.483   5.093
 1688TIP3   OH2 5027   7.047   4.365   1.897
 1688TIP3    H1 5028   6.986   4.377   1.969
 1688TIP3    H2 5029   7.132   4.391   1.932
 1689TIP3   OH2 5030   2.854   0.265   3.278
 1689TIP3    H1 5031   2.828   0.197   3.341
 1689TIP3    H2 5032   2.874   0.342   3.333
 1690TIP3   OH2 5033   4.751   3.780   3.745
 1690TIP3    H1 5034   4.754   3.812   3.835
 1690TIP3    H2 5035   4.842   3.781   3.715
 1691TIP3   OH2 5036   1.688   0.497   4.213
 1691TIP3    H1 5037   1.625   0.490   4.285
 1691TIP3    H2 5038   1.710   0.407   4.190
 1692TIP3   OH2 5039   5.050   3.027   1.605
 1692TIP3    H1 5040   5.090   3.114   1.608
 1692TIP3    H2 5041   4.988   3.032   1.532
 1693TIP3   OH2 5042   3.147   6.388   1.601
 1693TIP3    H1 5043   3.063   6.391   1.554
 1693TIP3    H2 5044   3.208   6.434   1.543
 1694TIP3   OH2 5045   6.669   6.433   5.442
 1694TIP3    H1 5046   6.755   6.417   5.403
 1694TIP3    H2 5047   6.688   6.463   5.531
 1695TIP3   OH2 5048   4.323   6.703   4.866
 1695TIP3    H1 5049   4.362   6.628   4.912
 1695TIP3    H2 5050   4.337   6.777   4.925
 1696TIP3   OH2 5051   6.221   3.580   5.092
 1696TIP3    H1 5052   6.302   3.620   5.123
 1696TIP3    H2 5053   6.159   3.590   5.164
 1697TIP3   OH2 5054   6.924   4.009   0.324
 1697TIP3    H1 5055   6.838   4.037   0.292
 1697TIP3    H2 5056   6.944   4.068   0.396
 1698TIP3   OH2 5057   4.885   2.239   2.932
 1698TIP3    H1 5058   4.960   2.239   2.991
 1698TIP3    H2 5059   4.824   2.302   2.971
 1699TIP3   OH2 5060   3.608   6.137   0.714
 1699TIP3    H1 5061   3.676   6.109   0.774
 1699TIP3    H2 5062   3.526   6.127   0.763
 1700TIP3   OH2 5063   3.092   6.441   5.057
 1700TIP3    H1 5064   3.051   6.364   5.018
 1700TIP3    H2 5065   3.027   6.511   5.045
 1701TIP3   OH2 5066   3.977   0.280   0.526
 1701TIP3    H1 5067   4.044   0.325   0.474
 1701TIP3    H2 5068   4.014   0.274   0.614
 1702TIP3   OH2 5069   4.592   3.106   3.188
 1702TIP3    H1 5070   4.654   3.039   3.217
 1702TIP3    H2 5071   4.513   3.057   3.167
 1703TIP3   OH2 5072   6.779   4.741   2.799
 1703TIP3    H1 5073   6.774   4.834   2.821
 1703TIP3    H2 5074   6.718   4.699   2.859
 1704TIP3   OH2 5075   3.799   2.860   0.623
 1704TIP3    H1 5076   3.847   2.895   0.549
 1704TIP3    H2 5077   3.846   2.781   0.648
 1705TIP3   OH2 5078   3.610   6.008   5.751
 1705TIP3    H1 5079   3.531   5.959   5.727
 1705TIP3    H2 5080   3.577   6.087   5.793
 1706TIP3   OH2 5081   6.307   5.541   5.237
 1706TIP3    H1 5082   6.327   5.586   5.319
 1706TIP3    H2 5083   6.268   5.609   5.182
 1707TIP3   OH2 5084   1.585   2.841   1.781
 1707TIP3    H1 5085   1.638   2.917   1.759
 1707TIP3    H2 5086   1.556   2.857   1.871
 1708TIP3   OH2 5087   4.115   4.043   3.714
 1708TIP3    H1 5088   4.195   3.991   3.704
 1708TIP3    H2 5089   4.052   3.981   3.751
 1709TIP3   OH2 5090   3.847   5.664   1.481
 1709TIP3    H1 5091   3.802   5.597   1.429
 1709TIP3    H2 5092   3.815   5.747   1.446
 1710TIP3   OH2 5093   4.213   4.768   0.720
 1710TIP3    H1 5094   4.191   4.727   0.803
 1710TIP3    H2 5095   4.264   4.845   0.744
 1711TIP3   OH2 5096   6.221   5.050   0.814
 1711TIP3    H1 5097   6.165   5.019   0.743
 1711TIP3    H2 5098   6.291   4.985   0.820
 1712TIP3   OH2 5099   3.616   4.274   5.319
 1712TIP3    H1 5100   3.646   4.282   5.228
 1712TIP3    H2 5101   3.528   4.312   5.319
 1713TIP3   OH2 5102   2.574   0.602   4.500
 1713TIP3    H1 5103   2.524   0.524   4.521
 1713TIP3    H2 5104   2.663   0.582   4.528
 1714TIP3   OH2 5105   4.857   5.260   3.684
 1714TIP3    H1 5106   4.865   5.168   3.707
 1714TIP3    H2 5107   4.793   5.295   3.747
 1715TIP3   OH2 5108   0.181   6.398   0.131
 1715TIP3    H1 5109   0.247   6.343   0.089
 1715TIP3    H2 5110   0.174   6.363   0.220
 1716TIP3   OH2 5111   6.178   1.712   0.210
 1716TIP3    H1 5112   6.124   1.741   0.283
 1716TIP3    H2 5113   6.146   1.763   0.135
 1717TIP3   OH2 5114   6.135   6.491   0.981
 1717TIP3    H1 5115   6.221   6.534   0.976
 1717TIP3    H2 5116   6.121   6.454   0.894
 1718TIP3   OH2 5117   5.836   4.175   1.092
 1718TIP3    H1 5118   5.773   4.239   1.059
 1718TIP3    H2 5119   5.853   4.203   1.182
 1719TIP3   OH2 5120   1.328   0.279   5.823
 1719TIP3    H1 5121   1.377   0.202   5.853
 1719TIP3    H2 5122   1.320   0.267   5.728
 1720TIP3   OH2 5123   6.686   4.340   4.311
 1720TIP3    H1 5124   6.755   4.393   4.350
 1720TIP3    H2 5125   6.605   4.387   4.333
 1721TIP3   OH2 5126   7.173   3.538   0.962
 1721TIP3    H1 5127   7.244   3.540   1.026
 1721TIP3    H2 5128   7.145   3.629   0.954
 1722TIP3   OH2 5129   2.077   4.907   4.142
 1722TIP3    H1 5130   1.997   4.909   4.089
 1722TIP3    H2 5131   2.061   4.839   4.207
 1723TIP3   OH2 5132   3.580   1.146   2.142
 1723TIP3    H1 5133   3.532   1.081   2.193
 1723TIP3    H2 5134   3.532   1.228   2.156
 1724TIP3   OH2 5135   2.322   3.574   0.973
 1724TIP3    H1 5136   2.407   3.570   0.928
 1724TIP3    H2 5137   2.337   3.527   1.056
 1725TIP3   OH2 5138   5.486   5.243   4.474
 1725TIP3    H1 5139   5.571   5.286   4.464
 1725TIP3    H2 5140   5.422   5.312   4.456
 1726TIP3   OH2 5141   6.848   5.043   1.969
 1726TIP3    H1 5142   6.770   4.987   1.966
 1726TIP3    H2 5143   6.851   5.075   2.059
 1727TIP3   OH2 5144   1.241   5.474   3.748
 1727TIP3    H1 5145   1.275   5.511   3.666
 1727TIP3    H2 5146   1.163   5.526   3.767
 1728TIP3   OH2 5147   6.419   5.510   4.489
 1728TIP3    H1 5148   6.437   5.458   4.411
 1728TIP3    H2 5149   6.434   5.601   4.461
 1729TIP3   OH2 5150   1.259   3.331   1.028
 1729TIP3    H1 5151   1.168   3.353   1.051
 1729TIP3    H2 5152   1.310   3.405   1.060
 1730TIP3   OH2 5153   6.257   4.295   1.912
 1730TIP3    H1 5154   6.174   4.276   1.868
 1730TIP3    H2 5155   6.323   4.288   1.844
 1731TIP3   OH2 5156   5.174   4.537   4.550
 1731TIP3    H1 5157   5.254   4.526   4.499
 1731TIP3    H2 5158   5.132   4.615   4.513
 1732TIP3   OH2 5159   3.989   2.191   0.250
 1732TIP3    H1 5160   3.938   2.114   0.224
 1732TIP3    H2 5161   3.952   2.263   0.199
 1733TIP3   OH2 5162   2.679   0.778   0.561
 1733TIP3    H1 5163   2.717   0.856   0.602
 1733TIP3    H2 5164   2.686   0.795   0.467
 1734TIP3   OH2 5165   5.684   2.640   4.890
 1734TIP3    H1 5166   5.642   2.578   4.949
 1734TIP3    H2 5167   5.667   2.726   4.929
 1735TIP3   OH2 5168   0.866   2.888   5.011
 1735TIP3    H1 5169   0.799   2.954   4.995
 1735TIP3    H2 5170   0.949   2.935   5.001
 1736TIP3   OH2 5171   6.238   6.276   2.855
 1736TIP3    H1 5172   6.252   6.188   2.818
 1736TIP3    H2 5173   6.285   6.334   2.795
 1737TIP3   OH2 5174   3.513   3.674   4.907
 1737TIP3    H1 5175   3.417   3.672   4.902
 1737TIP3    H2 5176   3.532   3.748   4.963
 1738TIP3   OH2 5177   0.645   6.043   0.495
 1738TIP3    H1 5178   0.568   6.039   0.552
 1738TIP3    H2 5179   0.645   5.958   0.450
 1739TIP3   OH2 5180   6.539   6.428   1.321
 1739TIP3    H1 5181   6.589   6.415   1.402
 1739TIP3    H2 5182   6.582   6.502   1.278
 1740TIP3   OH2 5183   2.742   1.437   2.016
 1740TIP3    H1 5184   2.706   1.436   2.104
 1740TIP3    H2 5185   2.672   1.401   1.961
 1741TIP3   OH2 5186   0.556   6.527   0.192
 1741TIP3    H1 5187   0.545   6.482   0.276
 1741TIP3    H2 5188   0.467   6.545   0.163
 1742TIP3   OH2 5189   2.495   2.455   4.849
 1742TIP3    H1 5190   2.435   2.385   4.875
 1742TIP3    H2 5191   2.551   2.469   4.925
 1743TIP3   OH2 5192   4.315   3.469   1.854
 1743TIP3    H1 5193   4.334   3.376   1.853
 1743TIP3    H2 5194   4.345   3.499   1.940
 1744TIP3   OH2 5195   0.166   4.044   0.502
 1744TIP3    H1 5196   0.121   4.128   0.514
 1744TIP3    H2 5197   0.257   4.062   0.522
 1745TIP3   OH2 5198   6.893   5.555   0.162
 1745TIP3    H1 5199   6.967   5.590   0.211
 1745TIP3    H2 5200   6.909   5.460   0.159
 1746TIP3   OH2 5201   5.553   6.387   2.436
 1746TIP3    H1 5202   5.581   6.296   2.426
 1746TIP3    H2 5203   5.571   6.407   2.528
 1747TIP3   OH2 5204   1.195   1.997   1.363
 1747TIP3    H1 5205   1.198   2.072   1.424
 1747TIP3    H2 5206   1.127   2.020   1.300
 1748TIP3   OH2 5207   0.039   2.233   5.542
 1748TIP3    H1 5208  -0.053   2.210   5.531
 1748TIP3    H2 5209   0.071   2.250   5.454
 1749TIP3   OH2 5210   5.664   2.364   2.517
 1749TIP3    H1 5211   5.602   2.424   2.559
 1749TIP3    H2 5212   5.611   2.292   2.485
 1750TIP3   OH2 5213   0.564   6.183   1.625
 1750TIP3    H1 5214   0.585   6.099   1.586
 1750TIP3    H2 5215   0.497   6.221   1.568
 1751TIP3   OH2 5216   3.357   0.216   1.891
 1751TIP3    H1 5217   3.386   0.199   1.801
 1751TIP3    H2 5218   3.401   0.148   1.943
 1752TIP3   OH2 5219   2.267   6.383   4.036
 1752TIP3    H1 5220   2.299   6.334   3.961
 1752TIP3    H2 5221   2.209   6.321   4.082
 1753TIP3   OH2 5222   2.992   1.642   4.764
 1753TIP3    H1 5223   2.992   1.550   4.734
 1753TIP3    H2 5224   2.901   1.660   4.784
 1754TIP3   OH2 5225   3.848   6.770   5.131
 1754TIP3    H1 5226   3.785   6.746   5.199
 1754TIP3    H2 5227   3.793   6.797   5.057
 1755TIP3   OH2 5228   5.550   1.052   1.079
 1755TIP3    H1 5229   5.628   0.997   1.089
 1755TIP3    H2 5230   5.508   1.019   1.000
 1756TIP3   OH2 5231   0.864   4.290   3.042
 1756TIP3    H1 5232   0.793   4.353   3.039
 1756TIP3    H2 5233   0.942   4.340   3.017
 1757TIP3   OH2 5234   1.599   0.483   1.232
 1757TIP3    H1 5235   1.524   0.486   1.173
 1757TIP3    H2 5236   1.587   0.558   1.290
 1758TIP3   OH2 5237   7.170   0.491   2.439
 1758TIP3    H1 5238   7.255   0.534   2.450
 1758TIP3    H2 5239   7.156   0.489   2.345
 1759TIP3   OH2 5240   6.969   0.500   0.350
 1759TIP3    H1 5241   7.033   0.461   0.408
 1759TIP3    H2 5242   6.899   0.435   0.344
 1760TIP3   OH2 5243   2.692   1.582   5.166
 1760TIP3    H1 5244   2.688   1.539   5.080
 1760TIP3    H2 5245   2.720   1.513   5.226
 1761TIP3   OH2 5246   6.522   4.815   2.609
 1761TIP3    H1 5247   6.568   4.734   2.627
 1761TIP3    H2 5248   6.473   4.834   2.690
 1762TIP3   OH2 5249   2.479   1.867   2.130
 1762TIP3    H1 5250   2.433   1.877   2.213
 1762TIP3    H2 5251   2.447   1.939   2.076
 1763TIP3   OH2 5252   5.567   4.919   1.920
 1763TIP3    H1 5253   5.609   4.840   1.885
 1763TIP3    H2 5254   5.473   4.901   1.916
 1764TIP3   OH2 5255   2.492   0.029   2.313
 1764TIP3    H1 5256   2.432   0.053   2.383
 1764TIP3    H2 5257   2.440   0.036   2.233
 1765TIP3   OH2 5258   3.368   4.904   2.784
 1765TIP3    H1 5259   3.393   4.815   2.761
 1765TIP3    H2 5260   3.432   4.960   2.740
 1766TIP3   OH2 5261   1.265   1.792   1.802
 1766TIP3    H1 5262   1.273   1.701   1.773
 1766TIP3    H2 5263   1.302   1.844   1.730
 1767TIP3   OH2 5264   2.814   2.854   3.559
 1767TIP3    H1 5265   2.802   2.880   3.468
 1767TIP3    H2 5266   2.904   2.879   3.580
 1768TIP3   OH2 5267   4.796   4.794   1.562
 1768TIP3    H1 5268   4.772   4.884   1.582
 1768TIP3    H2 5269   4.806   4.752   1.647
 1769TIP3   OH2 5270   4.135   4.940   0.293
 1769TIP3    H1 5271   4.108   4.915   0.204
 1769TIP3    H2 5272   4.124   4.860   0.344
 1770TIP3   OH2 5273   5.862   5.568   5.002
 1770TIP3    H1 5274   5.804   5.588   4.929
 1770TIP3    H2 5275   5.806   5.569   5.079
 1771TIP3   OH2 5276   0.743   3.944   2.363
 1771TIP3    H1 5277   0.728   3.978   2.275
 1771TIP3    H2 5278   0.656   3.918   2.394
 1772TIP3   OH2 5279   4.606   0.872   5.328
 1772TIP3    H1 5280   4.689   0.866   5.377
 1772TIP3    H2 5281   4.623   0.937   5.260
 1773TIP3   OH2 5282   4.712   4.271   1.844
 1773TIP3    H1 5283   4.716   4.176   1.841
 1773TIP3    H2 5284   4.655   4.291   1.917
 1774TIP3   OH2 5285   6.489   1.958   2.650
 1774TIP3    H1 5286   6.478   2.021   2.722
 1774TIP3    H2 5287   6.400   1.943   2.619
 1775TIP3   OH2 5288   5.891   1.626   2.191
 1775TIP3    H1 5289   5.908   1.713   2.227
 1775TIP3    H2 5290   5.810   1.597   2.233
 1776TIP3   OH2 5291   6.409   1.549   0.166
 1776TIP3    H1 5292   6.323   1.591   0.176
 1776TIP3    H2 5293   6.472   1.617   0.190
 1777TIP3   OH2 5294   0.712   6.470   4.792
 1777TIP3    H1 5295   0.655   6.394   4.806
 1777TIP3    H2 5296   0.782   6.459   4.856
 1778TIP3   OH2 5297   5.070   3.434   2.778
 1778TIP3    H1 5298   5.085   3.526   2.756
 1778TIP3    H2 5299   5.157   3.396   2.784
 1779TIP3   OH2 5300   5.052   5.943   2.150
 1779TIP3    H1 5301   5.059   5.861   2.101
 1779TIP3    H2 5302   4.982   5.927   2.214
 1780TIP3   OH2 5303   2.755   2.554   4.354
 1780TIP3    H1 5304   2.747   2.485   4.419
 1780TIP3    H2 5305   2.729   2.513   4.272
 1781TIP3   OH2 5306   3.471   2.883   2.085
 1781TIP3    H1 5307   3.442   2.900   2.175
 1781TIP3    H2 5308   3.566   2.888   2.089
 1782TIP3   OH2 5309   5.943   4.764   1.377
 1782TIP3    H1 5310   5.938   4.797   1.287
 1782TIP3    H2 5311   6.031   4.788   1.407
 1783TIP3   OH2 5312   3.803   1.706   3.446
 1783TIP3    H1 5313   3.791   1.687   3.539
 1783TIP3    H2 5314   3.889   1.668   3.425
 1784TIP3   OH2 5315   1.209   5.753   5.857
 1784TIP3    H1 5316   1.225   5.777   5.948
 1784TIP3    H2 5317   1.163   5.829   5.820
 1785TIP3   OH2 5318   2.104   5.646   5.789
 1785TIP3    H1 5319   2.165   5.680   5.855
 1785TIP3    H2 5320   2.147   5.568   5.754
 1786TIP3   OH2 5321   4.593   4.235   3.213
 1786TIP3    H1 5322   4.611   4.143   3.192
 1786TIP3    H2 5323   4.498   4.237   3.229
 1787TIP3   OH2 5324   4.963   0.800   1.139
 1787TIP3    H1 5325   4.900   0.750   1.190
 1787TIP3    H2 5326   4.913   0.835   1.066
 1788TIP3   OH2 5327   1.775   0.301   1.133
 1788TIP3    H1 5328   1.846   0.280   1.194
 1788TIP3    H2 5329   1.712   0.349   1.186
 1789TIP3   OH2 5330   1.962   1.035   3.831
 1789TIP3    H1 5331   1.928   1.110   3.781
 1789TIP3    H2 5332   1.926   1.047   3.919
 1790TIP3   OH2 5333   5.568   1.533   0.595
 1790TIP3    H1 5334   5.510   1.609   0.589
 1790TIP3    H2 5335   5.654   1.567   0.571
 1791TIP3   OH2 5336   0.320   3.897   2.169
 1791TIP3    H1 5337   0.232   3.933   2.178
 1791TIP3    H2 5338   0.353   3.933   2.086
 1792TIP3   OH2 5339   2.128   4.760   5.530
 1792TIP3    H1 5340   2.173   4.786   5.611
 1792TIP3    H2 5341   2.198   4.732   5.471
 1793TIP3   OH2 5342   6.692   2.863   5.829
 1793TIP3    H1 5343   6.614   2.885   5.879
 1793TIP3    H2 5344   6.708   2.771   5.847
 1794TIP3   OH2 5345   1.341   2.362   0.487
 1794TIP3    H1 5346   1.277   2.412   0.537
 1794TIP3    H2 5347   1.362   2.287   0.543
 1795TIP3   OH2 5348   0.325   5.955   2.588
 1795TIP3    H1 5349   0.297   5.993   2.671
 1795TIP3    H2 5350   0.385   5.885   2.613
 1796TIP3   OH2 5351   1.254   2.535   5.653
 1796TIP3    H1 5352   1.179   2.594   5.655
 1796TIP3    H2 5353   1.318   2.578   5.597
 1797TIP3   OH2 5354   6.747   6.478   1.016
 1797TIP3    H1 5355   6.723   6.556   1.065
 1797TIP3    H2 5356   6.705   6.489   0.931
 1798TIP3   OH2 5357   0.913   5.035   5.864
 1798TIP3    H1 5358   0.893   5.126   5.884
 1798TIP3    H2 5359   0.849   4.984   5.913
 1799TIP3   OH2 5360   5.094   5.130   4.326
 1799TIP3    H1 5361   5.107   5.219   4.359
 1799TIP3    H2 5362   5.005   5.130   4.290
 1800TIP3   OH2 5363   5.426   0.829   3.973
 1800TIP3    H1 5364   5.336   0.849   4.000
 1800TIP3    H2 5365   5.468   0.914   3.965
 1801TIP3   OH2 5366   0.535   1.811   0.108
 1801TIP3    H1 5367   0.498   1.760   0.180
 1801TIP3    H2 5368   0.572   1.746   0.049
 1802TIP3   OH2 5369   4.175   2.719   2.892
 1802TIP3    H1 5370   4.220   2.773   2.827
 1802TIP3    H2 5371   4.172   2.632   2.853
 1803TIP3   OH2 5372   0.145   2.276   0.646
 1803TIP3    H1 5373   0.156   2.182   0.656
 1803TIP3    H2 5374   0.051   2.289   0.635
 1804TIP3   OH2 5375   5.101   2.301   5.046
 1804TIP3    H1 5376   5.056   2.262   4.970
 1804TIP3    H2 5377   5.154   2.371   5.008
 1805TIP3   OH2 5378   4.982   4.001   1.535
 1805TIP3    H1 5379   4.980   4.075   1.596
 1805TIP3    H2 5380   5.072   3.969   1.537
 1806TIP3   OH2 5381   1.545   2.400   2.077
 1806TIP3    H1 5382   1.487   2.460   2.124
 1806TIP3    H2 5383   1.630   2.444   2.076
 1807TIP3   OH2 5384   4.625   0.211   2.084
 1807TIP3    H1 5385   4.592   0.297   2.057
 1807TIP3    H2 5386   4.686   0.230   2.155
 1808TIP3   OH2 5387   1.586   1.399   2.798
 1808TIP3    H1 5388   1.666   1.434   2.839
 1808TIP3    H2 5389   1.618   1.348   2.723
 1809TIP3   OH2 5390   1.726   4.424   4.673
 1809TIP3    H1 5391   1.636   4.447   4.697
 1809TIP3    H2 5392   1.751   4.358   4.737
 1810TIP3   OH2 5393   5.030   6.801   0.204
 1810TIP3    H1 5394   5.014   6.850   0.124
 1810TIP3    H2 5395   5.040   6.710   0.175
 1811TIP3   OH2 5396   2.487   1.382   3.643
 1811TIP3    H1 5397   2.418   1.362   3.707
 1811TIP3    H2 5398   2.453   1.348   3.560
 1812TIP3   OH2 5399   4.394   1.654   0.275
 1812TIP3    H1 5400   4.446   1.598   0.333
 1812TIP3    H2 5401   4.448   1.664   0.197
 1813TIP3   OH2 5402   4.233   1.974   4.615
 1813TIP3    H1 5403   4.142   1.996   4.594
 1813TIP3    H2 5404   4.283   2.050   4.588
 1814TIP3   OH2 5405   1.726   4.730   2.850
 1814TIP3    H1 5406   1.716   4.661   2.916
 1814TIP3    H2 5407   1.734   4.683   2.767
 1815TIP3   OH2 5408   3.967   4.555   4.649
 1815TIP3    H1 5409   3.988   4.469   4.612
 1815TIP3    H2 5410   4.047   4.580   4.695
 1816TIP3   OH2 5411   2.334   5.243   0.928
 1816TIP3    H1 5412   2.395   5.171   0.914
 1816TIP3    H2 5413   2.347   5.301   0.852
 1817TIP3   OH2 5414   4.549   3.332   0.557
 1817TIP3    H1 5415   4.488   3.370   0.620
 1817TIP3    H2 5416   4.524   3.370   0.473
 1818TIP3   OH2 5417   2.960   2.246   5.317
 1818TIP3    H1 5418   3.038   2.197   5.294
 1818TIP3    H2 5419   2.889   2.181   5.314
 1819TIP3   OH2 5420   0.697   5.413   3.758
 1819TIP3    H1 5421   0.733   5.484   3.704
 1819TIP3    H2 5422   0.769   5.388   3.817
 1820TIP3   OH2 5423   3.844   2.704   3.042
 1820TIP3    H1 5424   3.845   2.609   3.029
 1820TIP3    H2 5425   3.752   2.723   3.063
 1821TIP3   OH2 5426   5.254   2.198   2.443
 1821TIP3    H1 5427   5.340   2.197   2.400
 1821TIP3    H2 5428   5.201   2.136   2.392
 1822TIP3   OH2 5429   4.458   3.363   2.233
 1822TIP3    H1 5430   4.542   3.320   2.217
 1822TIP3    H2 5431   4.400   3.293   2.262
 1823TIP3   OH2 5432   4.049   1.292   4.980
 1823TIP3    H1 5433   3.989   1.329   5.044
 1823TIP3    H2 5434   4.136   1.317   5.011
 1824TIP3   OH2 5435   6.577   4.309   1.232
 1824TIP3    H1 5436   6.557   4.342   1.144
 1824TIP3    H2 5437   6.671   4.289   1.229
 1825TIP3   OH2 5438   5.224   4.645   5.722
 1825TIP3    H1 5439   5.141   4.602   5.737
 1825TIP3    H2 5440   5.205   4.738   5.732
 1826TIP3   OH2 5441   6.351   1.624   2.399
 1826TIP3    H1 5442   6.361   1.544   2.348
 1826TIP3    H2 5443   6.429   1.676   2.377
 1827TIP3   OH2 5444   4.853   3.898   0.573
 1827TIP3    H1 5445   4.813   3.814   0.553
 1827TIP3    H2 5446   4.938   3.896   0.527
 1828TIP3   OH2 5447   0.638   5.242   2.168
 1828TIP3    H1 5448   0.701   5.227   2.239
 1828TIP3    H2 5449   0.674   5.195   2.093
 1829TIP3   OH2 5450   6.690   0.230   4.073
 1829TIP3    H1 5451   6.713   0.149   4.120
 1829TIP3    H2 5452   6.730   0.219   3.987
 1830TIP3   OH2 5453   6.768   2.662   0.221
 1830TIP3    H1 5454   6.791   2.711   0.299
 1830TIP3    H2 5455   6.799   2.573   0.238
 1831TIP3   OH2 5456   1.854   3.787   2.436
 1831TIP3    H1 5457   1.759   3.778   2.443
 1831TIP3    H2 5458   1.888   3.723   2.498
 1832TIP3   OH2 5459   2.750   5.831   0.003
 1832TIP3    H1 5460   2.718   5.784   0.080
 1832TIP3    H2 5461   2.678   5.827  -0.060
 1833TIP3   OH2 5462   4.892   2.448   3.882
 1833TIP3    H1 5463   4.981   2.426   3.907
 1833TIP3    H2 5464   4.837   2.404   3.947
 1834TIP3   OH2 5465   1.983   1.967   2.944
 1834TIP3    H1 5466   1.944   2.003   2.864
 1834TIP3    H2 5467   2.077   1.965   2.926
 1835TIP3   OH2 5468   1.075   6.561   4.326
 1835TIP3    H1 5469   1.078   6.590   4.417
 1835TIP3    H2 5470   1.021   6.482   4.328
 1836TIP3   OH2 5471   1.349   4.602   0.449
 1836TIP3    H1 5472   1.334   4.694   0.469
 1836TIP3    H2 5473   1.438   4.600   0.412
 1837TIP3   OH2 5474   5.593   0.864   3.289
 1837TIP3    H1 5475   5.569   0.888   3.200
 1837TIP3    H2 5476   5.688   0.858   3.288
 1838TIP3   OH2 5477   1.963   6.647   1.250
 1838TIP3    H1 5478   1.893   6.691   1.299
 1838TIP3    H2 5479   2.018   6.718   1.218
 1839TIP3   OH2 5480   2.457   5.614   1.473
 1839TIP3    H1 5481   2.465   5.688   1.412
 1839TIP3    H2 5482   2.470   5.653   1.559
 1840TIP3   OH2 5483   5.661   5.274   2.420
 1840TIP3    H1 5484   5.756   5.291   2.421
 1840TIP3    H2 5485   5.626   5.333   2.486
 1841TIP3   OH2 5486   3.570   5.083   4.457
 1841TIP3    H1 5487   3.592   5.094   4.364
 1841TIP3    H2 5488   3.643   5.032   4.493
 1842TIP3   OH2 5489   5.308   3.744   2.089
 1842TIP3    H1 5490   5.358   3.670   2.124
 1842TIP3    H2 5491   5.217   3.720   2.103
 1843TIP3   OH2 5492   6.228   2.688   5.910
 1843TIP3    H1 5493   6.225   2.687   5.815
 1843TIP3    H2 5494   6.140   2.661   5.937
 1844TIP3   OH2 5495   3.240   5.897   3.441
 1844TIP3    H1 5496   3.218   5.858   3.525
 1844TIP3    H2 5497   3.331   5.872   3.426
 1845TIP3   OH2 5498   5.983   3.578   0.868
 1845TIP3    H1 5499   6.023   3.596   0.953
 1845TIP3    H2 5500   6.051   3.599   0.805
 1846TIP3   OH2 5501   5.994   3.813   2.033
 1846TIP3    H1 5502   6.025   3.896   2.069
 1846TIP3    H2 5503   5.907   3.832   1.999
 1847TIP3   OH2 5504   5.854   4.263   2.015
 1847TIP3    H1 5505   5.782   4.271   1.952
 1847TIP3    H2 5506   5.931   4.293   1.968
 1848TIP3   OH2 5507   3.487   2.836   2.483
 1848TIP3    H1 5508   3.556   2.777   2.452
 1848TIP3    H2 5509   3.442   2.786   2.550
 1849TIP3   OH2 5510   0.334   1.092   4.799
 1849TIP3    H1 5511   0.241   1.079   4.818
 1849TIP3    H2 5512   0.334   1.137   4.714
 1850TIP3   OH2 5513   7.000   4.500   5.735
 1850TIP3    H1 5514   6.935   4.446   5.780
 1850TIP3    H2 5515   6.967   4.590   5.746
 1851TIP3   OH2 5516   3.054   3.606   3.447
 1851TIP3    H1 5517   3.144   3.632   3.467
 1851TIP3    H2 5518   3.014   3.684   3.409
 1852TIP3   OH2 5519   0.328   3.153   1.261
 1852TIP3    H1 5520   0.234   3.169   1.269
 1852TIP3    H2 5521   0.341   3.065   1.297
 1853TIP3   OH2 5522   6.858   5.195   4.318
 1853TIP3    H1 5523   6.863   5.213   4.224
 1853TIP3    H2 5524   6.896   5.108   4.328
 1854TIP3   OH2 5525   4.592   4.604   2.484
 1854TIP3    H1 5526   4.578   4.681   2.429
 1854TIP3    H2 5527   4.630   4.638   2.565
 1855TIP3   OH2 5528   6.797   0.838   0.223
 1855TIP3    H1 5529   6.818   0.814   0.132
 1855TIP3    H2 5530   6.863   0.904   0.246
 1856TIP3   OH2 5531   7.192   0.217   2.395
 1856TIP3    H1 5532   7.163   0.303   2.425
 1856TIP3    H2 5533   7.281   0.208   2.429
 1857TIP3   OH2 5534   6.641   1.145   0.857
 1857TIP3    H1 5535   6.700   1.150   0.932
 1857TIP3    H2 5536   6.564   1.196   0.883
 1858TIP3   OH2 5537   0.787   2.879   5.385
 1858TIP3    H1 5538   0.705   2.877   5.436
 1858TIP3    H2 5539   0.780   2.804   5.326
 1859TIP3   OH2 5540   6.509   5.963   1.730
 1859TIP3    H1 5541   6.441   5.968   1.797
 1859TIP3    H2 5542   6.467   5.923   1.654
 1860TIP3   OH2 5543   5.743   2.159   5.743
 1860TIP3    H1 5544   5.725   2.226   5.677
 1860TIP3    H2 5545   5.658   2.117   5.759
 1861TIP3   OH2 5546   0.202   2.453   1.645
 1861TIP3    H1 5547   0.109   2.476   1.637
 1861TIP3    H2 5548   0.203   2.357   1.642
 1862TIP3   OH2 5549   2.744   5.981   5.888
 1862TIP3    H1 5550   2.699   5.934   5.817
 1862TIP3    H2 5551   2.748   6.072   5.858
 1863TIP3   OH2 5552   3.686   5.833   2.379
 1863TIP3    H1 5553   3.769   5.835   2.427
 1863TIP3    H2 5554   3.697   5.897   2.309
 1864TIP3   OH2 5555   3.036   6.032   2.901
 1864TIP3    H1 5556   3.052   6.101   2.965
 1864TIP3    H2 5557   3.026   6.078   2.818
 1865TIP3   OH2 5558   6.475   0.615   4.106
 1865TIP3    H1 5559   6.568   0.590   4.111
 1865TIP3    H2 5560   6.427   0.532   4.112
 1866TIP3   OH2 5561   6.905   0.097   3.480
 1866TIP3    H1 5562   6.844   0.110   3.552
 1866TIP3    H2 5563   6.977   0.158   3.499
 1867TIP3   OH2 5564   3.674   4.855   3.850
 1867TIP3    H1 5565   3.692   4.945   3.824
 1867TIP3    H2 5566   3.721   4.844   3.933
 1868TIP3   OH2 5567   1.299   3.591   3.869
 1868TIP3    H1 5568   1.342   3.666   3.909
 1868TIP3    H2 5569   1.327   3.594   3.777
 1869TIP3   OH2 5570   3.238   2.948   0.456
 1869TIP3    H1 5571   3.237   3.038   0.423
 1869TIP3    H2 5572   3.193   2.897   0.388
 1870TIP3   OH2 5573   5.076   2.660   5.378
 1870TIP3    H1 5574   5.018   2.735   5.368
 1870TIP3    H2 5575   5.082   2.647   5.473
 1871TIP3   OH2 5576   2.351   0.967   2.558
 1871TIP3    H1 5577   2.374   1.023   2.484
 1871TIP3    H2 5578   2.337   0.880   2.520
 1872TIP3   OH2 5579   0.409   2.448   1.343
 1872TIP3    H1 5580   0.427   2.513   1.411
 1872TIP3    H2 5581   0.391   2.499   1.265
 1873TIP3   OH2 5582   0.202   4.731   1.219
 1873TIP3    H1 5583   0.246   4.766   1.296
 1873TIP3    H2 5584   0.154   4.655   1.251
 1874TIP3   OH2 5585   4.443   4.956   3.758
 1874TIP3    H1 5586   4.379   5.018   3.724
 1874TIP3    H2 5587   4.410   4.870   3.730
 1875TIP3   OH2 5588   3.330   2.740   0.043
 1875TIP3    H1 5589   3.377   2.708   0.121
 1875TIP3    H2 5590   3.358   2.681  -0.027
 1876TIP3   OH2 5591   5.323   5.990   4.972
 1876TIP3    H1 5592   5.300   5.953   5.058
 1876TIP3    H2 5593   5.358   6.077   4.992
 1877TIP3   OH2 5594   5.534   5.713   2.064
 1877TIP3    H1 5595   5.464   5.667   2.111
 1877TIP3    H2 5596   5.505   5.804   2.062
 1878TIP3   OH2 5597   4.869   6.226   1.517
 1878TIP3    H1 5598   4.794   6.285   1.509
 1878TIP3    H2 5599   4.913   6.256   1.597
 1879TIP3   OH2 5600   5.813   2.094   0.241
 1879TIP3    H1 5601   5.746   2.102   0.172
 1879TIP3    H2 5602   5.773   2.136   0.318
 1880TIP3   OH2 5603   4.207   1.872   3.523
 1880TIP3    H1 5604   4.160   1.831   3.595
 1880TIP3    H2 5605   4.159   1.954   3.507
 1881TIP3   OH2 5606   1.560   2.694   2.484
 1881TIP3    H1 5607   1.615   2.622   2.516
 1881TIP3    H2 5608   1.623   2.757   2.448
 1882TIP3   OH2 5609   4.891   4.528   4.193
 1882TIP3    H1 5610   4.819   4.530   4.255
 1882TIP3    H2 5611   4.948   4.456   4.223
 1883TIP3   OH2 5612   6.662   3.827   1.818
 1883TIP3    H1 5613   6.719   3.862   1.886
 1883TIP3    H2 5614   6.644   3.901   1.760
 1884TIP3   OH2 5615   5.148   1.256   0.362
 1884TIP3    H1 5616   5.228   1.252   0.310
 1884TIP3    H2 5617   5.176   1.236   0.451
 1885TIP3   OH2 5618   0.278   3.399   3.190
 1885TIP3    H1 5619   0.331   3.331   3.148
 1885TIP3    H2 5620   0.216   3.350   3.245
 1886TIP3   OH2 5621   1.429   2.734   0.597
 1886TIP3    H1 5622   1.493   2.679   0.553
 1886TIP3    H2 5623   1.358   2.745   0.533
 1887TIP3   OH2 5624   4.071   5.378   1.762
 1887TIP3    H1 5625   4.093   5.446   1.698
 1887TIP3    H2 5626   4.151   5.364   1.811
 1888TIP3   OH2 5627   1.754   3.795   5.731
 1888TIP3    H1 5628   1.803   3.728   5.683
 1888TIP3    H2 5629   1.819   3.863   5.749
 1889TIP3   OH2 5630   1.776   1.306   4.946
 1889TIP3    H1 5631   1.834   1.381   4.960
 1889TIP3    H2 5632   1.712   1.312   5.017
 1890TIP3   OH2 5633   0.350   6.645   5.376
 1890TIP3    H1 5634   0.311   6.663   5.290
 1890TIP3    H2 5635   0.422   6.585   5.357
 1891TIP3   OH2 5636   5.639   0.861   1.425
 1891TIP3    H1 5637   5.645   0.835   1.333
 1891TIP3    H2 5638   5.546   0.880   1.438
 1892TIP3   OH2 5639   3.323   5.210   0.288
 1892TIP3    H1 5640   3.384   5.282   0.308
 1892TIP3    H2 5641   3.365   5.133   0.325
 1893TIP3   OH2 5642   3.429   3.007   1.265
 1893TIP3    H1 5643   3.524   2.998   1.256
 1893TIP3    H2 5644   3.399   2.919   1.289
 1894TIP3   OH2 5645   0.200   1.803   0.235
 1894TIP3    H1 5646   0.111   1.790   0.267
 1894TIP3    H2 5647   0.246   1.847   0.307
 1895TIP3   OH2 5648   2.682   2.707   4.623
 1895TIP3    H1 5649   2.631   2.734   4.699
 1895TIP3    H2 5650   2.655   2.617   4.605
 1896TIP3   OH2 5651   6.094   5.197   5.547
 1896TIP3    H1 5652   6.095   5.101   5.541
 1896TIP3    H2 5653   6.117   5.227   5.459
 1897TIP3   OH2 5654   6.630   6.057   0.853
 1897TIP3    H1 5655   6.691   6.051   0.779
 1897TIP3    H2 5656   6.659   5.989   0.914
 1898TIP3   OH2 5657   1.371   1.652   4.967
 1898TIP3    H1 5658   1.304   1.678   5.029
 1898TIP3    H2 5659   1.349   1.698   4.886
 1899TIP3   OH2 5660   1.115   1.650   0.691
 1899TIP3    H1 5661   1.134   1.683   0.603
 1899TIP3    H2 5662   1.086   1.560   0.677
 1900TIP3   OH2 5663   6.880   0.497   3.506
 1900TIP3    H1 5664   6.930   0.573   3.476
 1900TIP3    H2 5665   6.865   0.513   3.599
 1901TIP3   OH2 5666   1.070   3.664   4.672
 1901TIP3    H1 5667   1.015   3.586   4.671
 1901TIP3    H2 5668   1.054   3.707   4.588
 1902TIP3   OH2 5669   4.008   3.990   2.877
 1902TIP3    H1 5670   4.041   4.038   2.802
 1902TIP3    H2 5671   3.958   3.918   2.839
 1903TIP3   OH2 5672   0.922   3.834   3.253
 1903TIP3    H1 5673   0.858   3.769   3.224
 1903TIP3    H2 5674   0.926   3.897   3.181
 1904TIP3   OH2 5675   6.413   0.385   0.065
 1904TIP3    H1 5676   6.473   0.405  -0.007
 1904TIP3    H2 5677   6.452   0.310   0.110
 1905TIP3   OH2 5678   6.108   3.084   3.147
 1905TIP3    H1 5679   6.176   3.073   3.080
 1905TIP3    H2 5680   6.029   3.101   3.096
 1906TIP3   OH2 5681   0.744   0.611   0.634
 1906TIP3    H1 5682   0.664   0.625   0.584
 1906TIP3    H2 5683   0.813   0.602   0.568
 1907TIP3   OH2 5684   0.488   5.460   0.787
 1907TIP3    H1 5685   0.401   5.452   0.826
 1907TIP3    H2 5686   0.543   5.400   0.837
 1908TIP3   OH2 5687   3.198   5.222   5.532
 1908TIP3    H1 5688   3.186   5.141   5.483
 1908TIP3    H2 5689   3.160   5.290   5.476
 1909TIP3   OH2 5690   0.827   5.255   1.738
 1909TIP3    H1 5691   0.803   5.177   1.788
 1909TIP3    H2 5692   0.892   5.300   1.792
 1910TIP3   OH2 5693   6.674   1.281   0.616
 1910TIP3    H1 5694   6.668   1.244   0.704
 1910TIP3    H2 5695   6.725   1.217   0.566
 1911TIP3   OH2 5696   2.315   2.742   0.401
 1911TIP3    H1 5697   2.242   2.701   0.448
 1911TIP3    H2 5698   2.279   2.824   0.368
 1912TIP3   OH2 5699   3.999   4.104   0.678
 1912TIP3    H1 5700   3.941   4.030   0.657
 1912TIP3    H2 5701   4.060   4.109   0.604
 1913TIP3   OH2 5702   6.395   4.803   5.517
 1913TIP3    H1 5703   6.475   4.853   5.501
 1913TIP3    H2 5704   6.339   4.824   5.442
 1914TIP3   OH2 5705   2.806   1.355   5.826
 1914TIP3    H1 5706   2.818   1.396   5.912
 1914TIP3    H2 5707   2.771   1.268   5.845
 1915TIP3   OH2 5708   4.158   5.760   0.112
 1915TIP3    H1 5709   4.220   5.763   0.185
 1915TIP3    H2 5710   4.186   5.830   0.054
 1916TIP3   OH2 5711   5.362   4.402   1.356
 1916TIP3    H1 5712   5.287   4.399   1.297
 1916TIP3    H2 5713   5.349   4.483   1.406
 1917TIP3   OH2 5714   1.921   5.154   4.235
 1917TIP3    H1 5715   1.918   5.058   4.243
 1917TIP3    H2 5716   2.013   5.175   4.250
 1918TIP3   OH2 5717   4.382   3.198   3.698
 1918TIP3    H1 5718   4.370   3.116   3.745
 1918TIP3    H2 5719   4.422   3.257   3.763
 1919TIP3   OH2 5720   1.795   0.871   1.406
 1919TIP3    H1 5721   1.706   0.856   1.439
 1919TIP3    H2 5722   1.805   0.807   1.336
 1920TIP3   OH2 5723   0.831   4.908   5.029
 1920TIP3    H1 5724   0.877   4.855   5.094
 1920TIP3    H2 5725   0.900   4.962   4.990
 1921TIP3   OH2 5726   6.653   5.031   4.456
 1921TIP3    H1 5727   6.660   5.103   4.519
 1921TIP3    H2 5728   6.697   5.063   4.378
 1922TIP3   OH2 5729   0.724   3.781   4.779
 1922TIP3    H1 5730   0.657   3.778   4.846
 1922TIP3    H2 5731   0.802   3.743   4.820
 1923TIP3   OH2 5732   6.424   0.354   5.583
 1923TIP3    H1 5733   6.370   0.278   5.557
 1923TIP3    H2 5734   6.395   0.374   5.672
 1924TIP3   OH2 5735   0.639   2.396   2.674
 1924TIP3    H1 5736   0.725   2.398   2.633
 1924TIP3    H2 5737   0.578   2.418   2.604
 1925TIP3   OH2 5738   5.268   2.400   5.831
 1925TIP3    H1 5739   5.278   2.334   5.899
 1925TIP3    H2 5740   5.173   2.411   5.822
 1926TIP3   OH2 5741   0.361   4.815   1.439
 1926TIP3    H1 5742   0.374   4.759   1.516
 1926TIP3    H2 5743   0.449   4.843   1.415
 1927TIP3   OH2 5744   5.252   0.775   2.041
 1927TIP3    H1 5745   5.287   0.707   2.098
 1927TIP3    H2 5746   5.182   0.732   1.992
 1928TIP3   OH2 5747   6.218   0.156   2.547
 1928TIP3    H1 5748   6.253   0.147   2.636
 1928TIP3    H2 5749   6.230   0.070   2.507
 1929TIP3   OH2 5750   3.168   0.539   3.853
 1929TIP3    H1 5751   3.082   0.577   3.869
 1929TIP3    H2 5752   3.174   0.466   3.915
 1930TIP3   OH2 5753   0.043   0.495   1.561
 1930TIP3    H1 5754  -0.026   0.436   1.531
 1930TIP3    H2 5755   0.049   0.562   1.494
 1931TIP3   OH2 5756   1.155   5.629   2.831
 1931TIP3    H1 5757   1.115   5.638   2.744
 1931TIP3    H2 5758   1.110   5.693   2.886
 1932TIP3   OH2 5759   5.979   6.321   1.118
 1932TIP3    H1 5760   6.024   6.379   1.057
 1932TIP3    H2 5761   5.918   6.379   1.164
 1933TIP3   OH2 5762   1.823   2.439   2.108
 1933TIP3    H1 5763   1.836   2.408   2.197
 1933TIP3    H2 5764   1.777   2.523   2.119
 1934TIP3   OH2 5765   5.223   4.494   1.632
 1934TIP3    H1 5766   5.148   4.528   1.681
 1934TIP3    H2 5767   5.211   4.531   1.544
 1935TIP3   OH2 5768   5.571   0.076   3.381
 1935TIP3    H1 5769   5.607  -0.013   3.380
 1935TIP3    H2 5770   5.600   0.114   3.299
 1936TIP3   OH2 5771   0.966   5.608   3.390
 1936TIP3    H1 5772   0.995   5.695   3.365
 1936TIP3    H2 5773   0.936   5.568   3.309
 1937TIP3   OH2 5774   2.357   3.487   4.013
 1937TIP3    H1 5775   2.261   3.488   4.018
 1937TIP3    H2 5776   2.375   3.471   3.920
 1938TIP3   OH2 5777   3.306   6.558   2.091
 1938TIP3    H1 5778   3.254   6.503   2.150
 1938TIP3    H2 5779   3.288   6.522   2.004
 1939TIP3   OH2 5780   6.326   1.602   4.587
 1939TIP3    H1 5781   6.274   1.632   4.513
 1939TIP3    H2 5782   6.386   1.674   4.606
 1940TIP3   OH2 5783   5.496   5.293   2.197
 1940TIP3    H1 5784   5.546   5.253   2.125
 1940TIP3    H2 5785   5.558   5.292   2.270
 1941TIP3   OH2 5786   0.656   4.304   0.026
 1941TIP3    H1 5787   0.725   4.240   0.047
 1941TIP3    H2 5788   0.660   4.367   0.098
 1942TIP3   OH2 5789   5.862   0.104   4.748
 1942TIP3    H1 5790   5.917   0.181   4.732
 1942TIP3    H2 5791   5.809   0.128   4.824
 1943TIP3   OH2 5792   4.569   6.332   4.435
 1943TIP3    H1 5793   4.495   6.364   4.488
 1943TIP3    H2 5794   4.607   6.261   4.487
 1944TIP3   OH2 5795   6.489   2.774   0.732
 1944TIP3    H1 5796   6.565   2.715   0.734
 1944TIP3    H2 5797   6.496   2.818   0.647
 1945TIP3   OH2 5798   7.236   4.733   4.926
 1945TIP3    H1 5799   7.195   4.772   5.003
 1945TIP3    H2 5800   7.181   4.760   4.853
 1946TIP3   OH2 5801   0.411   0.882   1.174
 1946TIP3    H1 5802   0.332   0.909   1.220
 1946TIP3    H2 5803   0.427   0.793   1.204
 1947TIP3   OH2 5804   0.325   0.353   4.840
 1947TIP3    H1 5805   0.374   0.404   4.776
 1947TIP3    H2 5806   0.310   0.413   4.913
 1948TIP3   OH2 5807   5.630   3.013   3.019
 1948TIP3    H1 5808   5.562   3.016   3.086
 1948TIP3    H2 5809   5.688   3.085   3.041
 1949TIP3   OH2 5810   1.231   2.803   4.390
 1949TIP3    H1 5811   1.260   2.714   4.368
 1949TIP3    H2 5812   1.301   2.837   4.446
 1950TIP3   OH2 5813   5.327   0.175   1.843
 1950TIP3    H1 5814   5.379   0.245   1.803
 1950TIP3    H2 5815   5.236   0.196   1.821
 1951TIP3   OH2 5816   4.624   4.236   2.104
 1951TIP3    H1 5817   4.678   4.199   2.173
 1951TIP3    H2 5818   4.550   4.276   2.150
 1952TIP3   OH2 5819   0.436   1.148   1.417
 1952TIP3    H1 5820   0.407   1.078   1.474
 1952TIP3    H2 5821   0.413   1.229   1.464
 1953TIP3   OH2 5822   4.176   5.221   1.195
 1953TIP3    H1 5823   4.138   5.281   1.259
 1953TIP3    H2 5824   4.197   5.143   1.246
 1954TIP3   OH2 5825   3.822   0.033   0.180
 1954TIP3    H1 5826   3.889   0.046   0.246
 1954TIP3    H2 5827   3.868   0.036   0.096
 1955TIP3   OH2 5828   3.305   1.452   3.873
 1955TIP3    H1 5829   3.368   1.389   3.907
 1955TIP3    H2 5830   3.224   1.402   3.865
 1956TIP3   OH2 5831   3.402   3.770   2.067
 1956TIP3    H1 5832   3.433   3.734   2.150
 1956TIP3    H2 5833   3.313   3.800   2.085
 1957TIP3   OH2 5834   1.767   0.765   1.873
 1957TIP3    H1 5835   1.820   0.742   1.797
 1957TIP3    H2 5836   1.820   0.828   1.922
 1958TIP3   OH2 5837   6.902   2.304   4.734
 1958TIP3    H1 5838   6.810   2.278   4.729
 1958TIP3    H2 5839   6.915   2.363   4.660
 1959TIP3   OH2 5840   3.348   2.732   2.702
 1959TIP3    H1 5841   3.297   2.812   2.689
 1959TIP3    H2 5842   3.336   2.710   2.794
 1960TIP3   OH2 5843   3.874   0.018   0.470
 1960TIP3    H1 5844   3.938  -0.045   0.502
 1960TIP3    H2 5845   3.910   0.103   0.495
 1961TIP3   OH2 5846   5.711   4.388   3.674
 1961TIP3    H1 5847   5.664   4.389   3.591
 1961TIP3    H2 5848   5.668   4.456   3.727
 1962TIP3   OH2 5849   1.709   2.653   0.914
 1962TIP3    H1 5850   1.787   2.690   0.955
 1962TIP3    H2 5851   1.663   2.608   0.984
 1963TIP3   OH2 5852   3.922   2.729   1.936
 1963TIP3    H1 5853   4.017   2.718   1.945
 1963TIP3    H2 5854   3.905   2.718   1.842
 1964TIP3   OH2 5855   3.574   4.447   3.923
 1964TIP3    H1 5856   3.509   4.477   3.986
 1964TIP3    H2 5857   3.554   4.495   3.842
 1965TIP3   OH2 5858   0.675   4.839   0.362
 1965TIP3    H1 5859   0.736   4.886   0.306
 1965TIP3    H2 5860   0.595   4.832   0.311
 1966TIP3   OH2 5861   1.218   6.753   0.485
 1966TIP3    H1 5862   1.314   6.761   0.490
 1966TIP3    H2 5863   1.191   6.744   0.576
 1967TIP3   OH2 5864   0.039   5.731   5.841
 1967TIP3    H1 5865   0.021   5.683   5.760
 1967TIP3    H2 5866  -0.046   5.734   5.886
 1968TIP3   OH2 5867   1.752   6.177   0.292
 1968TIP3    H1 5868   1.704   6.214   0.217
 1968TIP3    H2 5869   1.768   6.252   0.349
 1969TIP3   OH2 5870   3.817   2.028   3.524
 1969TIP3    H1 5871   3.803   2.008   3.617
 1969TIP3    H2 5872   3.804   1.944   3.479
 1970TIP3   OH2 5873   1.022   3.522   5.289
 1970TIP3    H1 5874   1.112   3.506   5.316
 1970TIP3    H2 5875   0.972   3.522   5.371
 1971TIP3   OH2 5876   1.684   0.193   4.146
 1971TIP3    H1 5877   1.696   0.172   4.053
 1971TIP3    H2 5878   1.606   0.143   4.172
 1972TIP3   OH2 5879   1.797   5.480   5.654
 1972TIP3    H1 5880   1.871   5.468   5.595
 1972TIP3    H2 5881   1.732   5.527   5.602
 1973TIP3   OH2 5882   0.638   2.655   4.189
 1973TIP3    H1 5883   0.687   2.711   4.249
 1973TIP3    H2 5884   0.598   2.589   4.246
 1974TIP3   OH2 5885   0.394   0.385   4.310
 1974TIP3    H1 5886   0.483   0.368   4.342
 1974TIP3    H2 5887   0.341   0.315   4.350
 1975TIP3   OH2 5888   1.466   4.546   5.670
 1975TIP3    H1 5889   1.542   4.604   5.677
 1975TIP3    H2 5890   1.504   4.458   5.667
 1976TIP3   OH2 5891   0.892   4.833   3.292
 1976TIP3    H1 5892   0.885   4.779   3.371
 1976TIP3    H2 5893   0.980   4.815   3.259
 1977TIP3   OH2 5894   2.659   1.156   5.039
 1977TIP3    H1 5895   2.615   1.147   4.955
 1977TIP3    H2 5896   2.752   1.148   5.019
 1978TIP3   OH2 5897   2.929   0.110   1.320
 1978TIP3    H1 5898   2.858   0.071   1.270
 1978TIP3    H2 5899   2.998   0.126   1.256
 1979TIP3   OH2 5900   5.675   5.607   1.109
 1979TIP3    H1 5901   5.619   5.556   1.050
 1979TIP3    H2 5902   5.763   5.595   1.073
 1980TIP3   OH2 5903   3.826   2.387   5.146
 1980TIP3    H1 5904   3.850   2.480   5.140
 1980TIP3    H2 5905   3.823   2.357   5.056
 1981TIP3   OH2 5906   6.861   3.312   3.877
 1981TIP3    H1 5907   6.846   3.224   3.843
 1981TIP3    H2 5908   6.787   3.328   3.936
 1982TIP3   OH2 5909   0.519   6.472   5.156
 1982TIP3    H1 5910   0.581   6.545   5.150
 1982TIP3    H2 5911   0.527   6.442   5.246
 1983TIP3   OH2 5912   6.364   3.695   5.757
 1983TIP3    H1 5913   6.320   3.611   5.767
 1983TIP3    H2 5914   6.300   3.759   5.788
 1984TIP3   OH2 5915   2.930   2.187   2.619
 1984TIP3    H1 5916   3.011   2.223   2.654
 1984TIP3    H2 5917   2.889   2.259   2.571
 1985TIP3   OH2 5918   0.319   6.210   0.377
 1985TIP3    H1 5919   0.306   6.121   0.410
 1985TIP3    H2 5920   0.391   6.203   0.316
 1986TIP3   OH2 5921   2.263   4.498   2.717
 1986TIP3    H1 5922   2.174   4.460   2.717
 1986TIP3    H2 5923   2.320   4.423   2.701
 1987TIP3   OH2 5924   5.438   2.584   3.304
 1987TIP3    H1 5925   5.499   2.560   3.234
 1987TIP3    H2 5926   5.489   2.639   3.363
 1988TIP3   OH2 5927   5.403   0.376   4.913
 1988TIP3    H1 5928   5.443   0.462   4.898
 1988TIP3    H2 5929   5.438   0.348   4.998
 1989TIP3   OH2 5930   3.419   4.641   4.638
 1989TIP3    H1 5931   3.444   4.548   4.631
 1989TIP3    H2 5932   3.490   4.688   4.593
 1990TIP3   OH2 5933   6.681   0.756   5.712
 1990TIP3    H1 5934   6.609   0.712   5.668
 1990TIP3    H2 5935   6.742   0.686   5.735
 1991TIP3   OH2 5936   2.106   0.481   4.787
 1991TIP3    H1 5937   2.197   0.453   4.796
 1991TIP3    H2 5938   2.083   0.462   4.696
 1992TIP3   OH2 5939   4.563   3.717   1.442
 1992TIP3    H1 5940   4.602   3.666   1.512
 1992TIP3    H2 5941   4.621   3.792   1.431
 1993TIP3   OH2 5942   5.333   0.803   4.865
 1993TIP3    H1 5943   5.404   0.864   4.845
 1993TIP3    H2 5944   5.378   0.720   4.882
 1994TIP3   OH2 5945   1.124   2.590   1.515
 1994TIP3    H1 5946   1.095   2.646   1.587
 1994TIP3    H2 5947   1.124   2.502   1.552
 1995TIP3   OH2 5948   5.335   3.710   4.330
 1995TIP3    H1 5949   5.335   3.733   4.237
 1995TIP3    H2 5950   5.416   3.660   4.342
 1996TIP3   OH2 5951   2.500   0.691   5.524
 1996TIP3    H1 5952   2.475   0.603   5.495
 1996TIP3    H2 5953   2.534   0.678   5.612
 1997TIP3   OH2 5954   4.660   6.437   0.252
 1997TIP3    H1 5955   4.617   6.522   0.245
 1997TIP3    H2 5956   4.742   6.447   0.204
 1998TIP3   OH2 5957   2.152   3.297   5.545
 1998TIP3    H1 5958   2.173   3.205   5.531
 1998TIP3    H2 5959   2.182   3.340   5.465
 1999TIP3   OH2 5960   4.882   5.115   1.397
 1999TIP3    H1 5961   4.923   5.201   1.380
 1999TIP3    H2 5962   4.798   5.136   1.437
 2000TIP3   OH2 5963   1.554   4.190   1.594
 2000TIP3    H1 5964   1.573   4.273   1.638
 2000TIP3    H2 5965   1.568   4.124   1.662
 2001TIP3   OH2 5966   4.565   5.785   4.332
 2001TIP3    H1 5967   4.652   5.809   4.365
 2001TIP3    H2 5968   4.570   5.798   4.238
 2002TIP3   OH2 5969   3.474   3.473   0.529
 2002TIP3    H1 5970   3.496   3.552   0.481
 2002TIP3    H2 5971   3.378   3.469   0.527
 2003TIP3   OH2 5972   0.305   0.907   3.745
 2003TIP3    H1 5973   0.356   0.982   3.776
 2003TIP3    H2 5974   0.367   0.834   3.743
 2004TIP3   OH2 5975   1.097   0.857   4.337
 2004TIP3    H1 5976   1.173   0.832   4.285
 2004TIP3    H2 5977   1.130   0.922   4.398
 2005TIP3   OH2 5978   0.660   2.030   1.169
 2005TIP3    H1 5979   0.688   1.945   1.204
 2005TIP3    H2 5980   0.741   2.081   1.165
 2006TIP3   OH2 5981   5.818   5.635   3.881
 2006TIP3    H1 5982   5.822   5.655   3.975
 2006TIP3    H2 5983   5.728   5.609   3.866
 2007TIP3   OH2 5984   3.835   6.404   2.607
 2007TIP3    H1 5985   3.922   6.404   2.647
 2007TIP3    H2 5986   3.828   6.489   2.564
 2008TIP3   OH2 5987   3.853   6.349   1.806
 2008TIP3    H1 5988   3.849   6.258   1.777
 2008TIP3    H2 5989   3.942   6.358   1.840
 2009TIP3   OH2 5990   4.851   3.597   0.823
 2009TIP3    H1 5991   4.756   3.594   0.823
 2009TIP3    H2 5992   4.878   3.536   0.891
 2010TIP3   OH2 5993   1.483   5.129   0.319
 2010TIP3    H1 5994   1.497   5.109   0.227
 2010TIP3    H2 5995   1.451   5.220   0.320
 2011TIP3   OH2 5996   6.973   5.390   2.175
 2011TIP3    H1 5997   7.066   5.383   2.195
 2011TIP3    H2 5998   6.968   5.391   2.079
 2012TIP3   OH2 5999   1.865   4.711   5.403
 2012TIP3    H1 6000   1.954   4.703   5.439
 2012TIP3    H2 6001   1.837   4.799   5.430
 2013TIP3   OH2 6002   6.640   4.961   5.446
 2013TIP3    H1 6003   6.596   5.018   5.384
 2013TIP3    H2 6004   6.712   5.014   5.481
 2014TIP3   OH2 6005   4.407   5.456   2.373
 2014TIP3    H1 6006   4.481   5.516   2.374
 2014TIP3    H2 6007   4.445   5.370   2.393
 2015TIP3   OH2 6008   4.998   1.485   5.654
 2015TIP3    H1 6009   4.921   1.474   5.709
 2015TIP3    H2 6010   5.061   1.530   5.710
 2016TIP3   OH2 6011   3.593   1.506   2.101
 2016TIP3    H1 6012   3.583   1.454   2.022
 2016TIP3    H2 6013   3.687   1.511   2.116
 2017TIP3   OH2 6014   4.015   6.348   3.753
 2017TIP3    H1 6015   4.002   6.421   3.692
 2017TIP3    H2 6016   3.930   6.339   3.797
 2018TIP3   OH2 6017   3.155   4.970   1.999
 2018TIP3    H1 6018   3.072   4.997   2.037
 2018TIP3    H2 6019   3.134   4.890   1.949
 2019TIP3   OH2 6020   3.201   1.753   3.444
 2019TIP3    H1 6021   3.122   1.807   3.436
 2019TIP3    H2 6022   3.187   1.700   3.522
 2020TIP3   OH2 6023   4.990   1.191   3.387
 2020TIP3    H1 6024   5.057   1.255   3.363
 2020TIP3    H2 6025   5.025   1.107   3.360
 2021TIP3   OH2 6026   6.294   3.390   4.349
 2021TIP3    H1 6027   6.270   3.304   4.385
 2021TIP3    H2 6028   6.310   3.373   4.257
 2022TIP3   OH2 6029   5.355   4.769   2.784
 2022TIP3    H1 6030   5.438   4.733   2.755
 2022TIP3    H2 6031   5.291   4.737   2.719
 2023TIP3   OH2 6032   4.757   0.714   4.754
 2023TIP3    H1 6033   4.766   0.700   4.660
 2023TIP3    H2 6034   4.697   0.645   4.782
 2024TIP3   OH2 6035   5.392   0.285   0.032
 2024TIP3    H1 6036   5.326   0.339  -0.010
 2024TIP3    H2 6037   5.363   0.278   0.123
 2025TIP3   OH2 6038   5.327   1.100   2.825
 2025TIP3    H1 6039   5.260   1.055   2.774
 2025TIP3    H2 6040   5.409   1.079   2.780
 2026TIP3   OH2 6041   5.164   2.749   1.952
 2026TIP3    H1 6042   5.138   2.815   2.017
 2026TIP3    H2 6043   5.148   2.665   1.996
 2027TIP3   OH2 6044   4.388   4.480   2.959
 2027TIP3    H1 6045   4.477   4.496   2.930
 2027TIP3    H2 6046   4.387   4.387   2.984
 2028TIP3   OH2 6047   5.065   2.783   2.396
 2028TIP3    H1 6048   5.089   2.771   2.488
 2028TIP3    H2 6049   5.082   2.876   2.379
 2029TIP3   OH2 6050   6.473   2.352   2.658
 2029TIP3    H1 6051   6.466   2.265   2.697
 2029TIP3    H2 6052   6.448   2.411   2.729
 2030TIP3   OH2 6053   0.172   3.718   5.503
 2030TIP3    H1 6054   0.111   3.649   5.528
 2030TIP3    H2 6055   0.256   3.673   5.491
 2031TIP3   OH2 6056   3.671   3.916   4.679
 2031TIP3    H1 6057   3.738   3.945   4.742
 2031TIP3    H2 6058   3.697   3.827   4.656
 2032TIP3   OH2 6059   6.071   2.937   5.403
 2032TIP3    H1 6060   6.092   2.845   5.390
 2032TIP3    H2 6061   6.139   2.968   5.464
 2033TIP3   OH2 6062   6.638   1.301   1.253
 2033TIP3    H1 6063   6.638   1.396   1.262
 2033TIP3    H2 6064   6.624   1.268   1.343
 2034TIP3   OH2 6065   6.198   5.964   0.034
 2034TIP3    H1 6066   6.228   5.926   0.117
 2034TIP3    H2 6067   6.276   5.966  -0.021
 2035TIP3   OH2 6068   0.877   6.718   3.583
 2035TIP3    H1 6069   0.859   6.680   3.669
 2035TIP3    H2 6070   0.803   6.690   3.528
 2036TIP3   OH2 6071   6.994   5.680   2.799
 2036TIP3    H1 6072   6.973   5.768   2.831
 2036TIP3    H2 6073   6.908   5.642   2.780
 2037TIP3   OH2 6074   0.402   5.468   4.345
 2037TIP3    H1 6075   0.440   5.438   4.427
 2037TIP3    H2 6076   0.394   5.563   4.355
 2038TIP3   OH2 6077   4.841   3.714   2.898
 2038TIP3    H1 6078   4.756   3.700   2.941
 2038TIP3    H2 6079   4.837   3.661   2.819
 2039TIP3   OH2 6080   3.152   0.757   0.762
 2039TIP3    H1 6081   3.100   0.803   0.696
 2039TIP3    H2 6082   3.243   0.782   0.743
 2040TIP3   OH2 6083   5.105   0.318   1.791
 2040TIP3    H1 6084   5.026   0.350   1.835
 2040TIP3    H2 6085   5.122   0.383   1.723
 2041TIP3   OH2 6086   1.328   2.637   4.105
 2041TIP3    H1 6087   1.316   2.579   4.180
 2041TIP3    H2 6088   1.239   2.656   4.074
 2042TIP3   OH2 6089   1.776   2.272   2.927
 2042TIP3    H1 6090   1.809   2.274   2.837
 2042TIP3    H2 6091   1.690   2.230   2.919
 2043TIP3   OH2 6092   2.386   6.307   1.278
 2043TIP3    H1 6093   2.358   6.304   1.187
 2043TIP3    H2 6094   2.336   6.379   1.316
 2044TIP3   OH2 6095   6.996   0.347   4.334
 2044TIP3    H1 6096   7.035   0.313   4.415
 2044TIP3    H2 6097   6.952   0.428   4.361
 2045TIP3   OH2 6098   1.348   4.015   5.011
 2045TIP3    H1 6099   1.324   3.960   4.937
 2045TIP3    H2 6100   1.315   3.968   5.088
 2046TIP3   OH2 6101   0.166   5.537   3.651
 2046TIP3    H1 6102   0.257   5.551   3.624
 2046TIP3    H2 6103   0.170   5.539   3.747
 2047TIP3   OH2 6104   1.410   2.218   5.859
 2047TIP3    H1 6105   1.339   2.243   5.800
 2047TIP3    H2 6106   1.489   2.231   5.807
 2048TIP3   OH2 6107   5.457   5.882   5.453
 2048TIP3    H1 6108   5.437   5.924   5.536
 2048TIP3    H2 6109   5.399   5.925   5.389
 2049TIP3   OH2 6110   1.422   0.097   4.090
 2049TIP3    H1 6111   1.332   0.129   4.085
 2049TIP3    H2 6112   1.414   0.002   4.094
 2050TIP3   OH2 6113   6.437   3.907   4.451
 2050TIP3    H1 6114   6.349   3.939   4.430
 2050TIP3    H2 6115   6.464   3.861   4.372
 2051TIP3   OH2 6116   4.973   1.918   1.057
 2051TIP3    H1 6117   5.021   1.927   0.974
 2051TIP3    H2 6118   4.960   2.007   1.087
 2052TIP3   OH2 6119   2.911   6.669   2.736
 2052TIP3    H1 6120   2.904   6.579   2.704
 2052TIP3    H2 6121   2.977   6.709   2.679
 2053TIP3   OH2 6122   3.145   4.377   1.305
 2053TIP3    H1 6123   3.189   4.447   1.255
 2053TIP3    H2 6124   3.211   4.348   1.368
 2054TIP3   OH2 6125   6.618   2.113   0.666
 2054TIP3    H1 6126   6.655   2.183   0.613
 2054TIP3    H2 6127   6.525   2.112   0.643
 2055TIP3   OH2 6128   0.575   3.251   5.575
 2055TIP3    H1 6129   0.520   3.196   5.520
 2055TIP3    H2 6130   0.660   3.251   5.532
 2056TIP3   OH2 6131   6.632   2.396   0.740
 2056TIP3    H1 6132   6.696   2.369   0.674
 2056TIP3    H2 6133   6.558   2.430   0.690
 2057TIP3   OH2 6134   4.581   4.374   5.248
 2057TIP3    H1 6135   4.598   4.443   5.313
 2057TIP3    H2 6136   4.495   4.340   5.272
 2058TIP3   OH2 6137   7.186   3.369   4.463
 2058TIP3    H1 6138   7.181   3.445   4.522
 2058TIP3    H2 6139   7.098   3.331   4.465
 2059TIP3   OH2 6140   3.910   2.673   1.676
 2059TIP3    H1 6141   3.847   2.669   1.604
 2059TIP3    H2 6142   3.977   2.734   1.646
 2060TIP3   OH2 6143   0.564   0.739   3.260
 2060TIP3    H1 6144   0.579   0.763   3.168
 2060TIP3    H2 6145   0.531   0.649   3.256
 2061TIP3   OH2 6146   5.056   1.121   4.156
 2061TIP3    H1 6147   5.021   1.132   4.245
 2061TIP3    H2 6148   4.985   1.149   4.099
 2062TIP3   OH2 6149   0.204   6.458   4.063
 2062TIP3    H1 6150   0.138   6.453   3.994
 2062TIP3    H2 6151   0.287   6.449   4.016
 2063TIP3   OH2 6152   7.127   1.073   1.315
 2063TIP3    H1 6153   7.047   1.037   1.278
 2063TIP3    H2 6154   7.104   1.097   1.404
 2064TIP3   OH2 6155   5.143   3.929   4.226
 2064TIP3    H1 6156   5.192   3.874   4.166
 2064TIP3    H2 6157   5.128   4.010   4.178
 2065TIP3   OH2 6158   6.442   0.165   3.791
 2065TIP3    H1 6159   6.408   0.254   3.779
 2065TIP3    H2 6160   6.537   0.176   3.799
 2066TIP3   OH2 6161   5.946   5.579   2.522
 2066TIP3    H1 6162   5.882   5.562   2.591
 2066TIP3    H2 6163   6.006   5.644   2.561
 2067TIP3   OH2 6164   2.982   6.351   3.534
 2067TIP3    H1 6165   2.988   6.259   3.507
 2067TIP3    H2 6166   3.036   6.357   3.612
 2068TIP3   OH2 6167   4.545   0.941   1.337
 2068TIP3    H1 6168   4.639   0.956   1.350
 2068TIP3    H2 6169   4.505   1.027   1.352
 2069TIP3   OH2 6170   4.124   2.536   2.157
 2069TIP3    H1 6171   4.030   2.518   2.156
 2069TIP3    H2 6172   4.164   2.455   2.189
 2070TIP3   OH2 6173   4.841   6.806   4.249
 2070TIP3    H1 6174   4.924   6.783   4.291
 2070TIP3    H2 6175   4.778   6.742   4.283
 2071TIP3   OH2 6176   0.220   0.453   3.744
 2071TIP3    H1 6177   0.177   0.378   3.784
 2071TIP3    H2 6178   0.244   0.509   3.817
 2072TIP3   OH2 6179   5.948   0.697   3.918
 2072TIP3    H1 6180   5.887   0.767   3.899
 2072TIP3    H2 6181   5.913   0.621   3.872
 2073TIP3   OH2 6182   4.744   4.115   0.431
 2073TIP3    H1 6183   4.773   4.060   0.358
 2073TIP3    H2 6184   4.772   4.068   0.509
 2074TIP3   OH2 6185   2.078   5.538   0.636
 2074TIP3    H1 6186   2.011   5.518   0.700
 2074TIP3    H2 6187   2.038   5.518   0.551
 2075TIP3   OH2 6188   5.646   2.296   1.325
 2075TIP3    H1 6189   5.696   2.302   1.244
 2075TIP3    H2 6190   5.712   2.282   1.393
 2076TIP3   OH2 6191   6.784   4.062   1.641
 2076TIP3    H1 6192   6.825   3.991   1.592
 2076TIP3    H2 6193   6.855   4.100   1.692
 2077TIP3   OH2 6194   0.811   4.384   4.644
 2077TIP3    H1 6195   0.724   4.369   4.608
 2077TIP3    H2 6196   0.807   4.474   4.678
 2078TIP3   OH2 6197   4.000   6.122   0.439
 2078TIP3    H1 6198   4.034   6.135   0.351
 2078TIP3    H2 6199   3.916   6.078   0.426
 2079TIP3   OH2 6200   5.377   0.213   2.325
 2079TIP3    H1 6201   5.432   0.277   2.280
 2079TIP3    H2 6202   5.312   0.187   2.260
 2080TIP3   OH2 6203   6.820   1.488   0.378
 2080TIP3    H1 6204   6.910   1.466   0.352
 2080TIP3    H2 6205   6.774   1.404   0.377
 2081TIP3   OH2 6206   4.430   0.846   1.105
 2081TIP3    H1 6207   4.459   0.888   1.186
 2081TIP3    H2 6208   4.465   0.757   1.110
 2082TIP3   OH2 6209   2.865   1.627   5.457
 2082TIP3    H1 6210   2.925   1.631   5.383
 2082TIP3    H2 6211   2.811   1.549   5.440
 2083TIP3   OH2 6212   2.315   0.978   5.149
 2083TIP3    H1 6213   2.323   1.041   5.077
 2083TIP3    H2 6214   2.267   1.025   5.217
 2084TIP3   OH2 6215   1.526   5.481   3.285
 2084TIP3    H1 6216   1.595   5.446   3.343
 2084TIP3    H2 6217   1.559   5.464   3.197
 2085TIP3   OH2 6218   0.796   4.587   1.485
 2085TIP3    H1 6219   0.886   4.614   1.504
 2085TIP3    H2 6220   0.751   4.669   1.464
 2086TIP3   OH2 6221   3.674   0.091   3.720
 2086TIP3    H1 6222   3.704   0.166   3.670
 2086TIP3    H2 6223   3.751   0.062   3.769
 2087TIP3   OH2 6224   1.956   5.521   5.433
 2087TIP3    H1 6225   1.874   5.567   5.415
 2087TIP3    H2 6226   1.974   5.472   5.352
 2088TIP3   OH2 6227   0.163   2.721   1.029
 2088TIP3    H1 6228   0.132   2.680   1.109
 2088TIP3    H2 6229   0.084   2.749   0.983
 2089TIP3   OH2 6230   4.560   2.342   0.408
 2089TIP3    H1 6231   4.467   2.357   0.389
 2089TIP3    H2 6232   4.598   2.319   0.323
 2090TIP3   OH2 6233   2.291   5.027   3.182
 2090TIP3    H1 6234   2.246   4.950   3.148
 2090TIP3    H2 6235   2.226   5.097   3.176
 2091TIP3   OH2 6236   5.883   6.745   1.675
 2091TIP3    H1 6237   5.902   6.704   1.759
 2091TIP3    H2 6238   5.796   6.784   1.686
 2092TIP3   OH2 6239   0.904   5.386   0.205
 2092TIP3    H1 6240   0.994   5.420   0.209
 2092TIP3    H2 6241   0.915   5.292   0.191
 2093TIP3   OH2 6242   2.888   1.956   3.361
 2093TIP3    H1 6243   2.832   1.916   3.295
 2093TIP3    H2 6244   2.859   1.917   3.444
 2094TIP3   OH2 6245   6.647   5.606   0.058
 2094TIP3    H1 6246   6.739   5.583   0.073
 2094TIP3    H2 6247   6.642   5.699   0.079
 2095TIP3   OH2 6248   5.012   3.132   5.766
 2095TIP3    H1 6249   5.097   3.174   5.773
 2095TIP3    H2 6250   5.002   3.083   5.847
 2096TIP3   OH2 6251   5.594   6.538   2.126
 2096TIP3    H1 6252   5.526   6.487   2.170
 2096TIP3    H2 6253   5.674   6.488   2.140
 2097TIP3   OH2 6254   2.825   3.760   4.518
 2097TIP3    H1 6255   2.848   3.847   4.488
 2097TIP3    H2 6256   2.909   3.715   4.527
 2098TIP3   OH2 6257   2.336   5.398   0.702
 2098TIP3    H1 6258   2.332   5.378   0.608
 2098TIP3    H2 6259   2.263   5.458   0.717
 2099TIP3   OH2 6260   0.649   1.677   5.350
 2099TIP3    H1 6261   0.634   1.771   5.345
 2099TIP3    H2 6262   0.738   1.665   5.317
 2100TIP3   OH2 6263   5.577   5.415   4.179
 2100TIP3    H1 6264   5.638   5.417   4.252
 2100TIP3    H2 6265   5.521   5.340   4.197
 2101TIP3   OH2 6266   2.636   5.030   0.686
 2101TIP3    H1 6267   2.593   5.088   0.623
 2101TIP3    H2 6268   2.572   5.021   0.757
 2102TIP3   OH2 6269   5.749   0.418   3.420
 2102TIP3    H1 6270   5.729   0.390   3.509
 2102TIP3    H2 6271   5.745   0.514   3.424
 2103TIP3   OH2 6272   6.592   4.582   4.573
 2103TIP3    H1 6273   6.548   4.667   4.574
 2103TIP3    H2 6274   6.526   4.521   4.605
 2104TIP3   OH2 6275   3.665   1.542   0.980
 2104TIP3    H1 6276   3.634   1.451   0.979
 2104TIP3    H2 6277   3.641   1.577   0.894
 2105TIP3   OH2 6278   5.479   6.056   0.512
 2105TIP3    H1 6279   5.390   6.091   0.516
 2105TIP3    H2 6280   5.533   6.125   0.552
 2106TIP3   OH2 6281   3.178   1.201   4.225
 2106TIP3    H1 6282   3.092   1.176   4.259
 2106TIP3    H2 6283   3.205   1.274   4.280
 2107TIP3   OH2 6284   3.215   5.871   0.811
 2107TIP3    H1 6285   3.161   5.946   0.786
 2107TIP3    H2 6286   3.213   5.814   0.734
 2108TIP3   OH2 6287   2.882   2.792   0.907
 2108TIP3    H1 6288   2.932   2.740   0.969
 2108TIP3    H2 6289   2.946   2.818   0.840
 2109TIP3   OH2 6290   2.090   3.338   4.755
 2109TIP3    H1 6291   2.001   3.328   4.722
 2109TIP3    H2 6292   2.145   3.299   4.686
 2110TIP3   OH2 6293   5.659   6.229   0.592
 2110TIP3    H1 6294   5.634   6.321   0.605
 2110TIP3    H2 6295   5.723   6.233   0.521
 2111TIP3   OH2 6296   0.235   1.684   2.188
 2111TIP3    H1 6297   0.274   1.767   2.219
 2111TIP3    H2 6298   0.278   1.667   2.105
 2112TIP3   OH2 6299   2.132   3.091   4.358
 2112TIP3    H1 6300   2.221   3.066   4.336
 2112TIP3    H2 6301   2.121   3.062   4.449
 2113TIP3   OH2 6302   2.397   4.199   0.418
 2113TIP3    H1 6303   2.443   4.282   0.406
 2113TIP3    H2 6304   2.373   4.171   0.330
 2114TIP3   OH2 6305   2.870   1.258   2.394
 2114TIP3    H1 6306   2.889   1.205   2.471
 2114TIP3    H2 6307   2.777   1.245   2.378
 2115TIP3   OH2 6308   2.842   6.705   0.971
 2115TIP3    H1 6309   2.854   6.642   0.899
 2115TIP3    H2 6310   2.869   6.657   1.049
 2116TIP3   OH2 6311   3.830   0.052   3.953
 2116TIP3    H1 6312   3.772   0.000   4.009
 2116TIP3    H2 6313   3.865   0.119   4.012
 2117TIP3   OH2 6314   6.379   4.293   0.992
 2117TIP3    H1 6315   6.450   4.336   0.945
 2117TIP3    H2 6316   6.305   4.354   0.983
 2118TIP3   OH2 6317   4.924   4.079   2.149
 2118TIP3    H1 6318   4.982   4.050   2.079
 2118TIP3    H2 6319   4.895   4.166   2.122
 2119TIP3   OH2 6320   3.637   0.994   4.052
 2119TIP3    H1 6321   3.703   0.967   3.988
 2119TIP3    H2 6322   3.599   1.073   4.014
 2120TIP3   OH2 6323   3.625   1.227   1.680
 2120TIP3    H1 6324   3.577   1.179   1.747
 2120TIP3    H2 6325   3.584   1.199   1.598
 2121TIP3   OH2 6326   5.163   1.013   1.611
 2121TIP3    H1 6327   5.123   0.976   1.533
 2121TIP3    H2 6328   5.242   0.960   1.626
 2122TIP3   OH2 6329   1.997   1.110   4.944
 2122TIP3    H1 6330   2.059   1.145   5.008
 2122TIP3    H2 6331   1.922   1.169   4.950
 2123TIP3   OH2 6332   2.039   4.189   1.396
 2123TIP3    H1 6333   1.965   4.143   1.357
 2123TIP3    H2 6334   2.075   4.241   1.324
 2124TIP3   OH2 6335   4.979   1.926   0.550
 2124TIP3    H1 6336   4.923   1.912   0.474
 2124TIP3    H2 6337   5.034   1.848   0.555
 2125TIP3   OH2 6338   3.432   5.017   0.456
 2125TIP3    H1 6339   3.350   4.997   0.501
 2125TIP3    H2 6340   3.439   4.950   0.388
 2126TIP3   OH2 6341   0.443   5.192   0.339
 2126TIP3    H1 6342   0.536   5.209   0.352
 2126TIP3    H2 6343   0.399   5.251   0.400
 2127TIP3   OH2 6344   3.251   5.647   2.599
 2127TIP3    H1 6345   3.170   5.610   2.634
 2127TIP3    H2 6346   3.321   5.600   2.645
 2128TIP3   OH2 6347   2.740   0.823   3.912
 2128TIP3    H1 6348   2.765   0.910   3.883
 2128TIP3    H2 6349   2.647   0.829   3.932
 2129TIP3   OH2 6350   2.883   2.690   5.869
 2129TIP3    H1 6351   2.950   2.648   5.922
 2129TIP3    H2 6352   2.904   2.665   5.779
 2130TIP3   OH2 6353   0.149   3.608   5.777
 2130TIP3    H1 6354   0.237   3.589   5.744
 2130TIP3    H2 6355   0.090   3.566   5.714
 2131TIP3   OH2 6356   4.279   6.106   5.316
 2131TIP3    H1 6357   4.289   6.170   5.386
 2131TIP3    H2 6358   4.198   6.130   5.272
 2132TIP3   OH2 6359   1.834   0.506   3.832
 2132TIP3    H1 6360   1.739   0.498   3.829
 2132TIP3    H2 6361   1.850   0.601   3.830
 2133TIP3   OH2 6362   3.800   1.599   5.279
 2133TIP3    H1 6363   3.863   1.643   5.336
 2133TIP3    H2 6364   3.749   1.670   5.240
 2134TIP3   OH2 6365   5.550   2.591   3.035
 2134TIP3    H1 6366   5.490   2.537   2.983
 2134TIP3    H2 6367   5.549   2.676   2.991
 2135TIP3   OH2 6368   0.408   2.251   4.153
 2135TIP3    H1 6369   0.492   2.297   4.162
 2135TIP3    H2 6370   0.347   2.319   4.126
 2136TIP3   OH2 6371   1.000   0.205   5.195
 2136TIP3    H1 6372   1.048   0.159   5.126
 2136TIP3    H2 6373   0.909   0.178   5.183
 2137TIP3   OH2 6374   1.673   0.128   3.841
 2137TIP3    H1 6375   1.650   0.039   3.814
 2137TIP3    H2 6376   1.622   0.185   3.783
 2138TIP3   OH2 6377   0.495   6.438   0.606
 2138TIP3    H1 6378   0.551   6.471   0.676
 2138TIP3    H2 6379   0.555   6.400   0.542
 2139TIP3   OH2 6380   4.793   0.604   1.311
 2139TIP3    H1 6381   4.763   0.547   1.381
 2139TIP3    H2 6382   4.797   0.691   1.350
 2140TIP3   OH2 6383   2.800   3.005   2.388
 2140TIP3    H1 6384   2.766   2.919   2.365
 2140TIP3    H2 6385   2.855   2.989   2.465
 2141TIP3   OH2 6386   1.122   0.589   2.363
 2141TIP3    H1 6387   1.182   0.603   2.289
 2141TIP3    H2 6388   1.173   0.538   2.426
 2142TIP3   OH2 6389   0.106   0.186   1.100
 2142TIP3    H1 6390   0.146   0.100   1.088
 2142TIP3    H2 6391   0.080   0.213   1.012
 2143TIP3   OH2 6392   0.645   3.012   4.163
 2143TIP3    H1 6393   0.650   2.947   4.234
 2143TIP3    H2 6394   0.564   2.991   4.117
 2144TIP3   OH2 6395   7.075   2.806   5.794
 2144TIP3    H1 6396   7.104   2.896   5.811
 2144TIP3    H2 6397   7.055   2.770   5.880
 2145TIP3   OH2 6398   0.105   2.307   0.215
 2145TIP3    H1 6399   0.167   2.289   0.145
 2145TIP3    H2 6400   0.119   2.399   0.237
 2146TIP3   OH2 6401   7.041   6.267   2.531
 2146TIP3    H1 6402   7.073   6.281   2.620
 2146TIP3    H2 6403   7.062   6.176   2.512
 2147TIP3   OH2 6404   1.264   5.231   4.724
 2147TIP3    H1 6405   1.242   5.220   4.816
 2147TIP3    H2 6406   1.215   5.162   4.679
 2148TIP3   OH2 6407   5.775   2.786   1.896
 2148TIP3    H1 6408   5.695   2.822   1.858
 2148TIP3    H2 6409   5.842   2.852   1.877
 2149TIP3   OH2 6410   5.731   5.217   2.752
 2149TIP3    H1 6411   5.716   5.207   2.846
 2149TIP3    H2 6412   5.672   5.154   2.711
 2150TIP3   OH2 6413   0.957   2.253   2.261
 2150TIP3    H1 6414   0.863   2.264   2.276
 2150TIP3    H2 6415   0.969   2.278   2.169
 2151TIP3   OH2 6416   4.567   4.651   0.118
 2151TIP3    H1 6417   4.476   4.639   0.147
 2151TIP3    H2 6418   4.576   4.746   0.108
 2152TIP3   OH2 6419   6.169   0.975   1.585
 2152TIP3    H1 6420   6.164   1.066   1.613
 2152TIP3    H2 6421   6.116   0.927   1.648
 2153TIP3   OH2 6422   0.942   1.042   2.811
 2153TIP3    H1 6423   1.004   1.042   2.738
 2153TIP3    H2 6424   0.906   1.131   2.812
 2154TIP3   OH2 6425   2.094   1.689   1.649
 2154TIP3    H1 6426   2.029   1.759   1.653
 2154TIP3    H2 6427   2.065   1.625   1.714
 2155TIP3   OH2 6428   2.182   4.013   1.532
 2155TIP3    H1 6429   2.142   3.941   1.483
 2155TIP3    H2 6430   2.138   4.092   1.499
 2156TIP3   OH2 6431   3.454   3.090   3.433
 2156TIP3    H1 6432   3.490   3.086   3.344
 2156TIP3    H2 6433   3.525   3.124   3.487
 2157TIP3   OH2 6434   2.610   3.260   3.744
 2157TIP3    H1 6435   2.660   3.213   3.811
 2157TIP3    H2 6436   2.666   3.256   3.666
 2158TIP3   OH2 6437   6.194   0.226   0.246
 2158TIP3    H1 6438   6.178   0.189   0.333
 2158TIP3    H2 6439   6.285   0.257   0.249
 2159TIP3   OH2 6440   4.737   1.041   0.175
 2159TIP3    H1 6441   4.723   1.127   0.214
 2159TIP3    H2 6442   4.806   1.054   0.110
 2160TIP3   OH2 6443   2.460   4.018   2.277
 2160TIP3    H1 6444   2.467   3.931   2.237
 2160TIP3    H2 6445   2.481   4.004   2.369
 2161TIP3   OH2 6446   7.131   0.903   5.004
 2161TIP3    H1 6447   7.153   0.989   4.969
 2161TIP3    H2 6448   7.180   0.842   4.949
 2162TIP3   OH2 6449   1.667   3.752   0.809
 2162TIP3    H1 6450   1.646   3.798   0.890
 2162TIP3    H2 6451   1.740   3.694   0.832
 2163TIP3   OH2 6452   1.544   6.084   1.355
 2163TIP3    H1 6453   1.602   6.134   1.413
 2163TIP3    H2 6454   1.594   6.006   1.333
 2164TIP3   OH2 6455   0.983   0.545   2.640
 2164TIP3    H1 6456   1.018   0.631   2.616
 2164TIP3    H2 6457   0.921   0.524   2.569
 2165TIP3   OH2 6458   5.730   3.686   4.400
 2165TIP3    H1 6459   5.772   3.768   4.428
 2165TIP3    H2 6460   5.796   3.643   4.346
 2166TIP3   OH2 6461   4.419   3.484   2.597
 2166TIP3    H1 6462   4.486   3.426   2.634
 2166TIP3    H2 6463   4.394   3.541   2.670
 2167TIP3   OH2 6464   1.709   6.171   4.361
 2167TIP3    H1 6465   1.650   6.235   4.321
 2167TIP3    H2 6466   1.733   6.210   4.445
 2168TIP3   OH2 6467   4.644   4.866   0.649
 2168TIP3    H1 6468   4.585   4.846   0.722
 2168TIP3    H2 6469   4.606   4.820   0.574
 2169TIP3   OH2 6470   5.568   5.450   5.774
 2169TIP3    H1 6471   5.660   5.440   5.798
 2169TIP3    H2 6472   5.551   5.544   5.779
 2170TIP3   OH2 6473   5.182   3.261   1.639
 2170TIP3    H1 6474   5.180   3.349   1.602
 2170TIP3    H2 6475   5.182   3.275   1.734
 2171TIP3   OH2 6476   2.402   1.561   1.549
 2171TIP3    H1 6477   2.390   1.653   1.573
 2171TIP3    H2 6478   2.313   1.525   1.548
 2172TIP3   OH2 6479   6.759   0.189   2.273
 2172TIP3    H1 6480   6.761   0.125   2.344
 2172TIP3    H2 6481   6.680   0.240   2.289
 2173TIP3   OH2 6482   0.651   0.467   4.052
 2173TIP3    H1 6483   0.577   0.520   4.081
 2173TIP3    H2 6484   0.616   0.378   4.045
 2174TIP3   OH2 6485   4.373   1.476   2.754
 2174TIP3    H1 6486   4.409   1.511   2.835
 2174TIP3    H2 6487   4.364   1.383   2.770
 2175TIP3   OH2 6488   6.808   1.982   5.032
 2175TIP3    H1 6489   6.726   1.933   5.025
 2175TIP3    H2 6490   6.876   1.915   5.037
 2176TIP3   OH2 6491   3.984   3.703   5.039
 2176TIP3    H1 6492   4.065   3.732   5.080
 2176TIP3    H2 6493   4.007   3.623   4.993
 2177TIP3   OH2 6494   5.600   6.094   1.346
 2177TIP3    H1 6495   5.606   6.118   1.253
 2177TIP3    H2 6496   5.518   6.045   1.353
 2178TIP3   OH2 6497   2.147   5.441   3.071
 2178TIP3    H1 6498   2.141   5.508   3.139
 2178TIP3    H2 6499   2.232   5.457   3.029
 2179TIP3   OH2 6500   4.596   5.028   5.346
 2179TIP3    H1 6501   4.609   5.031   5.252
 2179TIP3    H2 6502   4.645   5.103   5.380
 2180TIP3   OH2 6503   5.584   2.994   5.547
 2180TIP3    H1 6504   5.510   2.967   5.493
 2180TIP3    H2 6505   5.546   3.012   5.633
 2181TIP3   OH2 6506   4.437   3.940   3.999
 2181TIP3    H1 6507   4.429   4.016   3.941
 2181TIP3    H2 6508   4.467   3.869   3.942
 2182TIP3   OH2 6509   2.697   4.736   2.341
 2182TIP3    H1 6510   2.691   4.730   2.246
 2182TIP3    H2 6511   2.790   4.749   2.359
 2183TIP3   OH2 6512   0.140   0.202   3.193
 2183TIP3    H1 6513   0.135   0.192   3.098
 2183TIP3    H2 6514   0.116   0.294   3.208
 2184TIP3   OH2 6515   5.160   2.845   0.725
 2184TIP3    H1 6516   5.166   2.940   0.734
 2184TIP3    H2 6517   5.236   2.811   0.773
 2185TIP3   OH2 6518   6.125   4.665   2.617
 2185TIP3    H1 6519   6.195   4.683   2.554
 2185TIP3    H2 6520   6.151   4.581   2.657
 2186TIP3   OH2 6521   5.084   0.547   3.960
 2186TIP3    H1 6522   5.038   0.620   4.000
 2186TIP3    H2 6523   5.014   0.485   3.937
 2187TIP3   OH2 6524   4.395   4.264   4.756
 2187TIP3    H1 6525   4.433   4.267   4.843
 2187TIP3    H2 6526   4.303   4.287   4.768
 2188TIP3   OH2 6527   5.185   1.163   2.157
 2188TIP3    H1 6528   5.138   1.246   2.146
 2188TIP3    H2 6529   5.277   1.185   2.144
 2189TIP3   OH2 6530   5.392   4.040   1.387
 2189TIP3    H1 6531   5.329   4.083   1.330
 2189TIP3    H2 6532   5.339   3.979   1.439
 2190TIP3   OH2 6533   4.541   1.164   2.335
 2190TIP3    H1 6534   4.545   1.175   2.240
 2190TIP3    H2 6535   4.538   1.254   2.369
 2191TIP3   OH2 6536   0.219   3.250   3.988
 2191TIP3    H1 6537   0.158   3.258   4.062
 2191TIP3    H2 6538   0.290   3.310   4.009
 2192TIP3   OH2 6539   1.133   2.755   5.898
 2192TIP3    H1 6540   1.176   2.824   5.948
 2192TIP3    H2 6541   1.168   2.765   5.809
 2193TIP3   OH2 6542   3.126   5.832   1.112
 2193TIP3    H1 6543   3.117   5.926   1.100
 2193TIP3    H2 6544   3.159   5.799   1.028
 2194TIP3   OH2 6545   5.438   2.088   0.042
 2194TIP3    H1 6546   5.398   2.172   0.065
 2194TIP3    H2 6547   5.364   2.032   0.019
 2195TIP3   OH2 6548   5.188   3.093   0.213
 2195TIP3    H1 6549   5.160   3.119   0.301
 2195TIP3    H2 6550   5.112   3.112   0.157
 2196TIP3   OH2 6551   0.259   1.314   3.353
 2196TIP3    H1 6552   0.176   1.361   3.344
 2196TIP3    H2 6553   0.280   1.320   3.446
 2197TIP3   OH2 6554   3.922   1.682   0.531
 2197TIP3    H1 6555   4.006   1.639   0.550
 2197TIP3    H2 6556   3.856   1.614   0.542
 2198TIP3   OH2 6557   0.774   4.690   3.518
 2198TIP3    H1 6558   0.684   4.715   3.495
 2198TIP3    H2 6559   0.766   4.654   3.606
 2199TIP3   OH2 6560   6.497   5.301   0.154
 2199TIP3    H1 6561   6.590   5.318   0.168
 2199TIP3    H2 6562   6.457   5.308   0.241
 2200TIP3   OH2 6563   0.020   4.389   2.803
 2200TIP3    H1 6564  -0.014   4.447   2.871
 2200TIP3    H2 6565   0.011   4.301   2.840
 2201TIP3   OH2 6566   1.058   0.820   1.426
 2201TIP3    H1 6567   1.046   0.726   1.412
 2201TIP3    H2 6568   0.972   0.850   1.457
 2202TIP3   OH2 6569   5.833   1.028   4.172
 2202TIP3    H1 6570   5.787   1.080   4.106
 2202TIP3    H2 6571   5.907   1.083   4.198
 2203TIP3   OH2 6572   1.854   3.358   1.632
 2203TIP3    H1 6573   1.904   3.402   1.701
 2203TIP3    H2 6574   1.829   3.274   1.671
 2204TIP3   OH2 6575   3.983   4.350   4.300
 2204TIP3    H1 6576   4.006   4.297   4.224
 2204TIP3    H2 6577   3.894   4.379   4.284
 2205TIP3   OH2 6578   3.014   5.799   5.485
 2205TIP3    H1 6579   3.057   5.748   5.554
 2205TIP3    H2 6580   3.056   5.771   5.404
 2206TIP3   OH2 6581   0.177   1.753   2.857
 2206TIP3    H1 6582   0.257   1.795   2.887
 2206TIP3    H2 6583   0.109   1.788   2.915
 2207TIP3   OH2 6584   7.001   0.735   1.718
 2207TIP3    H1 6585   7.007   0.795   1.792
 2207TIP3    H2 6586   7.085   0.744   1.673
 2208TIP3   OH2 6587   6.587   0.953   0.022
 2208TIP3    H1 6588   6.621   0.882  -0.033
 2208TIP3    H2 6589   6.583   0.914   0.110
 2209TIP3   OH2 6590   5.189   4.195   4.782
 2209TIP3    H1 6591   5.098   4.165   4.769
 2209TIP3    H2 6592   5.234   4.120   4.820
 2210TIP3   OH2 6593   1.847   3.006   5.614
 2210TIP3    H1 6594   1.785   2.932   5.615
 2210TIP3    H2 6595   1.846   3.039   5.703
 2211TIP3   OH2 6596   2.848   2.347   4.516
 2211TIP3    H1 6597   2.833   2.361   4.610
 2211TIP3    H2 6598   2.943   2.337   4.508
 2212TIP3   OH2 6599   3.548   0.551   4.531
 2212TIP3    H1 6600   3.550   0.644   4.506
 2212TIP3    H2 6601   3.609   0.544   4.604
 2213TIP3   OH2 6602   0.965   0.136   1.990
 2213TIP3    H1 6603   0.903   0.064   1.979
 2213TIP3    H2 6604   1.050   0.099   1.966
 2214TIP3   OH2 6605   6.112   0.429   1.601
 2214TIP3    H1 6606   6.182   0.487   1.629
 2214TIP3    H2 6607   6.053   0.485   1.550
 2215TIP3   OH2 6608   3.189   5.711   4.039
 2215TIP3    H1 6609   3.241   5.773   4.091
 2215TIP3    H2 6610   3.224   5.625   4.062
 2216TIP3   OH2 6611   4.589   5.094   3.398
 2216TIP3    H1 6612   4.511   5.080   3.453
 2216TIP3    H2 6613   4.555   5.140   3.321
 2217TIP3   OH2 6614   2.079   2.617   0.341
 2217TIP3    H1 6615   2.167   2.605   0.307
 2217TIP3    H2 6616   2.036   2.532   0.331
 2218TIP3   OH2 6617   0.194   2.220   5.289
 2218TIP3    H1 6618   0.185   2.216   5.194
 2218TIP3    H2 6619   0.252   2.147   5.310
 2219TIP3   OH2 6620   3.627   3.170   3.630
 2219TIP3    H1 6621   3.629   3.151   3.724
 2219TIP3    H2 6622   3.646   3.263   3.625
 2220TIP3   OH2 6623   5.430   1.350   4.749
 2220TIP3    H1 6624   5.346   1.319   4.716
 2220TIP3    H2 6625   5.496   1.306   4.695
 2221TIP3   OH2 6626   2.603   3.365   4.357
 2221TIP3    H1 6627   2.569   3.327   4.275
 2221TIP3    H2 6628   2.616   3.290   4.414
 2222TIP3   OH2 6629   5.058   1.011   3.767
 2222TIP3    H1 6630   5.147   0.978   3.762
 2222TIP3    H2 6631   5.059   1.092   3.716
 2223TIP3   OH2 6632   2.938   2.434   2.860
 2223TIP3    H1 6633   2.941   2.357   2.917
 2223TIP3    H2 6634   2.848   2.437   2.828
 2224TIP3   OH2 6635   6.244   0.122   1.721
 2224TIP3    H1 6636   6.242   0.099   1.628
 2224TIP3    H2 6637   6.153   0.115   1.750
 2225TIP3   OH2 6638   4.440   5.252   0.740
 2225TIP3    H1 6639   4.379   5.325   0.744
 2225TIP3    H2 6640   4.442   5.227   0.647
 2226TIP3   OH2 6641   3.020   1.842   5.612
 2226TIP3    H1 6642   3.069   1.843   5.530
 2226TIP3    H2 6643   2.975   1.757   5.612
 2227TIP3   OH2 6644   1.132   6.738   5.434
 2227TIP3    H1 6645   1.073   6.672   5.468
 2227TIP3    H2 6646   1.211   6.729   5.487
 2228TIP3   OH2 6647   1.046   0.574   4.181
 2228TIP3    H1 6648   1.045   0.646   4.244
 2228TIP3    H2 6649   1.064   0.497   4.233
 2229TIP3   OH2 6650   5.685   6.415   1.656
 2229TIP3    H1 6651   5.675   6.409   1.561
 2229TIP3    H2 6652   5.616   6.475   1.684
 2230TIP3   OH2 6653   1.655   3.608   3.695
 2230TIP3    H1 6654   1.565   3.604   3.663
 2230TIP3    H2 6655   1.673   3.702   3.701
 2231TIP3   OH2 6656   5.060   2.949   4.634
 2231TIP3    H1 6657   5.028   2.859   4.630
 2231TIP3    H2 6658   5.154   2.942   4.616
 2232TIP3   OH2 6659   2.542   4.123   0.643
 2232TIP3    H1 6660   2.503   4.133   0.557
 2232TIP3    H2 6661   2.574   4.210   0.666
 2233TIP3   OH2 6662   1.167   0.093   0.017
 2233TIP3    H1 6663   1.239   0.035   0.042
 2233TIP3    H2 6664   1.165   0.160   0.085
 2234TIP3   OH2 6665   0.195   0.955   1.326
 2234TIP3    H1 6666   0.115   0.999   1.298
 2234TIP3    H2 6667   0.209   0.986   1.416
 2235TIP3   OH2 6668   0.109   3.676   4.856
 2235TIP3    H1 6669   0.153   3.641   4.934
 2235TIP3    H2 6670   0.174   3.732   4.815
 2236TIP3   OH2 6671   3.010   0.397   2.510
 2236TIP3    H1 6672   2.956   0.403   2.432
 2236TIP3    H2 6673   3.095   0.365   2.479
 2237TIP3   OH2 6674   5.327   5.243   0.826
 2237TIP3    H1 6675   5.293   5.217   0.740
 2237TIP3    H2 6676   5.317   5.339   0.827
 2238TIP3   OH2 6677   1.626   1.423   4.241
 2238TIP3    H1 6678   1.614   1.493   4.305
 2238TIP3    H2 6679   1.550   1.366   4.254
 2239TIP3   OH2 6680   2.670   2.292   1.303
 2239TIP3    H1 6681   2.654   2.380   1.270
 2239TIP3    H2 6682   2.724   2.304   1.381
 2240TIP3   OH2 6683   5.184   2.257   1.643
 2240TIP3    H1 6684   5.229   2.190   1.695
 2240TIP3    H2 6685   5.253   2.293   1.587
 2241TIP3   OH2 6686   5.720   1.380   1.843
 2241TIP3    H1 6687   5.682   1.292   1.844
 2241TIP3    H2 6688   5.660   1.432   1.896
 2242TIP3   OH2 6689   4.175   0.177   3.953
 2242TIP3    H1 6690   4.189   0.085   3.976
 2242TIP3    H2 6691   4.089   0.198   3.989
 2243TIP3   OH2 6692   4.789   0.203   5.209
 2243TIP3    H1 6693   4.855   0.166   5.150
 2243TIP3    H2 6694   4.822   0.290   5.230
 2244TIP3   OH2 6695   1.910   6.265   1.261
 2244TIP3    H1 6696   1.820   6.296   1.250
 2244TIP3    H2 6697   1.940   6.307   1.341
 2245TIP3   OH2 6698   3.191   1.733   0.131
 2245TIP3    H1 6699   3.232   1.665   0.184
 2245TIP3    H2 6700   3.238   1.813   0.155
 2246TIP3   OH2 6701   1.046   2.694   5.391
 2246TIP3    H1 6702   1.056   2.788   5.405
 2246TIP3    H2 6703   1.006   2.662   5.471
 2247TIP3   OH2 6704   2.198   5.485   0.941
 2247TIP3    H1 6705   2.109   5.519   0.937
 2247TIP3    H2 6706   2.251   5.552   0.897
 2248TIP3   OH2 6707   1.778   6.486   2.586
 2248TIP3    H1 6708   1.792   6.395   2.560
 2248TIP3    H2 6709   1.855   6.507   2.639
 2249TIP3   OH2 6710   2.314   2.276   2.910
 2249TIP3    H1 6711   2.394   2.324   2.932
 2249TIP3    H2 6712   2.285   2.238   2.993
 2250TIP3   OH2 6713   4.626   3.526   1.648
 2250TIP3    H1 6714   4.594   3.559   1.732
 2250TIP3    H2 6715   4.714   3.494   1.667
 2251TIP3   OH2 6716   1.009   4.281   4.383
 2251TIP3    H1 6717   1.080   4.320   4.332
 2251TIP3    H2 6718   1.042   4.195   4.409
 2252TIP3   OH2 6719   3.818   2.427   4.140
 2252TIP3    H1 6720   3.795   2.401   4.050
 2252TIP3    H2 6721   3.745   2.482   4.168
 2253TIP3   OH2 6722   4.253   4.473   3.971
 2253TIP3    H1 6723   4.301   4.391   3.959
 2253TIP3    H2 6724   4.192   4.477   3.898
 2254TIP3   OH2 6725   3.602   0.393   5.623
 2254TIP3    H1 6726   3.545   0.367   5.550
 2254TIP3    H2 6727   3.691   0.390   5.586
 2255TIP3   OH2 6728   2.600   3.920   4.318
 2255TIP3    H1 6729   2.611   3.882   4.405
 2255TIP3    H2 6730   2.578   3.846   4.262
 2256TIP3   OH2 6731   3.164   5.391   3.283
 2256TIP3    H1 6732   3.228   5.418   3.217
 2256TIP3    H2 6733   3.124   5.472   3.313
 2257TIP3   OH2 6734   1.089   3.304   2.474
 2257TIP3    H1 6735   0.996   3.282   2.482
 2257TIP3    H2 6736   1.134   3.220   2.478
 2258TIP3   OH2 6737   6.066   0.803   4.140
 2258TIP3    H1 6738   6.044   0.897   4.141
 2258TIP3    H2 6739   6.035   0.772   4.055
 2259TIP3   OH2 6740   1.370   2.405   2.676
 2259TIP3    H1 6741   1.395   2.383   2.587
 2259TIP3    H2 6742   1.274   2.396   2.677
 2260TIP3   OH2 6743   6.280   6.041   2.150
 2260TIP3    H1 6744   6.328   6.071   2.227
 2260TIP3    H2 6745   6.191   6.026   2.181
 2261TIP3   OH2 6746   5.450   0.424   1.772
 2261TIP3    H1 6747   5.530   0.435   1.722
 2261TIP3    H2 6748   5.384   0.474   1.723
 2262TIP3   OH2 6749   3.515   5.383   2.610
 2262TIP3    H1 6750   3.507   5.463   2.559
 2262TIP3    H2 6751   3.441   5.385   2.670
 2263TIP3   OH2 6752   5.481   4.688   2.251
 2263TIP3    H1 6753   5.485   4.643   2.167
 2263TIP3    H2 6754   5.465   4.619   2.315
 2264TIP3   OH2 6755   1.333   5.280   3.912
 2264TIP3    H1 6756   1.302   5.354   3.860
 2264TIP3    H2 6757   1.257   5.257   3.967
 2265TIP3   OH2 6758   1.279   6.681   4.135
 2265TIP3    H1 6759   1.193   6.640   4.145
 2265TIP3    H2 6760   1.297   6.719   4.221
 2266TIP3   OH2 6761   6.876   1.065  -0.003
 2266TIP3    H1 6762   6.799   1.025   0.037
 2266TIP3    H2 6763   6.846   1.151  -0.032
 2267TIP3   OH2 6764   4.829   6.417   5.596
 2267TIP3    H1 6765   4.767   6.360   5.551
 2267TIP3    H2 6766   4.835   6.380   5.684
 2268TIP3   OH2 6767   4.772   0.528   0.652
 2268TIP3    H1 6768   4.726   0.611   0.661
 2268TIP3    H2 6769   4.787   0.519   0.558
 2269TIP3   OH2 6770   1.105   2.999   1.741
 2269TIP3    H1 6771   1.065   2.914   1.723
 2269TIP3    H2 6772   1.196   2.990   1.715
 2270TIP3   OH2 6773   6.467   4.443   5.157
 2270TIP3    H1 6774   6.552   4.398   5.157
 2270TIP3    H2 6775   6.420   4.405   5.083
 2271TIP3   OH2 6776   3.800   3.599   2.029
 2271TIP3    H1 6777   3.835   3.678   2.069
 2271TIP3    H2 6778   3.795   3.536   2.101
 2272TIP3   OH2 6779   6.992   5.014   1.115
 2272TIP3    H1 6780   6.952   5.005   1.202
 2272TIP3    H2 6781   7.085   5.026   1.133
 2273TIP3   OH2 6782   2.517   4.486   4.473
 2273TIP3    H1 6783   2.519   4.517   4.564
 2273TIP3    H2 6784   2.528   4.565   4.421
 2274TIP3   OH2 6785   4.325   6.083   4.398
 2274TIP3    H1 6786   4.266   6.096   4.472
 2274TIP3    H2 6787   4.293   6.143   4.330
 2275TIP3   OH2 6788   3.331   5.421   1.772
 2275TIP3    H1 6789   3.262   5.417   1.705
 2275TIP3    H2 6790   3.302   5.490   1.832
 2276TIP3   OH2 6791   3.292   3.328   4.821
 2276TIP3    H1 6792   3.276   3.279   4.901
 2276TIP3    H2 6793   3.208   3.329   4.775
 2277TIP3   OH2 6794   3.949   0.250   4.140
 2277TIP3    H1 6795   3.883   0.231   4.206
 2277TIP3    H2 6796   3.933   0.341   4.114
 2278TIP3   OH2 6797   4.966   3.218   3.208
 2278TIP3    H1 6798   4.926   3.291   3.159
 2278TIP3    H2 6799   4.908   3.205   3.282
 2279TIP3   OH2 6800   1.677   3.959   0.151
 2279TIP3    H1 6801   1.705   4.032   0.207
 2279TIP3    H2 6802   1.758   3.922   0.117
 2280TIP3   OH2 6803   6.870   3.194   5.102
 2280TIP3    H1 6804   6.818   3.113   5.099
 2280TIP3    H2 6805   6.924   3.186   5.181
 2281TIP3   OH2 6806   0.755   1.726   5.074
 2281TIP3    H1 6807   0.662   1.735   5.095
 2281TIP3    H2 6808   0.757   1.675   4.993
 2282TIP3   OH2 6809   0.683   3.629   1.660
 2282TIP3    H1 6810   0.776   3.622   1.637
 2282TIP3    H2 6811   0.670   3.722   1.675
 2283TIP3   OH2 6812   0.192   4.821   4.128
 2283TIP3    H1 6813   0.250   4.829   4.204
 2283TIP3    H2 6814   0.251   4.800   4.055
 2284TIP3   OH2 6815   0.495   1.301   4.919
 2284TIP3    H1 6816   0.479   1.293   4.825
 2284TIP3    H2 6817   0.560   1.234   4.939
 2285TIP3   OH2 6818   5.060   1.462   4.935
 2285TIP3    H1 6819   5.088   1.411   5.011
 2285TIP3    H2 6820   5.044   1.397   4.867
 2286TIP3   OH2 6821   1.392   5.054   1.681
 2286TIP3    H1 6822   1.366   5.015   1.598
 2286TIP3    H2 6823   1.366   4.990   1.747
 2287TIP3   OH2 6824   0.301   0.880   1.578
 2287TIP3    H1 6825   0.341   0.905   1.662
 2287TIP3    H2 6826   0.352   0.804   1.549
 2288TIP3   OH2 6827   5.406   3.177   0.071
 2288TIP3    H1 6828   5.342   3.143   0.133
 2288TIP3    H2 6829   5.356   3.197  -0.008
 2289TIP3   OH2 6830   4.681   3.775   4.460
 2289TIP3    H1 6831   4.646   3.687   4.446
 2289TIP3    H2 6832   4.758   3.763   4.515
 2290TIP3   OH2 6833   0.812   4.732   2.666
 2290TIP3    H1 6834   0.773   4.817   2.685
 2290TIP3    H2 6835   0.905   4.743   2.684
 2291TIP3   OH2 6836   6.653   4.617   4.997
 2291TIP3    H1 6837   6.598   4.541   4.978
 2291TIP3    H2 6838   6.624   4.684   4.935
 2292TIP3   OH2 6839   6.147   4.347   4.273
 2292TIP3    H1 6840   6.146   4.378   4.183
 2292TIP3    H2 6841   6.068   4.294   4.281
 2293TIP3   OH2 6842   5.883   2.864   4.804
 2293TIP3    H1 6843   5.879   2.769   4.814
 2293TIP3    H2 6844   5.793   2.894   4.815
 2294TIP3   OH2 6845   3.304   2.402   0.916
 2294TIP3    H1 6846   3.397   2.381   0.910
 2294TIP3    H2 6847   3.285   2.402   1.010
 2295TIP3   OH2 6848   4.186   6.308   0.762
 2295TIP3    H1 6849   4.275   6.290   0.732
 2295TIP3    H2 6850   4.137   6.324   0.681
 2296TIP3   OH2 6851   4.663   2.914   5.590
 2296TIP3    H1 6852   4.608   2.980   5.632
 2296TIP3    H2 6853   4.600   2.847   5.561
 2297TIP3   OH2 6854   6.191   3.460   5.769
 2297TIP3    H1 6855   6.248   3.405   5.715
 2297TIP3    H2 6856   6.106   3.416   5.766
 2298TIP3   OH2 6857   3.687   4.575   1.954
 2298TIP3    H1 6858   3.779   4.559   1.932
 2298TIP3    H2 6859   3.643   4.582   1.869
 2299TIP3   OH2 6860   5.895   4.442   3.993
 2299TIP3    H1 6861   5.827   4.393   4.039
 2299TIP3    H2 6862   5.847   4.501   3.935
 2300TIP3   OH2 6863   1.617   6.360   2.892
 2300TIP3    H1 6864   1.681   6.304   2.848
 2300TIP3    H2 6865   1.555   6.298   2.931
 2301TIP3   OH2 6866   2.013   1.842   5.504
 2301TIP3    H1 6867   2.101   1.812   5.527
 2301TIP3    H2 6868   1.960   1.762   5.503
 2302TIP3   OH2 6869   0.747   2.516   1.225
 2302TIP3    H1 6870   0.727   2.491   1.135
 2302TIP3    H2 6871   0.711   2.605   1.234
 2303TIP3   OH2 6872   5.745   3.581   5.045
 2303TIP3    H1 6873   5.766   3.508   5.104
 2303TIP3    H2 6874   5.735   3.656   5.103
 2304TIP3   OH2 6875   1.862   2.760   2.984
 2304TIP3    H1 6876   1.893   2.850   2.980
 2304TIP3    H2 6877   1.772   2.766   3.015
 2305TIP3   OH2 6878   0.842   2.680   5.203
 2305TIP3    H1 6879   0.918   2.666   5.259
 2305TIP3    H2 6880   0.875   2.732   5.130
 2306TIP3   OH2 6881   0.505   5.507   2.726
 2306TIP3    H1 6882   0.564   5.447   2.681
 2306TIP3    H2 6883   0.452   5.451   2.783
 2307TIP3   OH2 6884   3.215   6.463   5.702
 2307TIP3    H1 6885   3.161   6.401   5.752
 2307TIP3    H2 6886   3.301   6.460   5.744
 2308TIP3   OH2 6887   2.346   2.204   4.932
 2308TIP3    H1 6888   2.344   2.113   4.903
 2308TIP3    H2 6889   2.382   2.200   5.021
 2309TIP3   OH2 6890   3.211   4.343   2.032
 2309TIP3    H1 6891   3.189   4.250   2.034
 2309TIP3    H2 6892   3.262   4.358   2.111
 2310TIP3   OH2 6893   6.868   5.781   0.677
 2310TIP3    H1 6894   6.798   5.716   0.683
 2310TIP3    H2 6895   6.930   5.755   0.745
 2311TIP3   OH2 6896   0.037   3.705   1.721
 2311TIP3    H1 6897   0.014   3.616   1.695
 2311TIP3    H2 6898   0.007   3.713   1.811
 2312TIP3   OH2 6899   0.721   4.604   2.421
 2312TIP3    H1 6900   0.687   4.524   2.461
 2312TIP3    H2 6901   0.728   4.666   2.493
 2313TIP3   OH2 6902   5.302   4.830   4.600
 2313TIP3    H1 6903   5.317   4.922   4.622
 2313TIP3    H2 6904   5.229   4.803   4.655
 2314TIP3   OH2 6905   2.375   1.805   1.232
 2314TIP3    H1 6906   2.312   1.825   1.300
 2314TIP3    H2 6907   2.326   1.815   1.150
 2315TIP3   OH2 6908   1.546   6.595   2.027
 2315TIP3    H1 6909   1.473   6.539   2.050
 2315TIP3    H2 6910   1.569   6.640   2.108
 2316TIP3   OH2 6911   3.546   4.448   2.524
 2316TIP3    H1 6912   3.572   4.356   2.524
 2316TIP3    H2 6913   3.574   4.480   2.438
 2317TIP3   OH2 6914   3.419   2.284   2.299
 2317TIP3    H1 6915   3.375   2.369   2.297
 2317TIP3    H2 6916   3.406   2.248   2.211
 2318TIP3   OH2 6917   6.647   3.382   2.012
 2318TIP3    H1 6918   6.582   3.390   2.082
 2318TIP3    H2 6919   6.605   3.327   1.945
 2319TIP3   OH2 6920   5.815   1.615   0.443
 2319TIP3    H1 6921   5.815   1.678   0.372
 2319TIP3    H2 6922   5.808   1.530   0.400
 2320TIP3   OH2 6923   0.074   1.166   0.486
 2320TIP3    H1 6924   0.152   1.111   0.482
 2320TIP3    H2 6925   0.012   1.117   0.540
 2321TIP3   OH2 6926   0.767   5.416   2.936
 2321TIP3    H1 6927   0.761   5.368   2.853
 2321TIP3    H2 6928   0.809   5.355   2.996
 2322TIP3   OH2 6929   0.316   4.956   4.371
 2322TIP3    H1 6930   0.368   5.034   4.393
 2322TIP3    H2 6931   0.225   4.984   4.380
 2323TIP3   OH2 6932   4.189   6.774   1.734
 2323TIP3    H1 6933   4.254   6.705   1.718
 2323TIP3    H2 6934   4.148   6.789   1.649
 2324TIP3   OH2 6935   6.701   6.041   4.362
 2324TIP3    H1 6936   6.634   6.094   4.405
 2324TIP3    H2 6937   6.760   6.015   4.432
 2325TIP3   OH2 6938   2.600   6.151   3.241
 2325TIP3    H1 6939   2.653   6.088   3.192
 2325TIP3    H2 6940   2.589   6.111   3.327
 2326TIP3   OH2 6941   6.155   2.716   5.649
 2326TIP3    H1 6942   6.174   2.721   5.555
 2326TIP3    H2 6943   6.073   2.667   5.654
 2327TIP3   OH2 6944   3.174   2.170   5.628
 2327TIP3    H1 6945   3.198   2.080   5.604
 2327TIP3    H2 6946   3.207   2.223   5.556
 2328TIP3   OH2 6947   1.485   6.661   3.740
 2328TIP3    H1 6948   1.500   6.727   3.807
 2328TIP3    H2 6949   1.456   6.583   3.788
 2329TIP3   OH2 6950   2.181   0.076   1.274
 2329TIP3    H1 6951   2.093   0.095   1.241
 2329TIP3    H2 6952   2.211   0.159   1.311
 2330TIP3   OH2 6953   4.343   1.785   5.409
 2330TIP3    H1 6954   4.370   1.870   5.443
 2330TIP3    H2 6955   4.270   1.804   5.351
 2331TIP3   OH2 6956   1.278   1.584   4.423
 2331TIP3    H1 6957   1.371   1.565   4.436
 2331TIP3    H2 6958   1.273   1.613   4.331
 2332TIP3   OH2 6959   2.675   5.283   1.132
 2332TIP3    H1 6960   2.685   5.227   1.056
 2332TIP3    H2 6961   2.583   5.273   1.157
 2333TIP3   OH2 6962   5.928   1.130   1.496
 2333TIP3    H1 6963   5.942   1.125   1.591
 2333TIP3    H2 6964   5.955   1.218   1.472
 2334TIP3   OH2 6965   0.956   1.575   2.628
 2334TIP3    H1 6966   0.890   1.576   2.698
 2334TIP3    H2 6967   1.013   1.649   2.648
 2335TIP3   OH2 6968   6.100   2.522   1.023
 2335TIP3    H1 6969   6.143   2.446   0.984
 2335TIP3    H2 6970   6.164   2.593   1.013
 2336TIP3   OH2 6971   2.399   2.395   4.184
 2336TIP3    H1 6972   2.311   2.359   4.176
 2336TIP3    H2 6973   2.389   2.475   4.235
 2337TIP3   OH2 6974   5.782   1.441   4.422
 2337TIP3    H1 6975   5.827   1.520   4.390
 2337TIP3    H2 6976   5.837   1.369   4.391
 2338TIP3   OH2 6977   2.132   6.164   5.327
 2338TIP3    H1 6978   2.153   6.076   5.358
 2338TIP3    H2 6979   2.162   6.165   5.236
 2339TIP3   OH2 6980   2.660   4.204   1.730
 2339TIP3    H1 6981   2.624   4.212   1.641
 2339TIP3    H2 6982   2.598   4.250   1.785
 2340TIP3   OH2 6983   5.919   0.917   0.826
 2340TIP3    H1 6984   6.002   0.960   0.846
 2340TIP3    H2 6985   5.931   0.882   0.737
 2341TIP3   OH2 6986   6.531   3.506   0.846
 2341TIP3    H1 6987   6.519   3.593   0.809
 2341TIP3    H2 6988   6.577   3.521   0.929
 2342TIP3   OH2 6989   4.934   4.887   3.480
 2342TIP3    H1 6990   4.900   4.893   3.569
 2342TIP3    H2 6991   4.868   4.836   3.433
 2343TIP3   OH2 6992   5.130   4.867   4.189
 2343TIP3    H1 6993   5.224   4.870   4.168
 2343TIP3    H2 6994   5.116   4.942   4.247
 2344TIP3   OH2 6995   5.579   0.927   2.997
 2344TIP3    H1 6996   5.503   0.984   3.001
 2344TIP3    H2 6997   5.548   0.849   2.950
 2345TIP3   OH2 6998   1.059   1.132   5.427
 2345TIP3    H1 6999   0.965   1.149   5.428
 2345TIP3    H2 7000   1.094   1.194   5.364
 2346TIP3   OH2 7001   4.830   4.276   4.922
 2346TIP3    H1 7002   4.819   4.227   5.004
 2346TIP3    H2 7003   4.892   4.223   4.871
 2347TIP3   OH2 7004   2.835   1.872   4.514
 2347TIP3    H1 7005   2.796   1.863   4.601
 2347TIP3    H2 7006   2.920   1.829   4.521
 2348TIP3   OH2 7007   0.642   2.656   5.487
 2348TIP3    H1 7008   0.674   2.638   5.576
 2348TIP3    H2 7009   0.592   2.738   5.496
 2349TIP3   OH2 7010   0.565   3.762   1.251
 2349TIP3    H1 7011   0.614   3.822   1.194
 2349TIP3    H2 7012   0.618   3.683   1.252
 2350TIP3   OH2 7013   1.190   5.805   1.553
 2350TIP3    H1 7014   1.227   5.803   1.642
 2350TIP3    H2 7015   1.216   5.890   1.519
 2351TIP3   OH2 7016   1.590   1.209   0.049
 2351TIP3    H1 7017   1.658   1.268   0.015
 2351TIP3    H2 7018   1.631   1.165   0.123
 2352TIP3   OH2 7019   5.087   0.833   5.094
 2352TIP3    H1 7020   5.178   0.815   5.116
 2352TIP3    H2 7021   5.046   0.746   5.088
 2353TIP3   OH2 7022   4.036   5.333   4.099
 2353TIP3    H1 7023   4.031   5.248   4.143
 2353TIP3    H2 7024   4.094   5.386   4.154
 2354TIP3   OH2 7025   5.074   1.420   5.227
 2354TIP3    H1 7026   5.158   1.386   5.260
 2354TIP3    H2 7027   5.045   1.481   5.294
 2355TIP3   OH2 7028   5.804   2.585   1.227
 2355TIP3    H1 7029   5.784   2.561   1.318
 2355TIP3    H2 7030   5.843   2.506   1.189
 2356TIP3   OH2 7031   0.749   0.259   3.796
 2356TIP3    H1 7032   0.832   0.288   3.834
 2356TIP3    H2 7033   0.696   0.233   3.872
 2357TIP3   OH2 7034   4.468   5.090   1.381
 2357TIP3    H1 7035   4.440   4.998   1.380
 2357TIP3    H2 7036   4.413   5.131   1.448
 2358TIP3   OH2 7037   4.974   6.513   0.507
 2358TIP3    H1 7038   4.878   6.518   0.514
 2358TIP3    H2 7039   5.003   6.497   0.597
 2359TIP3   OH2 7040   5.277   3.117   3.928
 2359TIP3    H1 7041   5.213   3.186   3.911
 2359TIP3    H2 7042   5.332   3.114   3.850
 2360TIP3   OH2 7043   5.629   6.480   2.700
 2360TIP3    H1 7044   5.672   6.547   2.754
 2360TIP3    H2 7045   5.593   6.418   2.764
 2361TIP3   OH2 7046   0.508   3.855   4.963
 2361TIP3    H1 7047   0.467   3.870   5.048
 2361TIP3    H2 7048   0.482   3.930   4.909
 2362TIP3   OH2 7049   2.335   4.791   1.121
 2362TIP3    H1 7050   2.326   4.695   1.122
 2362TIP3    H2 7051   2.257   4.823   1.167
 2363TIP3   OH2 7052   2.847   3.743   4.829
 2363TIP3    H1 7053   2.913   3.678   4.807
 2363TIP3    H2 7054   2.802   3.760   4.747
 2364TIP3   OH2 7055   1.045   1.390   0.656
 2364TIP3    H1 7056   0.999   1.331   0.715
 2364TIP3    H2 7057   1.119   1.340   0.624
 2365TIP3   OH2 7058   3.782   5.727   5.449
 2365TIP3    H1 7059   3.720   5.787   5.409
 2365TIP3    H2 7060   3.868   5.763   5.428
 2366TIP3   OH2 7061   2.998   1.928   0.101
 2366TIP3    H1 7062   3.052   1.993   0.056
 2366TIP3    H2 7063   3.035   1.844   0.074
 2367TIP3   OH2 7064   4.570   0.469   1.986
 2367TIP3    H1 7065   4.497   0.419   1.949
 2367TIP3    H2 7066   4.527   0.537   2.038
 2368TIP3   OH2 7067   0.822   6.338   0.152
 2368TIP3    H1 7068   0.881   6.319   0.225
 2368TIP3    H2 7069   0.836   6.265   0.091
 2369TIP3   OH2 7070   5.219   2.434   4.534
 2369TIP3    H1 7071   5.298   2.454   4.484
 2369TIP3    H2 7072   5.213   2.503   4.599
 2370TIP3   OH2 7073   2.763   1.563   0.999
 2370TIP3    H1 7074   2.729   1.492   0.946
 2370TIP3    H2 7075   2.688   1.594   1.049
 2371TIP3   OH2 7076   6.592   0.529   2.225
 2371TIP3    H1 7077   6.670   0.491   2.183
 2371TIP3    H2 7078   6.611   0.524   2.319
 2372TIP3   OH2 7079   6.177   2.446   5.421
 2372TIP3    H1 7080   6.214   2.445   5.509
 2372TIP3    H2 7081   6.087   2.416   5.432
 2373TIP3   OH2 7082   1.730   1.900   4.648
 2373TIP3    H1 7083   1.674   1.944   4.712
 2373TIP3    H2 7084   1.676   1.895   4.569
 2374TIP3   OH2 7085   2.666   3.225   1.268
 2374TIP3    H1 7086   2.747   3.177   1.250
 2374TIP3    H2 7087   2.693   3.297   1.324
 2375TIP3   OH2 7088   2.570   1.625   2.834
 2375TIP3    H1 7089   2.615   1.555   2.786
 2375TIP3    H2 7090   2.627   1.701   2.822
 2376TIP3   OH2 7091   1.444   0.516   2.127
 2376TIP3    H1 7092   1.466   0.530   2.035
 2376TIP3    H2 7093   1.493   0.583   2.174
 2377TIP3   OH2 7094   0.322   3.414   0.186
 2377TIP3    H1 7095   0.391   3.435   0.249
 2377TIP3    H2 7096   0.242   3.451   0.224
 2378TIP3   OH2 7097   0.102   3.418   4.795
 2378TIP3    H1 7098   0.014   3.456   4.794
 2378TIP3    H2 7099   0.148   3.465   4.864
 2379TIP3   OH2 7100   5.783   2.920   0.028
 2379TIP3    H1 7101   5.769   2.829   0.053
 2379TIP3    H2 7102   5.818   2.915  -0.061
 2380TIP3   OH2 7103   3.352   5.925   5.689
 2380TIP3    H1 7104   3.362   5.938   5.595
 2380TIP3    H2 7105   3.275   5.870   5.698
 2381TIP3   OH2 7106   4.326   4.233   5.250
 2381TIP3    H1 7107   4.289   4.175   5.316
 2381TIP3    H2 7108   4.250   4.283   5.217
 2382TIP3   OH2 7109   1.644   2.126   0.754
 2382TIP3    H1 7110   1.578   2.188   0.787
 2382TIP3    H2 7111   1.661   2.153   0.664
 2383TIP3   OH2 7112   2.574   4.353   0.251
 2383TIP3    H1 7113   2.589   4.259   0.241
 2383TIP3    H2 7114   2.550   4.383   0.163
 2384TIP3   OH2 7115   5.155   6.093   4.018
 2384TIP3    H1 7116   5.144   6.164   3.955
 2384TIP3    H2 7117   5.135   6.014   3.970
 2385TIP3   OH2 7118   4.930   5.428   0.008
 2385TIP3    H1 7119   5.014   5.398  -0.028
 2385TIP3    H2 7120   4.936   5.407   0.101
 2386TIP3   OH2 7121   3.202   0.305   5.559
 2386TIP3    H1 7122   3.168   0.227   5.603
 2386TIP3    H2 7123   3.288   0.279   5.527
 2387TIP3   OH2 7124   3.481   2.643   5.578
 2387TIP3    H1 7125   3.544   2.702   5.536
 2387TIP3    H2 7126   3.446   2.694   5.651
 2388TIP3   OH2 7127   7.028   3.765   5.400
 2388TIP3    H1 7128   7.119   3.780   5.375
 2388TIP3    H2 7129   6.978   3.824   5.344
 2389TIP3   OH2 7130   1.441   4.844   2.388
 2389TIP3    H1 7131   1.417   4.798   2.307
 2389TIP3    H2 7132   1.418   4.935   2.371
 2390TIP3   OH2 7133   0.059   5.939   2.798
 2390TIP3    H1 7134   0.004   5.965   2.873
 2390TIP3    H2 7135   0.141   5.910   2.838
 2391TIP3   OH2 7136   2.784   6.520   5.867
 2391TIP3    H1 7137   2.708   6.575   5.848
 2391TIP3    H2 7138   2.859   6.576   5.845
 2392TIP3   OH2 7139   6.987   0.549   2.999
 2392TIP3    H1 7140   6.911   0.495   3.021
 2392TIP3    H2 7141   6.994   0.610   3.072
 2393TIP3   OH2 7142   5.971   2.524   5.714
 2393TIP3    H1 7143   5.910   2.514   5.787
 2393TIP3    H2 7144   6.035   2.454   5.727
 2394TIP3   OH2 7145   0.817   5.658   2.789
 2394TIP3    H1 7146   0.883   5.644   2.721
 2394TIP3    H2 7147   0.798   5.570   2.821
 2395TIP3   OH2 7148   6.400   1.821   0.972
 2395TIP3    H1 7149   6.357   1.768   0.905
 2395TIP3    H2 7150   6.363   1.791   1.055
 2396TIP3   OH2 7151   1.999   4.510   3.404
 2396TIP3    H1 7152   1.906   4.496   3.421
 2396TIP3    H2 7153   2.044   4.460   3.472
 2397TIP3   OH2 7154   4.849   0.150   1.238
 2397TIP3    H1 7155   4.790   0.157   1.313
 2397TIP3    H2 7156   4.804   0.197   1.168
 2398TIP3   OH2 7157   5.444   4.586   0.469
 2398TIP3    H1 7158   5.411   4.528   0.400
 2398TIP3    H2 7159   5.372   4.591   0.532
 2399TIP3   OH2 7160   1.450   4.589   1.823
 2399TIP3    H1 7161   1.526   4.562   1.875
 2399TIP3    H2 7162   1.452   4.531   1.747
 2400TIP3   OH2 7163   1.678   5.585   2.615
 2400TIP3    H1 7164   1.699   5.497   2.586
 2400TIP3    H2 7165   1.593   5.578   2.657
 2401TIP3   OH2 7166   5.126   5.398   5.800
 2401TIP3    H1 7167   5.150   5.391   5.707
 2401TIP3    H2 7168   5.165   5.481   5.829
 2402TIP3   OH2 7169   2.645   0.498   3.511
 2402TIP3    H1 7170   2.729   0.458   3.532
 2402TIP3    H2 7171   2.641   0.496   3.415
 2403TIP3   OH2 7172   3.687   5.124   1.396
 2403TIP3    H1 7173   3.606   5.176   1.395
 2403TIP3    H2 7174   3.680   5.067   1.319
 2404TIP3   OH2 7175   6.959   2.124   0.423
 2404TIP3    H1 7176   7.051   2.095   0.418
 2404TIP3    H2 7177   6.912   2.048   0.458
 2405TIP3   OH2 7178   4.262   3.841   2.355
 2405TIP3    H1 7179   4.239   3.748   2.359
 2405TIP3    H2 7180   4.355   3.842   2.332
 2406TIP3   OH2 7181   1.458   5.857   2.443
 2406TIP3    H1 7182   1.432   5.932   2.496
 2406TIP3    H2 7183   1.534   5.887   2.393
 2407TIP3   OH2 7184   0.836   4.319   1.826
 2407TIP3    H1 7185   0.810   4.411   1.831
 2407TIP3    H2 7186   0.857   4.295   1.916
 2408TIP3   OH2 7187   3.767   5.746   3.703
 2408TIP3    H1 7188   3.693   5.686   3.696
 2408TIP3    H2 7189   3.803   5.751   3.614
 2409TIP3   OH2 7190   5.964   4.104   0.123
 2409TIP3    H1 7191   5.982   4.012   0.142
 2409TIP3    H2 7192   5.931   4.105   0.033
 2410TIP3   OH2 7193   2.283   2.745   4.963
 2410TIP3    H1 7194   2.324   2.776   5.044
 2410TIP3    H2 7195   2.358   2.724   4.906
 2411TIP3   OH2 7196   4.358   0.770   5.258
 2411TIP3    H1 7197   4.448   0.786   5.284
 2411TIP3    H2 7198   4.315   0.742   5.339
 2412TIP3   OH2 7199   4.327   4.750   4.309
 2412TIP3    H1 7200   4.271   4.788   4.377
 2412TIP3    H2 7201   4.280   4.671   4.281
 2413TIP3   OH2 7202   2.354   3.676   1.535
 2413TIP3    H1 7203   2.264   3.671   1.568
 2413TIP3    H2 7204   2.391   3.589   1.553
 2414TIP3   OH2 7205   1.097   1.014   1.984
 2414TIP3    H1 7206   1.090   0.970   1.900
 2414TIP3    H2 7207   1.187   1.044   1.989
 2415TIP3   OH2 7208   0.334   3.195   2.223
 2415TIP3    H1 7209   0.378   3.114   2.251
 2415TIP3    H2 7210   0.383   3.265   2.267
 2416TIP3   OH2 7211   1.725   2.171   2.188
 2416TIP3    H1 7212   1.686   2.243   2.237
 2416TIP3    H2 7213   1.735   2.203   2.099
 2417TIP3   OH2 7214   5.121   5.493   1.822
 2417TIP3    H1 7215   5.119   5.426   1.753
 2417TIP3    H2 7216   5.148   5.445   1.900
 2418TIP3   OH2 7217   0.326   2.028   3.977
 2418TIP3    H1 7218   0.315   2.098   3.913
 2418TIP3    H2 7219   0.327   2.073   4.062
 2419TIP3   OH2 7220   6.374   4.190   2.303
 2419TIP3    H1 7221   6.389   4.185   2.398
 2419TIP3    H2 7222   6.286   4.226   2.295
 2420TIP3   OH2 7223   6.868   5.838   0.398
 2420TIP3    H1 7224   6.903   5.813   0.484
 2420TIP3    H2 7225   6.814   5.764   0.371
 2421TIP3   OH2 7226   1.476   5.511   4.737
 2421TIP3    H1 7227   1.545   5.529   4.801
 2421TIP3    H2 7228   1.404   5.476   4.789
 2422TIP3   OH2 7229   1.528   0.186   1.495
 2422TIP3    H1 7230   1.525   0.143   1.580
 2422TIP3    H2 7231   1.584   0.129   1.442
 2423TIP3   OH2 7232   0.383   0.938   1.818
 2423TIP3    H1 7233   0.420   0.913   1.902
 2423TIP3    H2 7234   0.412   1.028   1.805
 2424TIP3   OH2 7235   2.026   6.160   3.429
 2424TIP3    H1 7236   2.064   6.212   3.500
 2424TIP3    H2 7237   2.088   6.169   3.357
 2425TIP3   OH2 7238   0.454   0.415   5.359
 2425TIP3    H1 7239   0.371   0.438   5.317
 2425TIP3    H2 7240   0.446   0.447   5.449
 2426TIP3   OH2 7241   1.399   6.569   4.624
 2426TIP3    H1 7242   1.491   6.581   4.648
 2426TIP3    H2 7243   1.358   6.654   4.638
 2427TIP3   OH2 7244   5.512   1.180   5.336
 2427TIP3    H1 7245   5.565   1.196   5.414
 2427TIP3    H2 7246   5.456   1.257   5.328
 2428TIP3   OH2 7247   6.081   2.082   0.275
 2428TIP3    H1 7248   5.986   2.081   0.261
 2428TIP3    H2 7249   6.091   2.062   0.369
 2429TIP3   OH2 7250   2.491   1.658   4.811
 2429TIP3    H1 7251   2.470   1.635   4.721
 2429TIP3    H2 7252   2.541   1.582   4.844
 2430TIP3   OH2 7253   0.274   0.484   5.831
 2430TIP3    H1 7254   0.253   0.392   5.814
 2430TIP3    H2 7255   0.344   0.504   5.769
 2431TIP3   OH2 7256   7.179   6.155   4.565
 2431TIP3    H1 7257   7.083   6.162   4.567
 2431TIP3    H2 7258   7.210   6.232   4.612
 2432TIP3   OH2 7259   1.734   4.032   2.661
 2432TIP3    H1 7260   1.810   3.994   2.704
 2432TIP3    H2 7261   1.770   4.098   2.602
 2433TIP3   OH2 7262   3.209   1.130   0.536
 2433TIP3    H1 7263   3.208   1.125   0.631
 2433TIP3    H2 7264   3.202   1.039   0.507
 2434TIP3   OH2 7265   6.734   6.045   5.720
 2434TIP3    H1 7266   6.724   6.038   5.814
 2434TIP3    H2 7267   6.645   6.054   5.686
 2435TIP3   OH2 7268   0.247   6.278   4.489
 2435TIP3    H1 7269   0.156   6.249   4.481
 2435TIP3    H2 7270   0.257   6.346   4.422
 2436TIP3   OH2 7271   2.217   2.231   3.166
 2436TIP3    H1 7272   2.181   2.316   3.191
 2436TIP3    H2 7273   2.154   2.167   3.201
 2437TIP3   OH2 7274   2.656   2.889   4.363
 2437TIP3    H1 7275   2.632   2.805   4.403
 2437TIP3    H2 7276   2.718   2.866   4.294
 2438TIP3   OH2 7277   0.490   3.505   0.361
 2438TIP3    H1 7278   0.581   3.502   0.392
 2438TIP3    H2 7279   0.438   3.494   0.440
 2439TIP3   OH2 7280   6.831   2.747   0.477
 2439TIP3    H1 7281   6.867   2.715   0.559
 2439TIP3    H2 7282   6.800   2.835   0.497
 2440TIP3   OH2 7283   3.044   6.692   1.474
 2440TIP3    H1 7284   2.978   6.674   1.541
 2440TIP3    H2 7285   3.123   6.713   1.523
 2441TIP3   OH2 7286   1.242   0.594   0.096
 2441TIP3    H1 7287   1.275   0.667   0.044
 2441TIP3    H2 7288   1.213   0.529   0.032
 2442TIP3   OH2 7289   0.064   2.000   3.170
 2442TIP3    H1 7290   0.075   2.074   3.109
 2442TIP3    H2 7291   0.009   1.938   3.123
 2443TIP3   OH2 7292   6.360   5.893   3.149
 2443TIP3    H1 7293   6.323   5.817   3.105
 2443TIP3    H2 7294   6.428   5.925   3.090
 2444TIP3   OH2 7295   4.151   3.851   4.059
 2444TIP3    H1 7296   4.225   3.911   4.050
 2444TIP3    H2 7297   4.109   3.877   4.142
 2445TIP3   OH2 7298   6.984   5.068   5.304
 2445TIP3    H1 7299   6.945   5.154   5.297
 2445TIP3    H2 7300   6.992   5.053   5.398
 2446TIP3   OH2 7301   2.435   5.980   4.599
 2446TIP3    H1 7302   2.502   5.912   4.589
 2446TIP3    H2 7303   2.431   6.022   4.513
 2447TIP3   OH2 7304   3.034   1.350   0.151
 2447TIP3    H1 7305   2.949   1.393   0.138
 2447TIP3    H2 7306   3.070   1.342   0.062
 2448TIP3   OH2 7307   5.762   1.257   5.874
 2448TIP3    H1 7308   5.813   1.291   5.801
 2448TIP3    H2 7309   5.710   1.186   5.837
 2449TIP3   OH2 7310   2.260   3.046   4.048
 2449TIP3    H1 7311   2.218   2.989   4.113
 2449TIP3    H2 7312   2.188   3.072   3.990
 2450TIP3   OH2 7313   5.214   5.394   1.513
 2450TIP3    H1 7314   5.163   5.325   1.557
 2450TIP3    H2 7315   5.188   5.388   1.421
 2451TIP3   OH2 7316   4.131   4.527   3.735
 2451TIP3    H1 7317   4.067   4.585   3.777
 2451TIP3    H2 7318   4.206   4.584   3.717
 2452TIP3   OH2 7319   5.921   6.726   1.388
 2452TIP3    H1 7320   6.016   6.731   1.379
 2452TIP3    H2 7321   5.907   6.701   1.479
 2453TIP3   OH2 7322   6.823   0.714   0.460
 2453TIP3    H1 7323   6.896   0.657   0.435
 2453TIP3    H2 7324   6.790   0.747   0.376
 2454TIP3   OH2 7325   1.549   1.980   4.902
 2454TIP3    H1 7326   1.567   2.065   4.941
 2454TIP3    H2 7327   1.482   1.997   4.836
 2455TIP3   OH2 7328   2.514   2.033   0.427
 2455TIP3    H1 7329   2.591   2.011   0.479
 2455TIP3    H2 7330   2.544   2.023   0.336
 2456TIP3   OH2 7331   3.058   4.726   2.984
 2456TIP3    H1 7332   3.131   4.683   2.939
 2456TIP3    H2 7333   3.077   4.717   3.077
 2457TIP3   OH2 7334   0.628   5.026   2.927
 2457TIP3    H1 7335   0.690   4.954   2.943
 2457TIP3    H2 7336   0.619   5.069   3.012
 2458TIP3   OH2 7337   1.464   3.430   3.241
 2458TIP3    H1 7338   1.447   3.523   3.256
 2458TIP3    H2 7339   1.399   3.385   3.294
 2459TIP3   OH2 7340   4.145   6.471   1.353
 2459TIP3    H1 7341   4.093   6.517   1.418
 2459TIP3    H2 7342   4.127   6.516   1.270
 2460TIP3   OH2 7343   2.087   1.318   0.323
 2460TIP3    H1 7344   2.120   1.382   0.387
 2460TIP3    H2 7345   2.006   1.357   0.290
 2461TIP3   OH2 7346   5.137   1.765   5.425
 2461TIP3    H1 7347   5.095   1.796   5.505
 2461TIP3    H2 7348   5.068   1.715   5.380
 2462TIP3   OH2 7349   5.140   0.145   2.162
 2462TIP3    H1 7350   5.059   0.172   2.117
 2462TIP3    H2 7351   5.119   0.060   2.199
 2463TIP3   OH2 7352   3.423   6.724   5.545
 2463TIP3    H1 7353   3.361   6.743   5.474
 2463TIP3    H2 7354   3.424   6.804   5.598
 2464TIP3   OH2 7355   6.283   0.961   2.376
 2464TIP3    H1 7356   6.355   0.915   2.332
 2464TIP3    H2 7357   6.207   0.904   2.363
 2465TIP3   OH2 7358   1.101   3.535   5.024
 2465TIP3    H1 7359   1.120   3.625   4.998
 2465TIP3    H2 7360   1.052   3.544   5.106
 2466TIP3   OH2 7361   4.339   4.075   4.355
 2466TIP3    H1 7362   4.425   4.089   4.397
 2466TIP3    H2 7363   4.350   3.995   4.304
 2467TIP3   OH2 7364   2.052   6.638   4.553
 2467TIP3    H1 7365   2.147   6.626   4.561
 2467TIP3    H2 7366   2.018   6.617   4.640
 2468TIP3   OH2 7367   1.736   3.226   5.041
 2468TIP3    H1 7368   1.819   3.269   5.062
 2468TIP3    H2 7369   1.754   3.133   5.052
 2469TIP3   OH2 7370   0.903   6.053   0.613
 2469TIP3    H1 7371   0.829   6.055   0.552
 2469TIP3    H2 7372   0.924   6.145   0.628
 2470TIP3   OH2 7373   3.225   4.599   3.608
 2470TIP3    H1 7374   3.153   4.563   3.661
 2470TIP3    H2 7375   3.203   4.574   3.518
 2471TIP3   OH2 7376   5.286   2.859   1.542
 2471TIP3    H1 7377   5.236   2.939   1.525
 2471TIP3    H2 7378   5.243   2.819   1.618
 2472TIP3   OH2 7379   4.566   1.856   2.375
 2472TIP3    H1 7380   4.483   1.835   2.332
 2472TIP3    H2 7381   4.558   1.819   2.463
 2473TIP3   OH2 7382   2.309   2.318   0.382
 2473TIP3    H1 7383   2.285   2.382   0.315
 2473TIP3    H2 7384   2.239   2.253   0.380
 2474TIP3   OH2 7385   4.875   3.613   1.425
 2474TIP3    H1 7386   4.824   3.690   1.451
 2474TIP3    H2 7387   4.963   3.630   1.458
 2475TIP3   OH2 7388   1.462   5.532   1.535
 2475TIP3    H1 7389   1.451   5.447   1.579
 2475TIP3    H2 7390   1.376   5.548   1.494
 2476TIP3   OH2 7391   4.668   4.920   4.165
 2476TIP3    H1 7392   4.577   4.944   4.151
 2476TIP3    H2 7393   4.679   4.839   4.114
 2477TIP3   OH2 7394   1.360   3.363   1.628
 2477TIP3    H1 7395   1.365   3.286   1.571
 2477TIP3    H2 7396   1.329   3.434   1.570
 2478TIP3   OH2 7397   0.731   2.470   4.721
 2478TIP3    H1 7398   0.786   2.549   4.724
 2478TIP3    H2 7399   0.699   2.460   4.811
 2479TIP3   OH2 7400   7.133   1.516   0.154
 2479TIP3    H1 7401   7.181   1.436   0.136
 2479TIP3    H2 7402   7.176   1.553   0.231
 2480TIP3   OH2 7403   4.203   5.473   4.286
 2480TIP3    H1 7404   4.204   5.567   4.302
 2480TIP3    H2 7405   4.212   5.433   4.373
 2481TIP3   OH2 7406   3.076   3.172   2.101
 2481TIP3    H1 7407   3.070   3.077   2.110
 2481TIP3    H2 7408   3.038   3.206   2.182
 2482TIP3   OH2 7409   2.196   0.624   4.483
 2482TIP3    H1 7410   2.121   0.568   4.466
 2482TIP3    H2 7411   2.179   0.661   4.570
 2483TIP3   OH2 7412   2.599   6.319   2.057
 2483TIP3    H1 7413   2.615   6.281   1.970
 2483TIP3    H2 7414   2.504   6.326   2.062
 2484TIP3   OH2 7415   3.352   1.762   3.029
 2484TIP3    H1 7416   3.286   1.802   3.084
 2484TIP3    H2 7417   3.432   1.763   3.082
 2485TIP3   OH2 7418   2.235   1.806   4.599
 2485TIP3    H1 7419   2.164   1.814   4.535
 2485TIP3    H2 7420   2.289   1.734   4.565
 2486TIP3   OH2 7421   2.634   2.024   1.289
 2486TIP3    H1 7422   2.661   2.115   1.303
 2486TIP3    H2 7423   2.539   2.025   1.302
 2487TIP3   OH2 7424   3.831   0.898   4.388
 2487TIP3    H1 7425   3.752   0.937   4.350
 2487TIP3    H2 7426   3.879   0.972   4.424
 2488TIP3   OH2 7427   6.556   6.229   2.109
 2488TIP3    H1 7428   6.594   6.149   2.073
 2488TIP3    H2 7429   6.625   6.265   2.165
 2489TIP3   OH2 7430   0.564   5.966   3.362
 2489TIP3    H1 7431   0.586   5.938   3.273
 2489TIP3    H2 7432   0.487   5.914   3.385
 2490TIP3   OH2 7433   4.132   2.819   0.948
 2490TIP3    H1 7434   4.139   2.771   1.031
 2490TIP3    H2 7435   4.082   2.897   0.970
 2491TIP3   OH2 7436   4.766   5.831   2.121
 2491TIP3    H1 7437   4.787   5.828   2.027
 2491TIP3    H2 7438   4.674   5.858   2.123
 2492TIP3   OH2 7439   3.354   2.958   5.023
 2492TIP3    H1 7440   3.443   2.991   5.010
 2492TIP3    H2 7441   3.311   2.972   4.938
 2493TIP3   OH2 7442   0.490   2.078   0.080
 2493TIP3    H1 7443   0.481   2.116   0.167
 2493TIP3    H2 7444   0.518   1.988   0.095
 2494TIP3   OH2 7445   7.222   0.876   4.643
 2494TIP3    H1 7446   7.238   0.803   4.703
 2494TIP3    H2 7447   7.132   0.862   4.614
 2495TIP3   OH2 7448   5.605   2.258   4.342
 2495TIP3    H1 7449   5.575   2.170   4.320
 2495TIP3    H2 7450   5.699   2.256   4.327
 2496TIP3   OH2 7451   5.084   3.893   5.104
 2496TIP3    H1 7452   5.159   3.834   5.112
 2496TIP3    H2 7453   5.053   3.905   5.194
 2497TIP3   OH2 7454   5.945   1.377   3.024
 2497TIP3    H1 7455   5.992   1.388   2.941
 2497TIP3    H2 7456   5.858   1.345   2.997
 2498TIP3   OH2 7457   3.417   6.048   4.085
 2498TIP3    H1 7458   3.479   6.055   4.157
 2498TIP3    H2 7459   3.394   5.955   4.081
 2499TIP3   OH2 7460   6.009   0.181   1.510
 2499TIP3    H1 7461   6.036   0.265   1.548
 2499TIP3    H2 7462   5.962   0.206   1.430
 2500TIP3   OH2 7463   4.354   3.527   3.649
 2500TIP3    H1 7464   4.431   3.505   3.596
 2500TIP3    H2 7465   4.366   3.477   3.730
 2501TIP3   OH2 7466   2.787   2.839   4.099
 2501TIP3    H1 7467   2.770   2.921   4.052
 2501TIP3    H2 7468   2.702   2.794   4.100
 2502TIP3   OH2 7469   7.006   1.992   0.033
 2502TIP3    H1 7470   6.981   1.982  -0.059
 2502TIP3    H2 7471   7.097   1.962   0.037
 2503TIP3   OH2 7472   6.199   0.542   5.433
 2503TIP3    H1 7473   6.213   0.478   5.364
 2503TIP3    H2 7474   6.285   0.557   5.471
 2504TIP3   OH2 7475   2.982   5.227   5.251
 2504TIP3    H1 7476   2.956   5.142   5.215
 2504TIP3    H2 7477   2.937   5.232   5.335
 2505TIP3   OH2 7478   4.437   0.320   5.358
 2505TIP3    H1 7479   4.452   0.281   5.271
 2505TIP3    H2 7480   4.519   0.306   5.405
 2506TIP3   OH2 7481   6.843   0.105   1.568
 2506TIP3    H1 7482   6.905   0.078   1.637
 2506TIP3    H2 7483   6.807   0.023   1.535
 2507TIP3   OH2 7484   0.064   4.170   4.918
 2507TIP3    H1 7485   0.127   4.204   4.981
 2507TIP3    H2 7486  -0.020   4.207   4.945
 2508TIP3   OH2 7487   1.769   2.442   5.438
 2508TIP3    H1 7488   1.800   2.421   5.526
 2508TIP3    H2 7489   1.756   2.357   5.395
 2509TIP3   OH2 7490   3.923   6.228   4.317
 2509TIP3    H1 7491   4.012   6.260   4.324
 2509TIP3    H2 7492   3.921   6.177   4.236
 2510TIP3   OH2 7493   0.735   3.919   4.025
 2510TIP3    H1 7494   0.672   3.857   3.988
 2510TIP3    H2 7495   0.805   3.923   3.960
 2511TIP3   OH2 7496   1.589   3.796   1.167
 2511TIP3    H1 7497   1.604   3.856   1.094
 2511TIP3    H2 7498   1.664   3.811   1.225
 2512TIP3   OH2 7499   7.081   6.545   3.367
 2512TIP3    H1 7500   7.092   6.614   3.433
 2512TIP3    H2 7501   7.139   6.475   3.395
 2513TIP3   OH2 7502   6.910   3.213   3.040
 2513TIP3    H1 7503   6.996   3.228   2.999
 2513TIP3    H2 7504   6.892   3.120   3.025
 2514TIP3   OH2 7505   6.707   2.565   5.257
 2514TIP3    H1 7506   6.641   2.596   5.319
 2514TIP3    H2 7507   6.705   2.629   5.185
 2515TIP3   OH2 7508   0.605   0.743   1.555
 2515TIP3    H1 7509   0.522   0.701   1.532
 2515TIP3    H2 7510   0.615   0.726   1.649
 2516TIP3   OH2 7511   2.652   3.852   0.743
 2516TIP3    H1 7512   2.571   3.883   0.704
 2516TIP3    H2 7513   2.717   3.861   0.673
 2517TIP3   OH2 7514   1.128   6.187   1.199
 2517TIP3    H1 7515   1.190   6.151   1.263
 2517TIP3    H2 7516   1.044   6.149   1.223
 2518TIP3   OH2 7517   4.284   4.089   0.669
 2518TIP3    H1 7518   4.309   4.055   0.583
 2518TIP3    H2 7519   4.278   4.184   0.657
 2519TIP3   OH2 7520   5.514   2.762   4.435
 2519TIP3    H1 7521   5.478   2.706   4.366
 2519TIP3    H2 7522   5.544   2.701   4.502
 2520TIP3   OH2 7523   2.223   6.175   1.833
 2520TIP3    H1 7524   2.293   6.238   1.815
 2520TIP3    H2 7525   2.267   6.100   1.872
 2521TIP3   OH2 7526   1.167   4.817   3.298
 2521TIP3    H1 7527   1.128   4.846   3.381
 2521TIP3    H2 7528   1.245   4.872   3.289
 2522TIP3   OH2 7529   5.667   6.503   3.637
 2522TIP3    H1 7530   5.699   6.413   3.643
 2522TIP3    H2 7531   5.716   6.541   3.564
 2523TIP3   OH2 7532   1.534   1.828   3.784
 2523TIP3    H1 7533   1.485   1.765   3.731
 2523TIP3    H2 7534   1.478   1.905   3.788
 2524TIP3   OH2 7535   7.094   6.566   5.127
 2524TIP3    H1 7536   7.029   6.633   5.105
 2524TIP3    H2 7537   7.118   6.585   5.218
 2525TIP3   OH2 7538   1.856   5.575   1.164
 2525TIP3    H1 7539   1.778   5.583   1.219
 2525TIP3    H2 7540   1.872   5.481   1.158
 2526TIP3   OH2 7541   0.018   0.962   2.888
 2526TIP3    H1 7542   0.023   1.043   2.938
 2526TIP3    H2 7543   0.062   0.897   2.942
 2527TIP3   OH2 7544   2.858   3.794   3.684
 2527TIP3    H1 7545   2.816   3.878   3.705
 2527TIP3    H2 7546   2.885   3.759   3.769
 2528TIP3   OH2 7547   4.444   1.720   5.804
 2528TIP3    H1 7548   4.350   1.708   5.791
 2528TIP3    H2 7549   4.484   1.671   5.732
 2529TIP3   OH2 7550   3.075   6.409   3.236
 2529TIP3    H1 7551   3.023   6.391   3.314
 2529TIP3    H2 7552   3.119   6.492   3.256
 2530TIP3   OH2 7553   0.889   3.299   3.019
 2530TIP3    H1 7554   0.832   3.330   2.949
 2530TIP3    H2 7555   0.917   3.212   2.990
 2531TIP3   OH2 7556   3.315   2.147   2.030
 2531TIP3    H1 7557   3.246   2.212   2.031
 2531TIP3    H2 7558   3.359   2.159   1.945
 2532TIP3   OH2 7559   0.626   1.964   0.541
 2532TIP3    H1 7560   0.643   2.058   0.533
 2532TIP3    H2 7561   0.532   1.957   0.553
 2533TIP3   OH2 7562   1.135   3.125   4.740
 2533TIP3    H1 7563   1.056   3.077   4.716
 2533TIP3    H2 7564   1.200   3.099   4.676
 2534TIP3   OH2 7565   3.568   3.945   2.697
 2534TIP3    H1 7566   3.554   4.030   2.739
 2534TIP3    H2 7567   3.651   3.955   2.650
 2535TIP3   OH2 7568   2.851   5.857   2.730
 2535TIP3    H1 7569   2.916   5.798   2.693
 2535TIP3    H2 7570   2.887   5.882   2.815
 2536TIP3   OH2 7571   6.635   2.204   3.072
 2536TIP3    H1 7572   6.683   2.269   3.022
 2536TIP3    H2 7573   6.606   2.250   3.151
 2537TIP3   OH2 7574   0.287   5.455   5.527
 2537TIP3    H1 7575   0.272   5.368   5.563
 2537TIP3    H2 7576   0.238   5.456   5.444
 2538TIP3   OH2 7577   5.660   5.562   0.469
 2538TIP3    H1 7578   5.601   5.611   0.526
 2538TIP3    H2 7579   5.619   5.567   0.382
 2539TIP3   OH2 7580   3.649   3.012   3.238
 2539TIP3    H1 7581   3.736   2.982   3.267
 2539TIP3    H2 7582   3.591   2.939   3.257
 2540TIP3   OH2 7583   6.541   1.592   1.205
 2540TIP3    H1 7584   6.449   1.616   1.215
 2540TIP3    H2 7585   6.588   1.660   1.254
 2541TIP3   OH2 7586   4.294   0.926   2.218
 2541TIP3    H1 7587   4.349   0.885   2.285
 2541TIP3    H2 7588   4.274   1.013   2.254
 2542TIP3   OH2 7589   4.093   5.331   1.434
 2542TIP3    H1 7590   4.057   5.287   1.511
 2542TIP3    H2 7591   4.114   5.419   1.465
 2543TIP3   OH2 7592   4.918   6.162   3.354
 2543TIP3    H1 7593   4.882   6.251   3.355
 2543TIP3    H2 7594   4.842   6.106   3.341
 2544TIP3   OH2 7595   4.644   3.983   1.791
 2544TIP3    H1 7596   4.603   4.030   1.719
 2544TIP3    H2 7597   4.598   3.899   1.793
 2545TIP3   OH2 7598   7.113   0.313   4.864
 2545TIP3    H1 7599   7.200   0.272   4.859
 2545TIP3    H2 7600   7.082   0.291   4.952
 2546TIP3   OH2 7601   5.112   1.431   1.842
 2546TIP3    H1 7602   5.055   1.393   1.775
 2546TIP3    H2 7603   5.072   1.406   1.925
 2547TIP3   OH2 7604   0.740   6.247   2.712
 2547TIP3    H1 7605   0.781   6.284   2.634
 2547TIP3    H2 7606   0.673   6.189   2.678
 2548TIP3   OH2 7607   6.707   5.600   4.204
 2548TIP3    H1 7608   6.667   5.513   4.216
 2548TIP3    H2 7609   6.707   5.613   4.109
 2549TIP3   OH2 7610   0.580   2.137   2.338
 2549TIP3    H1 7611   0.595   2.112   2.247
 2549TIP3    H2 7612   0.639   2.211   2.353
 2550TIP3   OH2 7613   7.162   4.883   3.098
 2550TIP3    H1 7614   7.092   4.841   3.147
 2550TIP3    H2 7615   7.209   4.935   3.163
 2551TIP3   OH2 7616   1.914   0.874   3.389
 2551TIP3    H1 7617   1.937   0.783   3.410
 2551TIP3    H2 7618   1.920   0.879   3.293
 2552TIP3   OH2 7619   5.959   3.917   0.696
 2552TIP3    H1 7620   6.039   3.896   0.649
 2552TIP3    H2 7621   5.983   3.989   0.754
 2553TIP3   OH2 7622   4.502   4.717   4.508
 2553TIP3    H1 7623   4.471   4.649   4.567
 2553TIP3    H2 7624   4.444   4.712   4.432
 2554TIP3   OH2 7625   3.885   1.417   4.066
 2554TIP3    H1 7626   3.900   1.371   3.983
 2554TIP3    H2 7627   3.791   1.431   4.069
 2555TIP3   OH2 7628   1.617   5.327   5.807
 2555TIP3    H1 7629   1.549   5.329   5.740
 2555TIP3    H2 7630   1.698   5.343   5.760
 2556TIP3   OH2 7631   2.306   3.248   0.170
 2556TIP3    H1 7632   2.271   3.293   0.246
 2556TIP3    H2 7633   2.238   3.185   0.146
 2557TIP3   OH2 7634   4.885   6.468   4.476
 2557TIP3    H1 7635   4.929   6.411   4.412
 2557TIP3    H2 7636   4.805   6.496   4.432
 2558TIP3   OH2 7637   2.677   5.846   2.425
 2558TIP3    H1 7638   2.705   5.757   2.403
 2558TIP3    H2 7639   2.728   5.869   2.503
 2559TIP3   OH2 7640   1.291   2.327   4.472
 2559TIP3    H1 7641   1.306   2.236   4.445
 2559TIP3    H2 7642   1.197   2.340   4.459
 2560TIP3   OH2 7643   1.047   6.178   0.931
 2560TIP3    H1 7644   1.064   6.248   0.995
 2560TIP3    H2 7645   0.954   6.159   0.941
 2561TIP3   OH2 7646   6.720   0.384   0.290
 2561TIP3    H1 7647   6.734   0.461   0.235
 2561TIP3    H2 7648   6.679   0.320   0.233
 2562TIP3   OH2 7649   1.293   3.706   1.895
 2562TIP3    H1 7650   1.246   3.727   1.975
 2562TIP3    H2 7651   1.225   3.676   1.834
 2563TIP3   OH2 7652   5.775   0.022   4.501
 2563TIP3    H1 7653   5.815  -0.015   4.580
 2563TIP3    H2 7654   5.791   0.116   4.508
 2564TIP3   OH2 7655   4.442   4.307   4.228
 2564TIP3    H1 7656   4.515   4.257   4.192
 2564TIP3    H2 7657   4.398   4.247   4.288
 2565TIP3   OH2 7658   3.621   2.377   5.798
 2565TIP3    H1 7659   3.626   2.358   5.704
 2565TIP3    H2 7660   3.668   2.461   5.807
 2566TIP3   OH2 7661   1.064   1.247   0.136
 2566TIP3    H1 7662   1.052   1.341   0.120
 2566TIP3    H2 7663   1.053   1.207   0.050
 2567TIP3   OH2 7664   6.958   0.953   5.263
 2567TIP3    H1 7665   7.052   0.969   5.252
 2567TIP3    H2 7666   6.954   0.871   5.313
 2568TIP3   OH2 7667   1.657   5.796   2.884
 2568TIP3    H1 7668   1.666   5.769   2.975
 2568TIP3    H2 7669   1.563   5.798   2.867
 2569TIP3   OH2 7670   1.415   6.497   2.742
 2569TIP3    H1 7671   1.422   6.584   2.705
 2569TIP3    H2 7672   1.506   6.472   2.762
 2570TIP3   OH2 7673   1.154   4.484   5.047
 2570TIP3    H1 7674   1.162   4.449   5.136
 2570TIP3    H2 7675   1.193   4.416   4.992
 2571TIP3   OH2 7676   1.733   1.640   1.672
 2571TIP3    H1 7677   1.697   1.725   1.699
 2571TIP3    H2 7678   1.721   1.640   1.576
 2572TIP3   OH2 7679   1.790   4.106   1.229
 2572TIP3    H1 7680   1.704   4.142   1.249
 2572TIP3    H2 7681   1.782   4.074   1.139
 2573TIP3   OH2 7682   3.785   6.574   5.457
 2573TIP3    H1 7683   3.788   6.485   5.423
 2573TIP3    H2 7684   3.719   6.571   5.527
 2574TIP3   OH2 7685   5.901   2.963   1.570
 2574TIP3    H1 7686   5.916   2.890   1.629
 2574TIP3    H2 7687   5.833   3.015   1.614
 2575TIP3   OH2 7688   3.721   4.628   4.724
 2575TIP3    H1 7689   3.799   4.579   4.699
 2575TIP3    H2 7690   3.694   4.673   4.644
 2576TIP3   OH2 7691   1.123   2.686   1.222
 2576TIP3    H1 7692   1.064   2.622   1.263
 2576TIP3    H2 7693   1.203   2.680   1.275
 2577TIP3   OH2 7694   5.368   1.944   3.009
 2577TIP3    H1 7695   5.461   1.942   2.988
 2577TIP3    H2 7696   5.336   2.025   2.968
 2578TIP3   OH2 7697   2.623   4.993   3.349
 2578TIP3    H1 7698   2.542   4.961   3.387
 2578TIP3    H2 7699   2.667   4.915   3.316
 2579TIP3   OH2 7700   6.440   1.747   3.489
 2579TIP3    H1 7701   6.519   1.694   3.477
 2579TIP3    H2 7702   6.378   1.689   3.532
 2580TIP3   OH2 7703   1.078   1.694   3.881
 2580TIP3    H1 7704   0.984   1.677   3.875
 2580TIP3    H2 7705   1.118   1.622   3.831
 2581TIP3   OH2 7706   2.910   1.139   4.329
 2581TIP3    H1 7707   2.841   1.078   4.355
 2581TIP3    H2 7708   2.896   1.216   4.384
 2582TIP3   OH2 7709   3.912   1.897   0.371
 2582TIP3    H1 7710   4.004   1.915   0.394
 2582TIP3    H2 7711   3.887   1.825   0.429
 2583TIP3   OH2 7712   2.073   6.185   0.778
 2583TIP3    H1 7713   2.029   6.249   0.833
 2583TIP3    H2 7714   2.090   6.231   0.695
 2584TIP3   OH2 7715   5.425   0.043   3.602
 2584TIP3    H1 7716   5.468   0.070   3.521
 2584TIP3    H2 7717   5.496   0.012   3.658
 2585TIP3   OH2 7718   0.169   2.139   2.947
 2585TIP3    H1 7719   0.232   2.190   2.897
 2585TIP3    H2 7720   0.110   2.102   2.881
 2586TIP3   OH2 7721   1.196   2.298   1.013
 2586TIP3    H1 7722   1.188   2.389   1.043
 2586TIP3    H2 7723   1.114   2.257   1.041
 2587TIP3   OH2 7724   2.025   3.374   4.370
 2587TIP3    H1 7725   2.050   3.408   4.456
 2587TIP3    H2 7726   2.068   3.289   4.365
 2588TIP3   OH2 7727   2.275   3.560   0.428
 2588TIP3    H1 7728   2.262   3.472   0.391
 2588TIP3    H2 7729   2.250   3.551   0.520
 2589TIP3   OH2 7730   0.083   4.876   1.734
 2589TIP3    H1 7731   0.023   4.924   1.793
 2589TIP3    H2 7732   0.143   4.943   1.702
 2590TIP3   OH2 7733   2.983   3.752   1.300
 2590TIP3    H1 7734   2.952   3.787   1.217
 2590TIP3    H2 7735   3.078   3.741   1.287
 2591TIP3   OH2 7736   0.757   3.073   3.483
 2591TIP3    H1 7737   0.722   3.086   3.571
 2591TIP3    H2 7738   0.831   3.013   3.494
 2592TIP3   OH2 7739   7.049   0.011   2.206
 2592TIP3    H1 7740   7.099   0.070   2.263
 2592TIP3    H2 7741   6.974   0.063   2.179
 2593TIP3   OH2 7742   6.410   1.985   3.141
 2593TIP3    H1 7743   6.365   2.064   3.172
 2593TIP3    H2 7744   6.502   2.003   3.155
 2594TIP3   OH2 7745   0.125   5.592   0.657
 2594TIP3    H1 7746   0.139   5.608   0.564
 2594TIP3    H2 7747   0.152   5.501   0.670
 2595TIP3   OH2 7748   6.137   1.375   0.272
 2595TIP3    H1 7749   6.049   1.403   0.296
 2595TIP3    H2 7750   6.191   1.452   0.285
 2596TIP3   OH2 7751   2.946   2.695   4.679
 2596TIP3    H1 7752   2.856   2.695   4.644
 2596TIP3    H2 7753   2.971   2.603   4.679
 2597TIP3   OH2 7754   6.446   1.041   1.510
 2597TIP3    H1 7755   6.352   1.027   1.512
 2597TIP3    H2 7756   6.481   0.979   1.574
 2598TIP3   OH2 7757   1.814   5.825   2.660
 2598TIP3    H1 7758   1.760   5.848   2.736
 2598TIP3    H2 7759   1.789   5.735   2.639
 2599TIP3   OH2 7760   3.984   0.487   1.659
 2599TIP3    H1 7761   4.067   0.530   1.680
 2599TIP3    H2 7762   3.967   0.513   1.568
 2600TIP3   OH2 7763   3.266   3.377   2.066
 2600TIP3    H1 7764   3.208   3.438   2.112
 2600TIP3    H2 7765   3.213   3.298   2.055
 2601TIP3   OH2 7766   5.740   5.565   5.238
 2601TIP3    H1 7767   5.657   5.524   5.215
 2601TIP3    H2 7768   5.787   5.499   5.289
 2602TIP3   OH2 7769   0.575   2.741   3.561
 2602TIP3    H1 7770   0.591   2.735   3.467
 2602TIP3    H2 7771   0.566   2.650   3.590
 2603TIP3   OH2 7772   2.177   5.195   1.897
 2603TIP3    H1 7773   2.231   5.125   1.861
 2603TIP3    H2 7774   2.229   5.231   1.969
 2604TIP3   OH2 7775   5.229   4.816   2.200
 2604TIP3    H1 7776   5.290   4.744   2.215
 2604TIP3    H2 7777   5.237   4.871   2.278
 2605TIP3   OH2 7778   5.765   1.229   3.989
 2605TIP3    H1 7779   5.782   1.323   3.987
 2605TIP3    H2 7780   5.730   1.209   3.902
 2606TIP3   OH2 7781   2.170   2.089   0.326
 2606TIP3    H1 7782   2.076   2.071   0.315
 2606TIP3    H2 7783   2.211   2.003   0.324
 2607TIP3   OH2 7784   1.584   4.308   5.670
 2607TIP3    H1 7785   1.672   4.270   5.668
 2607TIP3    H2 7786   1.530   4.241   5.714
 2608TIP3   OH2 7787   4.006   3.765   0.526
 2608TIP3    H1 7788   4.051   3.772   0.610
 2608TIP3    H2 7789   3.948   3.841   0.524
 2609TIP3   OH2 7790   6.293   5.563   0.812
 2609TIP3    H1 7791   6.234   5.488   0.820
 2609TIP3    H2 7792   6.373   5.535   0.856
 2610TIP3   OH2 7793   3.832   2.133   1.555
 2610TIP3    H1 7794   3.850   2.070   1.486
 2610TIP3    H2 7795   3.917   2.146   1.598
 2611TIP3   OH2 7796   1.582   5.312   3.062
 2611TIP3    H1 7797   1.489   5.325   3.042
 2611TIP3    H2 7798   1.625   5.392   3.031
 2612TIP3   OH2 7799   4.493   2.107   3.150
 2612TIP3    H1 7800   4.569   2.056   3.179
 2612TIP3    H2 7801   4.417   2.058   3.183
 2613TIP3   OH2 7802   2.936   6.241   0.317
 2613TIP3    H1 7803   3.018   6.266   0.361
 2613TIP3    H2 7804   2.868   6.285   0.368
 2614TIP3   OH2 7805   5.962   3.032   0.266
 2614TIP3    H1 7806   5.951   2.954   0.213
 2614TIP3    H2 7807   6.051   3.063   0.245
 2615TIP3   OH2 7808   3.719   1.349   4.580
 2615TIP3    H1 7809   3.696   1.265   4.618
 2615TIP3    H2 7810   3.785   1.329   4.513
 2616TIP3   OH2 7811   0.730   4.561   1.786
 2616TIP3    H1 7812   0.674   4.598   1.718
 2616TIP3    H2 7813   0.780   4.635   1.820
 2617TIP3   OH2 7814   3.992   1.672   1.478
 2617TIP3    H1 7815   3.938   1.722   1.417
 2617TIP3    H2 7816   4.051   1.621   1.423
 2618TIP3   OH2 7817   0.119   6.389   0.462
 2618TIP3    H1 7818   0.196   6.338   0.436
 2618TIP3    H2 7819   0.046   6.329   0.446
 2619TIP3   OH2 7820   4.563   1.410   2.464
 2619TIP3    H1 7821   4.552   1.427   2.558
 2619TIP3    H2 7822   4.617   1.484   2.433
 2620TIP3   OH2 7823   3.310   6.593   0.109
 2620TIP3    H1 7824   3.308   6.683   0.075
 2620TIP3    H2 7825   3.332   6.539   0.033
 2621TIP3   OH2 7826   6.209   4.268   1.204
 2621TIP3    H1 7827   6.300   4.284   1.180
 2621TIP3    H2 7828   6.158   4.319   1.140
 2622TIP3   OH2 7829   4.079   1.969   5.526
 2622TIP3    H1 7830   4.029   2.045   5.557
 2622TIP3    H2 7831   4.146   1.954   5.593
 2623TIP3   OH2 7832   0.598   5.238   5.715
 2623TIP3    H1 7833   0.579   5.205   5.627
 2623TIP3    H2 7834   0.690   5.267   5.710
 2624TIP3   OH2 7835   4.817   4.705   0.392
 2624TIP3    H1 7836   4.763   4.779   0.364
 2624TIP3    H2 7837   4.756   4.646   0.436
 2625TIP3   OH2 7838   1.612   1.807   5.464
 2625TIP3    H1 7839   1.531   1.779   5.421
 2625TIP3    H2 7840   1.584   1.875   5.525
 2626TIP3   OH2 7841   6.541   4.070   2.092
 2626TIP3    H1 7842   6.482   4.098   2.162
 2626TIP3    H2 7843   6.577   4.152   2.056
 2627TIP3   OH2 7844   5.154   6.010   0.927
 2627TIP3    H1 7845   5.202   6.093   0.919
 2627TIP3    H2 7846   5.062   6.036   0.931
 2628TIP3   OH2 7847   2.995   0.969   1.588
 2628TIP3    H1 7848   2.937   0.894   1.573
 2628TIP3    H2 7849   2.939   1.037   1.624
 2629TIP3   OH2 7850   3.125   0.691  -0.003
 2629TIP3    H1 7851   3.039   0.650  -0.011
 2629TIP3    H2 7852   3.119   0.746   0.075
 2630TIP3   OH2 7853   4.161   1.699   5.729
 2630TIP3    H1 7854   4.162   1.656   5.644
 2630TIP3    H2 7855   4.074   1.682   5.764
 2631TIP3   OH2 7856   3.898   5.657   0.958
 2631TIP3    H1 7857   3.803   5.661   0.951
 2631TIP3    H2 7858   3.929   5.653   0.868
 2632TIP3   OH2 7859   0.884   2.701   4.573
 2632TIP3    H1 7860   0.926   2.623   4.538
 2632TIP3    H2 7861   0.899   2.697   4.667
 2633TIP3   OH2 7862   2.936   1.261   5.206
 2633TIP3    H1 7863   2.923   1.221   5.120
 2633TIP3    H2 7864   2.984   1.196   5.256
 2634TIP3   OH2 7865   1.642   1.158   0.740
 2634TIP3    H1 7866   1.666   1.090   0.678
 2634TIP3    H2 7867   1.554   1.185   0.714
 2635TIP3   OH2 7868   0.328   3.579   0.563
 2635TIP3    H1 7869   0.286   3.650   0.611
 2635TIP3    H2 7870   0.255   3.524   0.533
 2636TIP3   OH2 7871   2.740   5.971   4.921
 2636TIP3    H1 7872   2.813   5.997   4.865
 2636TIP3    H2 7873   2.780   5.952   5.006
 2637TIP3   OH2 7874   7.069   2.250   0.131
 2637TIP3    H1 7875   7.057   2.172   0.184
 2637TIP3    H2 7876   7.138   2.299   0.176
 2638TIP3   OH2 7877   7.163   2.945   2.690
 2638TIP3    H1 7878   7.093   2.900   2.738
 2638TIP3    H2 7879   7.125   2.965   2.604
 2639TIP3   OH2 7880   1.376   2.412   1.628
 2639TIP3    H1 7881   1.467   2.391   1.649
 2639TIP3    H2 7882   1.362   2.499   1.666
 2640TIP3   OH2 7883   3.267   3.200   3.596
 2640TIP3    H1 7884   3.347   3.174   3.550
 2640TIP3    H2 7885   3.237   3.278   3.549
 2641TIP3   OH2 7886   3.969   1.262   3.567
 2641TIP3    H1 7887   3.901   1.194   3.565
 2641TIP3    H2 7888   4.050   1.215   3.588
 2642TIP3   OH2 7889   1.502   0.034   1.718
 2642TIP3    H1 7890   1.559   0.000   1.787
 2642TIP3    H2 7891   1.438   0.088   1.766
 2643TIP3   OH2 7892   5.668   1.762   5.353
 2643TIP3    H1 7893   5.650   1.671   5.330
 2643TIP3    H2 7894   5.674   1.762   5.449
 2644TIP3   OH2 7895   3.579   6.519   1.203
 2644TIP3    H1 7896   3.558   6.471   1.284
 2644TIP3    H2 7897   3.674   6.512   1.196
 2645TIP3   OH2 7898   6.927   5.552   2.416
 2645TIP3    H1 7899   6.957   5.641   2.397
 2645TIP3    H2 7900   6.961   5.499   2.343
 2646TIP3   OH2 7901   4.024   3.294   1.038
 2646TIP3    H1 7902   3.951   3.357   1.039
 2646TIP3    H2 7903   4.052   3.289   1.129
 2647TIP3   OH2 7904   5.751   6.009   1.808
 2647TIP3    H1 7905   5.742   5.993   1.714
 2647TIP3    H2 7906   5.781   6.099   1.815
 2648TIP3   OH2 7907   0.887   0.281   2.294
 2648TIP3    H1 7908   0.934   0.232   2.362
 2648TIP3    H2 7909   0.940   0.271   2.216
 2649TIP3   OH2 7910   6.768   1.940   3.669
 2649TIP3    H1 7911   6.857   1.907   3.662
 2649TIP3    H2 7912   6.759   2.002   3.595
 2650TIP3   OH2 7913   5.067   2.527   3.095
 2650TIP3    H1 7914   5.134   2.516   3.027
 2650TIP3    H2 7915   5.035   2.438   3.111
 2651TIP3   OH2 7916   5.147   4.133   0.761
 2651TIP3    H1 7917   5.084   4.201   0.788
 2651TIP3    H2 7918   5.092   4.063   0.726
 2652TIP3   OH2 7919   3.039   3.238   5.866
 2652TIP3    H1 7920   3.000   3.159   5.829
 2652TIP3    H2 7921   3.133   3.221   5.866
 2653TIP3   OH2 7922   6.597   5.870   0.143
 2653TIP3    H1 7923   6.623   5.959   0.166
 2653TIP3    H2 7924   6.504   5.866   0.164
 2654TIP3   OH2 7925   0.782   0.593   2.826
 2654TIP3    H1 7926   0.855   0.594   2.764
 2654TIP3    H2 7927   0.715   0.541   2.782
 2655TIP3   OH2 7928   3.527   5.870   3.360
 2655TIP3    H1 7929   3.551   5.962   3.347
 2655TIP3    H2 7930   3.548   5.853   3.451
 2656TIP3   OH2 7931   5.879   2.641   4.507
 2656TIP3    H1 7932   5.897   2.732   4.485
 2656TIP3    H2 7933   5.804   2.617   4.452
 2657TIP3   OH2 7934   4.338   6.536   4.363
 2657TIP3    H1 7935   4.375   6.569   4.445
 2657TIP3    H2 7936   4.358   6.604   4.299
 2658TIP3   OH2 7937   5.399   3.188   3.006
 2658TIP3    H1 7938   5.391   3.104   3.051
 2658TIP3    H2 7939   5.436   3.247   3.071
 2659TIP3   OH2 7940   2.969   2.123   5.847
 2659TIP3    H1 7941   3.047   2.139   5.794
 2659TIP3    H2 7942   2.897   2.158   5.796
 2660TIP3   OH2 7943   5.376   1.825   4.585
 2660TIP3    H1 7944   5.323   1.885   4.637
 2660TIP3    H2 7945   5.395   1.752   4.645
 2661TIP3   OH2 7946   6.133   3.377   1.765
 2661TIP3    H1 7947   6.150   3.456   1.815
 2661TIP3    H2 7948   6.040   3.380   1.745
 2662TIP3   OH2 7949   4.126   3.791   0.758
 2662TIP3    H1 7950   4.119   3.711   0.810
 2662TIP3    H2 7951   4.083   3.858   0.811
 2663TIP3   OH2 7952   0.742   5.857   4.840
 2663TIP3    H1 7953   0.822   5.827   4.798
 2663TIP3    H2 7954   0.769   5.932   4.893
 2664TIP3   OH2 7955   0.406   1.956   3.656
 2664TIP3    H1 7956   0.347   2.018   3.698
 2664TIP3    H2 7957   0.438   1.901   3.728
 2665TIP3   OH2 7958   5.604   0.894   4.595
 2665TIP3    H1 7959   5.555   0.811   4.602
 2665TIP3    H2 7960   5.677   0.873   4.537
 2666TIP3   OH2 7961   1.060   5.583   5.307
 2666TIP3    H1 7962   1.003   5.514   5.343
 2666TIP3    H2 7963   1.144   5.569   5.351
 2667TIP3   OH2 7964   3.052   4.127   5.513
 2667TIP3    H1 7965   3.033   4.033   5.520
 2667TIP3    H2 7966   2.999   4.156   5.439
 2668TIP3   OH2 7967   3.124   0.617   0.464
 2668TIP3    H1 7968   3.055   0.598   0.400
 2668TIP3    H2 7969   3.185   0.544   0.456
 2669TIP3   OH2 7970   3.189   5.757   5.161
 2669TIP3    H1 7971   3.163   5.832   5.215
 2669TIP3    H2 7972   3.121   5.751   5.094
 2670TIP3   OH2 7973   5.684   4.399   5.723
 2670TIP3    H1 7974   5.610   4.445   5.683
 2670TIP3    H2 7975   5.715   4.458   5.792
 2671TIP3   OH2 7976   2.391   3.699   3.537
 2671TIP3    H1 7977   2.345   3.622   3.503
 2671TIP3    H2 7978   2.441   3.665   3.612
 2672TIP3   OH2 7979   4.338   6.369   2.828
 2672TIP3    H1 7980   4.416   6.424   2.824
 2672TIP3    H2 7981   4.369   6.287   2.865
 2673TIP3   OH2 7982   4.502   1.316   2.982
 2673TIP3    H1 7983   4.432   1.262   2.943
 2673TIP3    H2 7984   4.520   1.274   3.066
 2674TIP3   OH2 7985   4.068   1.933   1.958
 2674TIP3    H1 7986   4.060   2.015   1.910
 2674TIP3    H2 7987   4.079   1.866   1.890
 2675TIP3   OH2 7988   5.807   3.582   4.119
 2675TIP3    H1 7989   5.739   3.553   4.057
 2675TIP3    H2 7990   5.812   3.677   4.107
 2676TIP3   OH2 7991   1.513   1.815   1.317
 2676TIP3    H1 7992   1.599   1.796   1.354
 2676TIP3    H2 7993   1.522   1.903   1.281
 2677TIP3   OH2 7994   1.201   5.376   0.944
 2677TIP3    H1 7995   1.166   5.368   1.033
 2677TIP3    H2 7996   1.247   5.293   0.929
 2678TIP3   OH2 7997   3.457   1.939   4.532
 2678TIP3    H1 7998   3.540   1.906   4.498
 2678TIP3    H2 7999   3.463   1.928   4.627
 2679TIP3   OH2 8000   3.192   5.659   2.265
 2679TIP3    H1 8001   3.207   5.659   2.359
 2679TIP3    H2 8002   3.227   5.743   2.235
 2680TIP3   OH2 8003   0.333   2.655   4.596
 2680TIP3    H1 8004   0.288   2.585   4.549
 2680TIP3    H2 8005   0.266   2.692   4.653
 2681TIP3   OH2 8006   3.595   5.291   3.181
 2681TIP3    H1 8007   3.664   5.264   3.121
 2681TIP3    H2 8008   3.572   5.212   3.229
 2682TIP3   OH2 8009   4.370   3.824   4.250
 2682TIP3    H1 8010   4.398   3.860   4.166
 2682TIP3    H2 8011   4.410   3.737   4.253
 2683TIP3   OH2 8012   5.270   0.529   1.579
 2683TIP3    H1 8013   5.305   0.518   1.491
 2683TIP3    H2 8014   5.178   0.551   1.565
 2684TIP3   OH2 8015   6.953   4.582   3.506
 2684TIP3    H1 8016   6.959   4.528   3.584
 2684TIP3    H2 8017   7.026   4.554   3.451
 2685TIP3   OH2 8018   6.290   5.356   3.216
 2685TIP3    H1 8019   6.382   5.372   3.195
 2685TIP3    H2 8020   6.246   5.438   3.197
 2686TIP3   OH2 8021   3.517   0.410   2.950
 2686TIP3    H1 8022   3.581   0.414   3.020
 2686TIP3    H2 8023   3.456   0.341   2.977
 2687TIP3   OH2 8024   5.322   2.036   1.340
 2687TIP3    H1 8025   5.243   2.071   1.381
 2687TIP3    H2 8026   5.320   2.070   1.251
 2688TIP3   OH2 8027   2.494   2.330   5.183
 2688TIP3    H1 8028   2.549   2.285   5.247
 2688TIP3    H2 8029   2.416   2.355   5.232
 2689TIP3   OH2 8030   4.968   2.770   2.991
 2689TIP3    H1 8031   5.007   2.707   3.051
 2689TIP3    H2 8032   5.020   2.850   3.003
 2690TIP3   OH2 8033   3.499   6.763   2.719
 2690TIP3    H1 8034   3.506   6.846   2.670
 2690TIP3    H2 8035   3.518   6.787   2.810
 2691TIP3   OH2 8036   1.169   1.612   2.368
 2691TIP3    H1 8037   1.174   1.644   2.458
 2691TIP3    H2 8038   1.075   1.611   2.348
 2692TIP3   OH2 8039   5.765   3.202   3.232
 2692TIP3    H1 8040   5.833   3.251   3.188
 2692TIP3    H2 8041   5.809   3.124   3.266
 2693TIP3   OH2 8042   3.066   4.309   3.570
 2693TIP3    H1 8043   3.035   4.231   3.617
 2693TIP3    H2 8044   3.043   4.382   3.626
 2694TIP3   OH2 8045   2.402   2.030   1.917
 2694TIP3    H1 8046   2.321   2.033   1.865
 2694TIP3    H2 8047   2.472   2.024   1.852
 2695TIP3   OH2 8048   6.961   5.512   3.277
 2695TIP3    H1 8049   7.047   5.550   3.259
 2695TIP3    H2 8050   6.968   5.479   3.367
 2696TIP3   OH2 8051   1.927   3.171   1.203
 2696TIP3    H1 8052   1.958   3.191   1.291
 2696TIP3    H2 8053   1.993   3.207   1.144
 2697TIP3   OH2 8054   4.414   0.464   4.193
 2697TIP3    H1 8055   4.404   0.442   4.100
 2697TIP3    H2 8056   4.341   0.418   4.236
 2698TIP3   OH2 8057   2.088   6.182   4.161
 2698TIP3    H1 8058   2.009   6.129   4.164
 2698TIP3    H2 8059   2.147   6.142   4.225
 2699TIP3   OH2 8060   4.066   0.008   0.023
 2699TIP3    H1 8061   4.089   0.018   0.115
 2699TIP3    H2 8062   4.128   0.064  -0.023
 2700TIP3   OH2 8063   4.754   5.852   5.490
 2700TIP3    H1 8064   4.727   5.839   5.581
 2700TIP3    H2 8065   4.737   5.769   5.448
 2701TIP3   OH2 8066   0.365   6.664   4.607
 2701TIP3    H1 8067   0.297   6.596   4.611
 2701TIP3    H2 8068   0.421   6.646   4.683
 2702TIP3   OH2 8069   3.109   4.463   0.320
 2702TIP3    H1 8070   3.128   4.393   0.382
 2702TIP3    H2 8071   3.014   4.476   0.327
 2703TIP3   OH2 8072   5.683   6.812   3.426
 2703TIP3    H1 8073   5.737   6.734   3.415
 2703TIP3    H2 8074   5.692   6.835   3.518
 2704TIP3   OH2 8075   2.906   4.379   1.488
 2704TIP3    H1 8076   2.993   4.375   1.528
 2704TIP3    H2 8077   2.849   4.409   1.559
 2705TIP3   OH2 8078   4.514   0.005   1.086
 2705TIP3    H1 8079   4.460   0.042   1.017
 2705TIP3    H2 8080   4.538   0.080   1.141
 2706TIP3   OH2 8081   2.972   2.170   1.087
 2706TIP3    H1 8082   2.892   2.122   1.069
 2706TIP3    H2 8083   2.951   2.261   1.066
 2707TIP3   OH2 8084   3.073   6.822   0.615
 2707TIP3    H1 8085   3.087   6.741   0.568
 2707TIP3    H2 8086   3.119   6.810   0.698
 2708TIP3   OH2 8087   6.723   4.662   1.111
 2708TIP3    H1 8088   6.763   4.621   1.188
 2708TIP3    H2 8089   6.675   4.737   1.146
 2709TIP3   OH2 8090   0.720   1.431   0.260
 2709TIP3    H1 8091   0.667   1.359   0.294
 2709TIP3    H2 8092   0.793   1.439   0.321
 2710TIP3   OH2 8093   3.317   4.804   4.179
 2710TIP3    H1 8094   3.288   4.773   4.265
 2710TIP3    H2 8095   3.329   4.898   4.190
 2711TIP3   OH2 8096   2.510   3.275   5.500
 2711TIP3    H1 8097   2.556   3.336   5.558
 2711TIP3    H2 8098   2.512   3.192   5.547
 2712TIP3   OH2 8099   4.674   0.147   3.967
 2712TIP3    H1 8100   4.721   0.063   3.966
 2712TIP3    H2 8101   4.582   0.122   3.981
 2713TIP3   OH2 8102   5.974   3.743   1.557
 2713TIP3    H1 8103   5.929   3.661   1.537
 2713TIP3    H2 8104   6.001   3.733   1.649
 2714TIP3   OH2 8105   2.966   0.722   4.189
 2714TIP3    H1 8106   2.980   0.645   4.244
 2714TIP3    H2 8107   2.889   0.765   4.227
 2715TIP3   OH2 8108   1.793   6.296   4.586
 2715TIP3    H1 8109   1.768   6.343   4.666
 2715TIP3    H2 8110   1.889   6.291   4.590
 2716TIP3   OH2 8111   4.230   6.008   0.024
 2716TIP3    H1 8112   4.273   6.017   0.109
 2716TIP3    H2 8113   4.284   6.061  -0.035
 2717TIP3   OH2 8114   2.309   1.647   2.798
 2717TIP3    H1 8115   2.295   1.706   2.871
 2717TIP3    H2 8116   2.404   1.637   2.793
 2718TIP3   OH2 8117   3.408   0.872   2.757
 2718TIP3    H1 8118   3.417   0.920   2.839
 2718TIP3    H2 8119   3.429   0.782   2.780
 2719TIP3   OH2 8120   2.172   4.380   4.485
 2719TIP3    H1 8121   2.179   4.475   4.483
 2719TIP3    H2 8122   2.218   4.354   4.565
 2720TIP3   OH2 8123   6.988   3.731   2.448
 2720TIP3    H1 8124   6.933   3.679   2.507
 2720TIP3    H2 8125   6.933   3.745   2.371
 2721TIP3   OH2 8126   5.291   0.170   3.297
 2721TIP3    H1 8127   5.354   0.118   3.346
 2721TIP3    H2 8128   5.304   0.260   3.328
 2722TIP3   OH2 8129   4.221   2.886   3.651
 2722TIP3    H1 8130   4.236   2.811   3.593
 2722TIP3    H2 8131   4.190   2.955   3.592
 2723TIP3   OH2 8132   3.903   4.728   0.313
 2723TIP3    H1 8133   3.847   4.705   0.387
 2723TIP3    H2 8134   3.992   4.723   0.348
 2724TIP3   OH2 8135   2.360   0.175   2.832
 2724TIP3    H1 8136   2.439   0.167   2.778
 2724TIP3    H2 8137   2.327   0.263   2.813
 2725TIP3   OH2 8138   6.748   6.360   1.581
 2725TIP3    H1 8139   6.797   6.337   1.502
 2725TIP3    H2 8140   6.813   6.397   1.640
 2726TIP3   OH2 8141   5.466   3.898   1.088
 2726TIP3    H1 8142   5.388   3.886   1.034
 2726TIP3    H2 8143   5.432   3.925   1.174
 2727TIP3   OH2 8144   3.996   4.236   4.049
 2727TIP3    H1 8145   3.986   4.295   3.975
 2727TIP3    H2 8146   3.938   4.163   4.030
 2728TIP3   OH2 8147   4.936   3.639   3.208
 2728TIP3    H1 8148   4.977   3.725   3.194
 2728TIP3    H2 8149   4.883   3.650   3.287
 2729TIP3   OH2 8150   5.184   0.953   4.487
 2729TIP3    H1 8151   5.179   0.925   4.579
 2729TIP3    H2 8152   5.135   1.035   4.485
 2730TIP3   OH2 8153   1.640   4.136   1.893
 2730TIP3    H1 8154   1.575   4.104   1.955
 2730TIP3    H2 8155   1.660   4.225   1.923
 2731TIP3   OH2 8156   2.217   0.838   3.124
 2731TIP3    H1 8157   2.254   0.873   3.205
 2731TIP3    H2 8158   2.123   0.844   3.135
 2732TIP3   OH2 8159   3.623   4.695   3.082
 2732TIP3    H1 8160   3.635   4.641   3.003
 2732TIP3    H2 8161   3.639   4.784   3.052
 2733TIP3   OH2 8162   4.605   1.143   1.070
 2733TIP3    H1 8163   4.547   1.196   1.016
 2733TIP3    H2 8164   4.565   1.144   1.157
 2734TIP3   OH2 8165   0.080   6.490   2.192
 2734TIP3    H1 8166   0.149   6.553   2.169
 2734TIP3    H2 8167   0.065   6.503   2.286
 2735TIP3   OH2 8168   2.325   0.674   1.171
 2735TIP3    H1 8169   2.252   0.611   1.170
 2735TIP3    H2 8170   2.313   0.727   1.092
 2736TIP3   OH2 8171   2.060   4.060   1.807
 2736TIP3    H1 8172   1.985   4.059   1.747
 2736TIP3    H2 8173   2.136   4.075   1.750
 2737TIP3   OH2 8174   5.485   3.339   1.654
 2737TIP3    H1 8175   5.394   3.331   1.625
 2737TIP3    H2 8176   5.514   3.422   1.619
 2738TIP3   OH2 8177   1.022   2.810   4.110
 2738TIP3    H1 8178   1.060   2.732   4.151
 2738TIP3    H2 8179   0.987   2.861   4.183
 2739TIP3   OH2 8180   1.660   0.618   0.984
 2739TIP3    H1 8181   1.650   0.538   0.933
 2739TIP3    H2 8182   1.576   0.631   1.027
 2740TIP3   OH2 8183   1.581   3.708   0.081
 2740TIP3    H1 8184   1.533   3.694   0.162
 2740TIP3    H2 8185   1.606   3.801   0.083
 2741TIP3   OH2 8186   0.685   4.452   0.274
 2741TIP3    H1 8187   0.769   4.494   0.294
 2741TIP3    H2 8188   0.642   4.443   0.359
 2742TIP3   OH2 8189   4.058   3.049   3.479
 2742TIP3    H1 8190   3.979   2.995   3.474
 2742TIP3    H2 8191   4.035   3.119   3.539
 2743TIP3   OH2 8192   0.091   3.202   3.742
 2743TIP3    H1 8193   0.021   3.266   3.729
 2743TIP3    H2 8194   0.139   3.235   3.818
 2744TIP3   OH2 8195   3.145   3.668   5.200
 2744TIP3    H1 8196   3.138   3.573   5.207
 2744TIP3    H2 8197   3.065   3.701   5.240
 2745TIP3   OH2 8198   2.616   4.105   0.078
 2745TIP3    H1 8199   2.656   4.166   0.016
 2745TIP3    H2 8200   2.644   4.019   0.047
 2746TIP3   OH2 8201   6.590   5.423   5.252
 2746TIP3    H1 8202   6.557   5.486   5.188
 2746TIP3    H2 8203   6.613   5.476   5.329
 2747TIP3   OH2 8204   1.599   4.941   4.643
 2747TIP3    H1 8205   1.514   4.976   4.669
 2747TIP3    H2 8206   1.613   4.974   4.554
 2748TIP3   OH2 8207   1.129   4.998   2.614
 2748TIP3    H1 8208   1.212   5.004   2.662
 2748TIP3    H2 8209   1.062   5.014   2.680
 2749TIP3   OH2 8210   5.442   0.547   5.303
 2749TIP3    H1 8211   5.356   0.506   5.295
 2749TIP3    H2 8212   5.461   0.543   5.397
 2750TIP3   OH2 8213   7.111   6.020   3.002
 2750TIP3    H1 8214   7.071   5.937   3.026
 2750TIP3    H2 8215   7.075   6.083   3.065
 2751TIP3   OH2 8216   7.164   1.983   0.799
 2751TIP3    H1 8217   7.141   1.908   0.853
 2751TIP3    H2 8218   7.190   2.051   0.861
 2752TIP3   OH2 8219   4.051   3.147   2.748
 2752TIP3    H1 8220   4.012   3.188   2.825
 2752TIP3    H2 8221   3.983   3.089   2.714
 2753TIP3   OH2 8222   6.135   5.831   3.604
 2753TIP3    H1 8223   6.222   5.846   3.568
 2753TIP3    H2 8224   6.075   5.872   3.542
 2754TIP3   OH2 8225   4.690   5.035   4.811
 2754TIP3    H1 8226   4.680   5.124   4.843
 2754TIP3    H2 8227   4.745   5.043   4.733
 2755TIP3   OH2 8228   4.135   1.848   0.977
 2755TIP3    H1 8229   4.046   1.868   0.948
 2755TIP3    H2 8230   4.156   1.765   0.934
 2756TIP3   OH2 8231   2.292   2.047   0.615
 2756TIP3    H1 8232   2.314   2.036   0.522
 2756TIP3    H2 8233   2.346   2.119   0.645
 2757TIP3   OH2 8234   2.346   6.517   0.532
 2757TIP3    H1 8235   2.370   6.458   0.461
 2757TIP3    H2 8236   2.351   6.604   0.494
 2758TIP3   OH2 8237   5.490   0.996   2.632
 2758TIP3    H1 8238   5.521   1.085   2.614
 2758TIP3    H2 8239   5.404   0.992   2.591
 2759TIP3   OH2 8240   3.352   5.889   2.513
 2759TIP3    H1 8241   3.336   5.798   2.538
 2759TIP3    H2 8242   3.423   5.918   2.571
 2760TIP3   OH2 8243   1.002   6.326   0.676
 2760TIP3    H1 8244   1.030   6.294   0.762
 2760TIP3    H2 8245   0.954   6.407   0.695
 2761TIP3   OH2 8246   6.097   1.688   3.463
 2761TIP3    H1 8247   6.109   1.599   3.496
 2761TIP3    H2 8248   6.112   1.680   3.369
 2762TIP3   OH2 8249   4.773   6.759   3.719
 2762TIP3    H1 8250   4.714   6.776   3.792
 2762TIP3    H2 8251   4.716   6.735   3.647
 2763TIP3   OH2 8252   5.295   2.415   4.847
 2763TIP3    H1 8253   5.374   2.389   4.800
 2763TIP3    H2 8254   5.270   2.499   4.808
 2764TIP3   OH2 8255   1.944   0.209   1.300
 2764TIP3    H1 8256   1.989   0.264   1.365
 2764TIP3    H2 8257   1.885   0.154   1.351
 2765TIP3   OH2 8258   2.617   3.827   5.807
 2765TIP3    H1 8259   2.606   3.883   5.730
 2765TIP3    H2 8260   2.574   3.875   5.878
 2766TIP3   OH2 8261   2.877   2.731   3.051
 2766TIP3    H1 8262   2.952   2.785   3.025
 2766TIP3    H2 8263   2.917   2.654   3.093
 2767TIP3   OH2 8264   1.178   1.145   5.665
 2767TIP3    H1 8265   1.127   1.123   5.587
 2767TIP3    H2 8266   1.268   1.119   5.642
 2768TIP3   OH2 8267   1.603   5.490   1.852
 2768TIP3    H1 8268   1.665   5.534   1.793
 2768TIP3    H2 8269   1.597   5.401   1.818
 2769TIP3   OH2 8270   6.833   4.697   2.120
 2769TIP3    H1 8271   6.799   4.740   2.198
 2769TIP3    H2 8272   6.925   4.724   2.116
 2770TIP3   OH2 8273   4.459   6.568   4.615
 2770TIP3    H1 8274   4.426   6.484   4.646
 2770TIP3    H2 8275   4.471   6.620   4.695
 2771TIP3   OH2 8276   4.926   3.494   1.056
 2771TIP3    H1 8277   4.873   3.564   1.094
 2771TIP3    H2 8278   4.961   3.447   1.132
 2772TIP3   OH2 8279   2.654   0.230   2.333
 2772TIP3    H1 8280   2.728   0.177   2.360
 2772TIP3    H2 8281   2.582   0.168   2.321
 2773TIP3   OH2 8282   3.879   2.653   5.074
 2773TIP3    H1 8283   3.859   2.668   4.982
 2773TIP3    H2 8284   3.940   2.722   5.097
 2774TIP3   OH2 8285   7.050   5.867   1.611
 2774TIP3    H1 8286   6.993   5.852   1.536
 2774TIP3    H2 8287   7.027   5.955   1.641
 2775TIP3   OH2 8288   3.521   0.950   5.437
 2775TIP3    H1 8289   3.523   0.883   5.506
 2775TIP3    H2 8290   3.613   0.969   5.419
 2776TIP3   OH2 8291   0.223   2.950   5.403
 2776TIP3    H1 8292   0.151   2.920   5.347
 2776TIP3    H2 8293   0.199   2.920   5.490
 2777TIP3   OH2 8294   4.942   6.052   3.081
 2777TIP3    H1 8295   4.972   6.021   3.166
 2777TIP3    H2 8296   4.988   6.134   3.066
 2778TIP3   OH2 8297   5.858   0.781   3.272
 2778TIP3    H1 8298   5.919   0.714   3.304
 2778TIP3    H2 8299   5.866   0.777   3.176
 2779TIP3   OH2 8300   4.905   5.598   4.955
 2779TIP3    H1 8301   4.862   5.547   5.023
 2779TIP3    H2 8302   4.971   5.650   5.002
 2780TIP3   OH2 8303   5.839   4.525   1.124
 2780TIP3    H1 8304   5.791   4.606   1.135
 2780TIP3    H2 8305   5.833   4.505   1.030
 2781TIP3   OH2 8306   3.765   4.177   4.581
 2781TIP3    H1 8307   3.825   4.194   4.653
 2781TIP3    H2 8308   3.732   4.089   4.598
 2782TIP3   OH2 8309   4.459   2.673   5.176
 2782TIP3    H1 8310   4.482   2.701   5.087
 2782TIP3    H2 8311   4.535   2.622   5.205
 2783TIP3   OH2 8312   3.250   4.989   2.277
 2783TIP3    H1 8313   3.256   5.074   2.322
 2783TIP3    H2 8314   3.215   5.010   2.191
 2784TIP3   OH2 8315   3.174   4.947   0.509
 2784TIP3    H1 8316   3.094   4.985   0.546
 2784TIP3    H2 8317   3.187   4.865   0.557
 2785TIP3   OH2 8318   4.776   3.816   2.222
 2785TIP3    H1 8319   4.788   3.817   2.127
 2785TIP3    H2 8320   4.823   3.894   2.252
 2786TIP3   OH2 8321   0.814   1.908   0.103
 2786TIP3    H1 8322   0.723   1.886   0.122
 2786TIP3    H2 8323   0.818   2.004   0.108
 2787TIP3   OH2 8324   6.889   4.513   3.948
 2787TIP3    H1 8325   6.805   4.473   3.925
 2787TIP3    H2 8326   6.876   4.549   4.036
 2788TIP3   OH2 8327   5.818   3.324   0.308
 2788TIP3    H1 8328   5.774   3.286   0.384
 2788TIP3    H2 8329   5.807   3.259   0.238
 2789TIP3   OH2 8330   4.110   6.082   4.569
 2789TIP3    H1 8331   4.044   6.055   4.506
 2789TIP3    H2 8332   4.061   6.122   4.640
 2790TIP3   OH2 8333   1.861   3.022   3.181
 2790TIP3    H1 8334   1.842   3.001   3.090
 2790TIP3    H2 8335   1.815   3.105   3.196
 2791TIP3   OH2 8336   5.891   1.850   4.789
 2791TIP3    H1 8337   5.931   1.924   4.836
 2791TIP3    H2 8338   5.928   1.772   4.830
 2792TIP3   OH2 8339   4.399   2.018   0.312
 2792TIP3    H1 8340   4.434   1.963   0.382
 2792TIP3    H2 8341   4.436   2.105   0.329
 2793TIP3   OH2 8342   2.378   0.295   0.198
 2793TIP3    H1 8343   2.450   0.340   0.241
 2793TIP3    H2 8344   2.348   0.231   0.261
 2794TIP3   OH2 8345   0.235   3.862   4.684
 2794TIP3    H1 8346   0.184   3.870   4.603
 2794TIP3    H2 8347   0.271   3.949   4.699
 2795TIP3   OH2 8348   4.593   0.548   2.358
 2795TIP3    H1 8349   4.569   0.589   2.441
 2795TIP3    H2 8350   4.682   0.514   2.372
 2796TIP3   OH2 8351   6.343   4.842   5.793
 2796TIP3    H1 8352   6.342   4.834   5.698
 2796TIP3    H2 8353   6.362   4.935   5.809
 2797TIP3   OH2 8354   4.762   3.903   1.424
 2797TIP3    H1 8355   4.761   3.973   1.358
 2797TIP3    H2 8356   4.836   3.925   1.480
 2798TIP3   OH2 8357   2.779   2.385   2.500
 2798TIP3    H1 8358   2.746   2.465   2.542
 2798TIP3    H2 8359   2.702   2.344   2.461
 2799TIP3   OH2 8360   1.366   4.201   4.631
 2799TIP3    H1 8361   1.414   4.270   4.586
 2799TIP3    H2 8362   1.326   4.150   4.561
 2800TIP3   OH2 8363   6.199   1.292   1.384
 2800TIP3    H1 8364   6.230   1.382   1.399
 2800TIP3    H2 8365   6.189   1.255   1.472
 2801TIP3   OH2 8366   0.951   3.360   3.622
 2801TIP3    H1 8367   0.989   3.281   3.660
 2801TIP3    H2 8368   1.003   3.432   3.658
 2802TIP3   OH2 8369   0.201   6.756   4.382
 2802TIP3    H1 8370   0.269   6.767   4.449
 2802TIP3    H2 8371   0.241   6.787   4.301
 2803TIP3   OH2 8372   3.245   1.862   4.827
 2803TIP3    H1 8373   3.212   1.842   4.740
 2803TIP3    H2 8374   3.340   1.851   4.820
 2804TIP3   OH2 8375   1.678   4.543   0.027
 2804TIP3    H1 8376   1.738   4.473   0.003
 2804TIP3    H2 8377   1.599   4.526  -0.025
 2805TIP3   OH2 8378   2.217   0.303   4.596
 2805TIP3    H1 8379   2.313   0.308   4.597
 2805TIP3    H2 8380   2.197   0.243   4.525
 2806TIP3   OH2 8381   1.888   1.606   5.804
 2806TIP3    H1 8382   1.885   1.552   5.725
 2806TIP3    H2 8383   1.837   1.684   5.781
 2807TIP3   OH2 8384   6.679   4.943   5.082
 2807TIP3    H1 8385   6.648   4.925   4.993
 2807TIP3    H2 8386   6.622   4.890   5.138
 2808TIP3   OH2 8387   5.098   0.083   5.253
 2808TIP3    H1 8388   5.194   0.082   5.252
 2808TIP3    H2 8389   5.076   0.081   5.346
 2809TIP3   OH2 8390   2.137   2.943   3.154
 2809TIP3    H1 8391   2.160   2.999   3.080
 2809TIP3    H2 8392   2.084   2.998   3.211
 2810TIP3   OH2 8393   4.946   2.947   0.536
 2810TIP3    H1 8394   5.001   3.020   0.508
 2810TIP3    H2 8395   5.008   2.883   0.573
 2811TIP3   OH2 8396   5.546   3.791   0.744
 2811TIP3    H1 8397   5.560   3.883   0.724
 2811TIP3    H2 8398   5.481   3.790   0.814
 2812TIP3   OH2 8399   2.974   0.025   3.705
 2812TIP3    H1 8400   3.061   0.034   3.742
 2812TIP3    H2 8401   2.977  -0.057   3.655
 2813TIP3   OH2 8402   6.995   3.080   4.394
 2813TIP3    H1 8403   6.985   3.067   4.488
 2813TIP3    H2 8404   6.971   2.995   4.355
 2814TIP3   OH2 8405   0.989   5.863   5.475
 2814TIP3    H1 8406   0.926   5.843   5.406
 2814TIP3    H2 8407   1.071   5.877   5.428
 2815TIP3   OH2 8408   6.958   2.502   3.567
 2815TIP3    H1 8409   7.026   2.558   3.528
 2815TIP3    H2 8410   6.890   2.563   3.596
 2816TIP3   OH2 8411   1.809   2.773   2.693
 2816TIP3    H1 8412   1.805   2.867   2.677
 2816TIP3    H2 8413   1.792   2.764   2.786
 2817TIP3   OH2 8414   5.621   4.284   0.854
 2817TIP3    H1 8415   5.560   4.257   0.922
 2817TIP3    H2 8416   5.566   4.296   0.776
 2818TIP3   OH2 8417   2.132   0.289   3.691
 2818TIP3    H1 8418   2.213   0.326   3.727
 2818TIP3    H2 8419   2.070   0.290   3.764
 2819TIP3   OH2 8420   2.454   3.929   1.558
 2819TIP3    H1 8421   2.433   3.837   1.542
 2819TIP3    H2 8422   2.369   3.973   1.560
 2820TIP3   OH2 8423   7.011   3.572   1.715
 2820TIP3    H1 8424   7.006   3.501   1.651
 2820TIP3    H2 8425   7.009   3.529   1.800
 2821TIP3   OH2 8426   6.955   6.337   4.042
 2821TIP3    H1 8427   6.964   6.392   3.965
 2821TIP3    H2 8428   6.963   6.397   4.116
 2822TIP3   OH2 8429   3.524   5.090   2.648
 2822TIP3    H1 8430   3.610   5.063   2.680
 2822TIP3    H2 8431   3.534   5.183   2.628
 2823TIP3   OH2 8432   6.496   1.980   2.134
 2823TIP3    H1 8433   6.557   1.930   2.189
 2823TIP3    H2 8434   6.461   2.047   2.192
 2824TIP3   OH2 8435   4.171   4.886   4.498
 2824TIP3    H1 8436   4.084   4.863   4.531
 2824TIP3    H2 8437   4.190   4.971   4.536
 2825TIP3   OH2 8438   1.279   6.048   0.763
 2825TIP3    H1 8439   1.337   6.001   0.822
 2825TIP3    H2 8440   1.214   6.088   0.821
 2826TIP3   OH2 8441   6.779   0.795   4.000
 2826TIP3    H1 8442   6.709   0.822   4.060
 2826TIP3    H2 8443   6.814   0.877   3.965
 2827TIP3   OH2 8444   4.414   2.810   5.856
 2827TIP3    H1 8445   4.399   2.715   5.853
 2827TIP3    H2 8446   4.499   2.819   5.900
 2828TIP3   OH2 8447   5.439   2.504   4.363
 2828TIP3    H1 8448   5.509   2.451   4.401
 2828TIP3    H2 8449   5.461   2.510   4.270
 2829TIP3   OH2 8450   2.768   1.862   5.808
 2829TIP3    H1 8451   2.786   1.927   5.740
 2829TIP3    H2 8452   2.847   1.809   5.813
 2830TIP3   OH2 8453   7.199   4.894   5.642
 2830TIP3    H1 8454   7.289   4.886   5.610
 2830TIP3    H2 8455   7.146   4.853   5.574
 2831TIP3   OH2 8456   4.891   5.972   2.467
 2831TIP3    H1 8457   4.813   6.020   2.439
 2831TIP3    H2 8458   4.953   6.040   2.494
 2832TIP3   OH2 8459   6.799   2.923   3.464
 2832TIP3    H1 8460   6.725   2.911   3.405
 2832TIP3    H2 8461   6.760   2.950   3.547
 2833TIP3   OH2 8462   6.984  -0.002   3.901
 2833TIP3    H1 8463   6.998   0.046   3.982
 2833TIP3    H2 8464   6.895   0.023   3.873
 2834TIP3   OH2 8465   4.130   4.136   0.427
 2834TIP3    H1 8466   4.179   4.204   0.381
 2834TIP3    H2 8467   4.138   4.058   0.371
 2835TIP3   OH2 8468   6.211   5.807   3.992
 2835TIP3    H1 8469   6.167   5.727   3.963
 2835TIP3    H2 8470   6.243   5.847   3.912
 2836TIP3   OH2 8471   1.891   6.547   0.074
 2836TIP3    H1 8472   1.834   6.544   0.150
 2836TIP3    H2 8473   1.842   6.502   0.005
 2837TIP3   OH2 8474   0.041   1.105   0.964
 2837TIP3    H1 8475   0.102   1.159   1.014
 2837TIP3    H2 8476  -0.024   1.076   1.027
 2838TIP3   OH2 8477   6.177   5.961   1.068
 2838TIP3    H1 8478   6.173   5.992   0.978
 2838TIP3    H2 8479   6.100   5.999   1.110
 2839TIP3   OH2 8480   2.869   6.591   1.702
 2839TIP3    H1 8481   2.933   6.648   1.744
 2839TIP3    H2 8482   2.858   6.518   1.763
 2840TIP3   OH2 8483   0.294   3.805   4.073
 2840TIP3    H1 8484   0.240   3.730   4.047
 2840TIP3    H2 8485   0.304   3.796   4.168
 2841TIP3   OH2 8486   4.277   6.724   2.963
 2841TIP3    H1 8487   4.252   6.816   2.957
 2841TIP3    H2 8488   4.368   6.722   2.935
 2842TIP3   OH2 8489   1.920   6.603   0.948
 2842TIP3    H1 8490   1.953   6.603   1.038
 2842TIP3    H2 8491   1.895   6.694   0.931
 2843TIP3   OH2 8492   1.176   4.532   0.085
 2843TIP3    H1 8493   1.091   4.574   0.074
 2843TIP3    H2 8494   1.239   4.593   0.047
 2844TIP3   OH2 8495   3.777   5.514   0.338
 2844TIP3    H1 8496   3.805   5.586   0.394
 2844TIP3    H2 8497   3.693   5.542   0.302
 2845TIP3   OH2 8498   6.478   2.143   2.835
 2845TIP3    H1 8499   6.412   2.163   2.902
 2845TIP3    H2 8500   6.562   2.157   2.879
 2846TIP3   OH2 8501   1.212   6.020   0.176
 2846TIP3    H1 8502   1.120   6.018   0.201
 2846TIP3    H2 8503   1.259   5.995   0.255
 2847TIP3   OH2 8504   0.853   0.208   1.489
 2847TIP3    H1 8505   0.916   0.214   1.417
 2847TIP3    H2 8506   0.835   0.299   1.514
 2848TIP3   OH2 8507   6.613   0.032   4.655
 2848TIP3    H1 8508   6.632   0.122   4.681
 2848TIP3    H2 8509   6.634  -0.021   4.732
 2849TIP3   OH2 8510   6.125   1.903   2.849
 2849TIP3    H1 8511   6.188   1.875   2.783
 2849TIP3    H2 8512   6.138   1.998   2.856
 2850TIP3   OH2 8513   1.929   1.064   2.762
 2850TIP3    H1 8514   1.888   0.983   2.793
 2850TIP3    H2 8515   1.912   1.128   2.831
 2851TIP3   OH2 8516   1.593   5.341   0.621
 2851TIP3    H1 8517   1.653   5.322   0.548
 2851TIP3    H2 8518   1.579   5.436   0.616
 2852TIP3   OH2 8519   4.912   3.472   3.642
 2852TIP3    H1 8520   4.889   3.506   3.728
 2852TIP3    H2 8521   4.982   3.529   3.611
 2853TIP3   OH2 8522   1.123   2.013   3.753
 2853TIP3    H1 8523   1.208   2.001   3.794
 2853TIP3    H2 8524   1.136   1.987   3.662
 2854TIP3   OH2 8525   0.483   2.426   3.121
 2854TIP3    H1 8526   0.537   2.500   3.149
 2854TIP3    H2 8527   0.543   2.370   3.072
 2855TIP3   OH2 8528   5.135   2.677   0.033
 2855TIP3    H1 8529   5.132   2.587  -0.001
 2855TIP3    H2 8530   5.052   2.687   0.080
 2856TIP3   OH2 8531   4.754   1.930   3.110
 2856TIP3    H1 8532   4.678   1.894   3.064
 2856TIP3    H2 8533   4.811   1.962   3.039
 2857TIP3   OH2 8534   5.490   2.761   1.376
 2857TIP3    H1 8535   5.431   2.689   1.353
 2857TIP3    H2 8536   5.438   2.816   1.434
 2858TIP3   OH2 8537   2.087   0.603   3.680
 2858TIP3    H1 8538   2.099   0.513   3.649
 2858TIP3    H2 8539   2.168   0.622   3.729
 2859TIP3   OH2 8540   5.069   4.351   4.252
 2859TIP3    H1 8541   5.122   4.320   4.326
 2859TIP3    H2 8542   5.096   4.295   4.179
 2860TIP3   OH2 8543   3.679   5.422   4.900
 2860TIP3    H1 8544   3.663   5.367   4.823
 2860TIP3    H2 8545   3.774   5.431   4.903
 2861TIP3   OH2 8546   6.805   4.022   1.270
 2861TIP3    H1 8547   6.857   3.941   1.264
 2861TIP3    H2 8548   6.714   3.992   1.270
 2862TIP3   OH2 8549   1.881   2.910   3.771
 2862TIP3    H1 8550   1.821   2.892   3.699
 2862TIP3    H2 8551   1.827   2.905   3.850
 2863TIP3   OH2 8552   4.396   3.366   5.357
 2863TIP3    H1 8553   4.364   3.277   5.341
 2863TIP3    H2 8554   4.338   3.422   5.305
 2864TIP3   OH2 8555   4.027   0.651   3.853
 2864TIP3    H1 8556   4.051   0.734   3.893
 2864TIP3    H2 8557   4.008   0.593   3.927
 2865TIP3   OH2 8558   1.105   3.822   0.717
 2865TIP3    H1 8559   1.109   3.776   0.801
 2865TIP3    H2 8560   1.146   3.907   0.735
 2866TIP3   OH2 8561   7.148   3.609   3.799
 2866TIP3    H1 8562   7.125   3.524   3.762
 2866TIP3    H2 8563   7.105   3.672   3.742
 2867TIP3   OH2 8564   3.217   3.168   5.692
 2867TIP3    H1 8565   3.178   3.083   5.674
 2867TIP3    H2 8566   3.309   3.159   5.669
 2868TIP3   OH2 8567   1.338   4.861   3.891
 2868TIP3    H1 8568   1.366   4.950   3.870
 2868TIP3    H2 8569   1.328   4.861   3.987
 2869TIP3   OH2 8570   1.943   5.084   0.967
 2869TIP3    H1 8571   1.977   4.999   0.997
 2869TIP3    H2 8572   1.959   5.083   0.872
 2870TIP3   OH2 8573   4.288   5.186   0.254
 2870TIP3    H1 8574   4.245   5.225   0.177
 2870TIP3    H2 8575   4.228   5.117   0.282
 2871TIP3   OH2 8576   4.290   2.717   0.074
 2871TIP3    H1 8577   4.326   2.805   0.069
 2871TIP3    H2 8578   4.340   2.675   0.144
 2872TIP3   OH2 8579   1.874   3.120   5.329
 2872TIP3    H1 8580   1.848   3.209   5.349
 2872TIP3    H2 8581   1.852   3.070   5.408
 2873TIP3   OH2 8582   4.387   3.863   2.651
 2873TIP3    H1 8583   4.315   3.915   2.616
 2873TIP3    H2 8584   4.345   3.793   2.701
 2874TIP3   OH2 8585   2.155   4.204   4.268
 2874TIP3    H1 8586   2.159   4.262   4.344
 2874TIP3    H2 8587   2.231   4.147   4.278
 2875TIP3   OH2 8588   0.053   0.695   4.844
 2875TIP3    H1 8589   0.118   0.654   4.901
 2875TIP3    H2 8590  -0.010   0.626   4.824
 2876TIP3   OH2 8591   2.916   3.970   2.935
 2876TIP3    H1 8592   2.978   3.906   2.902
 2876TIP3    H2 8593   2.910   3.953   3.029
 2877TIP3   OH2 8594   3.191   6.540   5.442
 2877TIP3    H1 8595   3.257   6.472   5.432
 2877TIP3    H2 8596   3.191   6.560   5.536
 2878TIP3   OH2 8597   1.387   1.514   5.675
 2878TIP3    H1 8598   1.301   1.479   5.694
 2878TIP3    H2 8599   1.375   1.609   5.675
 2879TIP3   OH2 8600   6.403   0.732   1.381
 2879TIP3    H1 8601   6.348   0.803   1.349
 2879TIP3    H2 8602   6.423   0.680   1.303
 2880TIP3   OH2 8603   3.921   5.232   4.478
 2880TIP3    H1 8604   3.990   5.185   4.525
 2880TIP3    H2 8605   3.937   5.211   4.386
 2881TIP3   OH2 8606   0.939   2.627   4.849
 2881TIP3    H1 8607   0.924   2.567   4.922
 2881TIP3    H2 8608   0.987   2.700   4.887
 2882TIP3   OH2 8609   2.803   2.849   1.877
 2882TIP3    H1 8610   2.896   2.867   1.862
 2882TIP3    H2 8611   2.779   2.909   1.948
 2883TIP3   OH2 8612   2.119   4.919   0.430
 2883TIP3    H1 8613   2.145   4.910   0.339
 2883TIP3    H2 8614   2.119   4.829   0.464
 2884TIP3   OH2 8615   4.409   0.340   3.929
 2884TIP3    H1 8616   4.451   0.270   3.880
 2884TIP3    H2 8617   4.324   0.304   3.954
 2885TIP3   OH2 8618   1.516   2.318   1.282
 2885TIP3    H1 8619   1.559   2.368   1.351
 2885TIP3    H2 8620   1.553   2.230   1.291
 2886TIP3   OH2 8621   5.154   0.714   3.073
 2886TIP3    H1 8622   5.208   0.647   3.033
 2886TIP3    H2 8623   5.113   0.671   3.149
 2887TIP3   OH2 8624   2.687   3.267   3.464
 2887TIP3    H1 8625   2.749   3.314   3.519
 2887TIP3    H2 8626   2.741   3.229   3.394
 2888TIP3   OH2 8627   0.757   5.045   3.794
 2888TIP3    H1 8628   0.848   5.067   3.811
 2888TIP3    H2 8629   0.710   5.128   3.799
 2889TIP3   OH2 8630   6.025   1.799   3.720
 2889TIP3    H1 8631   5.967   1.874   3.727
 2889TIP3    H2 8632   6.030   1.780   3.627
 2890TIP3   OH2 8633   5.401   3.968   2.244
 2890TIP3    H1 8634   5.364   3.896   2.192
 2890TIP3    H2 8635   5.463   3.926   2.303
 2891TIP3   OH2 8636   2.356   4.274   5.141
 2891TIP3    H1 8637   2.375   4.231   5.057
 2891TIP3    H2 8638   2.265   4.250   5.160
 2892TIP3   OH2 8639   2.599   4.682   3.241
 2892TIP3    H1 8640   2.512   4.687   3.201
 2892TIP3    H2 8641   2.657   4.719   3.174
 2893TIP3   OH2 8642   4.500   0.456   5.670
 2893TIP3    H1 8643   4.508   0.454   5.765
 2893TIP3    H2 8644   4.586   0.428   5.638
 2894TIP3   OH2 8645   6.033   5.015   3.486
 2894TIP3    H1 8646   6.009   5.101   3.452
 2894TIP3    H2 8647   6.128   5.010   3.475
 2895TIP3   OH2 8648   4.824   6.569   1.207
 2895TIP3    H1 8649   4.743   6.518   1.204
 2895TIP3    H2 8650   4.798   6.653   1.244
 2896TIP3   OH2 8651   2.742   5.915   3.734
 2896TIP3    H1 8652   2.810   5.893   3.798
 2896TIP3    H2 8653   2.707   5.831   3.705
 2897TIP3   OH2 8654   7.103   3.858   2.827
 2897TIP3    H1 8655   7.015   3.862   2.864
 2897TIP3    H2 8656   7.107   3.773   2.783
 2898TIP3   OH2 8657   4.052   0.127   3.669
 2898TIP3    H1 8658   4.076   0.075   3.746
 2898TIP3    H2 8659   3.997   0.197   3.703
 2899TIP3   OH2 8660   6.621   2.788   3.816
 2899TIP3    H1 8661   6.645   2.876   3.789
 2899TIP3    H2 8662   6.580   2.798   3.901
 2900TIP3   OH2 8663   4.478   5.282   5.107
 2900TIP3    H1 8664   4.488   5.249   5.017
 2900TIP3    H2 8665   4.475   5.203   5.161
 2901TIP3   OH2 8666   4.455   6.242   0.735
 2901TIP3    H1 8667   4.524   6.307   0.722
 2901TIP3    H2 8668   4.501   6.163   0.762
 2902TIP3   OH2 8669   0.992   0.822   0.086
 2902TIP3    H1 8670   0.940   0.794   0.161
 2902TIP3    H2 8671   0.928   0.850   0.021
 2903TIP3   OH2 8672   4.262   1.400   4.018
 2903TIP3    H1 8673   4.291   1.315   3.986
 2903TIP3    H2 8674   4.341   1.454   4.017
 2904TIP3   OH2 8675   4.888   5.811   0.516
 2904TIP3    H1 8676   4.904   5.721   0.486
 2904TIP3    H2 8677   4.929   5.866   0.450
 2905TIP3   OH2 8678   2.359   4.718   0.107
 2905TIP3    H1 8679   2.374   4.711   0.201
 2905TIP3    H2 8680   2.297   4.647   0.088
 2906TIP3   OH2 8681   5.701   1.185   1.369
 2906TIP3    H1 8682   5.770   1.132   1.410
 2906TIP3    H2 8683   5.684   1.142   1.286
 2907TIP3   OH2 8684   0.942   1.776   5.767
 2907TIP3    H1 8685   0.852   1.773   5.799
 2907TIP3    H2 8686   0.935   1.811   5.678
 2908TIP3   OH2 8687   1.177   3.858   3.432
 2908TIP3    H1 8688   1.081   3.858   3.428
 2908TIP3    H2 8689   1.204   3.905   3.353
 2909TIP3   OH2 8690   6.238   1.798   3.068
 2909TIP3    H1 8691   6.191   1.837   2.994
 2909TIP3    H2 8692   6.311   1.857   3.085
 2910TIP3   OH2 8693   4.990   4.904   4.996
 2910TIP3    H1 8694   4.901   4.869   4.989
 2910TIP3    H2 8695   5.037   4.867   4.922
 2911TIP3   OH2 8696   1.217   5.730   2.376
 2911TIP3    H1 8697   1.294   5.775   2.411
 2911TIP3    H2 8698   1.197   5.778   2.295
 2912TIP3   OH2 8699   3.852   5.665   3.962
 2912TIP3    H1 8700   3.794   5.697   3.893
 2912TIP3    H2 8701   3.801   5.673   4.043
 2913TIP3   OH2 8702   2.088   1.114   0.729
 2913TIP3    H1 8703   2.063   1.080   0.815
 2913TIP3    H2 8704   2.174   1.077   0.712
 2914TIP3   OH2 8705   3.530   3.844   1.406
 2914TIP3    H1 8706   3.440   3.839   1.437
 2914TIP3    H2 8707   3.582   3.857   1.485
 2915TIP3   OH2 8708   6.351   2.959   0.832
 2915TIP3    H1 8709   6.302   2.959   0.750
 2915TIP3    H2 8710   6.406   2.881   0.828
 2916TIP3   OH2 8711   6.283   3.869   4.051
 2916TIP3    H1 8712   6.208   3.810   4.044
 2916TIP3    H2 8713   6.267   3.920   4.131
 2917TIP3   OH2 8714   6.210   1.048   2.621
 2917TIP3    H1 8715   6.278   1.015   2.561
 2917TIP3    H2 8716   6.151   1.097   2.564
 2918TIP3   OH2 8717   5.144   5.325   4.730
 2918TIP3    H1 8718   5.151   5.348   4.823
 2918TIP3    H2 8719   5.059   5.360   4.703
 2919TIP3   OH2 8720   6.077   2.434   3.454
 2919TIP3    H1 8721   6.120   2.415   3.538
 2919TIP3    H2 8722   6.137   2.495   3.410
 2920TIP3   OH2 8723   6.920   5.146   0.360
 2920TIP3    H1 8724   6.947   5.064   0.318
 2920TIP3    H2 8725   6.999   5.199   0.363
 2921TIP3   OH2 8726   3.395   3.962   4.384
 2921TIP3    H1 8727   3.409   3.921   4.469
 2921TIP3    H2 8728   3.387   4.056   4.404
 2922TIP3   OH2 8729   2.638   5.902   5.669
 2922TIP3    H1 8730   2.698   5.868   5.602
 2922TIP3    H2 8731   2.569   5.946   5.619
 2923TIP3   OH2 8732   3.123   0.196   2.100
 2923TIP3    H1 8733   3.125   0.274   2.156
 2923TIP3    H2 8734   3.134   0.230   2.011
 2924TIP3   OH2 8735   4.372   6.251   1.223
 2924TIP3    H1 8736   4.314   6.234   1.148
 2924TIP3    H2 8737   4.314   6.248   1.299
 2925TIP3   OH2 8738   1.672   3.876   4.151
 2925TIP3    H1 8739   1.751   3.930   4.162
 2925TIP3    H2 8740   1.639   3.866   4.240
 2926TIP3   OH2 8741   6.859   2.316   3.383
 2926TIP3    H1 8742   6.945   2.302   3.343
 2926TIP3    H2 8743   6.877   2.377   3.455
 2927TIP3   OH2 8744   3.750   3.100   4.587
 2927TIP3    H1 8745   3.843   3.120   4.580
 2927TIP3    H2 8746   3.740   3.062   4.675
 2928TIP3   OH2 8747   6.032   2.739   3.601
 2928TIP3    H1 8748   5.959   2.729   3.541
 2928TIP3    H2 8749   6.015   2.674   3.670
 2929TIP3   OH2 8750   4.912   6.345   5.104
 2929TIP3    H1 8751   4.851   6.322   5.034
 2929TIP3    H2 8752   4.885   6.290   5.178
 2930TIP3   OH2 8753   4.514   0.923   0.098
 2930TIP3    H1 8754   4.596   0.964   0.127
 2930TIP3    H2 8755   4.453   0.937   0.169
 2931TIP3   OH2 8756   1.871   1.879   3.479
 2931TIP3    H1 8757   1.840   1.968   3.458
 2931TIP3    H2 8758   1.964   1.881   3.456
 2932TIP3   OH2 8759   3.780   2.319   3.499
 2932TIP3    H1 8760   3.788   2.332   3.594
 2932TIP3    H2 8761   3.798   2.226   3.487
 2933TIP3   OH2 8762   6.177   1.054   5.220
 2933TIP3    H1 8763   6.231   1.033   5.143
 2933TIP3    H2 8764   6.091   1.076   5.184
 2934TIP3   OH2 8765   5.230   1.567   2.986
 2934TIP3    H1 8766   5.197   1.657   2.984
 2934TIP3    H2 8767   5.198   1.529   2.904
 2935TIP3   OH2 8768   4.332   6.727   0.936
 2935TIP3    H1 8769   4.359   6.819   0.930
 2935TIP3    H2 8770   4.338   6.694   0.847
 2936TIP3   OH2 8771   3.333   6.370   4.775
 2936TIP3    H1 8772   3.303   6.284   4.806
 2936TIP3    H2 8773   3.283   6.433   4.826
 2937TIP3   OH2 8774   6.498   1.322   3.899
 2937TIP3    H1 8775   6.429   1.310   3.964
 2937TIP3    H2 8776   6.520   1.415   3.904
 2938TIP3   OH2 8777   3.217   2.658   5.498
 2938TIP3    H1 8778   3.296   2.646   5.551
 2938TIP3    H2 8779   3.250   2.692   5.414
 2939TIP3   OH2 8780   2.812   4.209   3.012
 2939TIP3    H1 8781   2.751   4.191   3.083
 2939TIP3    H2 8782   2.830   4.123   2.973
 2940TIP3   OH2 8783   2.565   5.041   1.827
 2940TIP3    H1 8784   2.567   5.093   1.747
 2940TIP3    H2 8785   2.647   5.063   1.872
 2941TIP3   OH2 8786   4.308   2.008   2.587
 2941TIP3    H1 8787   4.327   1.966   2.670
 2941TIP3    H2 8788   4.395   2.028   2.550
 2942TIP3   OH2 8789   0.819   5.435   0.809
 2942TIP3    H1 8790   0.862   5.400   0.730
 2942TIP3    H2 8791   0.786   5.357   0.854
 2943TIP3   OH2 8792   0.769   6.122   3.514
 2943TIP3    H1 8793   0.704   6.063   3.476
 2943TIP3    H2 8794   0.752   6.207   3.473
 2944TIP3   OH2 8795   5.971   4.328   5.289
 2944TIP3    H1 8796   5.998   4.403   5.342
 2944TIP3    H2 8797   5.934   4.366   5.210
 2945TIP3   OH2 8798   5.994   6.730   2.328
 2945TIP3    H1 8799   5.977   6.727   2.422
 2945TIP3    H2 8800   5.944   6.656   2.293
 2946TIP3   OH2 8801   0.572   2.286   3.790
 2946TIP3    H1 8802   0.542   2.297   3.700
 2946TIP3    H2 8803   0.529   2.357   3.839
 2947TIP3   OH2 8804   2.570   3.578   4.514
 2947TIP3    H1 8805   2.659   3.614   4.513
 2947TIP3    H2 8806   2.573   3.507   4.450
 2948TIP3   OH2 8807   1.048   5.039   3.853
 2948TIP3    H1 8808   1.097   5.085   3.921
 2948TIP3    H2 8809   1.044   4.948   3.884
 2949TIP3   OH2 8810   6.164   6.523   3.652
 2949TIP3    H1 8811   6.248   6.483   3.632
 2949TIP3    H2 8812   6.140   6.488   3.738
 2950TIP3   OH2 8813   1.921   2.620   4.267
 2950TIP3    H1 8814   1.848   2.558   4.259
 2950TIP3    H2 8815   1.893   2.680   4.336
 2951TIP3   OH2 8816   3.696   5.587   4.231
 2951TIP3    H1 8817   3.745   5.643   4.292
 2951TIP3    H2 8818   3.608   5.626   4.229
 2952TIP3   OH2 8819   6.524   6.091   2.384
 2952TIP3    H1 8820   6.565   6.091   2.470
 2952TIP3    H2 8821   6.591   6.128   2.326
 2953TIP3   OH2 8822   0.161   6.286   0.774
 2953TIP3    H1 8823   0.245   6.328   0.792
 2953TIP3    H2 8824   0.118   6.343   0.711
 2954TIP3   OH2 8825   1.360   3.537   1.321
 2954TIP3    H1 8826   1.296   3.468   1.337
 2954TIP3    H2 8827   1.418   3.535   1.397
 2955TIP3   OH2 8828   5.565   3.873   5.028
 2955TIP3    H1 8829   5.616   3.821   5.090
 2955TIP3    H2 8830   5.628   3.900   4.961
 2956TIP3   OH2 8831   6.737   2.005   0.150
 2956TIP3    H1 8832   6.701   2.084   0.111
 2956TIP3    H2 8833   6.831   2.012   0.135
 2957TIP3   OH2 8834   2.985   3.923   1.671
 2957TIP3    H1 8835   2.984   4.015   1.696
 2957TIP3    H2 8836   2.907   3.912   1.617
 2958TIP3   OH2 8837   4.854   4.244   2.511
 2958TIP3    H1 8838   4.838   4.320   2.454
 2958TIP3    H2 8839   4.949   4.239   2.517
 2959TIP3   OH2 8840   4.295   1.679   4.877
 2959TIP3    H1 8841   4.317   1.632   4.958
 2959TIP3    H2 8842   4.200   1.691   4.881
 2960TIP3   OH2 8843   5.844   5.295   0.766
 2960TIP3    H1 8844   5.913   5.345   0.809
 2960TIP3    H2 8845   5.836   5.334   0.679
 2961TIP3   OH2 8846   5.124   2.591   0.568
 2961TIP3    H1 8847   5.055   2.570   0.631
 2961TIP3    H2 8848   5.159   2.675   0.597
 2962TIP3   OH2 8849   4.715   3.052   1.781
 2962TIP3    H1 8850   4.680   3.139   1.762
 2962TIP3    H2 8851   4.674   3.026   1.863
 2963TIP3   OH2 8852   3.909   1.089   4.540
 2963TIP3    H1 8853   3.964   1.140   4.600
 2963TIP3    H2 8854   3.828   1.074   4.588
 2964TIP3   OH2 8855   6.845   6.319   2.176
 2964TIP3    H1 8856   6.866   6.327   2.269
 2964TIP3    H2 8857   6.880   6.399   2.137
 2965TIP3   OH2 8858   4.053   2.592   4.651
 2965TIP3    H1 8859   4.121   2.651   4.618
 2965TIP3    H2 8860   3.972   2.627   4.616
 2966TIP3   OH2 8861   0.358   2.096   2.128
 2966TIP3    H1 8862   0.284   2.038   2.145
 2966TIP3    H2 8863   0.343   2.172   2.185
 2967TIP3   OH2 8864   0.480   2.206   0.333
 2967TIP3    H1 8865   0.424   2.270   0.377
 2967TIP3    H2 8866   0.548   2.186   0.397
 2968TIP3   OH2 8867   1.317   3.351   4.964
 2968TIP3    H1 8868   1.315   3.378   4.872
 2968TIP3    H2 8869   1.242   3.395   5.004
 2969TIP3   OH2 8870   4.318   1.484   2.350
 2969TIP3    H1 8871   4.394   1.449   2.398
 2969TIP3    H2 8872   4.244   1.468   2.409
 2970TIP3   OH2 8873   1.694   3.318   4.463
 2970TIP3    H1 8874   1.648   3.393   4.500
 2970TIP3    H2 8875   1.784   3.349   4.451
 2971TIP3   OH2 8876   7.051   4.581   1.378
 2971TIP3    H1 8877   7.079   4.542   1.460
 2971TIP3    H2 8878   7.122   4.561   1.316
 2972TIP3   OH2 8879   6.106   6.344   3.862
 2972TIP3    H1 8880   6.170   6.281   3.895
 2972TIP3    H2 8881   6.031   6.290   3.836
 2973TIP3   OH2 8882   4.195   5.663   0.377
 2973TIP3    H1 8883   4.123   5.713   0.415
 2973TIP3    H2 8884   4.272   5.688   0.429
 2974TIP3   OH2 8885   2.405   1.273   0.927
 2974TIP3    H1 8886   2.425   1.290   1.019
 2974TIP3    H2 8887   2.428   1.181   0.914
 2975TIP3   OH2 8888   6.002   0.442   0.367
 2975TIP3    H1 8889   6.078   0.390   0.395
 2975TIP3    H2 8890   6.038   0.527   0.343
 2976TIP3   OH2 8891   4.379   3.339   5.616
 2976TIP3    H1 8892   4.338   3.261   5.653
 2976TIP3    H2 8893   4.373   3.327   5.522
 2977TIP3   OH2 8894   2.549   2.777   4.856
 2977TIP3    H1 8895   2.591   2.857   4.889
 2977TIP3    H2 8896   2.572   2.710   4.919
 2978TIP3   OH2 8897   3.934   5.730   2.422
 2978TIP3    H1 8898   4.028   5.719   2.430
 2978TIP3    H2 8899   3.909   5.676   2.347
 2979TIP3   OH2 8900   5.820   6.678   0.092
 2979TIP3    H1 8901   5.849   6.766   0.067
 2979TIP3    H2 8902   5.894   6.622   0.071
 2980TIP3   OH2 8903   5.708   4.451   3.146
 2980TIP3    H1 8904   5.768   4.441   3.072
 2980TIP3    H2 8905   5.763   4.435   3.223
 2981TIP3   OH2 8906   5.475   3.289   4.728
 2981TIP3    H1 8907   5.495   3.374   4.768
 2981TIP3    H2 8908   5.449   3.311   4.638
 2982TIP3   OH2 8909   4.519   5.626   3.521
 2982TIP3    H1 8910   4.609   5.656   3.503
 2982TIP3    H2 8911   4.519   5.534   3.497
 2983TIP3   OH2 8912   0.462   2.819   2.091
 2983TIP3    H1 8913   0.384   2.803   2.144
 2983TIP3    H2 8914   0.494   2.904   2.122
 2984TIP3   OH2 8915   6.938   6.289   5.150
 2984TIP3    H1 8916   6.915   6.316   5.238
 2984TIP3    H2 8917   7.011   6.346   5.125
 2985TIP3   OH2 8918   6.773   3.091   0.916
 2985TIP3    H1 8919   6.796   3.183   0.922
 2985TIP3    H2 8920   6.702   3.079   0.979
 2986TIP3   OH2 8921   6.083   6.484   0.711
 2986TIP3    H1 8922   6.058   6.393   0.693
 2986TIP3    H2 8923   6.172   6.492   0.678
 2987TIP3   OH2 8924   0.411   4.143   2.522
 2987TIP3    H1 8925   0.366   4.121   2.604
 2987TIP3    H2 8926   0.451   4.060   2.493
 2988TIP3   OH2 8927   1.350   5.652   0.096
 2988TIP3    H1 8928   1.347   5.677   0.004
 2988TIP3    H2 8929   1.384   5.729   0.141
 2989TIP3   OH2 8930   2.677   3.268   3.089
 2989TIP3    H1 8931   2.587   3.244   3.114
 2989TIP3    H2 8932   2.670   3.359   3.061
 2990TIP3   OH2 8933   5.943   0.629   2.086
 2990TIP3    H1 8934   6.020   0.616   2.030
 2990TIP3    H2 8935   5.910   0.541   2.102
 2991TIP3   OH2 8936   6.195   1.836   2.315
 2991TIP3    H1 8937   6.191   1.742   2.334
 2991TIP3    H2 8938   6.288   1.858   2.322
 2992TIP3   OH2 8939   7.032   4.798   4.747
 2992TIP3    H1 8940   6.944   4.767   4.724
 2992TIP3    H2 8941   7.039   4.883   4.706
 2993TIP3   OH2 8942   5.406   2.039   3.332
 2993TIP3    H1 8943   5.374   2.119   3.374
 2993TIP3    H2 8944   5.409   2.060   3.239
 2994TIP3   OH2 8945   1.810   5.330   4.424
 2994TIP3    H1 8946   1.788   5.408   4.372
 2994TIP3    H2 8947   1.847   5.269   4.360
 2995TIP3   OH2 8948   2.618   2.562   5.067
 2995TIP3    H1 8949   2.698   2.573   5.118
 2995TIP3    H2 8950   2.577   2.483   5.102
 2996TIP3   OH2 8951   1.958   0.421   2.513
 2996TIP3    H1 8952   1.877   0.418   2.564
 2996TIP3    H2 8953   1.979   0.329   2.495
 2997TIP3   OH2 8954   1.559   4.042   5.489
 2997TIP3    H1 8955   1.464   4.049   5.494
 2997TIP3    H2 8956   1.583   3.984   5.562
 2998TIP3   OH2 8957   1.585   2.709   4.195
 2998TIP3    H1 8958   1.584   2.705   4.291
 2998TIP3    H2 8959   1.495   2.686   4.170
 2999TIP3   OH2 8960   1.471   1.229   1.324
 2999TIP3    H1 8961   1.385   1.206   1.288
 2999TIP3    H2 8962   1.452   1.259   1.413
 3000TIP3   OH2 8963   3.811   4.740   0.625
 3000TIP3    H1 8964   3.832   4.703   0.711
 3000TIP3    H2 8965   3.753   4.675   0.584
 3001TIP3   OH2 8966   4.333   5.876   0.985
 3001TIP3    H1 8967   4.272   5.821   0.936
 3001TIP3    H2 8968   4.415   5.827   0.985
 3002TIP3   OH2 8969   1.926   2.820   2.088
 3002TIP3    H1 8970   1.854   2.764   2.117
 3002TIP3    H2 8971   2.001   2.761   2.084
 3003TIP3   OH2 8972   1.377   4.013   3.815
 3003TIP3    H1 8973   1.393   3.992   3.724
 3003TIP3    H2 8974   1.381   4.109   3.819
 3004TIP3   OH2 8975   7.213   6.061   5.605
 3004TIP3    H1 8976   7.227   6.043   5.512
 3004TIP3    H2 8977   7.119   6.076   5.612
 3005TIP3   OH2 8978   5.135   2.692   2.662
 3005TIP3    H1 8979   5.074   2.665   2.730
 3005TIP3    H2 8980   5.176   2.611   2.632
 3006TIP3   OH2 8981   0.702   4.852   2.279
 3006TIP3    H1 8982   0.726   4.768   2.318
 3006TIP3    H2 8983   0.639   4.829   2.210
 3007TIP3   OH2 8984   6.538   0.237   2.606
 3007TIP3    H1 8985   6.525   0.143   2.617
 3007TIP3    H2 8986   6.614   0.257   2.659
 3008TIP3   OH2 8987   6.926   1.329   2.730
 3008TIP3    H1 8988   6.898   1.261   2.791
 3008TIP3    H2 8989   6.848   1.381   2.713
 3009TIP3   OH2 8990   5.485   5.514   2.480
 3009TIP3    H1 8991   5.578   5.532   2.468
 3009TIP3    H2 8992   5.443   5.547   2.401
 3010TIP3   OH2 8993   5.887   3.097   1.178
 3010TIP3    H1 8994   5.937   3.161   1.229
 3010TIP3    H2 8995   5.953   3.056   1.122
 3011TIP3   OH2 8996   2.779   5.704   4.334
 3011TIP3    H1 8997   2.734   5.784   4.307
 3011TIP3    H2 8998   2.727   5.633   4.296
 3012TIP3   OH2 8999   5.873   4.373   0.809
 3012TIP3    H1 9000   5.878   4.333   0.722
 3012TIP3    H2 9001   5.786   4.350   0.840
 3013TIP3   OH2 9002   3.595   6.604   5.108
 3013TIP3    H1 9003   3.569   6.552   5.033
 3013TIP3    H2 9004   3.600   6.542   5.181
 3014TIP3   OH2 9005   5.840   2.512   1.805
 3014TIP3    H1 9006   5.826   2.546   1.893
 3014TIP3    H2 9007   5.753   2.518   1.763
 3015TIP3   OH2 9008   5.778   2.944   0.449
 3015TIP3    H1 9009   5.830   2.969   0.372
 3015TIP3    H2 9010   5.696   2.992   0.439
 3016TIP3   OH2 9011   1.433   0.940   0.603
 3016TIP3    H1 9012   1.460   0.990   0.526
 3016TIP3    H2 9013   1.356   0.986   0.636
 3017TIP3   OH2 9014   6.737   3.899   3.988
 3017TIP3    H1 9015   6.725   3.927   3.897
 3017TIP3    H2 9016   6.759   3.806   3.982
 3018TIP3   OH2 9017   4.333   3.105   5.237
 3018TIP3    H1 9018   4.426   3.104   5.258
 3018TIP3    H2 9019   4.302   3.017   5.259
 3019TIP3   OH2 9020   6.942   5.986   4.243
 3019TIP3    H1 9021   6.983   6.017   4.323
 3019TIP3    H2 9022   6.853   5.961   4.270
 3020TIP3   OH2 9023   4.925   3.433   3.041
 3020TIP3    H1 9024   4.913   3.525   3.064
 3020TIP3    H2 9025   4.981   3.435   2.964
 3021TIP3   OH2 9026   3.262   4.728   4.426
 3021TIP3    H1 9027   3.299   4.727   4.514
 3021TIP3    H2 9028   3.179   4.682   4.433
 3022TIP3   OH2 9029   3.510   4.229   3.693
 3022TIP3    H1 9030   3.600   4.255   3.674
 3022TIP3    H2 9031   3.464   4.240   3.611
 3023TIP3   OH2 9032   0.210   5.121   1.703
 3023TIP3    H1 9033   0.238   5.200   1.750
 3023TIP3    H2 9034   0.168   5.153   1.623
 3024TIP3   OH2 9035   2.860   5.819   1.161
 3024TIP3    H1 9036   2.953   5.824   1.141
 3024TIP3    H2 9037   2.818   5.806   1.075
 3025TIP3   OH2 9038   5.864   1.528   4.020
 3025TIP3    H1 9039   5.791   1.536   4.081
 3025TIP3    H2 9040   5.894   1.618   4.007
 3026TIP3   OH2 9041   4.139   0.291   5.374
 3026TIP3    H1 9042   4.193   0.338   5.310
 3026TIP3    H2 9043   4.150   0.199   5.351
 3027TIP3   OH2 9044   2.380   1.995   2.425
 3027TIP3    H1 9045   2.296   1.954   2.404
 3027TIP3    H2 9046   2.393   2.059   2.355
 3028TIP3   OH2 9047   5.546   2.319   2.851
 3028TIP3    H1 9048   5.548   2.337   2.757
 3028TIP3    H2 9049   5.459   2.347   2.879
 3029TIP3   OH2 9050   4.797   3.909   2.652
 3029TIP3    H1 9051   4.869   3.953   2.696
 3029TIP3    H2 9052   4.838   3.849   2.591
 3030TIP3   OH2 9053   2.011   2.830   4.857
 3030TIP3    H1 9054   2.103   2.830   4.882
 3030TIP3    H2 9055   1.966   2.791   4.932
 3031TIP3   OH2 9056   4.623   2.263   1.941
 3031TIP3    H1 9057   4.601   2.217   2.022
 3031TIP3    H2 9058   4.686   2.330   1.967
 3032TIP3   OH2 9059   6.996   2.356   3.027
 3032TIP3    H1 9060   6.979   2.268   2.993
 3032TIP3    H2 9061   7.063   2.344   3.094
 3033TIP3   OH2 9062   2.321   6.158   3.894
 3033TIP3    H1 9063   2.376   6.085   3.924
 3033TIP3    H2 9064   2.302   6.137   3.803
 3034TIP3   OH2 9065   7.117   3.767   0.736
 3034TIP3    H1 9066   7.152   3.789   0.650
 3034TIP3    H2 9067   7.119   3.849   0.785
 3035TIP3   OH2 9068   4.563   1.584   4.999
 3035TIP3    H1 9069   4.573   1.548   4.911
 3035TIP3    H2 9070   4.651   1.580   5.037
 3036TIP3   OH2 9071   5.603   0.337   4.578
 3036TIP3    H1 9072   5.600   0.306   4.669
 3036TIP3    H2 9073   5.696   0.333   4.555
 3037TIP3   OH2 9074   3.202   5.423   5.052
 3037TIP3    H1 9075   3.258   5.467   4.988
 3037TIP3    H2 9076   3.115   5.422   5.012
 3038TIP3   OH2 9077   6.117   1.994   4.053
 3038TIP3    H1 9078   6.117   1.899   4.049
 3038TIP3    H2 9079   6.025   2.019   4.041
 3039TIP3   OH2 9080   4.267   5.947   2.743
 3039TIP3    H1 9081   4.276   6.037   2.712
 3039TIP3    H2 9082   4.357   5.916   2.754
 3040TIP3   OH2 9083   2.544   3.901   3.406
 3040TIP3    H1 9084   2.523   3.815   3.442
 3040TIP3    H2 9085   2.508   3.963   3.470
 3041TIP3   OH2 9086  -0.009   4.571   4.296
 3041TIP3    H1 9087  -0.007   4.632   4.222
 3041TIP3    H2 9088   0.082   4.564   4.324
 3042TIP3   OH2 9089   4.649   1.506   1.874
 3042TIP3    H1 9090   4.632   1.590   1.915
 3042TIP3    H2 9091   4.707   1.460   1.935
 3043TIP3   OH2 9092   6.996   4.449   1.082
 3043TIP3    H1 9093   6.983   4.540   1.108
 3043TIP3    H2 9094   6.953   4.398   1.150
 3044TIP3   OH2 9095   6.619   3.306   4.247
 3044TIP3    H1 9096   6.698   3.258   4.221
 3044TIP3    H2 9097   6.649   3.368   4.313
 3045TIP3   OH2 9098   1.694   0.811   2.610
 3045TIP3    H1 9099   1.661   0.736   2.660
 3045TIP3    H2 9100   1.666   0.888   2.659
 3046TIP3   OH2 9101   5.458   4.912   3.526
 3046TIP3    H1 9102   5.386   4.853   3.547
 3046TIP3    H2 9103   5.514   4.910   3.604
 3047TIP3   OH2 9104   6.179   0.073   5.616
 3047TIP3    H1 9105   6.135  -0.003   5.653
 3047TIP3    H2 9106   6.270   0.045   5.605
 3048TIP3   OH2 9107   3.283   4.588   2.881
 3048TIP3    H1 9108   3.234   4.550   2.808
 3048TIP3    H2 9109   3.355   4.636   2.840
 3049TIP3   OH2 9110   2.295   6.700   0.309
 3049TIP3    H1 9111   2.292   6.787   0.268
 3049TIP3    H2 9112   2.203   6.680   0.329
 3050TIP3   OH2 9113   0.526   3.724   2.050
 3050TIP3    H1 9114   0.450   3.705   1.995
 3050TIP3    H2 9115   0.489   3.763   2.129
 3051TIP3   OH2 9116   1.223   3.056   2.453
 3051TIP3    H1 9117   1.249   2.967   2.476
 3051TIP3    H2 9118   1.304   3.098   2.424
 3052TIP3   OH2 9119   5.556   3.834   1.508
 3052TIP3    H1 9120   5.581   3.781   1.432
 3052TIP3    H2 9121   5.522   3.915   1.470
 3053TIP3   OH2 9122   5.508   5.120   1.657
 3053TIP3    H1 9123   5.454   5.182   1.706
 3053TIP3    H2 9124   5.571   5.087   1.722
 3054TIP3   OH2 9125   6.745   4.989   2.607
 3054TIP3    H1 9126   6.668   4.933   2.599
 3054TIP3    H2 9127   6.712   5.077   2.592
 3055TIP3   OH2 9128   5.342   5.678   2.289
 3055TIP3    H1 9129   5.382   5.748   2.340
 3055TIP3    H2 9130   5.249   5.702   2.285
 3056TIP3   OH2 9131   3.256   3.396   3.149
 3056TIP3    H1 9132   3.274   3.312   3.106
 3056TIP3    H2 9133   3.279   3.462   3.084
 3057TIP3   OH2 9134   6.225   2.155   2.924
 3057TIP3    H1 9135   6.214   2.125   3.015
 3057TIP3    H2 9136   6.167   2.231   2.916
 3058TIP3   OH2 9137   2.092   4.048   5.408
 3058TIP3    H1 9138   2.089   4.013   5.497
 3058TIP3    H2 9139   2.071   3.973   5.353
 3059TIP3   OH2 9140   6.879   1.962   4.085
 3059TIP3    H1 9141   6.822   1.909   4.142
 3059TIP3    H2 9142   6.893   2.042   4.135
 3060TIP3   OH2 9143   0.976   6.085   3.702
 3060TIP3    H1 9144   0.954   6.119   3.789
 3060TIP3    H2 9145   0.895   6.090   3.653
 3061TIP3   OH2 9146   4.318   2.308   5.668
 3061TIP3    H1 9147   4.245   2.310   5.607
 3061TIP3    H2 9148   4.281   2.268   5.747
 3062TIP3   OH2 9149   3.106   3.291   1.500
 3062TIP3    H1 9150   3.104   3.385   1.522
 3062TIP3    H2 9151   3.193   3.278   1.462
 3063TIP3   OH2 9152   4.000   0.276   2.578
 3063TIP3    H1 9153   3.989   0.263   2.672
 3063TIP3    H2 9154   4.072   0.339   2.572
 3064TIP3   OH2 9155   6.535   4.714   2.992
 3064TIP3    H1 9156   6.480   4.781   2.950
 3064TIP3    H2 9157   6.561   4.754   3.075
 3065TIP3   OH2 9158   1.391   4.585   3.737
 3065TIP3    H1 9159   1.306   4.566   3.697
 3065TIP3    H2 9160   1.384   4.677   3.764
 3066TIP3   OH2 9161   0.459   5.894   3.719
 3066TIP3    H1 9162   0.415   5.910   3.802
 3066TIP3    H2 9163   0.459   5.980   3.675
 3067TIP3   OH2 9164   2.390   3.225   3.113
 3067TIP3    H1 9165   2.320   3.233   3.048
 3067TIP3    H2 9166   2.345   3.227   3.197
 3068TIP3   OH2 9167   4.254   6.337   0.309
 3068TIP3    H1 9168   4.339   6.306   0.340
 3068TIP3    H2 9169   4.252   6.314   0.216
 3069TIP3   OH2 9170   1.409   4.741   2.140
 3069TIP3    H1 9171   1.489   4.700   2.107
 3069TIP3    H2 9172   1.339   4.680   2.119
 3070TIP3   OH2 9173   2.558   6.800   0.464
 3070TIP3    H1 9174   2.469   6.793   0.499
 3070TIP3    H2 9175   2.552   6.761   0.377
 3071TIP3   OH2 9176   6.234   4.273   3.468
 3071TIP3    H1 9177   6.158   4.312   3.511
 3071TIP3    H2 9178   6.227   4.180   3.488
 3072TIP3   OH2 9179   0.179   1.255   4.429
 3072TIP3    H1 9180   0.124   1.328   4.404
 3072TIP3    H2 9181   0.261   1.295   4.459
 3073TIP3   OH2 9182   6.815   2.589   3.883
 3073TIP3    H1 9183   6.779   2.505   3.856
 3073TIP3    H2 9184   6.745   2.653   3.865
 3074TIP3   OH2 9185   5.294   0.211   4.232
 3074TIP3    H1 9186   5.353   0.209   4.308
 3074TIP3    H2 9187   5.250   0.296   4.239
 3075TIP3   OH2 9188   3.667   3.355   3.050
 3075TIP3    H1 9189   3.682   3.380   3.142
 3075TIP3    H2 9190   3.733   3.288   3.032
 3076TIP3   OH2 9191   0.359   5.494   1.415
 3076TIP3    H1 9192   0.282   5.521   1.465
 3076TIP3    H2 9193   0.337   5.514   1.324
 3077TIP3   OH2 9194   5.203   0.889   4.109
 3077TIP3    H1 9195   5.144   0.841   4.051
 3077TIP3    H2 9196   5.157   0.972   4.125
 3078TIP3   OH2 9197   0.219   0.655   3.529
 3078TIP3    H1 9198   0.130   0.679   3.556
 3078TIP3    H2 9199   0.252   0.600   3.600
 3079TIP3   OH2 9200   0.198   2.400   3.130
 3079TIP3    H1 9201   0.291   2.416   3.116
 3079TIP3    H2 9202   0.160   2.487   3.141
 3080TIP3   OH2 9203   5.382   2.491   0.795
 3080TIP3    H1 9204   5.459   2.498   0.739
 3080TIP3    H2 9205   5.416   2.500   0.884
 3081TIP3   OH2 9206   1.980   0.394   0.717
 3081TIP3    H1 9207   1.967   0.486   0.740
 3081TIP3    H2 9208   1.922   0.346   0.776
 3082TIP3   OH2 9209   2.262   4.794   2.022
 3082TIP3    H1 9210   2.193   4.735   2.055
 3082TIP3    H2 9211   2.254   4.873   2.075
 3083TIP3   OH2 9212   2.375   5.846   3.642
 3083TIP3    H1 9213   2.412   5.875   3.558
 3083TIP3    H2 9214   2.339   5.759   3.623
 3084TIP3   OH2 9215   1.211   1.442   3.820
 3084TIP3    H1 9216   1.128   1.393   3.814
 3084TIP3    H2 9217   1.255   1.406   3.897
 3085TIP3   OH2 9218   7.072   1.347   2.457
 3085TIP3    H1 9219   7.085   1.440   2.437
 3085TIP3    H2 9220   7.004   1.319   2.396
 3086TIP3   OH2 9221   3.295   6.137   0.190
 3086TIP3    H1 9222   3.330   6.160   0.104
 3086TIP3    H2 9223   3.209   6.099   0.170
 3087TIP3   OH2 9224   4.491   0.030   4.130
 3087TIP3    H1 9225   4.481   0.047   4.224
 3087TIP3    H2 9226   4.531  -0.057   4.126
 3088TIP3   OH2 9227   0.559   2.743   4.752
 3088TIP3    H1 9228   0.489   2.694   4.709
 3088TIP3    H2 9229   0.529   2.752   4.843
 3089TIP3   OH2 9230   6.343   4.162   0.406
 3089TIP3    H1 9231   6.261   4.113   0.407
 3089TIP3    H2 9232   6.372   4.159   0.314
 3090TIP3   OH2 9233   5.195   6.573   1.054
 3090TIP3    H1 9234   5.255   6.530   1.115
 3090TIP3    H2 9235   5.144   6.633   1.109
 3091TIP3   OH2 9236   4.790   1.393   2.096
 3091TIP3    H1 9237   4.699   1.385   2.124
 3091TIP3    H2 9238   4.804   1.320   2.036
 3092TIP3   OH2 9239   4.357   5.679   3.960
 3092TIP3    H1 9240   4.315   5.761   3.937
 3092TIP3    H2 9241   4.436   5.676   3.906
 3093TIP3   OH2 9242   6.971   6.101   2.081
 3093TIP3    H1 9243   7.061   6.125   2.104
 3093TIP3    H2 9244   6.921   6.181   2.093
 3094TIP3   OH2 9245   0.014   1.011   5.266
 3094TIP3    H1 9246   0.036   0.918   5.264
 3094TIP3    H2 9247   0.065   1.049   5.194
 3095TIP3   OH2 9248   1.829   5.306   1.070
 3095TIP3    H1 9249   1.849   5.219   1.037
 3095TIP3    H2 9250   1.774   5.346   1.002
 3096TIP3   OH2 9251   6.051   0.812   2.272
 3096TIP3    H1 9252   6.068   0.733   2.323
 3096TIP3    H2 9253   6.018   0.779   2.188
 3097TIP3   OH2 9254   4.495   3.868   5.776
 3097TIP3    H1 9255   4.403   3.843   5.774
 3097TIP3    H2 9256   4.537   3.814   5.709
 3098TIP3   OH2 9257   2.957   5.158   2.699
 3098TIP3    H1 9258   3.022   5.194   2.759
 3098TIP3    H2 9259   2.898   5.107   2.756
 3099TIP3   OH2 9260   3.434   0.124   3.539
 3099TIP3    H1 9261   3.511   0.111   3.594
 3099TIP3    H2 9262   3.383   0.044   3.550
 3100TIP3   OH2 9263   6.883   4.370   4.685
 3100TIP3    H1 9264   6.937   4.421   4.746
 3100TIP3    H2 9265   6.818   4.327   4.742
 3101TIP3   OH2 9266   4.872   5.529   5.665
 3101TIP3    H1 9267   4.928   5.469   5.617
 3101TIP3    H2 9268   4.785   5.518   5.626
 3102TIP3   OH2 9269   3.379   1.491   1.184
 3102TIP3    H1 9270   3.436   1.544   1.239
 3102TIP3    H2 9271   3.356   1.416   1.239
 3103TIP3   OH2 9272   1.477   1.908   3.334
 3103TIP3    H1 9273   1.471   1.982   3.274
 3103TIP3    H2 9274   1.429   1.938   3.412
 3104TIP3   OH2 9275   3.225   5.966   4.695
 3104TIP3    H1 9276   3.265   5.981   4.609
 3104TIP3    H2 9277   3.212   5.872   4.699
 3105TIP3   OH2 9278   0.198   5.630   3.981
 3105TIP3    H1 9279   0.209   5.718   4.019
 3105TIP3    H2 9280   0.283   5.588   3.994
 3106TIP3   OH2 9281   2.553   1.188   4.773
 3106TIP3    H1 9282   2.628   1.169   4.718
 3106TIP3    H2 9283   2.479   1.196   4.712
 3107TIP3   OH2 9284   5.562   3.488   4.315
 3107TIP3    H1 9285   5.643   3.538   4.308
 3107TIP3    H2 9286   5.548   3.477   4.409
 3108TIP3   OH2 9287   6.415   5.625   2.634
 3108TIP3    H1 9288   6.323   5.649   2.646
 3108TIP3    H2 9289   6.440   5.583   2.716
 3109TIP3   OH2 9290   2.351   4.293   5.679
 3109TIP3    H1 9291   2.392   4.329   5.757
 3109TIP3    H2 9292   2.262   4.329   5.680
 3110TIP3   OH2 9293   3.716   4.460   4.293
 3110TIP3    H1 9294   3.673   4.454   4.378
 3110TIP3    H2 9295   3.667   4.526   4.245
 3111TIP3   OH2 9296   6.474   6.098   5.657
 3111TIP3    H1 9297   6.429   6.129   5.736
 3111TIP3    H2 9298   6.449   6.160   5.589
 3112TIP3   OH2 9299   6.397   4.271   1.695
 3112TIP3    H1 9300   6.452   4.289   1.619
 3112TIP3    H2 9301   6.343   4.197   1.669
 3113TIP3   OH2 9302   6.264   5.884   0.699
 3113TIP3    H1 9303   6.269   5.974   0.730
 3113TIP3    H2 9304   6.355   5.854   0.697
 3114TIP3   OH2 9305   0.924   4.233   3.830
 3114TIP3    H1 9306   0.873   4.217   3.910
 3114TIP3    H2 9307   0.918   4.152   3.781
 3115TIP3   OH2 9308   7.145   0.774   3.873
 3115TIP3    H1 9309   7.143   0.869   3.879
 3115TIP3    H2 9310   7.114   0.744   3.959
 3116TIP3   OH2 9311   0.164   3.180   5.673
 3116TIP3    H1 9312   0.192   3.159   5.584
 3116TIP3    H2 9313   0.246   3.194   5.721
 3117TIP3   OH2 9314   4.944   5.511   5.286
 3117TIP3    H1 9315   4.998   5.589   5.296
 3117TIP3    H2 9316   4.854   5.541   5.303
 3118TIP3   OH2 9317   1.205   5.393   3.444
 3118TIP3    H1 9318   1.157   5.471   3.416
 3118TIP3    H2 9319   1.147   5.352   3.508
 3119TIP3   OH2 9320   5.824   3.823   2.834
 3119TIP3    H1 9321   5.761   3.775   2.780
 3119TIP3    H2 9322   5.774   3.847   2.912
 3120TIP3   OH2 9323   4.327   5.137   3.437
 3120TIP3    H1 9324   4.259   5.107   3.498
 3120TIP3    H2 9325   4.287   5.127   3.350
 3121TIP3   OH2 9326   3.257   3.217   5.072
 3121TIP3    H1 9327   3.294   3.132   5.097
 3121TIP3    H2 9328   3.171   3.196   5.036
 3122TIP3   OH2 9329   2.492   3.188   1.630
 3122TIP3    H1 9330   2.462   3.134   1.557
 3122TIP3    H2 9331   2.553   3.133   1.677
 3123TIP3   OH2 9332   3.275   2.684   2.034
 3123TIP3    H1 9333   3.339   2.739   2.080
 3123TIP3    H2 9334   3.236   2.630   2.103
 3124TIP3   OH2 9335   0.763   1.015   3.200
 3124TIP3    H1 9336   0.796   0.935   3.158
 3124TIP3    H2 9337   0.774   0.999   3.294
 3125TIP3   OH2 9338   4.544   6.169   5.815
 3125TIP3    H1 9339   4.501   6.092   5.779
 3125TIP3    H2 9340   4.479   6.208   5.874
 3126TIP3   OH2 9341   0.357   2.755   3.795
 3126TIP3    H1 9342   0.307   2.827   3.834
 3126TIP3    H2 9343   0.372   2.783   3.705
 3127TIP3   OH2 9344   3.260   4.528   1.100
 3127TIP3    H1 9345   3.288   4.449   1.055
 3127TIP3    H2 9346   3.293   4.600   1.046
 3128TIP3   OH2 9347   7.146   5.932   4.850
 3128TIP3    H1 9348   7.145   5.873   4.775
 3128TIP3    H2 9349   7.156   6.019   4.811
 3129TIP3   OH2 9350   5.391   3.474   0.651
 3129TIP3    H1 9351   5.382   3.428   0.568
 3129TIP3    H2 9352   5.389   3.405   0.717
 3130TIP3   OH2 9353   6.385   1.477   4.258
 3130TIP3    H1 9354   6.378   1.572   4.264
 3130TIP3    H2 9355   6.477   1.458   4.278
 3131TIP3   OH2 9356   0.281   4.341   1.862
 3131TIP3    H1 9357   0.270   4.356   1.768
 3131TIP3    H2 9358   0.339   4.412   1.891
 3132TIP3   OH2 9359   4.422   5.279   1.667
 3132TIP3    H1 9360   4.393   5.341   1.734
 3132TIP3    H2 9361   4.515   5.295   1.657
 3133TIP3   OH2 9362   3.358   3.072   0.068
 3133TIP3    H1 9363   3.333   2.987   0.033
 3133TIP3    H2 9364   3.350   3.132  -0.006
 3134TIP3   OH2 9365   3.916   6.531   3.586
 3134TIP3    H1 9366   3.833   6.517   3.540
 3134TIP3    H2 9367   3.933   6.625   3.576
 3135TIP3   OH2 9368   2.489   3.057   1.387
 3135TIP3    H1 9369   2.414   3.023   1.339
 3135TIP3    H2 9370   2.539   3.106   1.321
 3136TIP3   OH2 9371   3.993   3.153   5.408
 3136TIP3    H1 9372   3.992   3.156   5.313
 3136TIP3    H2 9373   3.994   3.245   5.434
 3137TIP3   OH2 9374   4.052   1.156   4.073
 3137TIP3    H1 9375   4.053   1.232   4.015
 3137TIP3    H2 9376   4.008   1.188   4.152
 3138TIP3   OH2 9377   4.463   2.455   2.152
 3138TIP3    H1 9378   4.474   2.520   2.222
 3138TIP3    H2 9379   4.548   2.455   2.107
 3139TIP3   OH2 9380   7.118   0.015   0.696
 3139TIP3    H1 9381   7.091   0.100   0.731
 3139TIP3    H2 9382   7.155  -0.032   0.771
 3140TIP3   OH2 9383   2.659   2.960   0.893
 3140TIP3    H1 9384   2.744   2.924   0.921
 3140TIP3    H2 9385   2.635   2.909   0.816
 3141TIP3   OH2 9386   7.007   2.434   2.723
 3141TIP3    H1 9387   7.097   2.421   2.695
 3141TIP3    H2 9388   7.009   2.422   2.818
 3142TIP3   OH2 9389   2.847   4.172   5.332
 3142TIP3    H1 9390   2.794   4.094   5.318
 3142TIP3    H2 9391   2.814   4.236   5.269
 3143TIP3   OH2 9392   3.913   6.039   2.112
 3143TIP3    H1 9393   3.986   6.083   2.155
 3143TIP3    H2 9394   3.851   6.109   2.092
 3144TIP3   OH2 9395   1.594   1.522   4.496
 3144TIP3    H1 9396   1.616   1.434   4.527
 3144TIP3    H2 9397   1.588   1.575   4.576
 3145TIP3   OH2 9398   3.357   5.436   2.807
 3145TIP3    H1 9399   3.363   5.348   2.843
 3145TIP3    H2 9400   3.366   5.494   2.883
 3146TIP3   OH2 9401   0.687   5.889   3.899
 3146TIP3    H1 9402   0.596   5.900   3.873
 3146TIP3    H2 9403   0.683   5.876   3.994
 3147TIP3   OH2 9404   3.942   0.983   4.844
 3147TIP3    H1 9405   3.906   1.063   4.882
 3147TIP3    H2 9406   4.032   1.006   4.823
 3148TIP3   OH2 9407   3.033   3.132   4.516
 3148TIP3    H1 9408   2.956   3.086   4.483
 3148TIP3    H2 9409   3.072   3.172   4.439
 3149TIP3   OH2 9410   1.899   3.580   2.653
 3149TIP3    H1 9411   1.945   3.496   2.650
 3149TIP3    H2 9412   1.922   3.617   2.738
 3150TIP3   OH2 9413   4.085   1.444   2.471
 3150TIP3    H1 9414   4.072   1.437   2.566
 3150TIP3    H2 9415   4.000   1.419   2.434
 3151TIP3   OH2 9416   0.903   1.534   0.076
 3151TIP3    H1 9417   0.824   1.503   0.121
 3151TIP3    H2 9418   0.874   1.550  -0.014
 3152TIP3   OH2 9419   6.983   3.833   4.402
 3152TIP3    H1 9420   6.991   3.928   4.408
 3152TIP3    H2 9421   6.900   3.814   4.446
 3153TIP3   OH2 9422   3.240   1.132   1.655
 3153TIP3    H1 9423   3.225   1.039   1.641
 3153TIP3    H2 9424   3.177   1.176   1.598
 3154TIP3   OH2 9425   2.200   2.130   2.621
 3154TIP3    H1 9426   2.267   2.097   2.561
 3154TIP3    H2 9427   2.249   2.170   2.693
 3155TIP3   OH2 9428   0.561   1.926   0.927
 3155TIP3    H1 9429   0.603   1.946   1.011
 3155TIP3    H2 9430   0.473   1.962   0.934
 3156TIP3   OH2 9431   6.743   5.771   3.964
 3156TIP3    H1 9432   6.724   5.711   3.892
 3156TIP3    H2 9433   6.813   5.827   3.932
 3157TIP3   OH2 9434   4.444   4.878   5.616
 3157TIP3    H1 9435   4.447   4.863   5.522
 3157TIP3    H2 9436   4.364   4.929   5.630
 3158TIP3   OH2 9437   5.296   1.856   2.564
 3158TIP3    H1 9438   5.204   1.864   2.538
 3158TIP3    H2 9439   5.293   1.814   2.649
 3159TIP3   OH2 9440   1.735   5.371   2.085
 3159TIP3    H1 9441   1.655   5.338   2.127
 3159TIP3    H2 9442   1.704   5.425   2.013
 3160TIP3   OH2 9443   5.377   1.117   3.950
 3160TIP3    H1 9444   5.396   1.129   3.857
 3160TIP3    H2 9445   5.312   1.184   3.969
 3161TIP3   OH2 9446   2.208   1.654   5.569
 3161TIP3    H1 9447   2.297   1.648   5.602
 3161TIP3    H2 9448   2.168   1.570   5.595
 3162TIP3   OH2 9449   4.412   1.923   4.804
 3162TIP3    H1 9450   4.336   1.952   4.754
 3162TIP3    H2 9451   4.398   1.829   4.818
 3163TIP3   OH2 9452   1.909   2.565   3.694
 3163TIP3    H1 9453   1.897   2.561   3.599
 3163TIP3    H2 9454   1.820   2.573   3.729
 3164TIP3   OH2 9455   1.994   1.572   3.403
 3164TIP3    H1 9456   2.069   1.594   3.458
 3164TIP3    H2 9457   1.946   1.507   3.454
 3165TIP3   OH2 9458   1.393   2.910   4.585
 3165TIP3    H1 9459   1.436   2.967   4.648
 3165TIP3    H2 9460   1.352   2.842   4.638
 3166TIP3   OH2 9461   0.827   6.676   3.210
 3166TIP3    H1 9462   0.867   6.755   3.247
 3166TIP3    H2 9463   0.746   6.664   3.259
 3167TIP3   OH2 9464   2.338   3.914   0.421
 3167TIP3    H1 9465   2.291   3.906   0.339
 3167TIP3    H2 9466   2.361   4.007   0.427
 3168TIP3   OH2 9467   5.901   2.260   1.793
 3168TIP3    H1 9468   5.982   2.251   1.843
 3168TIP3    H2 9469   5.884   2.354   1.794
 3169TIP3   OH2 9470   4.016   2.715   0.095
 3169TIP3    H1 9471   4.109   2.717   0.074
 3169TIP3    H2 9472   4.007   2.644   0.159
 3170TIP3   OH2 9473   6.575   4.443   2.242
 3170TIP3    H1 9474   6.658   4.448   2.290
 3170TIP3    H2 9475   6.545   4.354   2.255
 3171TIP3   OH2 9476   6.172   0.991   0.906
 3171TIP3    H1 9477   6.198   0.902   0.930
 3171TIP3    H2 9478   6.202   1.045   0.979
 3172TIP3   OH2 9479   4.315   4.810   3.292
 3172TIP3    H1 9480   4.313   4.813   3.387
 3172TIP3    H2 9481   4.269   4.890   3.264
 3173TIP3   OH2 9482   0.326   5.742   4.706
 3173TIP3    H1 9483   0.281   5.823   4.683
 3173TIP3    H2 9484   0.272   5.673   4.668
 3174TIP3   OH2 9485   1.422   3.957   3.551
 3174TIP3    H1 9486   1.472   3.907   3.486
 3174TIP3    H2 9487   1.372   4.020   3.499
 3175TIP3   OH2 9488   6.224   2.440   3.695
 3175TIP3    H1 9489   6.195   2.395   3.775
 3175TIP3    H2 9490   6.258   2.524   3.726
 3176TIP3   OH2 9491   2.583   2.538   0.990
 3176TIP3    H1 9492   2.603   2.557   1.082
 3176TIP3    H2 9493   2.650   2.475   0.964
 3177TIP3   OH2 9494   6.792   5.669   2.050
 3177TIP3    H1 9495   6.829   5.598   1.997
 3177TIP3    H2 9496   6.746   5.625   2.121
 3178TIP3   OH2 9497   6.585   4.597   5.574
 3178TIP3    H1 9498   6.666   4.635   5.606
 3178TIP3    H2 9499   6.528   4.671   5.556
 3179TIP3   OH2 9500   5.123   6.527   5.102
 3179TIP3    H1 9501   5.201   6.506   5.154
 3179TIP3    H2 9502   5.069   6.448   5.108
 3180TIP3   OH2 9503   4.956   4.613   1.755
 3180TIP3    H1 9504   4.878   4.640   1.802
 3180TIP3    H2 9505   4.972   4.523   1.784
 3181TIP3   OH2 9506   3.275   2.424   3.810
 3181TIP3    H1 9507   3.370   2.415   3.812
 3181TIP3    H2 9508   3.258   2.485   3.739
 3182TIP3   OH2 9509   3.944   0.608   5.277
 3182TIP3    H1 9510   3.986   0.694   5.274
 3182TIP3    H2 9511   3.993   0.559   5.343
 3183TIP3   OH2 9512   7.231   1.288   5.277
 3183TIP3    H1 9513   7.236   1.196   5.303
 3183TIP3    H2 9514   7.138   1.309   5.279
 3184TIP3   OH2 9515   3.908   1.224   1.657
 3184TIP3    H1 9516   3.818   1.224   1.691
 3184TIP3    H2 9517   3.952   1.293   1.707
 3185TIP3   OH2 9518   5.430   3.026   2.656
 3185TIP3    H1 9519   5.366   2.988   2.716
 3185TIP3    H2 9520   5.401   3.001   2.569
 3186TIP3   OH2 9521   1.661   2.337   1.674
 3186TIP3    H1 9522   1.693   2.423   1.700
 3186TIP3    H2 9523   1.705   2.319   1.591
 3187TIP3   OH2 9524   6.452   1.473   4.777
 3187TIP3    H1 9525   6.503   1.409   4.728
 3187TIP3    H2 9526   6.403   1.521   4.709
 3188TIP3   OH2 9527   1.350   1.638   4.145
 3188TIP3    H1 9528   1.334   1.550   4.112
 3188TIP3    H2 9529   1.443   1.653   4.131
 3189TIP3   OH2 9530   4.961   1.976   2.939
 3189TIP3    H1 9531   4.956   2.062   2.897
 3189TIP3    H2 9532   5.026   1.928   2.888
 3190TIP3   OH2 9533   0.842   6.128   3.952
 3190TIP3    H1 9534   0.781   6.191   3.912
 3190TIP3    H2 9535   0.811   6.043   3.921
 3191TIP3   OH2 9536   3.927   4.824   1.307
 3191TIP3    H1 9537   3.855   4.852   1.250
 3191TIP3    H2 9538   4.003   4.869   1.272
 3192TIP3   OH2 9539   5.700   0.422   3.123
 3192TIP3    H1 9540   5.705   0.427   3.218
 3192TIP3    H2 9541   5.635   0.354   3.105
 3193TIP3   OH2 9542   2.042   3.541   4.117
 3193TIP3    H1 9543   1.954   3.565   4.087
 3193TIP3    H2 9544   2.027   3.492   4.198
 3194TIP3   OH2 9545   2.162   0.587   1.654
 3194TIP3    H1 9546   2.184   0.548   1.739
 3194TIP3    H2 9547   2.229   0.654   1.641
 3195TIP3   OH2 9548   0.840   6.408   5.254
 3195TIP3    H1 9549   0.863   6.393   5.162
 3195TIP3    H2 9550   0.783   6.334   5.277
 3196TIP3   OH2 9551   1.857   0.702   1.176
 3196TIP3    H1 9552   1.926   0.717   1.113
 3196TIP3    H2 9553   1.787   0.660   1.126
 3197TIP3   OH2 9554   6.399   4.823   0.791
 3197TIP3    H1 9555   6.377   4.771   0.714
 3197TIP3    H2 9556   6.456   4.893   0.758
 3198TIP3   OH2 9557   0.891   3.553   2.259
 3198TIP3    H1 9558   0.812   3.591   2.220
 3198TIP3    H2 9559   0.862   3.471   2.299
 3199TIP3   OH2 9560   2.375   1.660   1.829
 3199TIP3    H1 9561   2.425   1.581   1.808
 3199TIP3    H2 9562   2.332   1.640   1.912
 3200TIP3   OH2 9563   1.861   0.037   0.055
 3200TIP3    H1 9564   1.876   0.099   0.127
 3200TIP3    H2 9565   1.883  -0.049   0.092
 3201TIP3   OH2 9566   6.144   5.011   4.863
 3201TIP3    H1 9567   6.100   4.930   4.887
 3201TIP3    H2 9568   6.177   5.046   4.945
 3202TIP3   OH2 9569   1.231   0.984   4.593
 3202TIP3    H1 9570   1.264   1.070   4.617
 3202TIP3    H2 9571   1.151   0.973   4.645
 3203TIP3   OH2 9572   6.492   2.276   4.946
 3203TIP3    H1 9573   6.578   2.279   4.986
 3203TIP3    H2 9574   6.432   2.306   5.015
 3204TIP3   OH2 9575   0.089   2.157   4.329
 3204TIP3    H1 9576   0.080   2.164   4.234
 3204TIP3    H2 9577   0.001   2.140   4.360
 3205TIP3   OH2 9578   4.042   3.974   4.286
 3205TIP3    H1 9579   4.075   3.984   4.376
 3205TIP3    H2 9580   3.955   4.014   4.289
 3206TIP3   OH2 9581   5.729   2.006   2.530
 3206TIP3    H1 9582   5.705   1.950   2.604
 3206TIP3    H2 9583   5.658   2.071   2.524
 3207TIP3   OH2 9584   3.498   3.353   0.059
 3207TIP3    H1 9585   3.579   3.325   0.101
 3207TIP3    H2 9586   3.459   3.415   0.120
 3208TIP3   OH2 9587   0.053   4.389   5.280
 3208TIP3    H1 9588   0.013   4.406   5.365
 3208TIP3    H2 9589   0.082   4.475   5.250
 3209TIP3   OH2 9590   2.754   5.432   3.984
 3209TIP3    H1 9591   2.729   5.498   4.048
 3209TIP3    H2 9592   2.784   5.482   3.908
 3210TIP3   OH2 9593   0.317   2.007   0.940
 3210TIP3    H1 9594   0.238   2.056   0.963
 3210TIP3    H2 9595   0.290   1.915   0.940
 3211TIP3   OH2 9596   5.094  -0.003   5.818
 3211TIP3    H1 9597   5.083   0.089   5.795
 3211TIP3    H2 9598   5.108  -0.003   5.913
 3212TIP3   OH2 9599   2.471   4.982   0.887
 3212TIP3    H1 9600   2.515   4.993   0.971
 3212TIP3    H2 9601   2.446   4.890   0.884
 3213TIP3   OH2 9602   5.909   4.742   4.952
 3213TIP3    H1 9603   5.902   4.654   4.989
 3213TIP3    H2 9604   5.884   4.731   4.860
 3214TIP3   OH2 9605   7.120   2.691   4.701
 3214TIP3    H1 9606   7.196   2.665   4.754
 3214TIP3    H2 9607   7.154   2.695   4.612
 3215TIP3   OH2 9608   7.007   6.198   0.892
 3215TIP3    H1 9609   6.917   6.196   0.923
 3215TIP3    H2 9610   7.038   6.107   0.902
 3216TIP3   OH2 9611   6.451   2.498   0.542
 3216TIP3    H1 9612   6.407   2.429   0.492
 3216TIP3    H2 9613   6.483   2.559   0.476
 3217TIP3   OH2 9614   3.099   3.772   2.859
 3217TIP3    H1 9615   3.188   3.756   2.889
 3217TIP3    H2 9616   3.107   3.781   2.764
 3218TIP3   OH2 9617   4.732   5.278   4.905
 3218TIP3    H1 9618   4.799   5.340   4.877
 3218TIP3    H2 9619   4.649   5.318   4.876
 3219TIP3   OH2 9620   1.850   4.922   3.978
 3219TIP3    H1 9621   1.783   4.983   3.948
 3219TIP3    H2 9622   1.802   4.859   4.032
 3220TIP3   OH2 9623   6.725   1.259   0.285
 3220TIP3    H1 9624   6.779   1.274   0.207
 3220TIP3    H2 9625   6.635   1.260   0.253
 3221TIP3   OH2 9626   3.084   1.793   1.644
 3221TIP3    H1 9627   3.122   1.881   1.648
 3221TIP3    H2 9628   3.152   1.739   1.603
 3222TIP3   OH2 9629   3.977   1.392   0.859
 3222TIP3    H1 9630   3.916   1.415   0.790
 3222TIP3    H2 9631   3.939   1.315   0.901
 3223TIP3   OH2 9632   1.876   4.971   1.370
 3223TIP3    H1 9633   1.845   5.036   1.306
 3223TIP3    H2 9634   1.840   5.000   1.453
 3224TIP3   OH2 9635   5.273   3.988   5.766
 3224TIP3    H1 9636   5.187   3.978   5.806
 3224TIP3    H2 9637   5.312   3.901   5.771
 3225TIP3   OH2 9638   4.541   3.576   0.698
 3225TIP3    H1 9639   4.533   3.588   0.792
 3225TIP3    H2 9640   4.491   3.648   0.660
 3226TIP3   OH2 9641   1.913   2.016   4.250
 3226TIP3    H1 9642   1.983   2.080   4.256
 3226TIP3    H2 9643   1.845   2.058   4.198
 3227TIP3   OH2 9644   2.117   0.037   4.164
 3227TIP3    H1 9645   2.157   0.050   4.250
 3227TIP3    H2 9646   2.078   0.122   4.142
 3228TIP3   OH2 9647   5.476   1.351   2.998
 3228TIP3    H1 9648   5.413   1.288   2.963
 3228TIP3    H2 9649   5.433   1.386   3.076
 3229TIP3   OH2 9650   6.141   1.143   0.122
 3229TIP3    H1 9651   6.117   1.218   0.176
 3229TIP3    H2 9652   6.106   1.165   0.035
 3230TIP3   OH2 9653   4.695   5.316   0.279
 3230TIP3    H1 9654   4.661   5.252   0.342
 3230TIP3    H2 9655   4.773   5.275   0.243
 3231TIP3   OH2 9656   0.127   4.685   3.732
 3231TIP3    H1 9657   0.113   4.592   3.753
 3231TIP3    H2 9658   0.215   4.688   3.694
 3232TIP3   OH2 9659   1.217   2.837   0.700
 3232TIP3    H1 9660   1.218   2.932   0.707
 3232TIP3    H2 9661   1.307   2.813   0.681
 3233TIP3   OH2 9662   3.403   4.233   1.246
 3233TIP3    H1 9663   3.375   4.219   1.337
 3233TIP3    H2 9664   3.461   4.310   1.251
 3234TIP3   OH2 9665   4.501   3.547   3.396
 3234TIP3    H1 9666   4.594   3.564   3.381
 3234TIP3    H2 9667   4.456   3.619   3.351
 3235TIP3   OH2 9668   5.573   4.711   4.665
 3235TIP3    H1 9669   5.534   4.629   4.694
 3235TIP3    H2 9670   5.499   4.768   4.647
 3236TIP3   OH2 9671   0.103   5.306   5.339
 3236TIP3    H1 9672   0.111   5.252   5.261
 3236TIP3    H2 9673   0.085   5.394   5.307
 3237TIP3   OH2 9674   5.663   4.594   3.843
 3237TIP3    H1 9675   5.634   4.645   3.767
 3237TIP3    H2 9676   5.703   4.659   3.901
 3238TIP3   OH2 9677   1.320   4.925   1.373
 3238TIP3    H1 9678   1.287   4.896   1.288
 3238TIP3    H2 9679   1.242   4.952   1.421
 3239TIP3   OH2 9680   4.862   1.235   5.219
 3239TIP3    H1 9681   4.916   1.295   5.167
 3239TIP3    H2 9682   4.870   1.268   5.309
 3240TIP3   OH2 9683   3.486   1.963   3.446
 3240TIP3    H1 9684   3.403   1.923   3.421
 3240TIP3    H2 9685   3.490   1.955   3.541
 3241TIP3   OH2 9686   7.030   3.353   5.497
 3241TIP3    H1 9687   6.955   3.294   5.501
 3241TIP3    H2 9688   7.004   3.421   5.435
 3242TIP3   OH2 9689   0.541   3.330   0.581
 3242TIP3    H1 9690   0.517   3.360   0.669
 3242TIP3    H2 9691   0.610   3.265   0.596
 3243TIP3   OH2 9692   5.705   2.785   1.001
 3243TIP3    H1 9693   5.611   2.799   0.987
 3243TIP3    H2 9694   5.734   2.739   0.923
 3244TIP3   OH2 9695   4.215   5.732   5.208
 3244TIP3    H1 9696   4.172   5.684   5.278
 3244TIP3    H2 9697   4.170   5.703   5.128
 3245TIP3   OH2 9698   6.137   1.141   1.150
 3245TIP3    H1 9699   6.083   1.190   1.088
 3245TIP3    H2 9700   6.156   1.203   1.220
 3246TIP3   OH2 9701   6.038   4.517   3.209
 3246TIP3    H1 9702   6.069   4.531   3.119
 3246TIP3    H2 9703   6.101   4.564   3.263
 3247TIP3   OH2 9704   5.163   0.520   0.323
 3247TIP3    H1 9705   5.225   0.572   0.272
 3247TIP3    H2 9706   5.108   0.584   0.367
 3248TIP3   OH2 9707   5.333   2.608   0.373
 3248TIP3    H1 9708   5.284   2.587   0.452
 3248TIP3    H2 9709   5.267   2.616   0.304
 3249TIP3   OH2 9710   5.985   3.144   2.405
 3249TIP3    H1 9711   5.977   3.199   2.328
 3249TIP3    H2 9712   6.058   3.085   2.385
 3250TIP3   OH2 9713   0.050   5.116   5.149
 3250TIP3    H1 9714   0.023   5.084   5.063
 3250TIP3    H2 9715   0.064   5.037   5.201
 3251TIP3   OH2 9716   1.937   3.887   1.019
 3251TIP3    H1 9717   1.953   3.795   1.040
 3251TIP3    H2 9718   1.956   3.934   1.100
 3252TIP3   OH2 9719   0.937   6.316   0.405
 3252TIP3    H1 9720   1.006   6.380   0.387
 3252TIP3    H2 9721   0.940   6.303   0.500
 3253TIP3   OH2 9722   5.099   4.774   0.401
 3253TIP3    H1 9723   5.044   4.697   0.413
 3253TIP3    H2 9724   5.113   4.779   0.307
 3254TIP3   OH2 9725   5.917   6.707   0.603
 3254TIP3    H1 9726   5.964   6.700   0.520
 3254TIP3    H2 9727   5.952   6.635   0.656
 3255TIP3   OH2 9728   5.049   4.878   2.632
 3255TIP3    H1 9729   4.976   4.838   2.678
 3255TIP3    H2 9730   5.095   4.804   2.592
 3256TIP3   OH2 9731   5.251   4.882   0.593
 3256TIP3    H1 9732   5.304   4.875   0.513
 3256TIP3    H2 9733   5.167   4.844   0.569
 3257TIP3   OH2 9734   4.729   0.644   4.506
 3257TIP3    H1 9735   4.648   0.652   4.456
 3257TIP3    H2 9736   4.734   0.550   4.527
 3258TIP3   OH2 9737   5.904   6.664   0.896
 3258TIP3    H1 9738   5.984   6.614   0.914
 3258TIP3    H2 9739   5.927   6.754   0.915
 3259TIP3   OH2 9740   1.769   5.661   1.696
 3259TIP3    H1 9741   1.715   5.739   1.706
 3259TIP3    H2 9742   1.737   5.619   1.616
 3260TIP3   OH2 9743   5.669   3.750   5.238
 3260TIP3    H1 9744   5.690   3.718   5.326
 3260TIP3    H2 9745   5.598   3.813   5.252
 3261TIP3   OH2 9746   0.903   0.698   1.025
 3261TIP3    H1 9747   0.917   0.742   0.941
 3261TIP3    H2 9748   0.910   0.768   1.090
 3262TIP3   OH2 9749   1.452   2.475   2.357
 3262TIP3    H1 9750   1.480   2.563   2.382
 3262TIP3    H2 9751   1.356   2.478   2.363
 3263TIP3   OH2 9752   5.177   6.469   5.848
 3263TIP3    H1 9753   5.229   6.440   5.922
 3263TIP3    H2 9754   5.087   6.474   5.882
 3264TIP3   OH2 9755   4.494   1.466   1.277
 3264TIP3    H1 9756   4.535   1.511   1.350
 3264TIP3    H2 9757   4.490   1.374   1.303
 3265TIP3   OH2 9758   5.568   1.162   1.894
 3265TIP3    H1 9759   5.512   1.240   1.893
 3265TIP3    H2 9760   5.515   1.094   1.935
 3266TIP3   OH2 9761   5.254   1.333   4.059
 3266TIP3    H1 9762   5.301   1.370   4.134
 3266TIP3    H2 9763   5.186   1.277   4.097
 3267TIP3   OH2 9764   5.242   3.494   0.190
 3267TIP3    H1 9765   5.271   3.567   0.136
 3267TIP3    H2 9766   5.314   3.480   0.251
 3268TIP3   OH2 9767   6.739   1.505   2.611
 3268TIP3    H1 9768   6.699   1.480   2.528
 3268TIP3    H2 9769   6.695   1.586   2.636
 3269TIP3   OH2 9770   1.456   0.950   3.341
 3269TIP3    H1 9771   1.469   0.869   3.391
 3269TIP3    H2 9772   1.507   1.016   3.388
 3270TIP3   OH2 9773   0.700   1.663   0.459
 3270TIP3    H1 9774   0.634   1.654   0.391
 3270TIP3    H2 9775   0.713   1.575   0.493
 3271TIP3   OH2 9776   1.736   4.220   3.525
 3271TIP3    H1 9777   1.689   4.174   3.594
 3271TIP3    H2 9778   1.754   4.306   3.562
 3272TIP3   OH2 9779   4.984   2.368   2.315
 3272TIP3    H1 9780   4.923   2.317   2.369
 3272TIP3    H2 9781   5.044   2.303   2.280
 3273TIP3   OH2 9782   3.034   4.617   5.639
 3273TIP3    H1 9783   2.984   4.549   5.593
 3273TIP3    H2 9784   3.000   4.700   5.603
 3274TIP3   OH2 9785   1.284   2.774   2.468
 3274TIP3    H1 9786   1.240   2.714   2.528
 3274TIP3    H2 9787   1.377   2.754   2.477
 3275TIP3   OH2 9788   4.070   3.004   4.613
 3275TIP3    H1 9789   4.036   2.946   4.682
 3275TIP3    H2 9790   4.106   2.944   4.547
 3276TIP3   OH2 9791   1.693   5.479   4.901
 3276TIP3    H1 9792   1.657   5.399   4.941
 3276TIP3    H2 9793   1.730   5.449   4.818
 3277TIP3   OH2 9794   6.263   3.403   4.868
 3277TIP3    H1 9795   6.334   3.467   4.861
 3277TIP3    H2 9796   6.242   3.399   4.961
 3278TIP3   OH2 9797   2.835   5.337   0.511
 3278TIP3    H1 9798   2.876   5.320   0.426
 3278TIP3    H2 9799   2.800   5.426   0.502
 3279TIP3   OH2 9800   6.563   3.191   1.261
 3279TIP3    H1 9801   6.609   3.107   1.266
 3279TIP3    H2 9802   6.474   3.168   1.235
 3280TIP3   OH2 9803   6.510   1.112   4.136
 3280TIP3    H1 9804   6.584   1.153   4.092
 3280TIP3    H2 9805   6.512   1.020   4.107
 3281TIP3   OH2 9806   4.675   6.705   5.501
 3281TIP3    H1 9807   4.693   6.632   5.441
 3281TIP3    H2 9808   4.760   6.728   5.538
 3282TIP3   OH2 9809   2.135   6.199   5.605
 3282TIP3    H1 9810   2.214   6.144   5.599
 3282TIP3    H2 9811   2.100   6.181   5.692
 3283TIP3   OH2 9812   3.984   3.232   3.269
 3283TIP3    H1 9813   4.001   3.144   3.303
 3283TIP3    H2 9814   3.974   3.286   3.347
 3284TIP3   OH2 9815   4.817   4.330   2.766
 3284TIP3    H1 9816   4.804   4.305   2.674
 3284TIP3    H2 9817   4.828   4.246   2.812
 3285TIP3   OH2 9818   6.583   0.473   3.643
 3285TIP3    H1 9819   6.540   0.451   3.725
 3285TIP3    H2 9820   6.663   0.421   3.643
 3286TIP3   OH2 9821   1.775   2.849   4.039
 3286TIP3    H1 9822   1.828   2.909   4.091
 3286TIP3    H2 9823   1.722   2.801   4.103
 3287TIP3   OH2 9824   4.155   4.320   4.537
 3287TIP3    H1 9825   4.118   4.368   4.462
 3287TIP3    H2 9826   4.245   4.300   4.510
 3288TIP3   OH2 9827   0.694   2.728   5.787
 3288TIP3    H1 9828   0.670   2.809   5.832
 3288TIP3    H2 9829   0.652   2.658   5.837
 3289TIP3   OH2 9830   3.784   1.021   5.190
 3289TIP3    H1 9831   3.875   1.001   5.169
 3289TIP3    H2 9832   3.786   1.055   5.279
 3290TIP3   OH2 9833   3.481   4.543   3.689
 3290TIP3    H1 9834   3.523   4.510   3.609
 3290TIP3    H2 9835   3.391   4.561   3.663
 3291TIP3   OH2 9836   4.832   4.811   5.378
 3291TIP3    H1 9837   4.840   4.849   5.466
 3291TIP3    H2 9838   4.763   4.863   5.336
 3292TIP3   OH2 9839   2.449   4.647   1.843
 3292TIP3    H1 9840   2.480   4.681   1.760
 3292TIP3    H2 9841   2.399   4.719   1.881
 3293TIP3   OH2 9842   1.637   1.619   5.687
 3293TIP3    H1 9843   1.633   1.672   5.608
 3293TIP3    H2 9844   1.554   1.571   5.689
 3294TIP3   OH2 9845   4.668   0.676   3.388
 3294TIP3    H1 9846   4.712   0.760   3.403
 3294TIP3    H2 9847   4.630   0.685   3.300
 3295TIP3   OH2 9848   4.060   5.924   4.308
 3295TIP3    H1 9849   4.072   5.867   4.232
 3295TIP3    H2 9850   4.116   6.000   4.291
 3296TIP3   OH2 9851   1.634   2.396   1.024
 3296TIP3    H1 9852   1.572   2.459   1.061
 3296TIP3    H2 9853   1.582   2.346   0.961
 3297TIP3   OH2 9854   0.218   0.385   0.809
 3297TIP3    H1 9855   0.296   0.392   0.864
 3297TIP3    H2 9856   0.235   0.308   0.754
 3298TIP3   OH2 9857   4.683   3.900   5.183
 3298TIP3    H1 9858   4.604   3.849   5.198
 3298TIP3    H2 9859   4.678   3.925   5.091
 3299TIP3   OH2 9860   0.167   0.817   2.608
 3299TIP3    H1 9861   0.136   0.870   2.681
 3299TIP3    H2 9862   0.112   0.738   2.611
 3300TIP3   OH2 9863   5.446   5.875   3.471
 3300TIP3    H1 9864   5.473   5.811   3.405
 3300TIP3    H2 9865   5.405   5.822   3.540
 3301TIP3   OH2 9866   1.981   0.096   2.440
 3301TIP3    H1 9867   1.892   0.083   2.471
 3301TIP3    H2 9868   2.009   0.010   2.408
 3302TIP3   OH2 9869   4.501   3.936   2.907
 3302TIP3    H1 9870   4.453   3.917   2.826
 3302TIP3    H2 9871   4.522   3.850   2.943
 3303TIP3   OH2 9872   4.576   2.376   2.994
 3303TIP3    H1 9873   4.612   2.427   3.066
 3303TIP3    H2 9874   4.532   2.440   2.939
 3304TIP3   OH2 9875   6.551   2.431   3.193
 3304TIP3    H1 9876   6.561   2.453   3.286
 3304TIP3    H2 9877   6.624   2.477   3.151
 3305TIP3   OH2 9878   0.503   4.399   5.838
 3305TIP3    H1 9879   0.436   4.332   5.825
 3305TIP3    H2 9880   0.586   4.352   5.829
 3306TIP3   OH2 9881   2.480   5.257   3.898
 3306TIP3    H1 9882   2.545   5.268   3.966
 3306TIP3    H2 9883   2.403   5.221   3.943
 3307TIP3   OH2 9884   2.902   4.309   2.065
 3307TIP3    H1 9885   2.951   4.391   2.069
 3307TIP3    H2 9886   2.813   4.335   2.044
 3308TIP3   OH2 9887   2.532   4.557   5.604
 3308TIP3    H1 9888   2.584   4.589   5.678
 3308TIP3    H2 9889   2.503   4.470   5.632
 3309TIP3   OH2 9890   1.030   6.739   0.215
 3309TIP3    H1 9891   1.043   6.829   0.186
 3309TIP3    H2 9892   1.049   6.741   0.308
 3310TIP3   OH2 9893   0.078   5.173   2.349
 3310TIP3    H1 9894   0.158   5.161   2.400
 3310TIP3    H2 9895   0.069   5.268   2.339
 3311TIP3   OH2 9896   2.825   6.001   3.184
 3311TIP3    H1 9897   2.801   5.930   3.125
 3311TIP3    H2 9898   2.921   5.998   3.188
 3312TIP3   OH2 9899   5.522   1.471   0.096
 3312TIP3    H1 9900   5.427   1.461   0.102
 3312TIP3    H2 9901   5.553   1.384   0.070
 3313TIP3   OH2 9902   5.353   0.808   1.646
 3313TIP3    H1 9903   5.304   0.730   1.671
 3313TIP3    H2 9904   5.428   0.810   1.706
 3314TIP3   OH2 9905   3.207   2.377   4.281
 3314TIP3    H1 9906   3.243   2.300   4.236
 3314TIP3    H2 9907   3.195   2.442   4.211
 3315TIP3   OH2 9908   4.110   4.707   4.856
 3315TIP3    H1 9909   4.060   4.729   4.935
 3315TIP3    H2 9910   4.175   4.776   4.849
 3316TIP3   OH2 9911   3.444   3.192   3.039
 3316TIP3    H1 9912   3.484   3.121   3.089
 3316TIP3    H2 9913   3.514   3.255   3.025
 3317TIP3   OH2 9914   0.692   5.854   4.169
 3317TIP3    H1 9915   0.686   5.938   4.215
 3317TIP3    H2 9916   0.627   5.798   4.211
 3318TIP3   OH2 9917   1.463   0.045   5.855
 3318TIP3    H1 9918   1.410  -0.006   5.917
 3318TIP3    H2 9919   1.516  -0.020   5.810
 3319TIP3   OH2 9920   0.821   0.980   3.850
 3319TIP3    H1 9921   0.794   0.995   3.941
 3319TIP3    H2 9922   0.913   1.007   3.848
 3320TIP3   OH2 9923   0.341   4.181   5.791
 3320TIP3    H1 9924   0.273   4.246   5.809
 3320TIP3    H2 9925   0.293   4.105   5.758
 3321TIP3   OH2 9926   2.749   3.277   2.681
 3321TIP3    H1 9927   2.777   3.351   2.735
 3321TIP3    H2 9928   2.726   3.317   2.597
 3322TIP3   OH2 9929   0.982   5.024   2.184
 3322TIP3    H1 9930   0.962   5.112   2.213
 3322TIP3    H2 9931   0.982   4.971   2.264
 3323TIP3   OH2 9932   5.946   2.902   4.501
 3323TIP3    H1 9933   5.926   2.937   4.588
 3323TIP3    H2 9934   5.866   2.914   4.451
 3324TIP3   OH2 9935   6.956   0.850   2.024
 3324TIP3    H1 9936   7.046   0.881   2.011
 3324TIP3    H2 9937   6.962   0.795   2.103
 3325TIP3   OH2 9938   6.157   2.337   1.598
 3325TIP3    H1 9939   6.156   2.274   1.670
 3325TIP3    H2 9940   6.250   2.355   1.583
 3326TIP3   OH2 9941   6.339   6.193   1.919
 3326TIP3    H1 9942   6.419   6.233   1.951
 3326TIP3    H2 9943   6.313   6.131   1.987
 3327TIP3   OH2 9944   0.072   4.668   3.359
 3327TIP3    H1 9945   0.135   4.597   3.371
 3327TIP3    H2 9946   0.001   4.629   3.308
 3328TIP3   OH2 9947   0.528   4.432   0.612
 3328TIP3    H1 9948   0.558   4.364   0.673
 3328TIP3    H2 9949   0.608   4.477   0.585
 3329TIP3   OH2 9950   2.163   3.521   0.673
 3329TIP3    H1 9951   2.071   3.498   0.659
 3329TIP3    H2 9952   2.163   3.572   0.754
 3330TIP3   OH2 9953   3.244   1.748   2.316
 3330TIP3    H1 9954   3.161   1.765   2.272
 3330TIP3    H2 9955   3.243   1.653   2.333
 3331TIP3   OH2 9956   5.244   6.298   0.263
 3331TIP3    H1 9957   5.182   6.230   0.238
 3331TIP3    H2 9958   5.329   6.254   0.264
 3332TIP3   OH2 9959   1.732   1.294   2.605
 3332TIP3    H1 9960   1.803   1.353   2.580
 3332TIP3    H2 9961   1.775   1.209   2.615
 3333TIP3   OH2 9962   4.481   0.973   3.061
 3333TIP3    H1 9963   4.542   1.016   3.121
 3333TIP3    H2 9964   4.398   1.019   3.075
 3334TIP3   OH2 9965   1.630   2.737   4.464
 3334TIP3    H1 9966   1.572   2.741   4.540
 3334TIP3    H2 9967   1.718   2.744   4.500
 3335TIP3   OH2 9968   5.321   0.328   3.684
 3335TIP3    H1 9969   5.268   0.407   3.686
 3335TIP3    H2 9970   5.321   0.295   3.774
 3336TIP3   OH2 9971   0.504   0.064   4.604
 3336TIP3    H1 9972   0.462   0.081   4.688
 3336TIP3    H2 9973   0.550  -0.019   4.618
 3337TIP3   OH2 9974   2.682   4.725   4.987
 3337TIP3    H1 9975   2.709   4.633   4.986
 3337TIP3    H2 9976   2.616   4.729   5.056
 3338TIP3   OH2 9977   0.555   2.741   1.378
 3338TIP3    H1 9978   0.568   2.706   1.466
 3338TIP3    H2 9979   0.643   2.771   1.353
 3339TIP3   OH2 9980   1.913   2.074   0.167
 3339TIP3    H1 9981   1.938   2.081   0.075
 3339TIP3    H2 9982   1.889   1.983   0.179
 3340TIP3   OH2 9983   3.150   2.616   1.768
 3340TIP3    H1 9984   3.170   2.650   1.855
 3340TIP3    H2 9985   3.115   2.691   1.720
 3341TIP3   OH2 9986   1.687   4.691   3.799
 3341TIP3    H1 9987   1.768   4.653   3.832
 3341TIP3    H2 9988   1.620   4.624   3.813
 3342TIP3   OH2 9989   6.049   5.239   3.311
 3342TIP3    H1 9990   6.136   5.273   3.294
 3342TIP3    H2 9991   6.004   5.308   3.359
 3343TIP3   OH2 9992   6.951   6.350   5.424
 3343TIP3    H1 9993   6.962   6.411   5.496
 3343TIP3    H2 9994   6.989   6.268   5.456
 3344TIP3   OH2 9995   4.344   5.820   4.827
 3344TIP3    H1 9996   4.378   5.861   4.906
 3344TIP3    H2 9997   4.398   5.742   4.815
 3345TIP3   OH2 9998   6.328   1.476   2.912
 3345TIP3    H1 9999   6.422   1.464   2.895
 3345TIP3    H210000   6.300   1.394   2.953
 3346TIP3   OH210001   1.938   0.920   2.005
 3346TIP3    H110002   1.962   0.997   2.057
 3346TIP3    H210003   2.019   0.893   1.963
 3347TIP3   OH210004   2.766   4.022   1.971
 3347TIP3    H110005   2.799   4.088   1.910
 3347TIP3    H210006   2.755   4.069   2.053
 3348TIP3   OH210007   4.966   0.598   5.020
 3348TIP3    H110008   4.875   0.577   5.000
 3348TIP3    H210009   5.003   0.515   5.052
 3349TIP3   OH210010   5.022   6.319   4.227
 3349TIP3    H110011   5.073   6.239   4.237
 3349TIP3    H210012   5.087   6.389   4.221
 3350TIP3   OH210013   3.852   3.152   0.713
 3350TIP3    H110014   3.852   3.071   0.663
 3350TIP3    H210015   3.760   3.177   0.720
 3351TIP3   OH210016   6.901   6.528   4.400
 3351TIP3    H110017   6.995   6.536   4.380
 3351TIP3    H210018   6.892   6.441   4.439
 3352TIP3   OH210019   4.983   1.591   4.184
 3352TIP3    H110020   5.016   1.535   4.254
 3352TIP3    H210021   5.026   1.675   4.197
 3353TIP3   OH210022   1.978   5.309   2.193
 3353TIP3    H110023   2.001   5.385   2.140
 3353TIP3    H210024   1.899   5.273   2.152
 3354TIP3   OH210025   6.478   5.904   1.281
 3354TIP3    H110026   6.511   5.822   1.318
 3354TIP3    H210027   6.556   5.954   1.258
 3355TIP3   OH210028   1.836   2.527   1.270
 3355TIP3    H110029   1.859   2.588   1.340
 3355TIP3    H210030   1.752   2.559   1.237
 3356TIP3   OH210031   4.780   1.812   5.465
 3356TIP3    H110032   4.787   1.864   5.544
 3356TIP3    H210033   4.751   1.874   5.398
 3357TIP3   OH210034   0.094   2.349   2.672
 3357TIP3    H110035   0.141   2.390   2.599
 3357TIP3    H210036   0.154   2.358   2.747
 3358TIP3   OH210037   2.045   1.136   5.750
 3358TIP3    H110038   2.132   1.100   5.732
 3358TIP3    H210039   2.060   1.200   5.820
 3359TIP3   OH210040   4.235   3.716   5.481
 3359TIP3    H110041   4.228   3.670   5.397
 3359TIP3    H210042   4.327   3.740   5.487
 3360TIP3   OH210043   1.006   2.584   2.148
 3360TIP3    H110044   1.002   2.624   2.235
 3360TIP3    H210045   0.932   2.524   2.146
 3361TIP3   OH210046   4.049   5.098   4.258
 3361TIP3    H110047   4.143   5.114   4.253
 3361TIP3    H210048   4.039   5.005   4.241
 3362TIP3   OH210049   6.795   3.523   3.286
 3362TIP3    H110050   6.878   3.513   3.332
 3362TIP3    H210051   6.737   3.563   3.351
 3363TIP3   OH210052   0.294   0.046   0.943
 3363TIP3    H110053   0.304   0.069   0.851
 3363TIP3    H210054   0.363   0.095   0.988
 3364TIP3   OH210055   0.656   4.281   3.439
 3364TIP3    H110056   0.626   4.326   3.519
 3364TIP3    H210057   0.750   4.300   3.435
 3365TIP3   OH210058   0.487   4.405   4.593
 3365TIP3    H110059   0.420   4.336   4.594
 3365TIP3    H210060   0.478   4.447   4.508
 3366TIP3   OH210061   5.177   0.252   0.257
 3366TIP3    H110062   5.176   0.346   0.274
 3366TIP3    H210063   5.228   0.214   0.328
 3367TIP3   OH210064   4.329   6.624   2.652
 3367TIP3    H110065   4.405   6.620   2.593
 3367TIP3    H210066   4.367   6.613   2.740
 3368TIP3   OH210067   1.302   5.154   1.182
 3368TIP3    H110068   1.362   5.114   1.244
 3368TIP3    H210069   1.215   5.134   1.217
 3369TIP3   OH210070   6.188   1.442   0.981
 3369TIP3    H110071   6.162   1.502   1.051
 3369TIP3    H210072   6.120   1.453   0.914
 3370TIP3   OH210073   6.277   3.436   2.399
 3370TIP3    H110074   6.207   3.490   2.364
 3370TIP3    H210075   6.358   3.480   2.372
 3371TIP3   OH210076   5.350   5.969   3.027
 3371TIP3    H110077   5.335   5.994   3.118
 3371TIP3    H210078   5.265   5.935   2.997
 3372TIP3   OH210079   4.931   4.223   5.659
 3372TIP3    H110080   4.906   4.280   5.586
 3372TIP3    H210081   4.984   4.154   5.619
 3373TIP3   OH210082   1.928   1.729   2.059
 3373TIP3    H110083   1.915   1.710   2.152
 3373TIP3    H210084   1.909   1.822   2.050
 3374TIP3   OH210085   4.837   0.623   2.490
 3374TIP3    H110086   4.925   0.588   2.473
 3374TIP3    H210087   4.852   0.717   2.504
 3375TIP3   OH210088   1.798   0.385   3.247
 3375TIP3    H110089   1.886   0.374   3.211
 3375TIP3    H210090   1.805   0.355   3.337
 3376TIP3   OH210091   6.885   0.750   2.283
 3376TIP3    H110092   6.862   0.659   2.263
 3376TIP3    H210093   6.893   0.752   2.378
 3377TIP3   OH210094   3.201   2.106   3.406
 3377TIP3    H110095   3.185   2.044   3.477
 3377TIP3    H210096   3.119   2.110   3.358
 3378TIP3   OH210097   2.069   3.100   3.851
 3378TIP3    H110098   1.993   3.154   3.874
 3378TIP3    H210099   2.031   3.022   3.809
 3379TIP3   OH210100   3.334   2.870   3.755
 3379TIP3    H110101   3.298   2.821   3.828
 3379TIP3    H210102   3.336   2.961   3.786
 3380TIP3   OH210103   4.289   3.360   4.150
 3380TIP3    H110104   4.292   3.379   4.243
 3380TIP3    H210105   4.222   3.292   4.141
 3381TIP3   OH210106   6.588   0.868   4.930
 3381TIP3    H110107   6.677   0.903   4.923
 3381TIP3    H210108   6.599   0.774   4.941
 3382TIP3   OH210109   4.567   6.756   5.240
 3382TIP3    H110110   4.613   6.703   5.175
 3382TIP3    H210111   4.635   6.781   5.303
 3383TIP3   OH210112   1.161   3.823   1.245
 3383TIP3    H110113   1.223   3.777   1.301
 3383TIP3    H210114   1.136   3.900   1.295
 3384TIP3   OH210115   0.331   3.688   2.587
 3384TIP3    H110116   0.242   3.717   2.606
 3384TIP3    H210117   0.333   3.597   2.616
 3385TIP3   OH210118   5.117   5.083   2.837
 3385TIP3    H110119   5.077   5.003   2.804
 3385TIP3    H210120   5.181   5.107   2.770
 3386TIP3   OH210121   1.564   4.146   4.342
 3386TIP3    H110122   1.519   4.071   4.302
 3386TIP3    H210123   1.612   4.108   4.416
 3387TIP3   OH210124   2.068   3.202   5.008
 3387TIP3    H110125   2.068   3.235   4.918
 3387TIP3    H210126   2.011   3.262   5.055
 3388TIP3   OH210127   4.935   0.789   2.161
 3388TIP3    H110128   4.968   0.874   2.188
 3388TIP3    H210129   4.840   0.801   2.155
 3389TIP3   OH210130   3.445   3.962   3.835
 3389TIP3    H110131   3.431   3.942   3.928
 3389TIP3    H210132   3.434   4.057   3.830
 3390TIP3   OH210133   4.200   4.104   2.335
 3390TIP3    H110134   4.222   4.012   2.317
 3390TIP3    H210135   4.245   4.153   2.266
 3391TIP3   OH210136   6.325   3.327   3.538
 3391TIP3    H110137   6.299   3.273   3.613
 3391TIP3    H210138   6.276   3.292   3.464
 3392TIP3   OH210139   4.638   2.045   1.205
 3392TIP3    H110140   4.655   2.067   1.297
 3392TIP3    H210141   4.658   1.951   1.200
 3393TIP3   OH210142   0.656   1.318   1.647
 3393TIP3    H110143   0.734   1.271   1.678
 3393TIP3    H210144   0.671   1.409   1.672
 3394TIP3   OH210145   6.683   1.667   3.818
 3394TIP3    H110146   6.680   1.646   3.725
 3394TIP3    H210147   6.702   1.760   3.821
 3395TIP3   OH210148   5.103   1.068   0.662
 3395TIP3    H110149   5.134   1.139   0.719
 3395TIP3    H210150   5.012   1.055   0.689
 3396TIP3   OH210151   4.816   1.389   0.121
 3396TIP3    H110152   4.810   1.484   0.109
 3396TIP3    H210153   4.868   1.360   0.046
 3397TIP3   OH210154   0.465   0.873   2.067
 3397TIP3    H110155   0.472   0.781   2.091
 3397TIP3    H210156   0.518   0.919   2.131
 3398TIP3   OH210157   1.698   0.670   3.182
 3398TIP3    H110158   1.680   0.660   3.275
 3398TIP3    H210159   1.772   0.611   3.166
 3399TIP3   OH210160   0.375   3.464   1.460
 3399TIP3    H110161   0.378   3.560   1.464
 3399TIP3    H210162   0.341   3.438   1.546
 3400TIP3   OH210163   3.807   0.742   5.011
 3400TIP3    H110164   3.758   0.698   5.080
 3400TIP3    H210165   3.769   0.830   5.007
 3401TIP3   OH210166   1.308   2.288   2.040
 3401TIP3    H110167   1.395   2.328   2.040
 3401TIP3    H210168   1.308   2.230   2.116
 3402TIP3   OH210169   5.256   5.874   4.716
 3402TIP3    H110170   5.191   5.816   4.755
 3402TIP3    H210171   5.266   5.945   4.779
 3403TIP3   OH210172   1.395   2.041   1.150
 3403TIP3    H110173   1.355   2.072   1.069
 3403TIP3    H210174   1.321   2.022   1.208
 3404TIP3   OH210175   5.124   5.914   3.787
 3404TIP3    H110176   5.175   5.834   3.801
 3404TIP3    H210177   5.115   5.920   3.692
 3405TIP3   OH210178   4.149   1.113   1.269
 3405TIP3    H110179   4.115   1.024   1.255
 3405TIP3    H210180   4.157   1.150   1.182
 3406TIP3   OH210181   6.427   0.676   2.041
 3406TIP3    H110182   6.471   0.608   2.093
 3406TIP3    H210183   6.496   0.738   2.019
 3407TIP3   OH210184   4.195   0.057   5.243
 3407TIP3    H110185   4.229  -0.032   5.243
 3407TIP3    H210186   4.126   0.056   5.176
 3408TIP3   OH210187   1.931   5.955   1.526
 3408TIP3    H110188   1.995   5.884   1.520
 3408TIP3    H210189   1.903   5.956   1.617
 3409TIP3   OH210190   2.347   5.338   2.110
 3409TIP3    H110191   2.307   5.425   2.111
 3409TIP3    H210192   2.402   5.337   2.031
 3410TIP3   OH210193   6.309   6.033   2.731
 3410TIP3    H110194   6.267   5.950   2.713
 3410TIP3    H210195   6.391   6.030   2.682
 3411TIP3   OH210196   6.105   2.359   0.265
 3411TIP3    H110197   6.081   2.266   0.261
 3411TIP3    H210198   6.201   2.359   0.257
 3412TIP3   OH210199   3.867   3.367   2.249
 3412TIP3    H110200   3.834   3.328   2.330
 3412TIP3    H210201   3.835   3.309   2.180
 3413TIP3   OH210202   4.081   6.467   0.061
 3413TIP3    H110203   4.079   6.380   0.101
 3413TIP3    H210204   3.991   6.498   0.065
 3414TIP3   OH210205   4.062   0.476   5.548
 3414TIP3    H110206   4.143   0.525   5.561
 3414TIP3    H210207   4.088   0.404   5.489
 3415TIP3   OH210208   6.063   5.088   3.744
 3415TIP3    H110209   6.085   5.181   3.744
 3415TIP3    H210210   6.030   5.072   3.655
 3416TIP3   OH210211   4.537   2.498   3.407
 3416TIP3    H110212   4.613   2.508   3.465
 3416TIP3    H210213   4.522   2.403   3.403
 3417TIP3   OH210214   2.562   2.463   3.551
 3417TIP3    H110215   2.517   2.389   3.509
 3417TIP3    H210216   2.492   2.525   3.571
 3418TIP3   OH210217   1.081   2.415   3.636
 3418TIP3    H110218   1.143   2.386   3.569
 3418TIP3    H210219   1.028   2.338   3.655
 3419TIP3   OH210220   7.196   2.114   2.735
 3419TIP3    H110221   7.211   2.181   2.669
 3419TIP3    H210222   7.103   2.092   2.726
 3420TIP3   OH210223   0.223   5.387   0.904
 3420TIP3    H110224   0.232   5.292   0.910
 3420TIP3    H210225   0.133   5.401   0.875
 3421TIP3   OH210226   4.851   3.114   5.180
 3421TIP3    H110227   4.841   3.100   5.085
 3421TIP3    H210228   4.901   3.038   5.210
 3422TIP3   OH210229   6.883   0.480   1.780
 3422TIP3    H110230   6.922   0.566   1.760
 3422TIP3    H210231   6.894   0.430   1.699
 3423TIP3   OH210232   1.298   4.939   5.128
 3423TIP3    H110233   1.278   5.024   5.089
 3423TIP3    H210234   1.238   4.878   5.085
 3424TIP3   OH210235   7.115   4.971   1.906
 3424TIP3    H110236   7.150   4.943   1.990
 3424TIP3    H210237   7.034   5.018   1.928
 3425TIP3   OH210238   1.935   0.272   3.899
 3425TIP3    H110239   1.860   0.215   3.882
 3425TIP3    H210240   1.907   0.358   3.868
 3426TIP3   OH210241   4.853   2.829   1.235
 3426TIP3    H110242   4.916   2.869   1.175
 3426TIP3    H210243   4.905   2.769   1.288
 3427TIP3   OH210244   4.278   5.191   2.215
 3427TIP3    H110245   4.211   5.252   2.246
 3427TIP3    H210246   4.320   5.159   2.294
 3428TIP3   OH210247   5.170   0.678   4.368
 3428TIP3    H110248   5.171   0.773   4.376
 3428TIP3    H210249   5.203   0.646   4.451
 3429TIP3   OH210250   0.535   0.487   3.377
 3429TIP3    H110251   0.615   0.436   3.371
 3429TIP3    H210252   0.498   0.464   3.462
 3430TIP3   OH210253   1.950   3.599   5.621
 3430TIP3    H110254   1.961   3.508   5.593
 3430TIP3    H210255   2.031   3.618   5.669
 3431TIP3   OH210256   6.668   0.580   4.937
 3431TIP3    H110257   6.761   0.589   4.918
 3431TIP3    H210258   6.662   0.503   4.993
 3432TIP3   OH210259   3.146   0.988   3.783
 3432TIP3    H110260   3.103   0.953   3.862
 3432TIP3    H210261   3.126   0.924   3.715
 3433TIP3   OH210262   0.884   1.307   1.916
 3433TIP3    H110263   0.933   1.370   1.863
 3433TIP3    H210264   0.879   1.229   1.861
 3434TIP3   OH210265   5.659   4.366   2.793
 3434TIP3    H110266   5.743   4.377   2.748
 3434TIP3    H210267   5.653   4.272   2.811
 3435TIP3   OH210268   6.980   2.422   4.456
 3435TIP3    H110269   6.970   2.513   4.484
 3435TIP3    H210270   7.030   2.427   4.375
 3436TIP3   OH210271   6.866   4.816   0.811
 3436TIP3    H110272   6.829   4.885   0.866
 3436TIP3    H210273   6.944   4.855   0.773
 3437TIP3   OH210274   3.630   4.253   0.101
 3437TIP3    H110275   3.666   4.216   0.020
 3437TIP3    H210276   3.537   4.227   0.099
 3438TIP3   OH210277   1.394   0.768   2.557
 3438TIP3    H110278   1.476   0.727   2.584
 3438TIP3    H210279   1.337   0.694   2.537
 3439TIP3   OH210280   3.456   1.442   0.127
 3439TIP3    H110281   3.540   1.463   0.085
 3439TIP3    H210282   3.429   1.359   0.089
 3440TIP3   OH210283   4.379   2.429   1.905
 3440TIP3    H110284   4.423   2.436   1.990
 3440TIP3    H210285   4.323   2.352   1.914
 3441TIP3   OH210286   2.392   5.120   2.288
 3441TIP3    H110287   2.325   5.051   2.285
 3441TIP3    H210288   2.363   5.184   2.223
 3442TIP3   OH210289   6.602   5.360   4.202
 3442TIP3    H110290   6.640   5.282   4.163
 3442TIP3    H210291   6.542   5.327   4.269
 3443TIP3   OH210292   5.968   1.688   5.470
 3443TIP3    H110293   6.009   1.766   5.507
 3443TIP3    H210294   6.021   1.615   5.504
 3444TIP3   OH210295   6.985   0.841   0.883
 3444TIP3    H110296   6.916   0.788   0.923
 3444TIP3    H210297   6.939   0.899   0.823
 3445TIP3   OH210298   1.716   5.533   1.435
 3445TIP3    H110299   1.714   5.459   1.497
 3445TIP3    H210300   1.624   5.550   1.415
 3446TIP3   OH210301   3.962   6.545   5.021
 3446TIP3    H110302   3.915   6.625   5.041
 3446TIP3    H210303   3.980   6.505   5.106
 3447TIP3   OH210304   4.293   3.645   4.792
 3447TIP3    H110305   4.277   3.739   4.790
 3447TIP3    H210306   4.206   3.606   4.797
 3448TIP3   OH210307   1.808   5.060   4.762
 3448TIP3    H110308   1.787   5.053   4.855
 3448TIP3    H210309   1.728   5.030   4.717
 3449TIP3   OH210310   7.089   0.462   5.705
 3449TIP3    H110311   7.015   0.401   5.706
 3449TIP3    H210312   7.103   0.485   5.797
 3450TIP3   OH210313   6.137   1.162   0.649
 3450TIP3    H110314   6.153   1.253   0.673
 3450TIP3    H210315   6.160   1.112   0.728
 3451TIP3   OH210316   0.137   6.290   1.073
 3451TIP3    H110317   0.135   6.198   1.098
 3451TIP3    H210318   0.165   6.289   0.981
 3452TIP3   OH210319   6.540   6.624   5.207
 3452TIP3    H110320   6.493   6.696   5.165
 3452TIP3    H210321   6.574   6.661   5.288
 3453TIP3   OH210322   3.801   1.411   1.261
 3453TIP3    H110323   3.782   1.318   1.253
 3453TIP3    H210324   3.846   1.433   1.180
 3454TIP3   OH210325   5.450   5.272   0.515
 3454TIP3    H110326   5.477   5.345   0.571
 3454TIP3    H210327   5.481   5.296   0.427
 3455TIP3   OH210328   0.514   4.068   3.121
 3455TIP3    H110329   0.562   4.053   3.040
 3455TIP3    H210330   0.576   4.114   3.178
 3456TIP3   OH210331   0.883   4.804   3.906
 3456TIP3    H110332   0.855   4.713   3.900
 3456TIP3    H210333   0.803   4.854   3.924
 3457TIP3   OH210334   4.575   3.388   3.154
 3457TIP3    H110335   4.524   3.441   3.215
 3457TIP3    H210336   4.565   3.298   3.186
 3458TIP3   OH210337   3.198   2.277   3.172
 3458TIP3    H110338   3.280   2.312   3.137
 3458TIP3    H210339   3.222   2.234   3.253
 3459TIP3   OH210340   6.631   1.456   2.357
 3459TIP3    H110341   6.549   1.428   2.317
 3459TIP3    H210342   6.693   1.387   2.335
 3460TIP3   OH210343   6.149   2.104   1.772
 3460TIP3    H110344   6.122   2.076   1.859
 3460TIP3    H210345   6.082   2.069   1.714
 3461TIP3   OH210346   2.326   4.515   3.052
 3461TIP3    H110347   2.370   4.461   2.987
 3461TIP3    H210348   2.233   4.493   3.042
 3462TIP3   OH210349   4.692   3.908   5.517
 3462TIP3    H110350   4.784   3.889   5.533
 3462TIP3    H210351   4.690   4.002   5.496
 3463TIP3   OH210352   4.088   0.672   2.866
 3463TIP3    H110353   4.086   0.767   2.877
 3463TIP3    H210354   4.127   0.639   2.947
 3464TIP3   OH210355   2.767   2.361   3.132
 3464TIP3    H110356   2.838   2.419   3.161
 3464TIP3    H210357   2.731   2.404   3.054
 3465TIP3   OH210358   3.039   4.510   3.782
 3465TIP3    H110359   3.102   4.555   3.839
 3465TIP3    H210360   2.954   4.544   3.809
 3466TIP3   OH210361   3.514   2.491   2.912
 3466TIP3    H110362   3.430   2.530   2.937
 3466TIP3    H210363   3.530   2.426   2.981
 3467TIP3   OH210364   6.369   4.398   3.774
 3467TIP3    H110365   6.301   4.384   3.839
 3467TIP3    H210366   6.333   4.362   3.693
 3468TIP3   OH210367   3.645   4.981   1.173
 3468TIP3    H110368   3.697   5.022   1.104
 3468TIP3    H210369   3.555   4.987   1.141
 3469TIP3   OH210370   6.783   2.389   0.237
 3469TIP3    H110371   6.862   2.337   0.252
 3469TIP3    H210372   6.764   2.378   0.144
 3470TIP3   OH210373   4.056   5.222   5.494
 3470TIP3    H110374   4.009   5.299   5.461
 3470TIP3    H210375   4.060   5.163   5.420
 3471TIP3   OH210376   6.232   1.144   4.593
 3471TIP3    H110377   6.263   1.076   4.653
 3471TIP3    H210378   6.311   1.192   4.568
 3472TIP3   OH210379   1.557   1.229   5.550
 3472TIP3    H110380   1.562   1.302   5.611
 3472TIP3    H210381   1.579   1.152   5.602
 3473TIP3   OH210382   5.715   5.789   0.304
 3473TIP3    H110383   5.727   5.763   0.395
 3473TIP3    H210384   5.631   5.834   0.302
 3474TIP3   OH210385   4.522   5.014   1.108
 3474TIP3    H110386   4.611   5.041   1.084
 3474TIP3    H210387   4.514   5.037   1.201
 3475TIP3   OH210388  -0.003   0.096   5.710
 3475TIP3    H110389  -0.019   0.112   5.803
 3475TIP3    H210390   0.038   0.010   5.707
 3476TIP3   OH210391   4.317   1.250   2.061
 3476TIP3    H110392   4.246   1.262   2.125
 3476TIP3    H210393   4.272   1.231   1.979
 3477TIP3   OH210394   3.954   4.908   4.689
 3477TIP3    H110395   3.960   4.813   4.704
 3477TIP3    H210396   3.895   4.939   4.758
 3478TIP3   OH210397   3.020   6.302   0.061
 3478TIP3    H110398   2.993   6.394   0.060
 3478TIP3    H210399   3.009   6.275   0.153
 3479TIP3   OH210400   5.626   1.303   2.677
 3479TIP3    H110401   5.531   1.317   2.674
 3479TIP3    H210402   5.648   1.274   2.588
 3480TIP3   OH210403   5.781   4.564   1.491
 3480TIP3    H110404   5.824   4.619   1.425
 3480TIP3    H210405   5.799   4.609   1.574
 3481TIP3   OH210406   0.169   6.720   3.178
 3481TIP3    H110407   0.156   6.771   3.259
 3481TIP3    H210408   0.233   6.653   3.202
 3482TIP3   OH210409   4.092   1.166   2.596
 3482TIP3    H110410   4.049   1.243   2.633
 3482TIP3    H210411   4.031   1.094   2.611
 3483TIP3   OH210412   5.698   1.205   2.442
 3483TIP3    H110413   5.749   1.124   2.446
 3483TIP3    H210414   5.680   1.217   2.348
 3484TIP3   OH210415   2.637   4.521   2.515
 3484TIP3    H110416   2.610   4.446   2.462
 3484TIP3    H210417   2.667   4.585   2.451
 3485TIP3   OH210418   1.471   2.053   2.638
 3485TIP3    H110419   1.539   2.010   2.587
 3485TIP3    H210420   1.390   2.035   2.590
 3486TIP3   OH210421   3.825   3.861   1.311
 3486TIP3    H110422   3.761   3.895   1.374
 3486TIP3    H210423   3.798   3.897   1.227
 3487TIP3   OH210424   3.732   5.537   2.118
 3487TIP3    H110425   3.748   5.627   2.091
 3487TIP3    H210426   3.783   5.484   2.056
 3488TIP3   OH210427   1.239   4.521   2.115
 3488TIP3    H110428   1.274   4.444   2.071
 3488TIP3    H210429   1.144   4.511   2.109
 3489TIP3   OH210430   2.793   3.862   1.012
 3489TIP3    H110431   2.834   3.946   1.034
 3489TIP3    H210432   2.759   3.874   0.924
 3490TIP3   OH210433   6.813   5.352   3.119
 3490TIP3    H110434   6.861   5.431   3.142
 3490TIP3    H210435   6.852   5.324   3.036
 3491TIP3   OH210436   1.852   4.259   2.241
 3491TIP3    H110437   1.911   4.187   2.217
 3491TIP3    H210438   1.903   4.338   2.222
 3492TIP3   OH210439   2.156   5.424   5.624
 3492TIP3    H110440   2.090   5.443   5.557
 3492TIP3    H210441   2.142   5.332   5.646
 3493TIP3   OH210442   6.885   0.365   5.319
 3493TIP3    H110443   6.932   0.336   5.397
 3493TIP3    H210444   6.803   0.316   5.321
 3494TIP3   OH210445   6.969   1.047   2.866
 3494TIP3    H110446   7.054   1.003   2.873
 3494TIP3    H210447   6.924   1.001   2.796
 3495TIP3   OH210448   3.130   3.839   2.142
 3495TIP3    H110449   3.135   3.874   2.231
 3495TIP3    H210450   3.095   3.911   2.090
 3496TIP3   OH210451   6.578   6.573   2.979
 3496TIP3    H110452   6.568   6.485   2.942
 3496TIP3    H210453   6.588   6.559   3.073
 3497TIP3   OH210454   2.096   5.307   1.191
 3497TIP3    H110455   2.026   5.257   1.148
 3497TIP3    H210456   2.061   5.329   1.277
 3498TIP3   OH210457   3.276   5.211   1.989
 3498TIP3    H110458   3.228   5.236   2.068
 3498TIP3    H210459   3.230   5.133   1.957
 3499TIP3   OH210460   5.925   1.230   4.715
 3499TIP3    H110461   5.948   1.226   4.622
 3499TIP3    H210462   5.867   1.306   4.721
 3500TIP3   OH210463   7.087   4.023   5.845
 3500TIP3    H110464   7.097   3.942   5.796
 3500TIP3    H210465   7.011   4.066   5.805
 3501TIP3   OH210466   2.361   3.753   2.638
 3501TIP3    H110467   2.451   3.742   2.670
 3501TIP3    H210468   2.368   3.741   2.543
 3502TIP3   OH210469   0.468   6.192   3.704
 3502TIP3    H110470   0.439   6.272   3.747
 3502TIP3    H210471   0.564   6.199   3.705
 3503TIP3   OH210472   1.831   1.994   2.364
 3503TIP3    H110473   1.749   1.959   2.400
 3503TIP3    H210474   1.803   2.053   2.294
 3504TIP3   OH210475   2.928   0.962   1.296
 3504TIP3    H110476   2.961   0.958   1.386
 3504TIP3    H210477   3.001   0.931   1.242
 3505TIP3   OH210478   5.120   1.609   0.307
 3505TIP3    H110479   5.107   1.640   0.396
 3505TIP3    H210480   5.205   1.566   0.308
 3506TIP3   OH210481   0.918   5.237   1.492
 3506TIP3    H110482   0.891   5.278   1.574
 3506TIP3    H210483   0.842   5.246   1.434
 3507TIP3   OH210484   5.438   4.475   2.471
 3507TIP3    H110485   5.349   4.494   2.502
 3507TIP3    H210486   5.495   4.529   2.525
 3508TIP3   OH210487   1.068   5.264   3.659
 3508TIP3    H110488   1.007   5.271   3.732
 3508TIP3    H210489   1.146   5.311   3.688
 3509TIP3   OH210490   5.063   6.779   5.023
 3509TIP3    H110491   5.151   6.806   4.996
 3509TIP3    H210492   5.068   6.684   5.030
 3510TIP3   OH210493   5.540   2.913   2.203
 3510TIP3    H110494   5.532   2.837   2.146
 3510TIP3    H210495   5.520   2.988   2.146
 3511TIP3   OH210496   5.520   1.795   2.410
 3511TIP3    H110497   5.573   1.874   2.418
 3511TIP3    H210498   5.439   1.815   2.457
 3512TIP3   OH210499   6.949   4.925   4.145
 3512TIP3    H110500   7.011   4.878   4.090
 3512TIP3    H210501   6.934   4.866   4.220
 3513TIP3   OH210502   4.043   4.528   3.148
 3513TIP3    H110503   3.974   4.466   3.173
 3513TIP3    H210504   4.090   4.545   3.230
 3514TIP3   OH210505   3.343   4.641   5.286
 3514TIP3    H110506   3.271   4.694   5.253
 3514TIP3    H210507   3.335   4.647   5.382
 3515TIP3   OH210508   6.479   0.554   0.455
 3515TIP3    H110509   6.548   0.601   0.503
 3515TIP3    H210510   6.490   0.581   0.364
 3516TIP3   OH210511   3.749   0.494   2.604
 3516TIP3    H110512   3.760   0.435   2.530
 3516TIP3    H210513   3.798   0.453   2.675
 3517TIP3   OH210514   5.541   1.662   5.598
 3517TIP3    H110515   5.500   1.590   5.646
 3517TIP3    H210516   5.582   1.716   5.665
 3518TIP3   OH210517   3.792   5.369   5.296
 3518TIP3    H110518   3.792   5.291   5.240
 3518TIP3    H210519   3.700   5.394   5.302
 3519TIP3   OH210520   3.998   2.474   0.358
 3519TIP3    H110521   4.035   2.463   0.270
 3519TIP3    H210522   4.042   2.406   0.410
 3520TIP3   OH210523   0.153   5.301   0.574
 3520TIP3    H110524   0.240   5.269   0.599
 3520TIP3    H210525   0.171   5.367   0.507
 3521TIP3   OH210526   1.262   0.523   4.879
 3521TIP3    H110527   1.277   0.574   4.959
 3521TIP3    H210528   1.167   0.528   4.866
 3522TIP3   OH210529   4.502   5.710  -0.023
 3522TIP3    H110530   4.491   5.706   0.072
 3522TIP3    H210531   4.587   5.669  -0.038
 3523TIP3   OH210532   3.323   0.264   4.998
 3523TIP3    H110533   3.409   0.231   5.023
 3523TIP3    H210534   3.261   0.202   5.037
 3524TIP3   OH210535   6.986   0.066   1.064
 3524TIP3    H110536   7.048   0.019   1.009
 3524TIP3    H210537   7.001   0.158   1.045
 3525TIP3   OH210538   1.238   4.377   4.243
 3525TIP3    H110539   1.323   4.353   4.279
 3525TIP3    H210540   1.257   4.407   4.154
 3526TIP3   OH210541   0.902   5.999   5.215
 3526TIP3    H110542   0.858   6.071   5.167
 3526TIP3    H210543   0.846   5.923   5.199
 3527TIP3   OH210544   7.189   0.339   2.739
 3527TIP3    H110545   7.262   0.279   2.748
 3527TIP3    H210546   7.115   0.295   2.781
 3528TIP3   OH210547   3.324   0.904   1.973
 3528TIP3    H110548   3.249   0.963   1.962
 3528TIP3    H210549   3.304   0.829   1.918
 3529TIP3   OH210550   3.057   5.944   4.892
 3529TIP3    H110551   3.107   5.961   4.812
 3529TIP3    H210552   2.993   5.878   4.867
 3530TIP3   OH210553   0.876   1.610   1.473
 3530TIP3    H110554   0.818   1.556   1.420
 3530TIP3    H210555   0.931   1.548   1.520
 3531TIP3   OH210556   3.348   2.377   1.205
 3531TIP3    H110557   3.316   2.295   1.243
 3531TIP3    H210558   3.318   2.444   1.266
 3532TIP3   OH210559   2.407   3.047   4.325
 3532TIP3    H110560   2.490   3.013   4.360
 3532TIP3    H210561   2.431   3.090   4.243
 3533TIP3   OH210562   0.609   0.992   3.684
 3533TIP3    H110563   0.685   0.974   3.741
 3533TIP3    H210564   0.586   0.907   3.647
 3534TIP3   OH210565   4.631   0.300   0.682
 3534TIP3    H110566   4.678   0.243   0.744
 3534TIP3    H210567   4.687   0.377   0.672
 3535TIP3   OH210568   6.564   4.031   0.732
 3535TIP3    H110569   6.618   4.099   0.773
 3535TIP3    H210570   6.567   4.051   0.638
 3536TIP3   OH210571   2.605   5.973   1.083
 3536TIP3    H110572   2.677   5.927   1.039
 3536TIP3    H210573   2.581   6.043   1.021
 3537TIP3   OH210574   4.495   0.083   2.549
 3537TIP3    H110575   4.538   0.000   2.530
 3537TIP3    H210576   4.507   0.135   2.469
 3538TIP3   OH210577   6.727   6.706   4.528
 3538TIP3    H110578   6.799   6.760   4.562
 3538TIP3    H210579   6.770   6.630   4.490
 3539TIP3   OH210580   0.322   5.430   2.532
 3539TIP3    H110581   0.264   5.490   2.484
 3539TIP3    H210582   0.352   5.481   2.607
 3540TIP3   OH210583   4.388   4.446   0.407
 3540TIP3    H110584   4.449   4.381   0.373
 3540TIP3    H210585   4.316   4.448   0.343
 3541TIP3   OH210586   6.495   4.409   5.737
 3541TIP3    H110587   6.434   4.467   5.783
 3541TIP3    H210588   6.542   4.467   5.677
 3542TIP3   OH210589   4.924   0.294   0.154
 3542TIP3    H110590   4.939   0.290   0.060
 3542TIP3    H210591   4.995   0.242   0.192
 3543TIP3   OH210592   0.782   0.502   5.726
 3543TIP3    H110593   0.817   0.528   5.811
 3543TIP3    H210594   0.848   0.443   5.690
 3544TIP3   OH210595   0.090   4.420   3.705
 3544TIP3    H110596  -0.002   4.409   3.729
 3544TIP3    H210597   0.134   4.344   3.742
 3545TIP3   OH210598   5.035   0.001   0.174
 3545TIP3    H110599   5.099  -0.069   0.184
 3545TIP3    H210600   5.088   0.080   0.163
 3546TIP3   OH210601   1.171   1.631   0.993
 3546TIP3    H110602   1.114   1.603   1.064
 3546TIP3    H210603   1.200   1.550   0.952
 3547TIP3   OH210604   2.750   1.773   4.743
 3547TIP3    H110605   2.774   1.857   4.782
 3547TIP3    H210606   2.655   1.774   4.741
 3548TIP3   OH210607   2.791   2.968   0.209
 3548TIP3    H110608   2.704   2.941   0.179
 3548TIP3    H210609   2.775   3.008   0.294
 3549TIP3   OH210610   5.903   2.123   4.851
 3549TIP3    H110611   5.854   2.137   4.770
 3549TIP3    H210612   5.859   2.178   4.915
 3550TIP3   OH210613   2.840   0.999   3.316
 3550TIP3    H110614   2.824   1.079   3.267
 3550TIP3    H210615   2.817   1.020   3.406
 3551TIP3   OH210616   3.706   6.462   5.819
 3551TIP3    H110617   3.656   6.480   5.739
 3551TIP3    H210618   3.766   6.391   5.794
 3552TIP3   OH210619   5.177   1.676   2.126
 3552TIP3    H110620   5.170   1.686   2.031
 3552TIP3    H210621   5.270   1.692   2.145
 3553TIP3   OH210622   5.446   5.713   1.384
 3553TIP3    H110623   5.516   5.685   1.444
 3553TIP3    H210624   5.410   5.631   1.350
 3554TIP3   OH210625   5.959   4.191   4.651
 3554TIP3    H110626   6.050   4.195   4.679
 3554TIP3    H210627   5.926   4.108   4.687
 3555TIP3   OH210628   2.606   1.165   2.475
 3555TIP3    H110629   2.539   1.197   2.415
 3555TIP3    H210630   2.590   1.212   2.557
 3556TIP3   OH210631   0.399   2.537   4.256
 3556TIP3    H110632   0.357   2.510   4.338
 3556TIP3    H210633   0.401   2.633   4.260
 3557TIP3   OH210634   6.877   5.380   1.918
 3557TIP3    H110635   6.858   5.421   1.834
 3557TIP3    H210636   6.877   5.286   1.898
 3558TIP3   OH210637   5.727   6.751   4.127
 3558TIP3    H110638   5.714   6.709   4.042
 3558TIP3    H210639   5.776   6.687   4.179
 3559TIP3   OH210640   0.814   0.394   3.012
 3559TIP3    H110641   0.787   0.463   2.953
 3559TIP3    H210642   0.905   0.375   2.987
 3560TIP3   OH210643   4.173   5.044   3.225
 3560TIP3    H110644   4.183   5.132   3.188
 3560TIP3    H210645   4.085   5.045   3.263
 3561TIP3   OH210646   0.632   2.528   4.455
 3561TIP3    H110647   0.568   2.488   4.513
 3561TIP3    H210648   0.701   2.559   4.512
 3562TIP3   OH210649   0.068   0.945   4.092
 3562TIP3    H110650   0.007   1.018   4.093
 3562TIP3    H210651   0.155   0.985   4.101
 3563TIP3   OH210652   2.342   5.139   4.591
 3563TIP3    H110653   2.266   5.093   4.555
 3563TIP3    H210654   2.319   5.156   4.682
 3564TIP3   OH210655   2.892   1.582   3.455
 3564TIP3    H110656   2.897   1.600   3.549
 3564TIP3    H210657   2.903   1.487   3.448
 3565TIP3   OH210658   5.430   6.256   3.971
 3565TIP3    H110659   5.422   6.181   3.911
 3565TIP3    H210660   5.397   6.330   3.920
 3566TIP3   OH210661   2.223   6.311   3.262
 3566TIP3    H110662   2.202   6.326   3.170
 3566TIP3    H210663   2.310   6.349   3.274
 3567TIP3   OH210664   3.022   0.283   1.832
 3567TIP3    H110665   2.947   0.258   1.778
 3567TIP3    H210666   3.097   0.242   1.790
 3568TIP3   OH210667   2.379   5.104   5.565
 3568TIP3    H110668   2.395   5.198   5.552
 3568TIP3    H210669   2.336   5.099   5.650
 3569TIP3   OH210670   2.225   3.881   2.123
 3569TIP3    H110671   2.269   3.955   2.081
 3569TIP3    H210672   2.235   3.897   2.216
 3570TIP3   OH210673   5.486   6.798   1.491
 3570TIP3    H110674   5.557   6.863   1.491
 3570TIP3    H210675   5.516   6.731   1.430
 3571TIP3   OH210676   3.226   5.700   0.603
 3571TIP3    H110677   3.279   5.763   0.555
 3571TIP3    H210678   3.195   5.639   0.536
 3572TIP3   OH210679   0.255   4.643   4.367
 3572TIP3    H110680   0.326   4.580   4.373
 3572TIP3    H210681   0.298   4.728   4.360
 3573TIP3   OH210682   0.190   0.430   5.303
 3573TIP3    H110683   0.157   0.471   5.383
 3573TIP3    H210684   0.117   0.436   5.241
 3574TIP3   OH210685   0.560   3.543   3.732
 3574TIP3    H110686   0.503   3.587   3.795
 3574TIP3    H210687   0.641   3.594   3.733
 3575TIP3   OH210688   0.996   6.359   2.660
 3575TIP3    H110689   1.091   6.354   2.654
 3575TIP3    H210690   0.977   6.354   2.754
 3576TIP3   OH210691   3.900   0.484   3.147
 3576TIP3    H110692   3.854   0.527   3.220
 3576TIP3    H210693   3.860   0.398   3.140
 3577TIP3   OH210694   1.344   4.933   5.674
 3577TIP3    H110695   1.435   4.909   5.690
 3577TIP3    H210696   1.338   4.943   5.580
 3578TIP3   OH210697   6.608   4.460   0.967
 3578TIP3    H110698   6.646   4.539   1.005
 3578TIP3    H210699   6.576   4.487   0.880
 3579TIP3   OH210700   3.816   1.694   3.738
 3579TIP3    H110701   3.739   1.655   3.779
 3579TIP3    H210702   3.813   1.786   3.765
 3580TIP3   OH210703   1.151   1.244   1.668
 3580TIP3    H110704   1.227   1.186   1.657
 3580TIP3    H210705   1.171   1.294   1.747
 3581TIP3   OH210706   1.947   5.004   0.121
 3581TIP3    H110707   1.907   4.917   0.128
 3581TIP3    H210708   1.898   5.047   0.051
 3582TIP3   OH210709   3.424   3.710   2.777
 3582TIP3    H110710   3.351   3.725   2.716
 3582TIP3    H210711   3.484   3.783   2.761
 3583TIP3   OH210712   1.339   5.876   1.793
 3583TIP3    H110713   1.335   5.787   1.826
 3583TIP3    H210714   1.361   5.929   1.869
 3584TIP3   OH210715   4.768   1.949   0.019
 3584TIP3    H110716   4.773   1.994  -0.065
 3584TIP3    H210717   4.681   1.969   0.052
 3585TIP3   OH210718   4.652   3.436   5.400
 3585TIP3    H110719   4.558   3.415   5.400
 3585TIP3    H210720   4.685   3.396   5.319
 3586TIP3   OH210721   5.669   1.567   2.344
 3586TIP3    H110722   5.695   1.519   2.422
 3586TIP3    H210723   5.631   1.649   2.376
 3587TIP3   OH210724   1.468   6.616   3.472
 3587TIP3    H110725   1.464   6.522   3.458
 3587TIP3    H210726   1.456   6.627   3.566
 3588TIP3   OH210727   0.616   4.434   3.968
 3588TIP3    H110728   0.588   4.510   4.019
 3588TIP3    H210729   0.564   4.362   4.003
 3589TIP3   OH210730   2.931   0.928   4.565
 3589TIP3    H110731   3.002   0.920   4.501
 3589TIP3    H210732   2.947   0.859   4.628
 3590TIP3   OH210733   4.680   2.967   3.598
 3590TIP3    H110734   4.656   2.879   3.625
 3590TIP3    H210735   4.704   3.011   3.679
 3591TIP3   OH210736   6.430   0.539   4.805
 3591TIP3    H110737   6.441   0.580   4.719
 3591TIP3    H210738   6.510   0.561   4.853
 3592TIP3   OH210739   1.360   5.851   4.645
 3592TIP3    H110740   1.443   5.879   4.608
 3592TIP3    H210741   1.322   5.793   4.579
 3593TIP3   OH210742   1.385   3.335   2.893
 3593TIP3    H110743   1.401   3.272   2.823
 3593TIP3    H210744   1.334   3.287   2.958
 3594TIP3   OH210745   4.958   3.823   4.867
 3594TIP3    H110746   5.001   3.758   4.812
 3594TIP3    H210747   4.989   3.804   4.956
 3595TIP3   OH210748   3.561   6.314   1.638
 3595TIP3    H110749   3.552   6.371   1.714
 3595TIP3    H210750   3.625   6.248   1.665
 3596TIP3   OH210751   4.375   2.171   2.862
 3596TIP3    H110752   4.410   2.161   2.774
 3596TIP3    H210753   4.281   2.156   2.853
 3597TIP3   OH210754   1.069   5.941   5.724
 3597TIP3    H110755   1.156   5.970   5.694
 3597TIP3    H210756   1.028   5.906   5.645
 3598TIP3   OH210757   6.108   3.734   1.795
 3598TIP3    H110758   6.060   3.762   1.873
 3598TIP3    H210759   6.191   3.780   1.800
 3599TIP3   OH210760   2.114   0.093   5.673
 3599TIP3    H110761   2.058   0.122   5.745
 3599TIP3    H210762   2.121   0.169   5.615
 3600TIP3   OH210763   0.888   6.640   3.858
 3600TIP3    H110764   0.814   6.660   3.915
 3600TIP3    H210765   0.957   6.699   3.887
 3601TIP3   OH210766   4.488   5.371   1.341
 3601TIP3    H110767   4.495   5.275   1.343
 3601TIP3    H210768   4.429   5.389   1.268
 3602TIP3   OH210769   3.447   1.734   2.037
 3602TIP3    H110770   3.358   1.704   2.054
 3602TIP3    H210771   3.503   1.661   2.064
 3603TIP3   OH210772   4.544   0.586   1.666
 3603TIP3    H110773   4.530   0.498   1.700
 3603TIP3    H210774   4.505   0.644   1.732
 3604TIP3   OH210775   2.119   2.572   2.434
 3604TIP3    H110776   2.089   2.500   2.379
 3604TIP3    H210777   2.151   2.530   2.514
 3605TIP3   OH210778   4.813   6.705   2.583
 3605TIP3    H110779   4.874   6.731   2.652
 3605TIP3    H210780   4.869   6.669   2.514
 3606TIP3   OH210781   3.073   6.287   2.021
 3606TIP3    H110782   3.007   6.250   2.080
 3606TIP3    H210783   3.154   6.241   2.043
 3607TIP3   OH210784   2.090   3.482   1.746
 3607TIP3    H110785   2.060   3.467   1.836
 3607TIP3    H210786   2.186   3.488   1.754
 3608TIP3   OH210787   2.736   0.212   4.913
 3608TIP3    H110788   2.774   0.194   4.827
 3608TIP3    H210789   2.658   0.157   4.918
 3609TIP3   OH210790   0.698   6.671   5.492
 3609TIP3    H110791   0.693   6.702   5.583
 3609TIP3    H210792   0.699   6.751   5.440
 3610TIP3   OH210793   3.158   0.088   4.750
 3610TIP3    H110794   3.066   0.086   4.726
 3610TIP3    H210795   3.188   0.174   4.722
 3611TIP3   OH210796   2.888   0.979   3.646
 3611TIP3    H110797   2.828   1.013   3.712
 3611TIP3    H210798   2.864   0.887   3.637
 3612TIP3   OH210799   1.233   3.349   4.466
 3612TIP3    H110800   1.300   3.281   4.456
 3612TIP3    H210801   1.150   3.302   4.460
 3613TIP3   OH210802   1.799   4.363   4.132
 3613TIP3    H110803   1.816   4.284   4.183
 3613TIP3    H210804   1.886   4.398   4.113
 3614TIP3   OH210805   3.206   4.113   3.279
 3614TIP3    H110806   3.216   4.199   3.238
 3614TIP3    H210807   3.197   4.053   3.206
 3615TIP3   OH210808   5.349   4.251   1.660
 3615TIP3    H110809   5.376   4.203   1.582
 3615TIP3    H210810   5.316   4.334   1.627
 3616TIP3   OH210811   2.028   5.075   1.660
 3616TIP3    H110812   2.059   4.985   1.667
 3616TIP3    H210813   1.938   5.067   1.628
 3617TIP3   OH210814   6.918   6.285   4.536
 3617TIP3    H110815   6.865   6.284   4.616
 3617TIP3    H210816   6.903   6.199   4.496
 3618TIP3   OH210817   3.630   1.748   3.182
 3618TIP3    H110818   3.665   1.705   3.261
 3618TIP3    H210819   3.701   1.804   3.152
 3619TIP3   OH210820   7.108   2.328   1.348
 3619TIP3    H110821   7.060   2.363   1.423
 3619TIP3    H210822   7.170   2.266   1.385
 3620TIP3   OH210823   5.728   3.732   1.061
 3620TIP3    H110824   5.656   3.795   1.070
 3620TIP3    H210825   5.802   3.784   1.032
 3621TIP3   OH210826   4.070   4.060   4.573
 3621TIP3    H110827   4.030   4.141   4.540
 3621TIP3    H210828   4.140   4.091   4.632
 3622TIP3   OH210829   0.085   5.773   1.456
 3622TIP3    H110830   0.107   5.862   1.430
 3622TIP3    H210831   0.005   5.782   1.507
 3623TIP3   OH210832   5.891   3.208   4.575
 3623TIP3    H110833   5.819   3.187   4.635
 3623TIP3    H210834   5.878   3.301   4.554
 3624TIP3   OH210835   7.031   3.837   0.983
 3624TIP3    H110836   6.963   3.831   0.916
 3624TIP3    H210837   7.024   3.926   1.017
 3625TIP3   OH210838   5.494   5.140   4.149
 3625TIP3    H110839   5.452   5.194   4.082
 3625TIP3    H210840   5.456   5.053   4.138
 3626TIP3   OH210841   0.970   2.053   4.430
 3626TIP3    H110842   0.905   2.119   4.458
 3626TIP3    H210843   1.022   2.097   4.363
 3627TIP3   OH210844   0.151   1.474   5.428
 3627TIP3    H110845   0.121   1.402   5.373
 3627TIP3    H210846   0.077   1.534   5.432
 3628TIP3   OH210847   0.418   3.468   2.250
 3628TIP3    H110848   0.473   3.465   2.172
 3628TIP3    H210849   0.475   3.500   2.319
 3629TIP3   OH210850   6.347   3.354   0.148
 3629TIP3    H110851   6.402   3.432   0.154
 3629TIP3    H210852   6.409   3.283   0.131
 3630TIP3   OH210853   4.288   4.931   1.902
 3630TIP3    H110854   4.203   4.940   1.858
 3630TIP3    H210855   4.352   4.928   1.831
 3631TIP3   OH210856   0.188   4.052   3.198
 3631TIP3    H110857   0.244   4.086   3.268
 3631TIP3    H210858   0.233   4.079   3.118
 3632TIP3   OH210859   6.776   1.607   2.972
 3632TIP3    H110860   6.798   1.609   3.065
 3632TIP3    H210861   6.692   1.653   2.966
 3633TIP3   OH210862   0.637   0.283   4.461
 3633TIP3    H110863   0.604   0.225   4.530
 3633TIP3    H210864   0.719   0.242   4.433
 3634TIP3   OH210865   0.296   6.733   1.560
 3634TIP3    H110866   0.358   6.678   1.512
 3634TIP3    H210867   0.242   6.773   1.491
 3635TIP3   OH210868   4.143   2.739   1.210
 3635TIP3    H110869   4.190   2.659   1.184
 3635TIP3    H210870   4.201   2.781   1.273
 3636TIP3   OH210871   4.423   0.325   2.376
 3636TIP3    H110872   4.499   0.383   2.370
 3636TIP3    H210873   4.378   0.336   2.292
 3637TIP3   OH210874   3.230   4.875   3.762
 3637TIP3    H110875   3.231   4.781   3.744
 3637TIP3    H210876   3.168   4.912   3.700
 3638TIP3   OH210877   3.622   5.684   0.930
 3638TIP3    H110878   3.559   5.613   0.915
 3638TIP3    H210879   3.572   5.751   0.976
 3639TIP3   OH210880   6.131   4.437   1.500
 3639TIP3    H110881   6.144   4.378   1.426
 3639TIP3    H210882   6.040   4.464   1.494
 3640TIP3   OH210883   3.234   1.916   1.907
 3640TIP3    H110884   3.270   1.967   1.980
 3640TIP3    H210885   3.223   1.979   1.836
 3641TIP3   OH210886   2.501   0.278   4.651
 3641TIP3    H110887   2.576   0.268   4.592
 3641TIP3    H210888   2.503   0.200   4.706
 3642TIP3   OH210889   4.075   0.661   1.045
 3642TIP3    H110890   4.106   0.595   0.983
 3642TIP3    H210891   4.094   0.624   1.131
 3643TIP3   OH210892   3.772   0.006   4.358
 3643TIP3    H110893   3.847   0.023   4.414
 3643TIP3    H210894   3.697   0.038   4.408
 3644TIP3   OH210895   3.328   3.946   0.634
 3644TIP3    H110896   3.243   3.938   0.676
 3644TIP3    H210897   3.316   3.905   0.548
 3645TIP3   OH210898   4.378   3.595   2.083
 3645TIP3    H110899   4.323   3.640   2.147
 3645TIP3    H210900   4.423   3.527   2.134
 3646TIP3   OH210901   2.871   3.547   5.272
 3646TIP3    H110902   2.910   3.480   5.215
 3646TIP3    H210903   2.785   3.512   5.294
 3647TIP3   OH210904   0.251   6.604   0.532
 3647TIP3    H110905   0.328   6.552   0.557
 3647TIP3    H210906   0.185   6.538   0.509
 3648TIP3   OH210907   5.812   3.111   5.325
 3648TIP3    H110908   5.877   3.045   5.350
 3648TIP3    H210909   5.731   3.082   5.366
 3649TIP3   OH210910   0.521   0.639   4.871
 3649TIP3    H110911   0.457   0.635   4.800
 3649TIP3    H210912   0.513   0.727   4.906
 3650TIP3   OH210913   4.507   0.175   3.691
 3650TIP3    H110914   4.425   0.189   3.643
 3650TIP3    H210915   4.501   0.085   3.723
 3651TIP3   OH210916   1.556   2.476   5.658
 3651TIP3    H110917   1.620   2.412   5.687
 3651TIP3    H210918   1.570   2.483   5.563
 3652TIP3   OH210919   3.790   1.443   0.623
 3652TIP3    H110920   3.733   1.471   0.552
 3652TIP3    H210921   3.828   1.360   0.593
 3653TIP3   OH210922   0.852   1.008   5.913
 3653TIP3    H110923   0.835   1.100   5.932
 3653TIP3    H210924   0.882   1.007   5.822
 3654TIP3   OH210925   3.644   4.238   4.105
 3654TIP3    H110926   3.631   4.272   4.016
 3654TIP3    H210927   3.669   4.314   4.157
 3655TIP3   OH210928   2.595   5.551   2.520
 3655TIP3    H110929   2.539   5.473   2.527
 3655TIP3    H210930   2.680   5.522   2.551
 3656TIP3   OH210931   5.751   6.460   4.140
 3656TIP3    H110932   5.809   6.457   4.217
 3656TIP3    H210933   5.753   6.371   4.106
 3657TIP3   OH210934   7.117   4.957   0.814
 3657TIP3    H110935   7.138   5.048   0.793
 3657TIP3    H210936   7.115   4.953   0.909
 3658TIP3   OH210937   1.965   2.655   1.466
 3658TIP3    H110938   1.909   2.730   1.488
 3658TIP3    H210939   2.053   2.683   1.489
 3659TIP3   OH210940   4.912   3.764   2.450
 3659TIP3    H110941   4.835   3.761   2.392
 3659TIP3    H210942   4.984   3.792   2.393
 3660TIP3   OH210943   1.229   6.310   0.279
 3660TIP3    H110944   1.280   6.335   0.202
 3660TIP3    H210945   1.168   6.244   0.247
 3661TIP3   OH210946   1.771   0.854   0.692
 3661TIP3    H110947   1.822   0.801   0.753
 3661TIP3    H210948   1.837   0.896   0.637
 3662TIP3   OH210949   4.577   6.005   0.761
 3662TIP3    H110950   4.634   5.961   0.823
 3662TIP3    H210951   4.534   5.933   0.713
 3663TIP3   OH210952   3.482   0.823   1.254
 3663TIP3    H110953   3.553   0.817   1.189
 3663TIP3    H210954   3.458   0.916   1.254
 3664TIP3   OH210955   3.533   5.602   2.449
 3664TIP3    H110956   3.569   5.689   2.434
 3664TIP3    H210957   3.536   5.559   2.364
 3665TIP3   OH210958   4.005   5.872   1.884
 3665TIP3    H110959   3.928   5.884   1.828
 3665TIP3    H210960   3.991   5.932   1.957
 3666TIP3   OH210961   4.696   5.277   1.538
 3666TIP3    H110962   4.648   5.329   1.473
 3666TIP3    H210963   4.732   5.341   1.599
 3667TIP3   OH210964   4.975   4.634   2.330
 3667TIP3    H110965   5.029   4.656   2.255
 3667TIP3    H210966   5.036   4.630   2.404
 3668TIP3   OH210967   4.698   6.621   0.508
 3668TIP3    H110968   4.612   6.635   0.470
 3668TIP3    H210969   4.718   6.703   0.553
 3669TIP3   OH210970   3.891   3.515   0.282
 3669TIP3    H110971   3.879   3.599   0.237
 3669TIP3    H210972   3.858   3.531   0.370
 3670TIP3   OH210973   4.879   3.252   3.504
 3670TIP3    H110974   4.853   3.191   3.573
 3670TIP3    H210975   4.886   3.337   3.548
 3671TIP3   OH210976   2.617   3.152   4.527
 3671TIP3    H110977   2.680   3.084   4.552
 3671TIP3    H210978   2.534   3.122   4.562
 3672TIP3   OH210979   3.068   2.865   0.241
 3672TIP3    H110980   2.987   2.908   0.213
 3672TIP3    H210981   3.097   2.815   0.165
 3673TIP3   OH210982   5.808   2.059   3.719
 3673TIP3    H110983   5.851   2.106   3.648
 3673TIP3    H210984   5.718   2.046   3.689
 3674TIP3   OH210985   4.674   1.118   3.196
 3674TIP3    H110986   4.734   1.187   3.170
 3674TIP3    H210987   4.730   1.043   3.216
 3675TIP3   OH210988   6.808   5.291   0.129
 3675TIP3    H110989   6.822   5.254   0.217
 3675TIP3    H210990   6.813   5.216   0.071
 3676TIP3   OH210991   1.893   3.203   0.492
 3676TIP3    H110992   1.841   3.214   0.571
 3676TIP3    H210993   1.882   3.285   0.443
 3677TIP3   OH210994   3.404   3.865   4.638
 3677TIP3    H110995   3.495   3.891   4.654
 3677TIP3    H210996   3.370   3.844   4.725
 3678TIP3   OH210997  -0.013   3.854   1.330
 3678TIP3    H110998   0.043   3.826   1.258
 3678TIP3    H210999  -0.009   3.949   1.329
 3679TIP3   OH211000   5.366   5.040   1.152
 3679TIP3    H111001   5.374   5.026   1.246
 3679TIP3    H211002   5.320   4.962   1.120
 3680TIP3   OH211003   3.049   5.657   4.420
 3680TIP3    H111004   3.080   5.596   4.353
 3680TIP3    H211005   2.959   5.676   4.394
 3681TIP3   OH211006   0.665   6.760   1.031
 3681TIP3    H111007   0.666   6.850   1.063
 3681TIP3    H211008   0.605   6.761   0.957
 3682TIP3   OH211009   0.989   4.406   5.748
 3682TIP3    H111010   0.971   4.464   5.674
 3682TIP3    H211011   1.083   4.387   5.741
 3683TIP3   OH211012   7.051   6.789   0.600
 3683TIP3    H111013   6.959   6.813   0.592
 3683TIP3    H211014   7.050   6.708   0.651
 3684TIP3   OH211015   5.232   4.681   4.930
 3684TIP3    H111016   5.273   4.604   4.891
 3684TIP3    H211017   5.159   4.702   4.872
 3685TIP3   OH211018   1.716   6.304   5.752
 3685TIP3    H111019   1.784   6.368   5.776
 3685TIP3    H211020   1.762   6.221   5.747
 3686TIP3   OH211021   2.852   0.569   0.455
 3686TIP3    H111022   2.813   0.641   0.504
 3686TIP3    H211023   2.787   0.549   0.387
 3687TIP3   OH211024   1.700   6.505   1.591
 3687TIP3    H111025   1.793   6.485   1.583
 3687TIP3    H211026   1.684   6.506   1.685
 3688TIP3   OH211027   3.819   4.906   4.432
 3688TIP3    H111028   3.879   4.950   4.492
 3688TIP3    H211029   3.818   4.963   4.354
 3689TIP3   OH211030   1.790   6.324   3.715
 3689TIP3    H111031   1.712   6.321   3.770
 3689TIP3    H211032   1.850   6.382   3.762
 3690TIP3   OH211033   5.358   1.756   1.165
 3690TIP3    H111034   5.377   1.672   1.207
 3690TIP3    H211035   5.376   1.822   1.232
 3691TIP3   OH211036   1.266   2.359   3.410
 3691TIP3    H111037   1.209   2.283   3.397
 3691TIP3    H211038   1.354   2.326   3.392
 3692TIP3   OH211039   5.947   4.924   2.919
 3692TIP3    H111040   5.854   4.944   2.932
 3692TIP3    H211041   5.949   4.829   2.904
 3693TIP3   OH211042   1.844   6.084   5.642
 3693TIP3    H111043   1.850   6.060   5.550
 3693TIP3    H211044   1.914   6.036   5.685
 3694TIP3   OH211045   5.427   5.484   1.657
 3694TIP3    H111046   5.407   5.438   1.738
 3694TIP3    H211047   5.356   5.462   1.597
 3695TIP3   OH211048   4.514   3.887   4.669
 3695TIP3    H111049   4.563   3.871   4.588
 3695TIP3    H211050   4.533   3.812   4.724
 3696TIP3   OH211051   2.798   2.542   3.627
 3696TIP3    H111052   2.781   2.587   3.710
 3696TIP3    H211053   2.713   2.538   3.583
 3697TIP3   OH211054   1.072   0.620   3.001
 3697TIP3    H111055   1.117   0.682   2.944
 3697TIP3    H211056   1.118   0.628   3.085
 3698TIP3   OH211057   0.265   2.443   4.007
 3698TIP3    H111058   0.219   2.498   3.943
 3698TIP3    H211059   0.333   2.500   4.042
 3699TIP3   OH211060   3.561   4.478   5.507
 3699TIP3    H111061   3.475   4.463   5.468
 3699TIP3    H211062   3.597   4.391   5.521
 3700TIP3   OH211063   2.925   1.154   4.925
 3700TIP3    H111064   2.976   1.232   4.901
 3700TIP3    H211065   2.954   1.087   4.863
 3701TIP3   OH211066   3.596   2.811   3.728
 3701TIP3    H111067   3.600   2.721   3.759
 3701TIP3    H211068   3.502   2.831   3.723
 3702TIP3   OH211069   0.966   4.025   3.069
 3702TIP3    H111070   0.915   4.106   3.073
 3702TIP3    H211071   0.970   4.003   2.976
 3703TIP3   OH211072   3.551   6.487   5.607
 3703TIP3    H111073   3.509   6.423   5.550
 3703TIP3    H211074   3.496   6.565   5.601
 3704TIP3   OH211075   6.308   4.158   2.998
 3704TIP3    H111076   6.324   4.143   3.091
 3704TIP3    H211077   6.216   4.186   2.994
 3705TIP3   OH211078   3.600   4.528   0.208
 3705TIP3    H111079   3.626   4.592   0.142
 3705TIP3    H211080   3.633   4.444   0.175
 3706TIP3   OH211081   3.506   5.899   3.624
 3706TIP3    H111082   3.587   5.943   3.651
 3706TIP3    H211083   3.465   5.871   3.705
 3707TIP3   OH211084   4.208   0.776   4.282
 3707TIP3    H111085   4.271   0.847   4.270
 3707TIP3    H211086   4.216   0.751   4.374
 3708TIP3   OH211087   6.516   4.976   0.142
 3708TIP3    H111088   6.532   5.068   0.160
 3708TIP3    H211089   6.421   4.969   0.136
 3709TIP3   OH211090   0.186   5.491   4.659
 3709TIP3    H111091   0.167   5.502   4.565
 3709TIP3    H211092   0.125   5.424   4.688
 3710TIP3   OH211093   2.316   0.273   5.123
 3710TIP3    H111094   2.399   0.246   5.161
 3710TIP3    H211095   2.288   0.347   5.178
 3711TIP3   OH211096   5.582   2.669   0.451
 3711TIP3    H111097   5.496   2.634   0.428
 3711TIP3    H211098   5.643   2.619   0.397
 3712TIP3   OH211099   5.781   5.683   4.538
 3712TIP3    H111100   5.819   5.704   4.453
 3712TIP3    H211101   5.686   5.688   4.524
 3713TIP3   OH211102   2.882   3.666   2.473
 3713TIP3    H111103   2.884   3.633   2.383
 3713TIP3    H211104   2.962   3.633   2.513
 3714TIP3   OH211105   0.833   3.771   5.581
 3714TIP3    H111106   0.788   3.695   5.543
 3714TIP3    H211107   0.870   3.738   5.663
 3715TIP3   OH211108   7.058   3.472   5.779
 3715TIP3    H111109   7.087   3.386   5.809
 3715TIP3    H211110   7.039   3.459   5.686
 3716TIP3   OH211111   1.998   6.408   4.997
 3716TIP3    H111112   2.046   6.352   5.057
 3716TIP3    H211113   2.046   6.402   4.915
 3717TIP3   OH211114   4.830   1.659   2.727
 3717TIP3    H111115   4.873   1.634   2.808
 3717TIP3    H211116   4.738   1.638   2.741
 3718TIP3   OH211117   6.534   1.755   1.978
 3718TIP3    H111118   6.492   1.828   2.024
 3718TIP3    H211119   6.617   1.743   2.024
 3719TIP3   OH211120   3.835   0.545   0.731
 3719TIP3    H111121   3.922   0.562   0.695
 3719TIP3    H211122   3.835   0.452   0.753
 3720TIP3   OH211123   4.284   2.828   5.364
 3720TIP3    H111124   4.342   2.805   5.436
 3720TIP3    H211125   4.315   2.776   5.290
 3721TIP3   OH211126   2.486   4.521   4.797
 3721TIP3    H111127   2.409   4.551   4.846
 3721TIP3    H211128   2.552   4.504   4.864
 3722TIP3   OH211129   2.321   1.001   5.696
 3722TIP3    H111130   2.321   0.923   5.640
 3722TIP3    H211131   2.395   1.053   5.664
 3723TIP3   OH211132   2.960   2.746   4.272
 3723TIP3    H111133   2.922   2.770   4.187
 3723TIP3    H211134   2.901   2.679   4.306
 3724TIP3   OH211135   6.194   1.435   0.646
 3724TIP3    H111136   6.151   1.518   0.626
 3724TIP3    H211137   6.275   1.436   0.594
 3725TIP3   OH211138   1.580   3.835   2.540
 3725TIP3    H111139   1.637   3.898   2.585
 3725TIP3    H211140   1.570   3.871   2.452
 3726TIP3   OH211141   1.882   2.777   4.515
 3726TIP3    H111142   1.942   2.850   4.526
 3726TIP3    H211143   1.930   2.702   4.551
 3727TIP3   OH211144   4.190   1.029   4.810
 3727TIP3    H111145   4.274   1.074   4.817
 3727TIP3    H211146   4.190   0.993   4.721
 3728TIP3   OH211147   6.516   2.108   0.348
 3728TIP3    H111148   6.493   2.022   0.382
 3728TIP3    H211149   6.610   2.104   0.332
 3729TIP3   OH211150   0.881   2.584   3.518
 3729TIP3    H111151   0.892   2.673   3.549
 3729TIP3    H211152   0.960   2.538   3.547
 3730TIP3   OH211153   5.770   3.865   0.437
 3730TIP3    H111154   5.806   3.788   0.394
 3730TIP3    H211155   5.821   3.874   0.517
 3731TIP3   OH211156   1.986   2.421   1.663
 3731TIP3    H111157   1.970   2.459   1.577
 3731TIP3    H211158   2.057   2.474   1.700
 3732TIP3   OH211159   3.306   0.271   3.032
 3732TIP3    H111160   3.342   0.211   3.097
 3732TIP3    H211161   3.219   0.236   3.013
 3733TIP3   OH211162   6.135   0.079   0.461
 3733TIP3    H111163   6.205   0.113   0.516
 3733TIP3    H211164   6.167  -0.006   0.431
 3734TIP3   OH211165   2.537   5.182   0.469
 3734TIP3    H111166   2.601   5.138   0.413
 3734TIP3    H211167   2.544   5.274   0.447
 3735TIP3   OH211168   5.023   5.112   5.140
 3735TIP3    H111169   5.018   5.033   5.086
 3735TIP3    H211170   5.068   5.176   5.084
 3736TIP3   OH211171   2.417   4.421   1.408
 3736TIP3    H111172   2.489   4.480   1.434
 3736TIP3    H211173   2.456   4.334   1.412
 3737TIP3   OH211174   6.457   0.925   2.773
 3737TIP3    H111175   6.445   0.837   2.808
 3737TIP3    H211176   6.368   0.954   2.751
 3738TIP3   OH211177   0.550   4.842   1.041
 3738TIP3    H111178   0.478   4.903   1.026
 3738TIP3    H211179   0.621   4.897   1.073
 3739TIP3   OH211180   5.787   2.245   4.645
 3739TIP3    H111181   5.811   2.334   4.670
 3739TIP3    H211182   5.819   2.236   4.555
 3740TIP3   OH211183   2.317   4.812   3.820
 3740TIP3    H111184   2.361   4.727   3.814
 3740TIP3    H211185   2.225   4.793   3.801
 3741TIP3   OH211186   3.235   5.573   1.961
 3741TIP3    H111187   3.304   5.589   2.025
 3741TIP3    H211188   3.156   5.608   2.003
 3742TIP3   OH211189   3.204   3.814   1.795
 3742TIP3    H111190   3.129   3.868   1.770
 3742TIP3    H211191   3.167   3.739   1.841
 3743TIP3   OH211192   0.899   0.645   4.971
 3743TIP3    H111193   0.957   0.695   4.913
 3743TIP3    H211194   0.942   0.560   4.981
 3744TIP3   OH211195   6.413   1.573   3.222
 3744TIP3    H111196   6.440   1.487   3.255
 3744TIP3    H211197   6.317   1.571   3.225
 3745TIP3   OH211198   0.065   2.625   3.957
 3745TIP3    H111199   0.075   2.691   4.026
 3745TIP3    H211200   0.004   2.561   3.993
 3746TIP3   OH211201   4.864   0.592   5.789
 3746TIP3    H111202   4.798   0.534   5.828
 3746TIP3    H211203   4.948   0.555   5.818
 3747TIP3   OH211204   0.326   2.812   4.217
 3747TIP3    H111205   0.355   2.869   4.146
 3747TIP3    H211206   0.363   2.852   4.296
 3748TIP3   OH211207   5.764   0.172   0.962
 3748TIP3    H111208   5.720   0.215   0.889
 3748TIP3    H211209   5.764   0.079   0.940
 3749TIP3   OH211210   4.199   4.943   2.488
 3749TIP3    H111211   4.217   5.033   2.514
 3749TIP3    H211212   4.282   4.912   2.452
 3750TIP3   OH211213   4.754   5.022   2.113
 3750TIP3    H111214   4.670   4.985   2.084
 3750TIP3    H211215   4.761   4.997   2.205
 3751TIP3   OH211216   1.045   5.311   2.531
 3751TIP3    H111217   1.090   5.354   2.458
 3751TIP3    H211218   1.107   5.314   2.604
 3752TIP3   OH211219   0.696   2.629   0.265
 3752TIP3    H111220   0.648   2.576   0.202
 3752TIP3    H211221   0.648   2.619   0.347
 3753TIP3   OH211222   6.696   2.939   4.280
 3753TIP3    H111223   6.756   2.864   4.273
 3753TIP3    H211224   6.664   2.935   4.371
 3754TIP3   OH211225   7.003   1.599   2.837
 3754TIP3    H111226   6.918   1.602   2.881
 3754TIP3    H211227   7.007   1.512   2.798
 3755TIP3   OH211228   1.807   0.360   5.815
 3755TIP3    H111229   1.796   0.325   5.727
 3755TIP3    H211230   1.760   0.299   5.871
 3756TIP3   OH211231   2.202   3.247   2.474
 3756TIP3    H111232   2.157   3.252   2.389
 3756TIP3    H211233   2.241   3.333   2.486
 3757TIP3   OH211234   2.870   0.256   0.355
 3757TIP3    H111235   2.800   0.194   0.376
 3757TIP3    H211236   2.831   0.342   0.370
 3758TIP3   OH211237   4.414   1.126   1.561
 3758TIP3    H111238   4.469   1.103   1.636
 3758TIP3    H211239   4.327   1.096   1.585
 3759TIP3   OH211240   3.497   3.150   5.589
 3759TIP3    H111241   3.550   3.207   5.532
 3759TIP3    H211242   3.455   3.089   5.529
 3760TIP3   OH211243   6.677   3.456   3.044
 3760TIP3    H111244   6.603   3.401   3.068
 3760TIP3    H211245   6.711   3.489   3.127
 3761TIP3   OH211246   4.931   5.745   0.139
 3761TIP3    H111247   4.866   5.728   0.072
 3761TIP3    H211248   4.894   5.816   0.191
 3762TIP3   OH211249   2.308   0.367   4.074
 3762TIP3    H111250   2.332   0.421   4.149
 3762TIP3    H211251   2.214   0.351   4.086
 3763TIP3   OH211252   3.798   5.811   4.396
 3763TIP3    H111253   3.889   5.838   4.383
 3763TIP3    H211254   3.759   5.881   4.447
 3764TIP3   OH211255   1.525   3.307   5.250
 3764TIP3    H111256   1.581   3.313   5.327
 3764TIP3    H211257   1.585   3.282   5.179
 3765TIP3   OH211258   3.886   5.740   4.774
 3765TIP3    H111259   3.934   5.667   4.813
 3765TIP3    H211260   3.939   5.817   4.792
 3766TIP3   OH211261   1.979   2.737   1.772
 3766TIP3    H111262   1.997   2.762   1.862
 3766TIP3    H211263   2.063   2.706   1.738
 3767TIP3   OH211264   5.200   4.555   3.958
 3767TIP3    H111265   5.276   4.513   4.001
 3767TIP3    H211266   5.173   4.623   4.019
 3768TIP3   OH211267   6.238   1.973   3.520
 3768TIP3    H111268   6.212   1.883   3.541
 3768TIP3    H211269   6.331   1.976   3.542
 3769TIP3   OH211270   1.796   1.027   5.653
 3769TIP3    H111271   1.826   0.991   5.569
 3769TIP3    H211272   1.865   1.088   5.678
 3770TIP3   OH211273   4.964   0.745   2.837
 3770TIP3    H111274   5.013   0.714   2.913
 3770TIP3    H211275   4.998   0.692   2.764
 3771TIP3   OH211276   0.222   3.104   0.240
 3771TIP3    H111277   0.275   3.131   0.165
 3771TIP3    H211278   0.181   3.023   0.213
 3772TIP3   OH211279   0.720   2.196   3.399
 3772TIP3    H111280   0.715   2.291   3.389
 3772TIP3    H211281   0.628   2.168   3.405
 3773TIP3   OH211282   5.801   2.552   2.085
 3773TIP3    H111283   5.706   2.544   2.076
 3773TIP3    H211284   5.816   2.646   2.098
 3774TIP3   OH211285   0.960   1.450   3.032
 3774TIP3    H111286   0.982   1.453   2.939
 3774TIP3    H211287   0.871   1.415   3.034
 3775TIP3   OH211288   0.114   6.045   1.456
 3775TIP3    H111289   0.194   6.096   1.467
 3775TIP3    H211290   0.059   6.070   1.530
 3776TIP3   OH211291   2.946   1.081   0.216
 3776TIP3    H111292   2.951   1.176   0.205
 3776TIP3    H211293   2.853   1.063   0.227
 3777TIP3   OH211294   3.055   4.471   0.676
 3777TIP3    H111295   2.994   4.411   0.633
 3777TIP3    H211296   3.007   4.554   0.682
 3778TIP3   OH211297   0.421   2.973   5.105
 3778TIP3    H111298   0.451   3.060   5.129
 3778TIP3    H211299   0.326   2.977   5.116
 3779TIP3   OH211300   0.096   0.766   1.895
 3779TIP3    H111301   0.050   0.839   1.855
 3779TIP3    H211302   0.189   0.786   1.881
 3780TIP3   OH211303   4.911   1.776   2.235
 3780TIP3    H111304   4.940   1.866   2.222
 3780TIP3    H211305   4.992   1.725   2.238
 3781TIP3   OH211306   5.499   0.059   2.867
 3781TIP3    H111307   5.450   0.082   2.788
 3781TIP3    H211308   5.591   0.060   2.840
 3782TIP3   OH211309   6.678   2.260   0.993
 3782TIP3    H111310   6.687   2.245   0.899
 3782TIP3    H211311   6.617   2.334   1.000
 3783TIP3   OH211312   4.338   2.746   1.719
 3783TIP3    H111313   4.380   2.830   1.700
 3783TIP3    H211314   4.263   2.768   1.773
 3784TIP3   OH211315   3.615  -0.022   5.158
 3784TIP3    H111316   3.580  -0.032   5.246
 3784TIP3    H211317   3.604   0.071   5.138
 3785TIP3   OH211318   3.518   5.113   0.085
 3785TIP3    H111319   3.481   5.033   0.121
 3785TIP3    H211320   3.463   5.133   0.009
 3786TIP3   OH211321   5.022   0.733   0.382
 3786TIP3    H111322   4.981   0.819   0.394
 3786TIP3    H211323   4.985   0.699   0.301
 3787TIP3   OH211324   7.182   5.982   3.884
 3787TIP3    H111325   7.174   6.030   3.801
 3787TIP3    H211326   7.250   6.029   3.933
 3788TIP3   OH211327   0.220   1.420   0.524
 3788TIP3    H111328   0.224   1.417   0.619
 3788TIP3    H211329   0.162   1.348   0.500
 3789TIP3   OH211330   3.951   4.791   3.092
 3789TIP3    H111331   3.950   4.705   3.134
 3789TIP3    H211332   3.920   4.851   3.160
 3790TIP3   OH211333   0.549   5.994   2.886
 3790TIP3    H111334   0.464   5.952   2.879
 3790TIP3    H211335   0.530   6.084   2.912
 3791TIP3   OH211336   5.384   0.186   0.417
 3791TIP3    H111337   5.401   0.113   0.477
 3791TIP3    H211338   5.469   0.229   0.406
 3792TIP3   OH211339   6.778   3.141   4.121
 3792TIP3    H111340   6.754   3.063   4.171
 3792TIP3    H211341   6.871   3.129   4.102
 3793TIP3   OH211342   0.239   2.917   0.646
 3793TIP3    H111343   0.263   2.835   0.689
 3793TIP3    H211344   0.145   2.910   0.631
 3794TIP3   OH211345   6.152   1.485   3.837
 3794TIP3    H111346   6.127   1.556   3.896
 3794TIP3    H211347   6.118   1.511   3.751
 3795TIP3   OH211348   1.428   3.713   3.262
 3795TIP3    H111349   1.337   3.735   3.241
 3795TIP3    H211350   1.480   3.764   3.199
 3796TIP3   OH211351   3.803   1.082   3.423
 3796TIP3    H111352   3.828   1.138   3.349
 3796TIP3    H211353   3.772   1.001   3.383
 3797TIP3   OH211354   5.799   4.816   3.947
 3797TIP3    H111355   5.888   4.780   3.944
 3797TIP3    H211356   5.786   4.841   4.038
 3798TIP3   OH211357   2.056   2.596   2.874
 3798TIP3    H111358   2.116   2.590   2.948
 3798TIP3    H211359   1.983   2.649   2.908
 3799TIP3   OH211360   6.470   5.772   5.189
 3799TIP3    H111361   6.531   5.704   5.162
 3799TIP3    H211362   6.464   5.831   5.114
 3800TIP3   OH211363   2.410   3.657   5.389
 3800TIP3    H111364   2.374   3.732   5.437
 3800TIP3    H211365   2.497   3.644   5.427
 3801TIP3   OH211366   4.031   2.948   3.011
 3801TIP3    H111367   4.005   2.859   2.989
 3801TIP3    H211368   4.126   2.948   3.002
 3802TIP3   OH211369   3.471   1.938   5.062
 3802TIP3    H111370   3.387   1.896   5.080
 3802TIP3    H211371   3.536   1.876   5.094
 3803TIP3   OH211372   1.680   6.389   1.142
 3803TIP3    H111373   1.590   6.367   1.169
 3803TIP3    H211374   1.674   6.402   1.048
 3804TIP3   OH211375   1.370   4.250   0.633
 3804TIP3    H111376   1.373   4.202   0.550
 3804TIP3    H211377   1.455   4.294   0.638
 3805TIP3   OH211378   0.975   3.404   0.804
 3805TIP3    H111379   0.960   3.335   0.868
 3805TIP3    H211380   0.954   3.364   0.719
 3806TIP3   OH211381   3.146   3.897   3.593
 3806TIP3    H111382   3.121   3.957   3.663
 3806TIP3    H211383   3.143   3.950   3.514
 3807TIP3   OH211384   3.341   1.210   3.397
 3807TIP3    H111385   3.284   1.142   3.434
 3807TIP3    H211386   3.285   1.287   3.392
 3808TIP3   OH211387   6.670   3.531   4.771
 3808TIP3    H111388   6.648   3.498   4.684
 3808TIP3    H211389   6.711   3.457   4.816
 3809TIP3   OH211390   0.070   3.228   1.229
 3809TIP3    H111391  -0.022   3.247   1.210
 3809TIP3    H211392   0.115   3.240   1.145
 3810TIP3   OH211393   1.939   1.557   1.845
 3810TIP3    H111394   1.892   1.591   1.769
 3810TIP3    H211395   1.934   1.627   1.910
 3811TIP3   OH211396   7.050   4.338   1.504
 3811TIP3    H111397   7.135   4.301   1.527
 3811TIP3    H211398   7.018   4.376   1.585
 3812TIP3   OH211399   4.417   3.779   0.284
 3812TIP3    H111400   4.330   3.739   0.286
 3812TIP3    H211401   4.438   3.785   0.191
 3813TIP3   OH211402   6.270   0.875   4.556
 3813TIP3    H111403   6.235   0.906   4.473
 3813TIP3    H211404   6.196   0.831   4.599
 3814TIP3   OH211405   4.118   5.575   1.561
 3814TIP3    H111406   4.037   5.614   1.527
 3814TIP3    H211407   4.175   5.650   1.580
 3815TIP3   OH211408   6.114   5.882   5.411
 3815TIP3    H111409   6.144   5.958   5.361
 3815TIP3    H211410   6.183   5.817   5.400
 3816TIP3   OH211411   0.346   0.603   2.701
 3816TIP3    H111412   0.284   0.669   2.670
 3816TIP3    H211413   0.432   0.641   2.681
 3817TIP3   OH211414   5.042   3.022   1.886
 3817TIP3    H111415   5.030   3.117   1.890
 3817TIP3    H211416   5.012   2.998   1.798
 3818TIP3   OH211417   4.210   0.993   3.197
 3818TIP3    H111418   4.194   0.998   3.103
 3818TIP3    H211419   4.253   0.908   3.210
 3819TIP3   OH211420   3.530   4.985   5.574
 3819TIP3    H111421   3.530   5.046   5.500
 3819TIP3    H211422   3.539   4.899   5.533
 3820TIP3   OH211423   2.352   6.401   1.777
 3820TIP3    H111424   2.391   6.481   1.743
 3820TIP3    H211425   2.257   6.414   1.767
 3821TIP3   OH211426   1.128   1.017   2.605
 3821TIP3    H111427   1.164   1.018   2.516
 3821TIP3    H211428   1.204   1.029   2.662
 3822TIP3   OH211429   1.814   0.540   2.062
 3822TIP3    H111430   1.770   0.586   2.133
 3822TIP3    H211431   1.806   0.598   1.986
 3823TIP3   OH211432   0.466   0.874   0.752
 3823TIP3    H111433   0.435   0.940   0.814
 3823TIP3    H211434   0.388   0.822   0.732
 3824TIP3   OH211435   4.182   2.618   3.155
 3824TIP3    H111436   4.217   2.683   3.216
 3824TIP3    H211437   4.188   2.661   3.069
 3825TIP3   OH211438   1.380   1.599   1.411
 3825TIP3    H111439   1.419   1.674   1.365
 3825TIP3    H211440   1.286   1.609   1.398
 3826TIP3   OH211441   3.297   6.566   2.753
 3826TIP3    H111442   3.236   6.622   2.705
 3826TIP3    H211443   3.381   6.611   2.748
 3827TIP3   OH211444   6.985   1.140   1.532
 3827TIP3    H111445   6.987   1.232   1.558
 3827TIP3    H211446   6.984   1.092   1.614
 3828TIP3   OH211447   4.774   2.051   3.885
 3828TIP3    H111448   4.769   2.119   3.953
 3828TIP3    H211449   4.775   1.969   3.934
 3829TIP3   OH211450   3.031   6.277   5.814
 3829TIP3    H111451   2.943   6.247   5.791
 3829TIP3    H211452   3.023   6.308   5.904
 3830TIP3   OH211453   0.895   2.716   0.993
 3830TIP3    H111454   0.863   2.629   1.015
 3830TIP3    H211455   0.889   2.765   1.074
 3831TIP3   OH211456   2.731   3.434   3.996
 3831TIP3    H111457   2.639   3.430   3.970
 3831TIP3    H211458   2.753   3.343   4.019
 3832TIP3   OH211459   5.938   2.428   3.192
 3832TIP3    H111460   5.988   2.492   3.142
 3832TIP3    H211461   5.979   2.428   3.279
 3833TIP3   OH211462   4.493   0.998   4.453
 3833TIP3    H111463   4.413   1.048   4.439
 3833TIP3    H211464   4.472   0.937   4.524
 3834TIP3   OH211465   5.742   6.242   4.416
 3834TIP3    H111466   5.676   6.188   4.459
 3834TIP3    H211467   5.707   6.332   4.421
 3835TIP3   OH211468   1.530   2.162   0.228
 3835TIP3    H111469   1.528   2.118   0.143
 3835TIP3    H211470   1.473   2.238   0.217
 3836TIP3   OH211471   6.129   5.939   1.827
 3836TIP3    H111472   6.154   5.864   1.881
 3836TIP3    H211473   6.087   6.000   1.889
 3837TIP3   OH211474   5.870   3.530   1.163
 3837TIP3    H111475   5.817   3.594   1.118
 3837TIP3    H211476   5.961   3.558   1.148
 3838TIP3   OH211477   5.936   3.662   5.593
 3838TIP3    H111478   5.997   3.695   5.659
 3838TIP3    H211479   5.886   3.739   5.566
 3839TIP3   OH211480   0.088   0.987   5.870
 3839TIP3    H111481   0.022   0.945   5.814
 3839TIP3    H211482   0.167   0.989   5.816
 3840TIP3   OH211483   3.471   6.785   2.242
 3840TIP3    H111484   3.413   6.840   2.294
 3840TIP3    H211485   3.429   6.700   2.240
 3841TIP3   OH211486   6.379   3.860   1.782
 3841TIP3    H111487   6.397   3.919   1.709
 3841TIP3    H211488   6.465   3.836   1.815
 3842TIP3   OH211489   2.224   2.347   3.893
 3842TIP3    H111490   2.278   2.306   3.826
 3842TIP3    H211491   2.143   2.296   3.894
 3843TIP3   OH211492   3.996   3.756   3.049
 3843TIP3    H111493   3.970   3.845   3.073
 3843TIP3    H211494   3.986   3.753   2.954
 3844TIP3   OH211495   6.378   0.429   2.778
 3844TIP3    H111496   6.462   0.405   2.817
 3844TIP3    H211497   6.366   0.366   2.708
 3845TIP3   OH211498   0.301   3.870   0.023
 3845TIP3    H111499   0.324   3.865   0.115
 3845TIP3    H211500   0.375   3.829  -0.023
 3846TIP3   OH211501   1.884   4.720   0.092
 3846TIP3    H111502   1.952   4.687   0.034
 3846TIP3    H211503   1.807   4.667   0.072
 3847TIP3   OH211504   0.544   5.615   5.063
 3847TIP3    H111505   0.525   5.687   5.123
 3847TIP3    H211506   0.571   5.543   5.120
 3848TIP3   OH211507   5.765   6.500   0.311
 3848TIP3    H111508   5.690   6.536   0.357
 3848TIP3    H211509   5.786   6.566   0.245
 3849TIP3   OH211510   0.272   4.444   2.736
 3849TIP3    H111511   0.178   4.450   2.752
 3849TIP3    H211512   0.297   4.531   2.704
 3850TIP3   OH211513   6.621   2.305   5.413
 3850TIP3    H111514   6.526   2.311   5.403
 3850TIP3    H211515   6.641   2.212   5.404
 3851TIP3   OH211516   2.791   0.158   3.864
 3851TIP3    H111517   2.717   0.115   3.905
 3851TIP3    H211518   2.830   0.091   3.807
 3852TIP3   OH211519   6.456   1.202   4.403
 3852TIP3    H111520   6.417   1.266   4.343
 3852TIP3    H211521   6.456   1.120   4.354
 3853TIP3   OH211522   1.168   0.190   4.087
 3853TIP3    H111523   1.185   0.273   4.041
 3853TIP3    H211524   1.073   0.180   4.082
 3854TIP3   OH211525   4.208   1.886   1.562
 3854TIP3    H111526   4.167   1.887   1.475
 3854TIP3    H211527   4.224   1.978   1.582
 3855TIP3   OH211528   6.607   3.188   4.615
 3855TIP3    H111529   6.561   3.104   4.620
 3855TIP3    H211530   6.545   3.247   4.574
 3856TIP3   OH211531   1.277   5.738   4.098
 3856TIP3    H111532   1.263   5.808   4.162
 3856TIP3    H211533   1.326   5.671   4.146
 3857TIP3   OH211534   2.792   3.559   0.100
 3857TIP3    H111535   2.719   3.588   0.044
 3857TIP3    H211536   2.773   3.467   0.119
 3858TIP3   OH211537   2.112   4.240   2.391
 3858TIP3    H111538   2.201   4.255   2.423
 3858TIP3    H211539   2.106   4.145   2.380
 3859TIP3   OH211540   5.792   6.721   4.544
 3859TIP3    H111541   5.804   6.782   4.617
 3859TIP3    H211542   5.770   6.638   4.586
 3860TIP3   OH211543   4.236   5.625   5.577
 3860TIP3    H111544   4.279   5.577   5.647
 3860TIP3    H211545   4.144   5.601   5.585
 3861TIP3   OH211546   6.222   0.921   1.323
 3861TIP3    H111547   6.211   1.011   1.292
 3861TIP3    H211548   6.165   0.914   1.399
 3862TIP3   OH211549   3.711   2.055   5.779
 3862TIP3    H111550   3.624   2.094   5.786
 3862TIP3    H211551   3.762   2.099   5.847
 3863TIP3   OH211552   4.113   0.661   2.594
 3863TIP3    H111553   4.139   0.569   2.597
 3863TIP3    H211554   4.111   0.688   2.686
 3864TIP3   OH211555   3.480   0.566   1.374
 3864TIP3    H111556   3.528   0.511   1.312
 3864TIP3    H211557   3.462   0.647   1.326
 3865TIP3   OH211558   2.949   3.244   3.105
 3865TIP3    H111559   2.855   3.259   3.117
 3865TIP3    H211560   2.973   3.297   3.029
 3866TIP3   OH211561   3.864   3.601   1.421
 3866TIP3    H111562   3.785   3.591   1.474
 3866TIP3    H211563   3.857   3.689   1.384
 3867TIP3   OH211564   6.761   5.551   0.812
 3867TIP3    H111565   6.690   5.555   0.876
 3867TIP3    H211566   6.840   5.568   0.864
 3868TIP3   OH211567   2.315   2.157   5.748
 3868TIP3    H111568   2.373   2.117   5.813
 3868TIP3    H211569   2.287   2.084   5.693
 3869TIP3   OH211570   5.204   4.778   3.468
 3869TIP3    H111571   5.124   4.809   3.427
 3869TIP3    H211572   5.176   4.741   3.552
 3870TIP3   OH211573   2.938   3.991   4.422
 3870TIP3    H111574   2.971   3.951   4.342
 3870TIP3    H211575   3.013   4.037   4.459
 3871TIP3   OH211576   5.362   1.245   2.585
 3871TIP3    H111577   5.286   1.284   2.629
 3871TIP3    H211578   5.326   1.202   2.508
 3872TIP3   OH211579   3.204   4.268   4.682
 3872TIP3    H111580   3.168   4.354   4.703
 3872TIP3    H211581   3.178   4.254   4.591
 3873TIP3   OH211582   2.380   4.409   0.789
 3873TIP3    H111583   2.423   4.480   0.837
 3873TIP3    H211584   2.307   4.383   0.846
 3874TIP3   OH211585   4.845   5.963   0.282
 3874TIP3    H111586   4.788   5.958   0.205
 3874TIP3    H211587   4.786   5.985   0.354
 3875TIP3   OH211588   2.459   0.976   5.450
 3875TIP3    H111589   2.550   1.001   5.434
 3875TIP3    H211590   2.463   0.881   5.465
 3876TIP3   OH211591   0.215   5.908   5.700
 3876TIP3    H111592   0.190   5.839   5.762
 3876TIP3    H211593   0.150   5.977   5.714
 3877TIP3   OH211594   0.053   1.558   0.925
 3877TIP3    H111595   0.066   1.502   1.002
 3877TIP3    H211596   0.049   1.498   0.851
 3878TIP3   OH211597   6.965   1.969   1.391
 3878TIP3    H111598   6.948   1.880   1.361
 3878TIP3    H211599   6.901   1.983   1.461
 3879TIP3   OH211600   4.504   6.669   5.732
 3879TIP3    H111601   4.558   6.703   5.661
 3879TIP3    H211602   4.414   6.680   5.701
 3880TIP3   OH211603   5.036   3.144   1.325
 3880TIP3    H111604   5.033   3.238   1.311
 3880TIP3    H211605   5.120   3.116   1.288
 3881TIP3   OH211606   6.245   5.554   1.674
 3881TIP3    H111607   6.221   5.614   1.744
 3881TIP3    H211608   6.338   5.536   1.687
 3882TIP3   OH211609   2.591   2.730   3.007
 3882TIP3    H111610   2.574   2.824   3.009
 3882TIP3    H211611   2.679   2.720   3.043
 3883TIP3   OH211612   2.493   0.132   3.385
 3883TIP3    H111613   2.404   0.140   3.419
 3883TIP3    H211614   2.510   0.217   3.343
 3884TIP3   OH211615   0.033   1.278   1.825
 3884TIP3    H111616   0.025   1.342   1.754
 3884TIP3    H211617   0.019   1.328   1.905
 3885TIP3   OH211618   2.852   3.820   5.086
 3885TIP3    H111619   2.852   3.803   4.992
 3885TIP3    H211620   2.821   3.738   5.125
 3886TIP3   OH211621   2.876   1.327   2.893
 3886TIP3    H111622   2.825   1.379   2.831
 3886TIP3    H211623   2.961   1.317   2.850
 3887TIP3   OH211624   3.847   3.757   0.171
 3887TIP3    H111625   3.801   3.821   0.225
 3887TIP3    H211626   3.796   3.753   0.090
 3888TIP3   OH211627   6.292   1.735   3.763
 3888TIP3    H111628   6.338   1.819   3.763
 3888TIP3    H211629   6.202   1.757   3.784
 3889TIP3   OH211630   1.461   0.887   5.531
 3889TIP3    H111631   1.425   0.798   5.526
 3889TIP3    H211632   1.495   0.894   5.621
 3890TIP3   OH211633   3.042   1.347   5.535
 3890TIP3    H111634   3.056   1.274   5.475
 3890TIP3    H211635   2.988   1.409   5.486
 3891TIP3   OH211636   6.771   5.128   4.714
 3891TIP3    H111637   6.735   5.207   4.675
 3891TIP3    H211638   6.798   5.155   4.802
 3892TIP3   OH211639   3.726   5.441   0.801
 3892TIP3    H111640   3.760   5.406   0.884
 3892TIP3    H211641   3.709   5.364   0.747
 3893TIP3   OH211642   6.040   0.668   3.625
 3893TIP3    H111643   5.946   0.670   3.609
 3893TIP3    H211644   6.054   0.586   3.673
 3894TIP3   OH211645   3.797   0.310   2.404
 3894TIP3    H111646   3.874   0.290   2.457
 3894TIP3    H211647   3.833   0.342   2.321
 3895TIP3   OH211648   2.642   3.748   2.681
 3895TIP3    H111649   2.663   3.834   2.715
 3895TIP3    H211650   2.704   3.734   2.610
 3896TIP3   OH211651   1.833   1.622   5.448
 3896TIP3    H111652   1.743   1.652   5.438
 3896TIP3    H211653   1.824   1.532   5.480
 3897TIP3   OH211654   3.988   5.448   0.594
 3897TIP3    H111655   3.980   5.519   0.530
 3897TIP3    H211656   3.957   5.370   0.546
 3898TIP3   OH211657   2.948   4.353   4.267
 3898TIP3    H111658   3.020   4.349   4.204
 3898TIP3    H211659   2.883   4.292   4.233
 3899TIP3   OH211660   0.895   0.656   1.684
 3899TIP3    H111661   0.826   0.676   1.747
 3899TIP3    H211662   0.969   0.629   1.739
 3900TIP3   OH211663   0.814   1.887   1.451
 3900TIP3    H111664   0.865   1.920   1.525
 3900TIP3    H211665   0.810   1.792   1.466
 3901TIP3   OH211666   6.586   5.007   1.180
 3901TIP3    H111667   6.587   4.929   1.235
 3901TIP3    H211668   6.496   5.015   1.150
 3902TIP3   OH211669   0.145   0.760   3.061
 3902TIP3    H111670   0.196   0.766   3.142
 3902TIP3    H211671   0.147   0.667   3.039
 3903TIP3   OH211672   5.470   3.616   1.652
 3903TIP3    H111673   5.377   3.596   1.645
 3903TIP3    H211674   5.483   3.694   1.598
 3904TIP3   OH211675   0.287   5.369   1.833
 3904TIP3    H111676   0.375   5.358   1.870
 3904TIP3    H211677   0.278   5.464   1.821
 3905TIP3   OH211678   5.712   6.676   5.338
 3905TIP3    H111679   5.701   6.770   5.356
 3905TIP3    H211680   5.751   6.673   5.251
 3906TIP3   OH211681   2.538   4.957   4.459
 3906TIP3    H111682   2.535   4.895   4.532
 3906TIP3    H211683   2.484   5.031   4.489
 3907TIP3   OH211684   5.292   4.983   1.969
 3907TIP3    H111685   5.283   4.928   2.047
 3907TIP3    H211686   5.245   4.935   1.901
 3908TIP3   OH211687   3.363   6.262   3.937
 3908TIP3    H111688   3.282   6.285   3.982
 3908TIP3    H211689   3.391   6.180   3.977
 3909TIP3   OH211690   7.104   2.105   2.468
 3909TIP3    H111691   7.154   2.024   2.475
 3909TIP3    H211692   7.019   2.084   2.507
 3910TIP3   OH211693   0.045   1.434   4.664
 3910TIP3    H111694   0.118   1.426   4.725
 3910TIP3    H211695   0.012   1.523   4.678
 3911TIP3   OH211696   3.300   1.749   1.019
 3911TIP3    H111697   3.301   1.675   0.958
 3911TIP3    H211698   3.247   1.719   1.093
 3912TIP3   OH211699   1.763   4.949   5.505
 3912TIP3    H111700   1.703   5.023   5.495
 3912TIP3    H211701   1.777   4.941   5.599
 3913TIP3   OH211702   0.909   6.549   0.852
 3913TIP3    H111703   0.899   6.642   0.833
 3913TIP3    H211704   0.987   6.543   0.907
 3914TIP3   OH211705   6.304   0.772   5.851
 3914TIP3    H111706   6.331   0.756   5.941
 3914TIP3    H211707   6.209   0.761   5.852
 3915TIP3   OH211708   6.728   6.729   5.521
 3915TIP3    H111709   6.754   6.734   5.429
 3915TIP3    H211710   6.799   6.774   5.568
 3916TIP3   OH211711   4.727   4.679   0.881
 3916TIP3    H111712   4.637   4.709   0.869
 3916TIP3    H211713   4.720   4.583   0.884
 3917TIP3   OH211714   0.963   6.072   2.605
 3917TIP3    H111715   0.946   6.165   2.620
 3917TIP3    H211716   0.912   6.027   2.672
 3918TIP3   OH211717   2.405   1.598   4.550
 3918TIP3    H111718   2.350   1.525   4.520
 3918TIP3    H211719   2.488   1.586   4.506
 3919TIP3   OH211720   4.580   4.044   2.578
 3919TIP3    H111721   4.541   3.959   2.599
 3919TIP3    H211722   4.657   4.049   2.634
 3920TIP3   OH211723   5.478   2.918   0.772
 3920TIP3    H111724   5.513   2.832   0.794
 3920TIP3    H211725   5.487   2.924   0.677
 3921TIP3   OH211726   6.390   3.481   2.661
 3921TIP3    H111727   6.345   3.487   2.577
 3921TIP3    H211728   6.424   3.569   2.677
 3922TIP3   OH211729   4.243   1.228   3.627
 3922TIP3    H111730   4.313   1.174   3.664
 3922TIP3    H211731   4.289   1.297   3.580
 3923TIP3   OH211732   5.529   3.402   1.336
 3923TIP3    H111733   5.438   3.385   1.313
 3923TIP3    H211734   5.580   3.341   1.283
 3924TIP3   OH211735   6.168   4.579   5.086
 3924TIP3    H111736   6.189   4.602   5.177
 3924TIP3    H211737   6.074   4.559   5.088
 3925TIP3   OH211738   0.026   1.107   5.575
 3925TIP3    H111739  -0.027   1.043   5.623
 3925TIP3    H211740   0.093   1.054   5.531
 3926TIP3   OH211741   3.331   1.199   0.024
 3926TIP3    H111742   3.299   1.179   0.113
 3926TIP3    H211743   3.258   1.245  -0.017
 3927TIP3   OH211744   1.063   6.354   5.650
 3927TIP3    H111745   1.024   6.407   5.581
 3927TIP3    H211746   1.080   6.269   5.609
 3928TIP3   OH211747   0.029   4.476   2.080
 3928TIP3    H111748   0.018   4.387   2.112
 3928TIP3    H211749   0.041   4.529   2.158
 3929TIP3   OH211750   4.369   1.709   3.912
 3929TIP3    H111751   4.462   1.693   3.899
 3929TIP3    H211752   4.359   1.804   3.903
 3930TIP3   OH211753   6.852   6.635   0.157
 3930TIP3    H111754   6.913   6.703   0.185
 3930TIP3    H211755   6.902   6.554   0.164
 3931TIP3   OH211756   1.416   3.154   2.684
 3931TIP3    H111757   1.437   3.172   2.593
 3931TIP3    H211758   1.458   3.070   2.703
 3932TIP3   OH211759   4.397   0.440   2.814
 3932TIP3    H111760   4.405   0.464   2.906
 3932TIP3    H211761   4.384   0.345   2.814
 3933TIP3   OH211762   6.192   3.089   2.227
 3933TIP3    H111763   6.245   3.064   2.152
 3933TIP3    H211764   6.144   3.167   2.198
 3934TIP3   OH211765   6.962   1.414   1.653
 3934TIP3    H111766   6.895   1.398   1.720
 3934TIP3    H211767   7.021   1.477   1.693
 3935TIP3   OH211768   0.649   2.966   0.257
 3935TIP3    H111769   0.572   3.015   0.285
 3935TIP3    H211770   0.706   2.966   0.334
 3936TIP3   OH211771   4.964   3.932   5.334
 3936TIP3    H111772   4.910   3.861   5.368
 3936TIP3    H211773   5.004   3.971   5.412
 3937TIP3   OH211774   1.730   1.212   1.408
 3937TIP3    H111775   1.649   1.190   1.362
 3937TIP3    H211776   1.788   1.138   1.391
 3938TIP3   OH211777   2.438   2.884   2.735
 3938TIP3    H111778   2.460   2.876   2.828
 3938TIP3    H211779   2.413   2.975   2.724
 3939TIP3   OH211780   6.007   4.059   0.407
 3939TIP3    H111781   6.026   3.965   0.409
 3939TIP3    H211782   5.980   4.076   0.317
 3940TIP3   OH211783   0.779   3.008   2.961
 3940TIP3    H111784   0.780   3.069   2.888
 3940TIP3    H211785   0.720   2.938   2.933
 3941TIP3   OH211786   6.289   3.149   1.699
 3941TIP3    H111787   6.233   3.215   1.741
 3941TIP3    H211788   6.247   3.133   1.614
 3942TIP3   OH211789   5.507   5.826   4.846
 3942TIP3    H111790   5.464   5.779   4.775
 3942TIP3    H211791   5.437   5.876   4.888
 3943TIP3   OH211792   1.656   0.049   5.355
 3943TIP3    H111793   1.751   0.057   5.343
 3943TIP3    H211794   1.619   0.061   5.268
 3944TIP3   OH211795   6.545   2.964   5.603
 3944TIP3    H111796   6.595   2.928   5.677
 3944TIP3    H211797   6.560   3.058   5.608
 3945TIP3   OH211798   4.217   6.525   3.126
 3945TIP3    H111799   4.255   6.580   3.058
 3945TIP3    H211800   4.122   6.534   3.114
 3946TIP3   OH211801   3.377   0.117   3.261
 3946TIP3    H111802   3.302   0.124   3.320
 3946TIP3    H211803   3.454   0.117   3.319
 3947TIP3   OH211804   2.360   0.979   3.327
 3947TIP3    H111805   2.438   1.032   3.313
 3947TIP3    H211806   2.383   0.920   3.399
 3948TIP3   OH211807   6.989   2.929   2.436
 3948TIP3    H111808   6.964   3.017   2.409
 3948TIP3    H211809   6.906   2.884   2.452
 3949TIP3   OH211810   6.231   5.004   0.265
 3949TIP3    H111811   6.227   5.009   0.170
 3949TIP3    H211812   6.256   5.092   0.293
 3950TIP3   OH211813   4.093   3.005   1.827
 3950TIP3    H111814   4.140   3.057   1.761
 3950TIP3    H211815   4.044   2.941   1.776
 3951TIP3   OH211816   7.089   5.801   4.069
 3951TIP3    H111817   7.148   5.854   4.015
 3951TIP3    H211818   7.038   5.866   4.118
 3952TIP3   OH211819   5.958   4.294   5.684
 3952TIP3    H111820   5.892   4.356   5.653
 3952TIP3    H211821   5.992   4.333   5.765
 3953TIP3   OH211822   2.003   3.350   3.294
 3953TIP3    H111823   1.918   3.312   3.316
 3953TIP3    H211824   1.981   3.437   3.259
 3954TIP3   OH211825   2.337   0.666   2.563
 3954TIP3    H111826   2.282   0.664   2.641
 3954TIP3    H211827   2.302   0.597   2.507
 3955TIP3   OH211828   2.819   1.005   0.833
 3955TIP3    H111829   2.841   0.976   0.745
 3955TIP3    H211830   2.860   1.091   0.842
 3956TIP3   OH211831   2.163   6.350   3.622
 3956TIP3    H111832   2.177   6.432   3.574
 3956TIP3    H211833   2.242   6.299   3.605
 3957TIP3   OH211834   2.165   5.887   3.213
 3957TIP3    H111835   2.240   5.918   3.163
 3957TIP3    H211836   2.091   5.893   3.152
 3958TIP3   OH211837   5.229   2.832   1.233
 3958TIP3    H111838   5.244   2.890   1.308
 3958TIP3    H211839   5.178   2.760   1.269
 3959TIP3   OH211840   1.279   5.137   2.404
 3959TIP3    H111841   1.222   5.071   2.442
 3959TIP3    H211842   1.251   5.219   2.444
 3960TIP3   OH211843   4.057   5.933   4.867
 3960TIP3    H111844   4.142   5.889   4.858
 3960TIP3    H211845   4.058   5.968   4.956
 3961TIP3   OH211846   4.225   1.591   3.431
 3961TIP3    H111847   4.300   1.537   3.456
 3961TIP3    H211848   4.210   1.649   3.505
 3962TIP3   OH211849   6.704   4.276   0.303
 3962TIP3    H111850   6.758   4.322   0.367
 3962TIP3    H211851   6.637   4.340   0.278
 3963TIP3   OH211852   4.722   1.750   2.051
 3963TIP3    H111853   4.778   1.757   2.129
 3963TIP3    H211854   4.633   1.743   2.086
 3964TIP3   OH211855   1.620   6.393   5.097
 3964TIP3    H111856   1.614   6.343   5.179
 3964TIP3    H211857   1.540   6.372   5.050
 3965TIP3   OH211858   6.621   6.283   4.160
 3965TIP3    H111859   6.625   6.187   4.157
 3965TIP3    H211860   6.680   6.307   4.231
 3966TIP3   OH211861   2.310   4.637   4.053
 3966TIP3    H111862   2.290   4.694   3.978
 3966TIP3    H211863   2.390   4.674   4.090
 3967TIP3   OH211864   2.724   1.735   1.988
 3967TIP3    H111865   2.709   1.641   1.977
 3967TIP3    H211866   2.642   1.769   2.023
 3968TIP3   OH211867   1.357   3.958   4.285
 3968TIP3    H111868   1.434   3.910   4.316
 3968TIP3    H211869   1.324   3.905   4.213
 3969TIP3   OH211870   0.588   2.803   2.541
 3969TIP3    H111871   0.628   2.827   2.458
 3969TIP3    H211872   0.575   2.708   2.535
 3970TIP3   OH211873   1.807   0.275   3.498
 3970TIP3    H111874   1.871   0.295   3.566
 3970TIP3    H211875   1.810   0.179   3.490
 3971TIP3   OH211876   0.693   0.269   5.305
 3971TIP3    H111877   0.675   0.238   5.216
 3971TIP3    H211878   0.607   0.287   5.342
 3972TIP3   OH211879   0.986   2.912   4.351
 3972TIP3    H111880   1.072   2.870   4.354
 3972TIP3    H211881   0.956   2.914   4.441
 3973TIP3   OH211882   5.473   6.383   5.710
 3973TIP3    H111883   5.411   6.312   5.693
 3973TIP3    H211884   5.559   6.342   5.699
 3974TIP3   OH211885   0.084   2.654   3.240
 3974TIP3    H111886   0.057   2.700   3.161
 3974TIP3    H211887   0.014   2.671   3.303
 3975TIP3   OH211888   4.357   3.556   1.079
 3975TIP3    H111889   4.354   3.467   1.043
 3975TIP3    H211890   4.412   3.548   1.157
 3976TIP3   OH211891   4.254   6.230   3.893
 3976TIP3    H111892   4.315   6.302   3.883
 3976TIP3    H211893   4.183   6.250   3.832
 3977TIP3   OH211894   0.385   4.808   5.353
 3977TIP3    H111895   0.330   4.807   5.431
 3977TIP3    H211896   0.385   4.900   5.324
 3978TIP3   OH211897   5.459   5.066   5.157
 3978TIP3    H111898   5.426   5.055   5.068
 3978TIP3    H211899   5.382   5.086   5.209
 3979TIP3   OH211900   6.107   4.697   3.874
 3979TIP3    H111901   6.181   4.754   3.854
 3979TIP3    H211902   6.100   4.698   3.969
 3980TIP3   OH211903   6.935   2.742   1.448
 3980TIP3    H111904   7.012   2.783   1.486
 3980TIP3    H211905   6.959   2.722   1.358
 3981TIP3   OH211906   1.119   2.196   4.778
 3981TIP3    H111907   1.025   2.180   4.772
 3981TIP3    H211908   1.127   2.290   4.793
 3982TIP3   OH211909   0.272   5.202   3.697
 3982TIP3    H111910   0.186   5.184   3.659
 3982TIP3    H211911   0.255   5.268   3.764
 3983TIP3   OH211912   5.806   5.280   4.678
 3983TIP3    H111913   5.762   5.356   4.717
 3983TIP3    H211914   5.896   5.286   4.709
 3984TIP3   OH211915   1.614   1.649   4.757
 3984TIP3    H111916   1.520   1.665   4.764
 3984TIP3    H211917   1.650   1.679   4.841
 3985TIP3   OH211918   4.651   4.547   2.905
 3985TIP3    H111919   4.663   4.547   3.000
 3985TIP3    H211920   4.724   4.494   2.872
 3986TIP3   OH211921   3.136   2.801   4.478
 3986TIP3    H111922   3.087   2.768   4.403
 3986TIP3    H211923   3.069   2.819   4.544
 3987TIP3   OH211924   6.017   1.158   3.170
 3987TIP3    H111925   5.968   1.093   3.120
 3987TIP3    H211926   5.982   1.243   3.142
 3988TIP3   OH211927   0.638   1.475   1.341
 3988TIP3    H111928   0.560   1.472   1.396
 3988TIP3    H211929   0.643   1.388   1.301
 3989TIP3   OH211930   3.303   3.381   1.756
 3989TIP3    H111931   3.231   3.366   1.817
 3989TIP3    H211932   3.361   3.306   1.767
 3990TIP3   OH211933   3.932   0.061   0.908
 3990TIP3    H111934   3.912   0.073   1.001
 3990TIP3    H211935   4.005   0.000   0.907
 3991TIP3   OH211936   2.653   4.996   1.102
 3991TIP3    H111937   2.720   4.947   1.149
 3991TIP3    H211938   2.588   5.020   1.169
 3992TIP3   OH211939   5.176   4.788   0.823
 3992TIP3    H111940   5.223   4.832   0.753
 3992TIP3    H211941   5.244   4.744   0.874
 3993TIP3   OH211942   0.191   4.147   3.476
 3993TIP3    H111943   0.228   4.224   3.520
 3993TIP3    H211944   0.096   4.160   3.480
 3994TIP3   OH211945   3.292   0.967   4.693
 3994TIP3    H111946   3.301   1.010   4.778
 3994TIP3    H211947   3.277   0.875   4.715
 3995TIP3   OH211948   2.439   3.426   4.718
 3995TIP3    H111949   2.496   3.487   4.672
 3995TIP3    H211950   2.361   3.420   4.663
 3996TIP3   OH211951   1.643   6.217   5.288
 3996TIP3    H111952   1.650   6.125   5.263
 3996TIP3    H211953   1.581   6.218   5.361
 3997TIP3   OH211954   5.202   2.170   0.402
 3997TIP3    H111955   5.140   2.110   0.445
 3997TIP3    H211956   5.160   2.191   0.319
 3998TIP3   OH211957   1.913   6.053   4.808
 3998TIP3    H111958   1.976   6.118   4.776
 3998TIP3    H211959   1.874   6.016   4.729
 3999TIP3   OH211960   2.407   1.889   5.616
 3999TIP3    H111961   2.450   1.822   5.563
 3999TIP3    H211962   2.458   1.892   5.697
 4000TIP3   OH211963   3.732   3.225   2.068
 4000TIP3    H111964   3.746   3.168   1.992
 4000TIP3    H211965   3.700   3.307   2.030
 4001TIP3   OH211966   3.077   4.141   0.586
 4001TIP3    H111967   3.103   4.149   0.678
 4001TIP3    H211968   2.984   4.165   0.585
 4002TIP3   OH211969   7.040   2.279   5.783
 4002TIP3    H111970   7.073   2.369   5.780
 4002TIP3    H211971   7.111   2.228   5.823
 4003TIP3   OH211972   3.170   6.679   2.535
 4003TIP3    H111973   3.254   6.651   2.499
 4003TIP3    H211974   3.127   6.725   2.462
 4004TIP3   OH211975   4.090   5.579   2.621
 4004TIP3    H111976   4.156   5.628   2.572
 4004TIP3    H211977   4.022   5.560   2.556
 4005TIP3   OH211978   6.467   0.890   3.139
 4005TIP3    H111979   6.388   0.848   3.105
 4005TIP3    H211980   6.463   0.875   3.233
 4006TIP3   OH211981   4.034   4.520   5.323
 4006TIP3    H111982   4.027   4.502   5.417
 4006TIP3    H211983   4.070   4.608   5.318
 4007TIP3   OH211984   5.046   4.399   0.419
 4007TIP3    H111985   4.998   4.345   0.356
 4007TIP3    H211986   4.985   4.408   0.492
 4008TIP3   OH211987   1.300   2.196   5.059
 4008TIP3    H111988   1.373   2.248   5.025
 4008TIP3    H211989   1.246   2.177   4.982
 4009TIP3   OH211990   6.259   0.387   5.158
 4009TIP3    H111991   6.261   0.480   5.133
 4009TIP3    H211992   6.183   0.351   5.111
 4010TIP3   OH211993   0.042   2.262   4.663
 4010TIP3    H111994  -0.042   2.292   4.696
 4010TIP3    H211995   0.059   2.181   4.710
 4011TIP3   OH211996   0.234   5.539   1.160
 4011TIP3    H111997   0.261   5.479   1.090
 4011TIP3    H211998   0.138   5.531   1.163
 4012TIP3   OH211999   6.172   3.578   3.152
 4012TIP3    H112000   6.132   3.665   3.145
 4012TIP3    H212001   6.260   3.589   3.115
 4013TIP3   OH212002   6.076   3.562   5.350
 4013TIP3    H112003   5.997   3.556   5.404
 4013TIP3    H212004   6.123   3.480   5.367
 4014TIP3   OH212005   4.058   5.070   2.712
 4014TIP3    H112006   4.128   5.131   2.687
 4014TIP3    H212007   4.099   5.011   2.775
 4015TIP3   OH212008   0.711   2.471   5.300
 4015TIP3    H112009   0.666   2.533   5.358
 4015TIP3    H212010   0.763   2.526   5.242
 4016TIP3   OH212011   3.849   5.829   5.162
 4016TIP3    H112012   3.793   5.752   5.154
 4016TIP3    H212013   3.813   5.891   5.098
 4017TIP3   OH212014   1.557   1.308   3.141
 4017TIP3    H112015   1.464   1.324   3.127
 4017TIP3    H212016   1.581   1.244   3.073
 4018TIP3   OH212017   3.408   1.997   4.223
 4018TIP3    H112018   3.426   2.028   4.312
 4018TIP3    H212019   3.467   1.923   4.211
 4019TIP3   OH212020   6.751   3.526   5.832
 4019TIP3    H112021   6.796   3.447   5.802
 4019TIP3    H212022   6.709   3.561   5.753
 4020TIP3   OH212023   6.007   6.057   2.058
 4020TIP3    H112024   5.987   6.149   2.075
 4020TIP3    H212025   5.946   6.009   2.115
 4021TIP3   OH212026   0.195   2.404   4.461
 4021TIP3    H112027   0.172   2.370   4.548
 4021TIP3    H212028   0.177   2.332   4.401
 4022TIP3   OH212029   4.194   4.432   4.852
 4022TIP3    H112030   4.144   4.425   4.934
 4022TIP3    H212031   4.223   4.523   4.849
 4023TIP3   OH212032   0.417   2.335   3.545
 4023TIP3    H112033   0.469   2.403   3.502
 4023TIP3    H212034   0.434   2.256   3.494
 4024TIP3   OH212035   1.464   0.292   4.458
 4024TIP3    H112036   1.487   0.372   4.504
 4024TIP3    H212037   1.463   0.317   4.365
 4025TIP3   OH212038   0.857   3.422   5.500
 4025TIP3    H112039   0.789   3.420   5.567
 4025TIP3    H212040   0.902   3.338   5.509
 4026TIP3   OH212041   4.092   4.824   0.028
 4026TIP3    H112042   4.151   4.877  -0.025
 4026TIP3    H212043   4.013   4.878   0.036
 4027TIP3   OH212044   6.203   1.218   1.677
 4027TIP3    H112045   6.156   1.273   1.740
 4027TIP3    H212046   6.286   1.264   1.663
 4028TIP3   OH212047   0.982   2.754   1.705
 4028TIP3    H112048   0.926   2.827   1.677
 4028TIP3    H212049   0.920   2.688   1.736
 4029TIP3   OH212050   3.055   0.107   2.904
 4029TIP3    H112051   3.010   0.188   2.928
 4029TIP3    H212052   2.996   0.064   2.843
 4030TIP3   OH212053   0.844   2.212   4.690
 4030TIP3    H112054   0.785   2.254   4.752
 4030TIP3    H212055   0.866   2.280   4.627
 4031TIP3   OH212056   2.895   2.297   3.916
 4031TIP3    H112057   2.829   2.297   3.848
 4031TIP3    H212058   2.912   2.390   3.934
 4032TIP3   OH212059   1.805   0.185   5.611
 4032TIP3    H112060   1.810   0.103   5.661
 4032TIP3    H212061   1.753   0.163   5.534
 4033TIP3   OH212062   3.007   2.089   4.060
 4033TIP3    H112063   2.976   2.167   4.013
 4033TIP3    H212064   2.965   2.095   4.146
 4034TIP3   OH212065   1.390   2.495   1.136
 4034TIP3    H112066   1.379   2.559   1.207
 4034TIP3    H212067   1.421   2.415   1.179
 4035TIP3   OH212068   1.912   5.636   3.539
 4035TIP3    H112069   1.902   5.710   3.479
 4035TIP3    H212070   1.871   5.665   3.620
 4036TIP3   OH212071   7.137   1.408   0.730
 4036TIP3    H112072   7.143   1.325   0.683
 4036TIP3    H212073   7.048   1.408   0.766
 4037TIP3   OH212074   0.634   2.046   2.773
 4037TIP3    H112075   0.704   2.028   2.836
 4037TIP3    H212076   0.653   1.988   2.699
 4038TIP3   OH212077   4.818   4.538   0.158
 4038TIP3    H112078   4.742   4.558   0.104
 4038TIP3    H212079   4.826   4.613   0.217
 4039TIP3   OH212080   7.239   3.655   2.013
 4039TIP3    H112081   7.206   3.569   2.038
 4039TIP3    H212082   7.165   3.714   2.027
 4040TIP3   OH212083   3.091   2.491   0.569
 4040TIP3    H112084   3.024   2.552   0.539
 4040TIP3    H212085   3.150   2.545   0.622
 4041TIP3   OH212086   7.100   5.959   2.559
 4041TIP3    H112087   7.007   5.947   2.581
 4041TIP3    H212088   7.147   5.926   2.635
 4042TIP3   OH212089   6.668   0.608   0.666
 4042TIP3    H112090   6.626   0.674   0.720
 4042TIP3    H212091   6.711   0.657   0.596
 4043TIP3   OH212092   3.825   3.772   3.352
 4043TIP3    H112093   3.916   3.769   3.324
 4043TIP3    H212094   3.826   3.822   3.433
 4044TIP3   OH212095   1.999   3.597   3.123
 4044TIP3    H112096   1.938   3.643   3.066
 4044TIP3    H212097   2.029   3.663   3.186
 4045TIP3   OH212098   2.616   6.167   0.585
 4045TIP3    H112099   2.531   6.169   0.540
 4045TIP3    H212100   2.655   6.084   0.560
 4046TIP3   OH212101   2.367   1.851   3.573
 4046TIP3    H112102   2.407   1.920   3.627
 4046TIP3    H212103   2.430   1.836   3.503
 4047TIP3   OH212104   5.867   1.072   2.674
 4047TIP3    H112105   5.903   1.056   2.587
 4047TIP3    H212106   5.901   1.159   2.698
 4048TIP3   OH212107   6.726   5.712   4.453
 4048TIP3    H112108   6.816   5.719   4.424
 4048TIP3    H212109   6.683   5.660   4.385
 4049TIP3   OH212110   0.848   4.774   1.968
 4049TIP3    H112111   0.862   4.739   2.056
 4049TIP3    H212112   0.918   4.839   1.957
 4050TIP3   OH212113   1.359   0.083   2.607
 4050TIP3    H112114   1.413   0.004   2.610
 4050TIP3    H212115   1.416   0.152   2.641
 4051TIP3   OH212116   2.807   4.290   4.872
 4051TIP3    H112117   2.763   4.205   4.879
 4051TIP3    H212118   2.767   4.344   4.941
 4052TIP3   OH212119   1.504   2.620   2.806
 4052TIP3    H112120   1.469   2.538   2.772
 4052TIP3    H212121   1.428   2.678   2.814
 4053TIP3   OH212122   2.791   1.484   0.062
 4053TIP3    H112123   2.798   1.536  -0.017
 4053TIP3    H212124   2.758   1.545   0.129
 4054TIP3   OH212125   2.693   5.872   4.614
 4054TIP3    H112126   2.751   5.907   4.546
 4054TIP3    H212127   2.699   5.935   4.685
 4055TIP3   OH212128   1.847   6.411   4.007
 4055TIP3    H112129   1.835   6.399   4.102
 4055TIP3    H212130   1.921   6.355   3.984
 4056TIP3   OH212131   5.492   4.679   5.770
 4056TIP3    H112132   5.506   4.703   5.679
 4056TIP3    H212133   5.404   4.641   5.771
 4057TIP3   OH212134   4.229   2.041   0.666
 4057TIP3    H112135   4.271   2.068   0.748
 4057TIP3    H212136   4.143   2.008   0.693
 4058TIP3   OH212137   4.350   1.242   0.135
 4058TIP3    H112138   4.439   1.259   0.165
 4058TIP3    H212139   4.302   1.220   0.215
 4059TIP3   OH212140   3.171   0.138   0.027
 4059TIP3    H112141   3.128   0.081   0.090
 4059TIP3    H212142   3.256   0.157   0.067
 4060TIP3   OH212143   0.302   1.323   5.128
 4060TIP3    H112144   0.333   1.365   5.208
 4060TIP3    H212145   0.378   1.321   5.071
 4061TIP3   OH212146   2.643   1.499   4.298
 4061TIP3    H112147   2.630   1.520   4.206
 4061TIP3    H212148   2.560   1.460   4.325
 4062TIP3   OH212149   7.099   2.724   3.455
 4062TIP3    H112150   7.126   2.804   3.409
 4062TIP3    H212151   7.150   2.724   3.535
 4063TIP3   OH212152   6.193   3.561   0.347
 4063TIP3    H112153   6.103   3.554   0.378
 4063TIP3    H212154   6.187   3.549   0.252
 4064TIP3   OH212155   0.446   2.319   0.851
 4064TIP3    H112156   0.459   2.266   0.930
 4064TIP3    H212157   0.360   2.360   0.864
 4065TIP3   OH212158   2.611   3.366   2.434
 4065TIP3    H112159   2.647   3.454   2.429
 4065TIP3    H212160   2.630   3.327   2.348
 4066TIP3   OH212161   4.795   4.572   3.734
 4066TIP3    H112162   4.769   4.654   3.775
 4066TIP3    H212163   4.880   4.551   3.772
 4067TIP3   OH212164   6.033   2.764   0.109
 4067TIP3    H112165   6.074   2.733   0.028
 4067TIP3    H212166   5.961   2.703   0.123
 4068TIP3   OH212167   3.510   0.024   3.927
 4068TIP3    H112168   3.535   0.085   3.995
 4068TIP3    H212169   3.563   0.049   3.851
 4069TIP3   OH212170   6.096   2.690   2.186
 4069TIP3    H112171   6.036   2.751   2.142
 4069TIP3    H212172   6.098   2.720   2.277
 4070TIP3   OH212173   4.554   2.182   2.644
 4070TIP3    H112174   4.586   2.100   2.682
 4070TIP3    H212175   4.628   2.242   2.650
 4071TIP3   OH212176   6.075   5.493   5.765
 4071TIP3    H112177   6.083   5.580   5.726
 4071TIP3    H212178   6.131   5.437   5.710
 4072TIP3   OH212179   6.342   5.235   1.980
 4072TIP3    H112180   6.334   5.242   1.884
 4072TIP3    H212181   6.366   5.324   2.007
 4073TIP3   OH212182   6.005   0.245   2.875
 4073TIP3    H112183   5.959   0.253   2.792
 4073TIP3    H212184   6.012   0.335   2.907
 4074TIP3   OH212185   5.536   4.662   0.158
 4074TIP3    H112186   5.533   4.671   0.063
 4074TIP3    H212187   5.446   4.639   0.182
 4075TIP3   OH212188   5.672   5.025   0.381
 4075TIP3    H112189   5.746   5.002   0.437
 4075TIP3    H212190   5.596   5.016   0.438
 4076TIP3   OH212191   2.966   5.579   2.091
 4076TIP3    H112192   3.012   5.619   2.165
 4076TIP3    H212193   2.880   5.620   2.092
 4077TIP3   OH212194   5.575   3.084   3.812
 4077TIP3    H112195   5.658   3.083   3.764
 4077TIP3    H212196   5.600   3.091   3.904
 4078TIP3   OH212197   1.888   1.648   4.676
 4078TIP3    H112198   1.796   1.627   4.693
 4078TIP3    H212199   1.887   1.742   4.656
 4079TIP3   OH212200   3.405   0.415   3.509
 4079TIP3    H112201   3.428   0.324   3.492
 4079TIP3    H212202   3.471   0.446   3.571
 4080TIP3   OH212203   5.526   5.354   0.268
 4080TIP3    H112204   5.493   5.285   0.210
 4080TIP3    H212205   5.611   5.378   0.231
 4081TIP3   OH212206   1.613   3.208   0.286
 4081TIP3    H112207   1.634   3.202   0.379
 4081TIP3    H212208   1.519   3.224   0.284
 4082TIP3   OH212209   5.962   0.229   3.977
 4082TIP3    H112210   5.937   0.299   4.037
 4082TIP3    H212211   5.897   0.160   3.993
 4083TIP3   OH212212   0.615   0.055   0.746
 4083TIP3    H112213   0.710   0.045   0.754
 4083TIP3    H212214   0.588   0.091   0.830
 4084TIP3   OH212215   5.049   2.735   1.699
 4084TIP3    H112216   4.961   2.769   1.682
 4084TIP3    H212217   5.072   2.771   1.784
 4085TIP3   OH212218   6.888   3.221   0.618
 4085TIP3    H112219   6.866   3.313   0.601
 4085TIP3    H212220   6.982   3.223   0.639
 4086TIP3   OH212221   4.389   1.486   1.769
 4086TIP3    H112222   4.477   1.477   1.806
 4086TIP3    H212223   4.395   1.559   1.708
 4087TIP3   OH212224   6.390   1.755   4.190
 4087TIP3    H112225   6.463   1.772   4.250
 4087TIP3    H212226   6.432   1.719   4.112
 4088TIP3   OH212227   6.736   3.829   3.536
 4088TIP3    H112228   6.796   3.819   3.463
 4088TIP3    H212229   6.692   3.744   3.542
 4089TIP3   OH212230   4.989   3.304   5.359
 4089TIP3    H112231   4.966   3.212   5.359
 4089TIP3    H212232   4.973   3.333   5.448
 4090TIP3   OH212233   0.112   3.036   1.591
 4090TIP3    H112234   0.160   2.958   1.621
 4090TIP3    H212235   0.177   3.087   1.542
 4091TIP3   OH212236   5.607   6.367   0.086
 4091TIP3    H112237   5.570   6.337   0.169
 4091TIP3    H212238   5.575   6.456   0.076
 4092TIP3   OH212239   1.286   1.285   2.547
 4092TIP3    H112240   1.333   1.202   2.539
 4092TIP3    H212241   1.335   1.346   2.492
 4093TIP3   OH212242   4.635   4.247   5.697
 4093TIP3    H112243   4.635   4.209   5.785
 4093TIP3    H212244   4.584   4.186   5.645
 4094TIP3   OH212245   3.674   6.236   4.633
 4094TIP3    H112246   3.762   6.226   4.669
 4094TIP3    H212247   3.644   6.146   4.619
 4095TIP3   OH212248   2.735   5.265   4.939
 4095TIP3    H112249   2.711   5.203   5.008
 4095TIP3    H212250   2.711   5.221   4.858
 4096TIP3   OH212251  -0.004   0.626   2.696
 4096TIP3    H112252  -0.017   0.531   2.688
 4096TIP3    H212253   0.037   0.637   2.782
 4097TIP3   OH212254   4.229   2.628   4.899
 4097TIP3    H112255   4.203   2.614   4.808
 4097TIP3    H212256   4.211   2.720   4.916
 4098TIP3   OH212257   2.115   3.742   0.285
 4098TIP3    H112258   2.177   3.676   0.317
 4098TIP3    H212259   2.063   3.766   0.362
 4099TIP3   OH212260   6.395   4.091   0.114
 4099TIP3    H112261   6.442   4.171   0.091
 4099TIP3    H212262   6.397   4.038   0.034
 4100TIP3   OH212263   2.785   3.361   2.198
 4100TIP3    H112264   2.703   3.372   2.151
 4100TIP3    H212265   2.827   3.448   2.195
 4101TIP3   OH212266   1.853   2.395   3.167
 4101TIP3    H112267   1.840   2.358   3.080
 4101TIP3    H212268   1.771   2.441   3.186
 4102TIP3   OH212269   0.377   6.423   3.808
 4102TIP3    H112270   0.456   6.458   3.848
 4102TIP3    H212271   0.357   6.482   3.736
 4103TIP3   OH212272   6.412   2.385   0.037
 4103TIP3    H112273   6.501   2.353   0.022
 4103TIP3    H212274   6.357   2.307   0.028
 4104TIP3   OH212275   3.139   4.002   2.424
 4104TIP3    H112276   3.188   4.081   2.446
 4104TIP3    H212277   3.048   4.032   2.414
 4105TIP3   OH212278   3.666   0.163   5.789
 4105TIP3    H112279   3.614   0.219   5.731
 4105TIP3    H212280   3.752   0.158   5.747
 4106TIP3   OH212281   5.769   6.361   5.662
 4106TIP3    H112282   5.853   6.331   5.696
 4106TIP3    H212283   5.792   6.416   5.586
 4107TIP3   OH212284   1.879   2.100   5.577
 4107TIP3    H112285   1.898   2.053   5.496
 4107TIP3    H212286   1.916   2.045   5.646
 4108TIP3   OH212287   6.757   6.207   1.056
 4108TIP3    H112288   6.748   6.300   1.038
 4108TIP3    H212289   6.699   6.165   0.992
 4109TIP3   OH212290   2.310   0.121   5.385
 4109TIP3    H112291   2.289   0.028   5.382
 4109TIP3    H212292   2.406   0.124   5.383
 4110TIP3   OH212293   0.954   4.670   4.485
 4110TIP3    H112294   1.002   4.704   4.561
 4110TIP3    H212295   0.916   4.588   4.515
 4111TIP3   OH212296   5.359   0.897   0.827
 4111TIP3    H112297   5.295   0.950   0.875
 4111TIP3    H212298   5.307   0.834   0.779
 4112TIP3   OH212299   5.579   0.922   3.589
 4112TIP3    H112300   5.544   0.949   3.504
 4112TIP3    H212301   5.622   1.001   3.623
 4113TIP3   OH212302   4.942   1.069   2.224
 4113TIP3    H112303   4.901   1.113   2.149
 4113TIP3    H212304   5.035   1.090   2.215
 4114TIP3   OH212305   1.169   6.653   1.840
 4114TIP3    H112306   1.226   6.676   1.767
 4114TIP3    H212307   1.080   6.670   1.808
 4115TIP3   OH212308   5.501   2.564   0.156
 4115TIP3    H112309   5.541   2.484   0.189
 4115TIP3    H212310   5.438   2.589   0.223
 4116TIP3   OH212311   0.998   3.241   1.614
 4116TIP3    H112312   0.910   3.239   1.652
 4116TIP3    H212313   1.033   3.153   1.630
 4117TIP3   OH212314   2.071   3.746   1.416
 4117TIP3    H112315   2.044   3.686   1.347
 4117TIP3    H212316   2.017   3.722   1.491
 4118TIP3   OH212317   5.721   3.172   5.062
 4118TIP3    H112318   5.646   3.228   5.079
 4118TIP3    H212319   5.760   3.157   5.147
 4119TIP3   OH212320   2.496   1.226   5.257
 4119TIP3    H112321   2.471   1.134   5.269
 4119TIP3    H212322   2.547   1.227   5.176
 4120TIP3   OH212323   2.392   6.696   0.040
 4120TIP3    H112324   2.474   6.745   0.039
 4120TIP3    H212325   2.370   6.687   0.132
 4121TIP3   OH212326   2.667   2.842   5.836
 4121TIP3    H112327   2.601   2.774   5.848
 4121TIP3    H212328   2.750   2.796   5.849
 4122TIP3   OH212329   2.450   5.688   4.217
 4122TIP3    H112330   2.431   5.781   4.209
 4122TIP3    H212331   2.535   5.677   4.174
 4123TIP3   OH212332   3.842   6.325   5.314
 4123TIP3    H112333   3.896   6.278   5.376
 4123TIP3    H212334   3.809   6.258   5.255
 4124TIP3   OH212335   0.877   2.232   0.698
 4124TIP3    H112336   0.947   2.172   0.724
 4124TIP3    H212337   0.922   2.310   0.666
 4125TIP3   OH212338   3.343   1.568   5.757
 4125TIP3    H112339   3.281   1.500   5.783
 4125TIP3    H212340   3.424   1.545   5.801
 4126TIP3   OH212341   1.595   4.177   2.299
 4126TIP3    H112342   1.598   4.208   2.389
 4126TIP3    H212343   1.683   4.194   2.265
 4127TIP3   OH212344   5.646   5.196   3.040
 4127TIP3    H112345   5.550   5.195   3.040
 4127TIP3    H212346   5.671   5.156   3.123
 4128TIP3   OH212347   2.997   6.214   4.974
 4128TIP3    H112348   3.022   6.127   4.942
 4128TIP3    H212349   2.915   6.233   4.929
 4129TIP3   OH212350   2.324   1.203   4.625
 4129TIP3    H112351   2.268   1.229   4.699
 4129TIP3    H212352   2.305   1.111   4.611
 4130TIP3   OH212353   1.969   5.726   2.323
 4130TIP3    H112354   1.959   5.685   2.409
 4130TIP3    H212355   1.966   5.653   2.261
 4131TIP3   OH212356   2.327   4.225   3.990
 4131TIP3    H112357   2.336   4.133   4.013
 4131TIP3    H212358   2.387   4.271   4.050
 4132TIP3   OH212359   5.599   6.408   3.220
 4132TIP3    H112360   5.673   6.462   3.250
 4132TIP3    H212361   5.612   6.324   3.263
 4133TIP3   OH212362   0.397   1.628   0.874
 4133TIP3    H112363   0.398   1.645   0.968
 4133TIP3    H212364   0.328   1.685   0.841
 4134TIP3   OH212365   4.200   2.413   0.744
 4134TIP3    H112366   4.291   2.421   0.774
 4134TIP3    H212367   4.171   2.504   0.734
 4135TIP3   OH212368   1.270   6.368   4.734
 4135TIP3    H112369   1.319   6.450   4.725
 4135TIP3    H212370   1.303   6.313   4.663
 4136TIP3   OH212371   0.681   1.199   0.032
 4136TIP3    H112372   0.687   1.206  -0.064
 4136TIP3    H212373   0.656   1.287   0.061
 4137TIP3   OH212374   6.408   6.703   3.724
 4137TIP3    H112375   6.474   6.634   3.729
 4137TIP3    H212376   6.389   6.712   3.630
 4138TIP3   OH212377   2.050   3.121   1.437
 4138TIP3    H112378   2.024   3.062   1.507
 4138TIP3    H212379   2.105   3.186   1.479
 4139TIP3   OH212380   3.990   2.123   3.175
 4139TIP3    H112381   3.973   2.211   3.208
 4139TIP3    H212382   4.078   2.101   3.206
 4140TIP3   OH212383   1.475   0.668   1.480
 4140TIP3    H112384   1.396   0.678   1.427
 4140TIP3    H212385   1.479   0.749   1.531
 4141TIP3   OH212386   0.573   2.508   0.508
 4141TIP3    H112387   0.478   2.495   0.511
 4141TIP3    H212388   0.598   2.517   0.600
 4142TIP3   OH212389   2.294   1.394   3.436
 4142TIP3    H112390   2.233   1.326   3.462
 4142TIP3    H212391   2.286   1.461   3.505
 4143TIP3   OH212392   1.804   2.392   2.374
 4143TIP3    H112393   1.802   2.472   2.426
 4143TIP3    H212394   1.843   2.326   2.432
 4144TIP3   OH212395   2.997   0.995   5.641
 4144TIP3    H112396   3.079   1.025   5.680
 4144TIP3    H212397   2.984   0.907   5.676
 4145TIP3   OH212398   1.991   6.342   0.996
 4145TIP3    H112399   1.942   6.419   0.969
 4145TIP3    H212400   1.974   6.334   1.090
 4146TIP3   OH212401   2.194   2.352   1.286
 4146TIP3    H112402   2.225   2.428   1.336
 4146TIP3    H212403   2.272   2.320   1.241
 4147TIP3   OH212404   5.237   2.578   2.308
 4147TIP3    H112405   5.222   2.536   2.393
 4147TIP3    H212406   5.167   2.643   2.300
 4148TIP3   OH212407   1.714   6.779   2.697
 4148TIP3    H112408   1.681   6.825   2.774
 4148TIP3    H212409   1.785   6.725   2.729
 4149TIP3   OH212410   3.036   1.190   4.630
 4149TIP3    H112411   3.092   1.259   4.594
 4149TIP3    H212412   3.051   1.115   4.573
 4150TIP3   OH212413   4.088   2.435   0.093
 4150TIP3    H112414   4.003   2.438   0.048
 4150TIP3    H212415   4.137   2.367   0.047
 4151TIP3   OH212416   6.856   1.901   1.074
 4151TIP3    H112417   6.935   1.897   1.021
 4151TIP3    H212418   6.785   1.911   1.010
 4152TIP3   OH212419   6.369   3.093   0.285
 4152TIP3    H112420   6.311   3.024   0.254
 4152TIP3    H212421   6.412   3.125   0.205
 4153TIP3   OH212422   2.728   0.165   4.256
 4153TIP3    H112423   2.708   0.125   4.171
 4153TIP3    H212424   2.809   0.214   4.240
 4154TIP3   OH212425   4.789   3.953   3.353
 4154TIP3    H112426   4.754   3.943   3.264
 4154TIP3    H212427   4.840   4.034   3.350
 4155TIP3   OH212428   4.846   2.723   1.966
 4155TIP3    H112429   4.820   2.768   1.885
 4155TIP3    H212430   4.830   2.788   2.035
 4156TIP3   OH212431   3.892   1.526   5.658
 4156TIP3    H112432   3.973   1.522   5.607
 4156TIP3    H212433   3.843   1.449   5.629
 4157TIP3   OH212434   7.176   6.498   1.203
 4157TIP3    H112435   7.120   6.423   1.181
 4157TIP3    H212436   7.262   6.476   1.166
 4158TIP3   OH212437   6.417   4.221   2.578
 4158TIP3    H112438   6.412   4.243   2.671
 4158TIP3    H212439   6.511   4.215   2.560
 4159TIP3   OH212440   3.190   0.544   1.205
 4159TIP3    H112441   3.269   0.491   1.219
 4159TIP3    H212442   3.161   0.568   1.293
 4160TIP3   OH212443   4.763   4.078   1.227
 4160TIP3    H112444   4.721   4.058   1.143
 4160TIP3    H212445   4.855   4.093   1.205
 4161TIP3   OH212446   3.874   6.319   0.812
 4161TIP3    H112447   3.849   6.227   0.821
 4161TIP3    H212448   3.962   6.325   0.848
 4162TIP3   OH212449   1.644   3.262   1.017
 4162TIP3    H112450   1.593   3.342   1.015
 4162TIP3    H212451   1.669   3.251   1.109
 4163TIP3   OH212452   6.774   6.311   2.474
 4163TIP3    H112453   6.864   6.282   2.487
 4163TIP3    H212454   6.726   6.277   2.550
 4164TIP3   OH212455   0.955   3.947   0.425
 4164TIP3    H112456   0.965   3.852   0.420
 4164TIP3    H212457   0.861   3.961   0.432
 4165TIP3   OH212458   1.401   2.272   0.845
 4165TIP3    H112459   1.404   2.365   0.820
 4165TIP3    H212460   1.314   2.259   0.880
 4166TIP3   OH212461   2.888   1.540   1.800
 4166TIP3    H112462   2.980   1.514   1.789
 4166TIP3    H212463   2.857   1.485   1.872
 4167TIP3   OH212464   5.255   6.281   3.291
 4167TIP3    H112465   5.171   6.322   3.313
 4167TIP3    H212466   5.299   6.344   3.235
 4168TIP3   OH212467   0.911   3.757   2.451
 4168TIP3    H112468   0.853   3.829   2.426
 4168TIP3    H212469   0.925   3.708   2.370
 4169TIP3   OH212470   1.561   0.748   3.902
 4169TIP3    H112471   1.554   0.798   3.820
 4169TIP3    H212472   1.559   0.657   3.875
 4170TIP3   OH212473   2.877   0.679   3.645
 4170TIP3    H112474   2.805   0.623   3.618
 4170TIP3    H212475   2.880   0.672   3.740
 4171TIP3   OH212476   6.778   1.170   2.090
 4171TIP3    H112477   6.693   1.149   2.128
 4171TIP3    H212478   6.839   1.107   2.128
 4172TIP3   OH212479   2.681   6.242   5.394
 4172TIP3    H112480   2.728   6.289   5.462
 4172TIP3    H212481   2.729   6.261   5.313
 4173TIP3   OH212482   0.427   1.648   4.238
 4173TIP3    H112483   0.485   1.593   4.185
 4173TIP3    H212484   0.477   1.728   4.253
 4174TIP3   OH212485   3.425   6.270   0.420
 4174TIP3    H112486   3.414   6.244   0.329
 4174TIP3    H212487   3.520   6.267   0.434
 4175TIP3   OH212488   3.395   6.324   2.515
 4175TIP3    H112489   3.477   6.304   2.561
 4175TIP3    H212490   3.337   6.252   2.539
 4176TIP3   OH212491   6.922   6.063   0.280
 4176TIP3    H112492   6.829   6.086   0.278
 4176TIP3    H212493   6.923   5.970   0.303
 4177TIP3   OH212494   7.071   3.145   5.335
 4177TIP3    H112495   7.013   3.070   5.351
 4177TIP3    H212496   7.052   3.206   5.405
 4178TIP3   OH212497   2.400   3.674   5.090
 4178TIP3    H112498   2.409   3.635   5.178
 4178TIP3    H212499   2.478   3.645   5.043
 4179TIP3   OH212500   2.758   0.108   3.496
 4179TIP3    H112501   2.769   0.037   3.560
 4179TIP3    H212502   2.664   0.108   3.476
 4180TIP3   OH212503   0.950   2.661   2.430
 4180TIP3    H112504   1.024   2.708   2.468
 4180TIP3    H212505   0.931   2.592   2.493
 4181TIP3   OH212506   6.079   0.723   0.373
 4181TIP3    H112507   6.111   0.667   0.443
 4181TIP3    H212508   6.157   0.770   0.342
 4182TIP3   OH212509   0.555   0.606   0.408
 4182TIP3    H112510   0.541   0.520   0.369
 4182TIP3    H212511   0.610   0.652   0.345
 4183TIP3   OH212512   3.497   4.555   1.730
 4183TIP3    H112513   3.409   4.565   1.694
 4183TIP3    H212514   3.536   4.483   1.680
 4184TIP3   OH212515   4.112   6.357   1.894
 4184TIP3    H112516   4.135   6.391   1.981
 4184TIP3    H212517   4.196   6.329   1.856
 4185TIP3   OH212518   0.995   5.064   2.894
 4185TIP3    H112519   1.023   4.974   2.910
 4185TIP3    H212520   1.006   5.107   2.979
 4186TIP3   OH212521   2.645   3.554   1.284
 4186TIP3    H112522   2.620   3.520   1.198
 4186TIP3    H212523   2.661   3.647   1.268
 4187TIP3   OH212524   2.211   1.418   1.910
 4187TIP3    H112525   2.140   1.368   1.870
 4187TIP3    H212526   2.167   1.486   1.962
 4188TIP3   OH212527   2.981   5.411   1.871
 4188TIP3    H112528   3.072   5.395   1.896
 4188TIP3    H212529   2.949   5.475   1.935
 4189TIP3   OH212530   1.334   3.647   2.465
 4189TIP3    H112531   1.316   3.736   2.436
 4189TIP3    H212532   1.353   3.657   2.559
 4190TIP3   OH212533   7.126   2.465   1.687
 4190TIP3    H112534   7.058   2.412   1.645
 4190TIP3    H212535   7.119   2.444   1.780
 4191TIP3   OH212536   2.564   6.730   4.193
 4191TIP3    H112537   2.593   6.694   4.277
 4191TIP3    H212538   2.545   6.822   4.212
 4192TIP3   OH212539   5.915   4.674   1.739
 4192TIP3    H112540   5.962   4.620   1.803
 4192TIP3    H212541   5.827   4.683   1.777
 4193TIP3   OH212542   0.669   6.639   4.553
 4193TIP3    H112543   0.704   6.558   4.589
 4193TIP3    H212544   0.638   6.688   4.630
 4194TIP3   OH212545   0.856   0.865   2.593
 4194TIP3    H112546   0.880   0.915   2.516
 4194TIP3    H212547   0.905   0.906   2.665
 4195TIP3   OH212548   0.907   1.207   4.036
 4195TIP3    H112549   0.970   1.139   4.057
 4195TIP3    H212550   0.901   1.260   4.116
 4196TIP3   OH212551   5.586   2.255   3.127
 4196TIP3    H112552   5.624   2.167   3.131
 4196TIP3    H212553   5.587   2.276   3.033
 4197TIP3   OH212554   3.744   1.307   4.903
 4197TIP3    H112555   3.839   1.320   4.892
 4197TIP3    H212556   3.733   1.293   4.997
 4198TIP3   OH212557   3.888   5.307   2.571
 4198TIP3    H112558   3.838   5.302   2.490
 4198TIP3    H212559   3.854   5.235   2.625
 4199TIP3   OH212560   5.898   5.217   0.310
 4199TIP3    H112561   5.901   5.262   0.226
 4199TIP3    H212562   5.808   5.183   0.315
 4200TIP3   OH212563   5.987   2.843   4.164
 4200TIP3    H112564   6.054   2.898   4.206
 4200TIP3    H212565   6.017   2.832   4.074
 4201TIP3   OH212566   3.504   6.501   1.840
 4201TIP3    H112567   3.409   6.494   1.853
 4201TIP3    H212568   3.534   6.559   1.910
 4202TIP3   OH212569   0.755   2.488   2.095
 4202TIP3    H112570   0.676   2.531   2.064
 4202TIP3    H212571   0.735   2.394   2.091
 4203TIP3   OH212572   1.544   5.096   4.042
 4203TIP3    H112573   1.502   5.165   3.991
 4203TIP3    H212574   1.634   5.127   4.054
 4204TIP3   OH212575   6.004   1.347   2.665
 4204TIP3    H112576   6.064   1.422   2.664
 4204TIP3    H212577   6.010   1.311   2.577
 4205TIP3   OH212578   6.099   6.074   0.826
 4205TIP3    H112579   6.006   6.097   0.823
 4205TIP3    H212580   6.144   6.151   0.790
 4206TIP3   OH212581   0.340   1.158   1.107
 4206TIP3    H112582   0.375   1.182   1.194
 4206TIP3    H212583   0.319   1.065   1.115
 4207TIP3   OH212584   5.365   4.329   1.930
 4207TIP3    H112585   5.341   4.353   1.841
 4207TIP3    H212586   5.293   4.275   1.962
 4208TIP3   OH212587   5.168   3.178   2.867
 4208TIP3    H112588   5.254   3.197   2.904
 4208TIP3    H212589   5.114   3.152   2.941
 4209TIP3   OH212590   3.907   0.135   2.835
 4209TIP3    H112591   3.918   0.127   2.930
 4209TIP3    H212592   3.815   0.116   2.820
 4210TIP3   OH212593   1.823   4.411   0.408
 4210TIP3    H112594   1.846   4.502   0.389
 4210TIP3    H212595   1.904   4.370   0.437
 4211TIP3   OH212596   4.714   2.642   2.684
 4211TIP3    H112597   4.809   2.653   2.694
 4211TIP3    H212598   4.685   2.610   2.769
 4212TIP3   OH212599   2.433   0.573   1.539
 4212TIP3    H112600   2.393   0.503   1.488
 4212TIP3    H212601   2.486   0.621   1.475
 4213TIP3   OH212602   6.998   6.469   0.914
 4213TIP3    H112603   6.906   6.485   0.934
 4213TIP3    H212604   7.009   6.375   0.926
 4214TIP3   OH212605   6.155   4.910   2.720
 4214TIP3    H112606   6.067   4.950   2.715
 4214TIP3    H212607   6.143   4.821   2.687
 4215TIP3   OH212608   2.459   3.914   5.464
 4215TIP3    H112609   2.525   3.963   5.513
 4215TIP3    H212610   2.381   3.970   5.468
 4216TIP3   OH212611   6.666   2.054   5.552
 4216TIP3    H112612   6.737   2.015   5.604
 4216TIP3    H212613   6.680   2.021   5.463
 4217TIP3   OH212614   1.651   2.917   0.808
 4217TIP3    H112615   1.572   2.952   0.849
 4217TIP3    H212616   1.660   2.829   0.845
 4218TIP3   OH212617   1.787   3.618   4.075
 4218TIP3    H112618   1.767   3.712   4.074
 4218TIP3    H212619   1.726   3.580   4.011
 4219TIP3   OH212620   5.964   4.960   0.422
 4219TIP3    H112621   5.977   4.914   0.339
 4219TIP3    H212622   5.972   5.053   0.400
 4220TIP3   OH212623   7.165   5.248   1.606
 4220TIP3    H112624   7.109   5.314   1.645
 4220TIP3    H212625   7.201   5.200   1.681
 4221TIP3   OH212626   2.872   2.630   0.003
 4221TIP3    H112627   2.822   2.710  -0.016
 4221TIP3    H212628   2.835   2.598   0.085
 4222TIP3   OH212629   7.080   2.112   4.884
 4222TIP3    H112630   7.090   2.109   4.979
 4222TIP3    H212631   6.999   2.162   4.870
 4223TIP3   OH212632   6.184   3.422   3.988
 4223TIP3    H112633   6.268   3.422   4.035
 4223TIP3    H212634   6.119   3.403   4.056
 4224TIP3   OH212635   6.630   3.424   3.994
 4224TIP3    H112636   6.595   3.513   3.999
 4224TIP3    H212637   6.608   3.385   4.078
 4225TIP3   OH212638   5.342   2.373   0.050
 4225TIP3    H112639   5.354   2.432  -0.025
 4225TIP3    H212640   5.248   2.378   0.068
 4226TIP3   OH212641   3.305   3.022   4.471
 4226TIP3    H112642   3.255   3.101   4.452
 4226TIP3    H212643   3.241   2.952   4.471
 4227TIP3   OH212644   4.982   5.972   5.419
 4227TIP3    H112645   4.898   5.926   5.410
 4227TIP3    H212646   5.023   5.931   5.495
 4228TIP3   OH212647   1.168   4.459   1.655
 4228TIP3    H112648   1.256   4.492   1.634
 4228TIP3    H212649   1.110   4.504   1.593
 4229TIP3   OH212650   5.111   4.393   1.234
 4229TIP3    H112651   5.093   4.480   1.270
 4229TIP3    H212652   5.046   4.336   1.276
 4230TIP3   OH212653   2.780   1.102   0.530
 4230TIP3    H112654   2.797   1.144   0.446
 4230TIP3    H212655   2.692   1.132   0.554
 4231TIP3   OH212656   0.119   0.171   4.905
 4231TIP3    H112657   0.192   0.219   4.865
 4231TIP3    H212658   0.161   0.098   4.952
 4232TIP3   OH212659   6.697   1.663   0.769
 4232TIP3    H112660   6.634   1.647   0.839
 4232TIP3    H212661   6.649   1.717   0.706
 4233TIP3   OH212662   0.400   3.000   4.035
 4233TIP3    H112663   0.388   3.083   4.081
 4233TIP3    H212664   0.329   2.998   3.971
 4234TIP3   OH212665   1.190   3.366   4.175
 4234TIP3    H112666   1.119   3.303   4.186
 4234TIP3    H212667   1.263   3.314   4.143
 4235TIP3   OH212668   1.085   0.254   3.465
 4235TIP3    H112669   1.053   0.328   3.414
 4235TIP3    H212670   1.034   0.179   3.433
 4236TIP3   OH212671   7.019   0.331   3.874
 4236TIP3    H112672   7.037   0.283   3.955
 4236TIP3    H212673   6.969   0.269   3.821
 4237TIP3   OH212674   0.917   5.321   5.642
 4237TIP3    H112675   0.893   5.332   5.734
 4237TIP3    H212676   0.989   5.257   5.643
 4238TIP3   OH212677   4.545   6.343   4.160
 4238TIP3    H112678   4.549   6.374   4.250
 4238TIP3    H212679   4.526   6.250   4.168
 4239TIP3   OH212680   4.708   6.708   3.416
 4239TIP3    H112681   4.634   6.759   3.449
 4239TIP3    H212682   4.681   6.680   3.328
 4240TIP3   OH212683   6.179   1.100   4.227
 4240TIP3    H112684   6.231   1.022   4.248
 4240TIP3    H212685   6.243   1.160   4.189
 4241TIP3   OH212686   4.172   5.294   4.852
 4241TIP3    H112687   4.132   5.255   4.930
 4241TIP3    H212688   4.117   5.370   4.831
 4242TIP3   OH212689   7.221   1.328   1.272
 4242TIP3    H112690   7.185   1.344   1.185
 4242TIP3    H212691   7.188   1.241   1.296
 4243TIP3   OH212692   1.557   3.620   5.640
 4243TIP3    H112693   1.600   3.689   5.691
 4243TIP3    H212694   1.620   3.548   5.641
 4244TIP3   OH212695   6.286   4.063   1.360
 4244TIP3    H112696   6.201   4.027   1.388
 4244TIP3    H212697   6.263   4.146   1.318
 4245TIP3   OH212698   2.427   2.543   1.977
 4245TIP3    H112699   2.446   2.628   2.015
 4245TIP3    H212700   2.507   2.518   1.932
 4246TIP3   OH212701   1.626   1.465   1.453
 4246TIP3    H112702   1.533   1.486   1.462
 4246TIP3    H212703   1.627   1.380   1.409
 4247TIP3   OH212704   1.545   4.378   3.288
 4247TIP3    H112705   1.535   4.355   3.195
 4247TIP3    H212706   1.457   4.366   3.325
 4248TIP3   OH212707   3.650   3.188   5.802
 4248TIP3    H112708   3.593   3.163   5.729
 4248TIP3    H212709   3.640   3.117   5.866
 4249TIP3   OH212710   5.799   3.158   5.867
 4249TIP3    H112711   5.837   3.215   5.935
 4249TIP3    H212712   5.875   3.125   5.819
 4250TIP3   OH212713   7.140   3.275   0.787
 4250TIP3    H112714   7.201   3.253   0.858
 4250TIP3    H212715   7.156   3.368   0.770
 4251TIP3   OH212716   0.204   2.869   2.724
 4251TIP3    H112717   0.109   2.877   2.722
 4251TIP3    H212718   0.234   2.911   2.643
 4252TIP3   OH212719   2.058   5.176   3.140
 4252TIP3    H112720   2.046   5.269   3.118
 4252TIP3    H212721   1.985   5.131   3.098
 4253TIP3   OH212722   6.418   0.323   4.092
 4253TIP3    H112723   6.408   0.238   4.136
 4253TIP3    H212724   6.500   0.315   4.043
 4254TIP3   OH212725   1.928   1.903   1.664
 4254TIP3    H112726   1.946   1.997   1.672
 4254TIP3    H212727   1.837   1.894   1.694
 4255TIP3   OH212728   6.974   6.283   0.605
 4255TIP3    H112729   6.990   6.378   0.605
 4255TIP3    H212730   6.949   6.263   0.695
 4256TIP3   OH212731   3.540   1.032   1.837
 4256TIP3    H112732   3.469   0.995   1.890
 4256TIP3    H212733   3.545   0.973   1.761
 4257TIP3   OH212734   1.351   2.037   3.888
 4257TIP3    H112735   1.320   2.036   3.979
 4257TIP3    H212736   1.362   2.130   3.867
 4258TIP3   OH212737   6.198   4.752   1.266
 4258TIP3    H112738   6.249   4.709   1.335
 4258TIP3    H212739   6.210   4.697   1.189
 4259TIP3   OH212740   3.265   0.455   0.083
 4259TIP3    H112741   3.192   0.417   0.132
 4259TIP3    H212742   3.224   0.511   0.017
 4260TIP3   OH212743   6.378   2.879   4.940
 4260TIP3    H112744   6.432   2.954   4.916
 4260TIP3    H212745   6.293   2.917   4.964
 4261TIP3   OH212746   3.969   6.505   3.020
 4261TIP3    H112747   3.875   6.505   3.040
 4261TIP3    H212748   3.977   6.559   2.942
 4262TIP3   OH212749   1.735   6.533   0.304
 4262TIP3    H112750   1.644   6.538   0.334
 4262TIP3    H212751   1.784   6.501   0.379
 4263TIP3   OH212752   2.619   0.252   5.806
 4263TIP3    H112753   2.654   0.170   5.839
 4263TIP3    H212754   2.526   0.250   5.829
 4264TIP3   OH212755   5.016   1.581   3.247
 4264TIP3    H112756   5.037   1.668   3.215
 4264TIP3    H212757   5.072   1.569   3.324
 4265TIP3   OH212758   6.514   6.049   0.532
 4265TIP3    H112759   6.531   5.964   0.573
 4265TIP3    H212760   6.421   6.064   0.544
 4266TIP3   OH212761   4.567   5.130   2.364
 4266TIP3    H112762   4.618   5.073   2.421
 4266TIP3    H212763   4.633   5.183   2.319
 4267TIP3   OH212764   2.497   2.528   0.405
 4267TIP3    H112765   2.435   2.596   0.430
 4267TIP3    H212766   2.448   2.446   0.413
 4268TIP3   OH212767   5.152   3.175   0.741
 4268TIP3    H112768   5.217   3.221   0.794
 4268TIP3    H212769   5.074   3.171   0.797
 4269TIP3   OH212770   4.343   5.452   0.299
 4269TIP3    H112771   4.302   5.369   0.323
 4269TIP3    H212772   4.276   5.518   0.319
 4270TIP3   OH212773   3.797   3.467   4.349
 4270TIP3    H112774   3.769   3.509   4.267
 4270TIP3    H212775   3.747   3.512   4.416
 4271TIP3   OH212776   6.108   0.488   0.012
 4271TIP3    H112777   6.171   0.454   0.076
 4271TIP3    H212778   6.103   0.420  -0.055
 4272TIP3   OH212779   2.733   3.863   1.604
 4272TIP3    H112780   2.637   3.872   1.608
 4272TIP3    H212781   2.756   3.896   1.517
 4273TIP3   OH212782   0.580   3.279   1.454
 4273TIP3    H112783   0.495   3.321   1.462
 4273TIP3    H212784   0.563   3.197   1.409
 4274TIP3   OH212785   1.630   6.074   2.796
 4274TIP3    H112786   1.646   5.999   2.854
 4274TIP3    H212787   1.549   6.052   2.751
 4275TIP3   OH212788   1.179   5.477   5.531
 4275TIP3    H112789   1.148   5.457   5.619
 4275TIP3    H212790   1.270   5.504   5.543
 4276TIP3   OH212791   3.827   6.624   1.390
 4276TIP3    H112792   3.806   6.704   1.341
 4276TIP3    H212793   3.773   6.631   1.470
 4277TIP3   OH212794   5.932   4.761   0.224
 4277TIP3    H112795   5.986   4.692   0.184
 4277TIP3    H212796   5.863   4.714   0.270
 4278TIP3   OH212797   6.678   0.950   5.886
 4278TIP3    H112798   6.720   0.905   5.960
 4278TIP3    H212799   6.674   0.884   5.817
 4279TIP3   OH212800   4.183   4.755   5.295
 4279TIP3    H112801   4.231   4.788   5.219
 4279TIP3    H212802   4.249   4.749   5.364
 4280TIP3   OH212803   4.457   3.396   3.870
 4280TIP3    H112804   4.433   3.405   3.962
 4280TIP3    H212805   4.549   3.371   3.872
 4281TIP3   OH212806   0.429   5.694   0.465
 4281TIP3    H112807   0.431   5.713   0.559
 4281TIP3    H212808   0.352   5.639   0.453
 4282TIP3   OH212809   0.564   5.321   5.133
 4282TIP3    H112810   0.485   5.280   5.096
 4282TIP3    H212811   0.577   5.276   5.216
 4283TIP3   OH212812   5.259   1.276   4.541
 4283TIP3    H112813   5.280   1.198   4.592
 4283TIP3    H212814   5.341   1.299   4.498
 4284TIP3   OH212815   0.510   0.355   1.575
 4284TIP3    H112816   0.434   0.332   1.521
 4284TIP3    H212817   0.566   0.407   1.517
 4285TIP3   OH212818   5.309   0.510   1.316
 4285TIP3    H112819   5.348   0.529   1.230
 4285TIP3    H212820   5.256   0.432   1.302
 4286TIP3   OH212821   6.755   1.753   4.795
 4286TIP3    H112822   6.810   1.803   4.855
 4286TIP3    H212823   6.727   1.677   4.845
 4287TIP3   OH212824   4.006   1.563   1.092
 4287TIP3    H112825   4.078   1.548   1.154
 4287TIP3    H212826   4.031   1.515   1.013
 4288TIP3   OH212827   3.147   0.410   3.608
 4288TIP3    H112828   3.145   0.461   3.690
 4288TIP3    H212829   3.240   0.402   3.587
 4289TIP3   OH212830   3.415   0.850   0.764
 4289TIP3    H112831   3.486   0.801   0.807
 4289TIP3    H212832   3.441   0.855   0.672
 4290TIP3   OH212833   4.830   2.544   5.479
 4290TIP3    H112834   4.797   2.607   5.543
 4290TIP3    H212835   4.781   2.563   5.399
 4291TIP3   OH212836   0.052   3.829   4.465
 4291TIP3    H112837   0.038   3.739   4.496
 4291TIP3    H212838  -0.033   3.871   4.474
 4292TIP3   OH212839   1.091   4.037   1.410
 4292TIP3    H112840   1.160   4.095   1.376
 4292TIP3    H212841   1.013   4.092   1.415
 4293TIP3   OH212842   6.740   3.249   3.258
 4293TIP3    H112843   6.804   3.248   3.186
 4293TIP3    H212844   6.718   3.341   3.268
 4294TIP3   OH212845   3.430   2.619   0.290
 4294TIP3    H112846   3.423   2.674   0.367
 4294TIP3    H212847   3.511   2.569   0.303
 4295TIP3   OH212848   5.616   0.727   2.323
 4295TIP3    H112849   5.658   0.646   2.350
 4295TIP3    H212850   5.626   0.786   2.398
 4296TIP3   OH212851   3.611   6.618   0.183
 4296TIP3    H112852   3.529   6.580   0.213
 4296TIP3    H212853   3.643   6.669   0.257
 4297TIP3   OH212854   1.723   1.678   3.338
 4297TIP3    H112855   1.771   1.722   3.408
 4297TIP3    H212856   1.769   1.595   3.326
 4298TIP3   OH212857   5.450   2.754   1.980
 4298TIP3    H112858   5.358   2.777   1.967
 4298TIP3    H212859   5.451   2.659   1.986
 4299TIP3   OH212860   6.618   0.686   1.550
 4299TIP3    H112861   6.552   0.697   1.482
 4299TIP3    H212862   6.659   0.601   1.530
 4300TIP3   OH212863   3.620   3.159   5.195
 4300TIP3    H112864   3.577   3.242   5.175
 4300TIP3    H212865   3.567   3.121   5.265
 4301TIP3   OH212866   4.500   6.237   3.354
 4301TIP3    H112867   4.427   6.268   3.408
 4301TIP3    H212868   4.477   6.263   3.265
 4302TIP3   OH212869   4.268   1.477   4.668
 4302TIP3    H112870   4.218   1.497   4.589
 4302TIP3    H212871   4.278   1.562   4.712
 4303TIP3   OH212872   4.921   6.049   0.656
 4303TIP3    H112873   4.884   6.048   0.744
 4303TIP3    H212874   4.889   5.968   0.615
 4304TIP3   OH212875   0.689   3.998   5.484
 4304TIP3    H112876   0.725   4.086   5.495
 4304TIP3    H212877   0.759   3.940   5.514
 4305TIP3   OH212878   0.980   3.310   1.088
 4305TIP3    H112879   0.915   3.380   1.084
 4305TIP3    H212880   0.962   3.264   1.170
 4306TIP3   OH212881   4.193   1.192   2.329
 4306TIP3    H112882   4.182   1.284   2.354
 4306TIP3    H212883   4.201   1.146   2.413
 4307TIP3   OH212884   6.284   0.850   4.290
 4307TIP3    H112885   6.357   0.857   4.229
 4307TIP3    H212886   6.212   0.815   4.237
 4308TIP3   OH212887   6.896   1.978   2.017
 4308TIP3    H112888   6.941   2.014   1.940
 4308TIP3    H212889   6.856   2.054   2.059
 4309TIP3   OH212890   4.065   5.783   2.815
 4309TIP3    H112891   4.141   5.842   2.806
 4309TIP3    H212892   4.071   5.725   2.739
 4310TIP3   OH212893   2.588   6.442   1.174
 4310TIP3    H112894   2.533   6.399   1.239
 4310TIP3    H212895   2.650   6.495   1.225
 4311TIP3   OH212896   0.591   2.562   0.779
 4311TIP3    H112897   0.533   2.495   0.816
 4311TIP3    H212898   0.668   2.561   0.835
 4312TIP3   OH212899   4.668   3.319   5.139
 4312TIP3    H112900   4.655   3.342   5.047
 4312TIP3    H212901   4.739   3.255   5.137
 4313TIP3   OH212902   6.495   1.193   5.070
 4313TIP3    H112903   6.440   1.118   5.090
 4313TIP3    H212904   6.435   1.257   5.030
 4314TIP3   OH212905   6.578   0.777   5.373
 4314TIP3    H112906   6.543   0.796   5.286
 4314TIP3    H212907   6.502   0.750   5.425
 4315TIP3   OH212908   6.390   3.752   2.677
 4315TIP3    H112909   6.303   3.769   2.713
 4315TIP3    H212910   6.447   3.817   2.720
 4316TIP3   OH212911   4.742   5.481   4.178
 4316TIP3    H112912   4.647   5.493   4.180
 4316TIP3    H212913   4.772   5.539   4.108
 4317TIP3   OH212914   3.442   5.462   1.011
 4317TIP3    H112915   3.397   5.460   1.095
 4317TIP3    H212916   3.490   5.379   1.008
 4318TIP3   OH212917   5.988   4.499   0.503
 4318TIP3    H112918   5.906   4.450   0.507
 4318TIP3    H212919   5.985   4.557   0.579
 4319TIP3   OH212920   4.695   6.014   3.427
 4319TIP3    H112921   4.635   6.087   3.418
 4319TIP3    H212922   4.701   5.999   3.522
 4320TIP3   OH212923   4.468  -0.024   2.146
 4320TIP3    H112924   4.511   0.061   2.159
 4320TIP3    H212925   4.393  -0.022   2.204
 4321TIP3   OH212926   4.208   1.518   0.499
 4321TIP3    H112927   4.260   1.484   0.572
 4321TIP3    H212928   4.235   1.609   0.490
 4322TIP3   OH212929   5.560   3.986   3.459
 4322TIP3    H112930   5.559   4.044   3.382
 4322TIP3    H212931   5.568   3.898   3.422
 4323TIP3   OH212932   5.519   6.266   5.332
 4323TIP3    H112933   5.529   6.171   5.328
 4323TIP3    H212934   5.572   6.299   5.259
 4324TIP3   OH212935   4.559   3.685   1.857
 4324TIP3    H112936   4.465   3.678   1.870
 4324TIP3    H212937   4.593   3.718   1.941
 4325TIP3   OH212938   0.388   2.555   5.015
 4325TIP3    H112939   0.307   2.595   4.982
 4325TIP3    H212940   0.434   2.626   5.059
 4326TIP3   OH212941   5.853   3.379   5.250
 4326TIP3    H112942   5.830   3.290   5.278
 4326TIP3    H212943   5.932   3.368   5.197
 4327TIP3   OH212944   1.950   1.967   4.813
 4327TIP3    H112945   1.996   2.023   4.750
 4327TIP3    H212946   1.872   1.937   4.767
 4328TIP3   OH212947   6.568   0.903   4.639
 4328TIP3    H112948   6.610   0.956   4.708
 4328TIP3    H212949   6.478   0.935   4.636
 4329TIP3   OH212950   1.165   5.952   2.170
 4329TIP3    H112951   1.127   5.949   2.083
 4329TIP3    H212952   1.113   6.017   2.217
 4330TIP3   OH212953   3.654   0.377   1.264
 4330TIP3    H112954   3.714   0.439   1.221
 4330TIP3    H212955   3.703   0.345   1.340
 4331TIP3   OH212956   2.285   5.091   5.833
 4331TIP3    H112957   2.290   5.027   5.904
 4331TIP3    H212958   2.329   5.169   5.867
 4332TIP3   OH212959   5.848   0.037   5.024
 4332TIP3    H112960   5.905  -0.039   5.011
 4332TIP3    H212961   5.761   0.006   4.998
 4333TIP3   OH212962   6.710   3.823   4.787
 4333TIP3    H112963   6.683   3.826   4.878
 4333TIP3    H212964   6.719   3.729   4.768
 4334TIP3   OH212965   5.237   6.520   4.208
 4334TIP3    H112966   5.264   6.589   4.148
 4334TIP3    H212967   5.260   6.554   4.295
 4335TIP3   OH212968   4.273   5.943   3.045
 4335TIP3    H112969   4.298   5.878   2.980
 4335TIP3    H212970   4.315   5.914   3.126
 4336TIP3   OH212971   3.495   1.271   5.747
 4336TIP3    H112972   3.457   1.192   5.786
 4336TIP3    H212973   3.588   1.251   5.738
 4337TIP3   OH212974   1.068   5.997   3.456
 4337TIP3    H112975   0.987   5.957   3.425
 4337TIP3    H212976   1.040   6.059   3.524
 4338TIP3   OH212977   2.164   3.120   2.925
 4338TIP3    H112978   2.226   3.127   2.852
 4338TIP3    H212979   2.149   3.211   2.952
 4339TIP3   OH212980   4.932   3.246   4.920
 4339TIP3    H112981   4.976   3.315   4.970
 4339TIP3    H212982   4.851   3.286   4.888
 4340TIP3   OH212983   3.668   6.388   4.901
 4340TIP3    H112984   3.737   6.443   4.864
 4340TIP3    H212985   3.601   6.384   4.832
 4341TIP3   OH212986   1.150   1.709   1.353
 4341TIP3    H112987   1.199   1.791   1.363
 4341TIP3    H212988   1.068   1.724   1.400
 4342TIP3   OH212989   3.253   2.098   2.826
 4342TIP3    H112990   3.257   2.045   2.746
 4342TIP3    H212991   3.330   2.073   2.876
 4343TIP3   OH212992   0.418   3.452   0.804
 4343TIP3    H112993   0.398   3.473   0.713
 4343TIP3    H212994   0.369   3.516   0.856
 4344TIP3   OH212995   1.858   0.725   2.884
 4344TIP3    H112996   1.769   0.757   2.873
 4344TIP3    H212997   1.849   0.632   2.902
 4345TIP3   OH212998   3.607   1.950   5.509
 4345TIP3    H112999   3.685   1.906   5.475
 4345TIP3    H213000   3.632   1.980   5.596
 4346TIP3   OH213001   5.304   5.439   4.517
 4346TIP3    H113002   5.265   5.385   4.585
 4346TIP3    H213003   5.230   5.484   4.477
 4347TIP3   OH213004   0.443   1.255   5.689
 4347TIP3    H113005   0.463   1.349   5.683
 4347TIP3    H213006   0.365   1.250   5.744
 4348TIP3   OH213007   4.834   5.076   1.065
 4348TIP3    H113008   4.909   5.040   1.017
 4348TIP3    H213009   4.839   5.171   1.048
 4349TIP3   OH213010   6.112   0.278   2.248
 4349TIP3    H113011   6.175   0.207   2.260
 4349TIP3    H213012   6.165   0.358   2.258
 4350TIP3   OH213013   5.066   4.553   0.024
 4350TIP3    H113014   5.107   4.467   0.028
 4350TIP3    H213015   4.988   4.546   0.078
 4351TIP3   OH213016   3.516   5.662   5.311
 4351TIP3    H113017   3.485   5.629   5.227
 4351TIP3    H213018   3.506   5.589   5.371
 4352TIP3   OH213019   5.178   2.306   0.878
 4352TIP3    H113020   5.253   2.347   0.834
 4352TIP3    H213021   5.102   2.356   0.848
 4353TIP3   OH213022   6.596   4.350   4.854
 4353TIP3    H113023   6.597   4.279   4.790
 4353TIP3    H213024   6.567   4.427   4.804
 4354TIP3   OH213025   1.480   4.603   5.164
 4354TIP3    H113026   1.542   4.531   5.146
 4354TIP3    H213027   1.444   4.583   5.250
 4355TIP3   OH213028   5.028   4.740   4.747
 4355TIP3    H113029   4.951   4.690   4.770
 4355TIP3    H213030   5.024   4.747   4.651
 4356TIP3   OH213031   3.567   0.982   4.325
 4356TIP3    H113032   3.577   0.976   4.230
 4356TIP3    H213033   3.476   1.006   4.337
 4357TIP3   OH213034   1.262   2.055   5.300
 4357TIP3    H113035   1.266   2.089   5.210
 4357TIP3    H213036   1.334   2.099   5.345
 4358TIP3   OH213037   3.521   2.452   0.612
 4358TIP3    H113038   3.465   2.470   0.687
 4358TIP3    H213039   3.517   2.532   0.560
 4359TIP3   OH213040   2.356  -0.010   2.548
 4359TIP3    H113041   2.374  -0.048   2.634
 4359TIP3    H213042   2.316   0.075   2.567
 4360TIP3   OH213043   0.776   6.205   4.564
 4360TIP3    H113044   0.782   6.248   4.649
 4360TIP3    H213045   0.684   6.213   4.539
 4361TIP3   OH213046   3.582   2.372   0.943
 4361TIP3    H113047   3.634   2.449   0.919
 4361TIP3    H213048   3.622   2.341   1.025
 4362TIP3   OH213049   2.814   1.410   0.473
 4362TIP3    H113050   2.836   1.502   0.454
 4362TIP3    H213051   2.773   1.378   0.393
 4363TIP3   OH213052   0.651   1.103   2.668
 4363TIP3    H113053   0.697   1.176   2.626
 4363TIP3    H213054   0.720   1.045   2.698
 4364TIP3   OH213055   2.430   0.190   4.363
 4364TIP3    H113056   2.370   0.117   4.382
 4364TIP3    H213057   2.508   0.148   4.327
 4365TIP3   OH213058   7.102   6.677   2.782
 4365TIP3    H113059   7.064   6.619   2.848
 4365TIP3    H213060   7.108   6.762   2.825
 4366TIP3   OH213061   4.472   1.692   2.142
 4366TIP3    H113062   4.403   1.696   2.208
 4366TIP3    H213063   4.445   1.754   2.074
 4367TIP3   OH213064   4.380   2.853   4.699
 4367TIP3    H113065   4.307   2.834   4.640
 4367TIP3    H213066   4.390   2.948   4.695
 4368TIP3   OH213067   1.562   1.513   3.529
 4368TIP3    H113068   1.515   1.452   3.472
 4368TIP3    H213069   1.647   1.524   3.487
 4369TIP3   OH213070   6.811   0.521   1.161
 4369TIP3    H113071   6.875   0.544   1.228
 4369TIP3    H213072   6.779   0.605   1.128
 4370TIP3   OH213073   4.741   0.512   4.115
 4370TIP3    H113074   4.810   0.560   4.159
 4370TIP3    H213075   4.730   0.432   4.166
 4371TIP3   OH213076   1.574   6.588   0.922
 4371TIP3    H113077   1.499   6.546   0.880
 4371TIP3    H213078   1.543   6.609   1.011
 4372TIP3   OH213079   5.163   4.149   4.075
 4372TIP3    H113080   5.259   4.159   4.072
 4372TIP3    H213081   5.133   4.190   3.994
 4373TIP3   OH213082   3.627   0.177   0.320
 4373TIP3    H113083   3.606   0.106   0.381
 4373TIP3    H213084   3.690   0.139   0.259
 4374TIP3   OH213085   7.196   6.714   5.782
 4374TIP3    H113086   7.284   6.750   5.764
 4374TIP3    H213087   7.141   6.791   5.796
 4375TIP3   OH213088   7.074   5.591   4.807
 4375TIP3    H113089   7.055   5.498   4.802
 4375TIP3    H213090   6.988   5.633   4.804
 4376TIP3   OH213091   6.736   5.633   2.741
 4376TIP3    H113092   6.647   5.638   2.777
 4376TIP3    H213093   6.743   5.709   2.683
 4377TIP3   OH213094   0.357   5.400   5.847
 4377TIP3    H113095   0.294   5.333   5.821
 4377TIP3    H213096   0.358   5.461   5.773
 4378TIP3   OH213097   5.872   2.189   3.085
 4378TIP3    H113098   5.959   2.161   3.115
 4378TIP3    H213099   5.861   2.276   3.123
 4379TIP3   OH213100   6.279   4.646   4.373
 4379TIP3    H113101   6.336   4.675   4.445
 4379TIP3    H213102   6.193   4.681   4.396
 4380TIP3   OH213103   6.909   4.270   3.258
 4380TIP3    H113104   6.987   4.325   3.249
 4380TIP3    H213105   6.938   4.183   3.228
 4381TIP3   OH213106   6.872   0.813   5.014
 4381TIP3    H113107   6.842   0.774   5.096
 4381TIP3    H213108   6.966   0.824   5.025
 4382TIP3   OH213109   1.422   1.735   0.554
 4382TIP3    H113110   1.490   1.682   0.594
 4382TIP3    H213111   1.378   1.778   0.627
 4383TIP3   OH213112   3.174   0.694   4.952
 4383TIP3    H113113   3.269   0.695   4.967
 4383TIP3    H213114   3.150   0.602   4.958
 4384TIP3   OH213115   0.914   4.757   5.247
 4384TIP3    H113116   0.956   4.783   5.329
 4384TIP3    H213117   0.897   4.663   5.258
 4385TIP3   OH213118   6.443   3.521   1.669
 4385TIP3    H113119   6.370   3.477   1.625
 4385TIP3    H213120   6.415   3.528   1.760
 4386TIP3   OH213121   0.193   4.196   2.074
 4386TIP3    H113122   0.214   4.260   2.006
 4386TIP3    H213123   0.227   4.236   2.155
 4387TIP3   OH213124   5.404   6.701   5.008
 4387TIP3    H113125   5.362   6.757   4.943
 4387TIP3    H213126   5.361   6.723   5.091
 4388TIP3   OH213127   2.919   4.016   3.214
 4388TIP3    H113128   2.912   3.941   3.273
 4388TIP3    H213129   2.988   4.071   3.253
 4389TIP3   OH213130   0.067   3.081   3.501
 4389TIP3    H113131   0.063   3.141   3.575
 4389TIP3    H213132   0.152   3.036   3.511
 4390TIP3   OH213133   5.344   0.707   1.056
 4390TIP3    H113134   5.306   0.795   1.052
 4390TIP3    H213135   5.303   0.660   0.984
 4391TIP3   OH213136   1.202   6.139   5.503
 4391TIP3    H113137   1.273   6.201   5.487
 4391TIP3    H213138   1.190   6.093   5.420
 4392TIP3   OH213139   0.589   2.440   1.779
 4392TIP3    H113140   0.554   2.351   1.787
 4392TIP3    H213141   0.546   2.490   1.848
 4393TIP3   OH213142   6.530   4.925   0.549
 4393TIP3    H113143   6.566   5.011   0.569
 4393TIP3    H213144   6.438   4.942   0.527
 4394TIP3   OH213145   4.301   3.459   4.435
 4394TIP3    H113146   4.376   3.486   4.488
 4394TIP3    H213147   4.253   3.540   4.419
 4395TIP3   OH213148   6.987   0.087   2.558
 4395TIP3    H113149   7.041   0.008   2.564
 4395TIP3    H213150   7.032   0.143   2.495
 4396TIP3   OH213151   3.136   2.352   2.660
 4396TIP3    H113152   3.096   2.384   2.741
 4396TIP3    H213153   3.155   2.432   2.610
 4397TIP3   OH213154   1.810   1.654   4.332
 4397TIP3    H113155   1.762   1.620   4.408
 4397TIP3    H213156   1.744   1.656   4.261
 4398TIP3   OH213157   1.297   4.146   3.406
 4398TIP3    H113158   1.256   4.185   3.329
 4398TIP3    H213159   1.258   4.192   3.480
 4399TIP3   OH213160   2.433   3.574   3.071
 4399TIP3    H113161   2.372   3.532   3.132
 4399TIP3    H213162   2.409   3.666   3.073
 4400TIP3   OH213163   2.738   1.842   3.127
 4400TIP3    H113164   2.764   1.752   3.108
 4400TIP3    H213165   2.738   1.886   3.041
 4401TIP3   OH213166   5.342   0.786   5.156
 4401TIP3    H113167   5.382   0.716   5.208
 4401TIP3    H213168   5.393   0.788   5.075
 4402TIP3   OH213169   5.763   0.800   1.958
 4402TIP3    H113170   5.754   0.877   2.014
 4402TIP3    H213171   5.821   0.742   2.006
 4403TIP3   OH213172   2.034   1.228   1.013
 4403TIP3    H113173   1.969   1.268   0.955
 4403TIP3    H213174   2.118   1.242   0.969
 4404TIP3   OH213175   0.052   1.422   3.554
 4404TIP3    H113176   0.099   1.343   3.579
 4404TIP3    H213177  -0.037   1.409   3.588
 4405TIP3   OH213178   1.007   3.232   5.214
 4405TIP3    H113179   1.043   3.313   5.178
 4405TIP3    H213180   1.035   3.164   5.153
 4406TIP3   OH213181   3.314   4.266   2.449
 4406TIP3    H113182   3.404   4.256   2.480
 4406TIP3    H213183   3.287   4.352   2.483
 4407TIP3   OH213184   3.888   3.286   1.323
 4407TIP3    H113185   3.956   3.352   1.316
 4407TIP3    H213186   3.806   3.336   1.321
 4408TIP3   OH213187   4.649   6.003   0.468
 4408TIP3    H113188   4.647   6.035   0.558
 4408TIP3    H213189   4.588   5.929   0.467
 4409TIP3   OH213190   6.158   0.406   3.635
 4409TIP3    H113191   6.092   0.356   3.587
 4409TIP3    H213192   6.223   0.430   3.568
 4410TIP3   OH213193   5.786   6.668   3.126
 4410TIP3    H113194   5.731   6.743   3.151
 4410TIP3    H213195   5.863   6.707   3.085
 4411TIP3   OH213196   2.765   4.741   4.605
 4411TIP3    H113197   2.673   4.718   4.596
 4411TIP3    H213198   2.806   4.663   4.644
 4412TIP3   OH213199   2.181   1.093   0.448
 4412TIP3    H113200   2.275   1.105   0.459
 4412TIP3    H213201   2.148   1.180   0.422
 4413TIP3   OH213202   5.740   1.982   1.540
 4413TIP3    H113203   5.685   1.941   1.473
 4413TIP3    H213204   5.731   2.076   1.523
 4414TIP3   OH213205   2.834   2.323   2.034
 4414TIP3    H113206   2.860   2.415   2.038
 4414TIP3    H213207   2.805   2.310   1.944
 4415TIP3   OH213208   0.948   4.553   0.657
 4415TIP3    H113209   0.877   4.591   0.710
 4415TIP3    H213210   0.920   4.565   0.567
 4416TIP3   OH213211   2.535   6.216   0.031
 4416TIP3    H113212   2.612   6.201   0.086
 4416TIP3    H213213   2.475   6.145   0.055
 4417TIP3   OH213214   6.778   2.648   0.753
 4417TIP3    H113215   6.738   2.563   0.774
 4417TIP3    H213216   6.872   2.632   0.758
 4418TIP3   OH213217   5.658   2.534   0.681
 4418TIP3    H113218   5.716   2.601   0.718
 4418TIP3    H213219   5.630   2.571   0.597
 4419TIP3   OH213220   2.938   0.034   5.045
 4419TIP3    H113221   3.000  -0.020   5.094
 4419TIP3    H213222   2.966   0.124   5.063
 4420TIP3   OH213223   5.795   6.103   0.829
 4420TIP3    H113224   5.738   6.111   0.906
 4420TIP3    H213225   5.744   6.139   0.757
 4421TIP3   OH213226   0.341   5.364   2.874
 4421TIP3    H113227   0.318   5.272   2.880
 4421TIP3    H213228   0.277   5.409   2.928
 4422TIP3   OH213229   2.164   2.096   4.302
 4422TIP3    H113230   2.171   2.012   4.349
 4422TIP3    H213231   2.254   2.125   4.290
 4423TIP3   OH213232   6.338   2.232   3.564
 4423TIP3    H113233   6.302   2.159   3.614
 4423TIP3    H213234   6.319   2.310   3.617
 4424TIP3   OH213235   5.708   3.827   1.727
 4424TIP3    H113236   5.635   3.807   1.669
 4424TIP3    H213237   5.748   3.905   1.689
 4425TIP3   OH213238   1.009   6.584   2.169
 4425TIP3    H113239   0.930   6.630   2.142
 4425TIP3    H213240   1.081   6.642   2.144
 4426TIP3   OH213241   2.768   2.904   2.651
 4426TIP3    H113242   2.689   2.851   2.644
 4426TIP3    H213243   2.753   2.959   2.729
 4427TIP3   OH213244   1.709   5.651   5.126
 4427TIP3    H113245   1.734   5.741   5.106
 4427TIP3    H213246   1.679   5.615   5.043
 4428TIP3   OH213247   1.202   0.723   0.989
 4428TIP3    H113248   1.241   0.792   0.934
 4428TIP3    H213249   1.108   0.734   0.978
 4429TIP3   OH213250   5.814   6.238   0.353
 4429TIP3    H113251   5.829   6.192   0.269
 4429TIP3    H213252   5.772   6.320   0.328
 4430TIP3   OH213253   6.320   5.402   4.988
 4430TIP3    H113254   6.337   5.430   5.078
 4430TIP3    H213255   6.244   5.454   4.961
 4431TIP3   OH213256   2.978   6.021   5.665
 4431TIP3    H113257   2.925   5.971   5.727
 4431TIP3    H213258   2.978   5.968   5.585
 4432TIP3   OH213259   1.325   1.406   5.415
 4432TIP3    H113260   1.271   1.482   5.436
 4432TIP3    H213261   1.398   1.411   5.476
 4433TIP3   OH213262   1.727   3.881   2.080
 4433TIP3    H113263   1.707   3.820   2.150
 4433TIP3    H213264   1.645   3.927   2.063
 4434TIP3   OH213265   1.535   3.597   0.617
 4434TIP3    H113266   1.606   3.648   0.656
 4434TIP3    H213267   1.473   3.583   0.688
 4435TIP3   OH213268   5.918   6.060   5.712
 4435TIP3    H113269   5.939   6.003   5.639
 4435TIP3    H213270   5.942   6.148   5.682
 4436TIP3   OH213271   0.884   6.757   4.962
 4436TIP3    H113272   0.977   6.757   4.941
 4436TIP3    H213273   0.843   6.808   4.892
 4437TIP3   OH213274   6.575   6.728   5.738
 4437TIP3    H113275   6.622   6.736   5.656
 4437TIP3    H213276   6.643   6.728   5.805
 4438TIP3   OH213277   4.538   0.159   4.573
 4438TIP3    H113278   4.530   0.252   4.552
 4438TIP3    H213279   4.527   0.155   4.668
 4439TIP3   OH213280   4.170   5.836   3.799
 4439TIP3    H113281   4.177   5.741   3.789
 4439TIP3    H213282   4.256   5.870   3.772
 4440TIP3   OH213283   0.311   5.854   2.914
 4440TIP3    H113284   0.271   5.872   2.999
 4440TIP3    H213285   0.368   5.778   2.930
 4441TIP3   OH213286   6.703   5.560   3.750
 4441TIP3    H113287   6.754   5.491   3.792
 4441TIP3    H213288   6.714   5.544   3.656
 4442TIP3   OH213289   2.048   0.343   1.542
 4442TIP3    H113290   1.956   0.363   1.559
 4442TIP3    H213291   2.096   0.393   1.608
 4443TIP3   OH213292   2.115   1.911   2.334
 4443TIP3    H113293   2.022   1.921   2.354
 4443TIP3    H213294   2.120   1.924   2.239
 4444TIP3   OH213295   1.075   3.060   4.996
 4444TIP3    H113296   1.093   3.099   4.910
 4444TIP3    H213297   1.162   3.045   5.033
 4445TIP3   OH213298   0.504   3.499   4.325
 4445TIP3    H113299   0.548   3.551   4.257
 4445TIP3    H213300   0.495   3.559   4.399
 4446TIP3   OH213301   3.807   3.231   0.127
 4446TIP3    H113302   3.742   3.174   0.168
 4446TIP3    H213303   3.875   3.242   0.194
 4447TIP3   OH213304   1.518   3.778   4.965
 4447TIP3    H113305   1.536   3.687   4.939
 4447TIP3    H213306   1.513   3.826   4.882
 4448TIP3   OH213307   5.081   6.047   1.664
 4448TIP3    H113308   5.154   6.108   1.651
 4448TIP3    H213309   5.007   6.103   1.689
 4449TIP3   OH213310   6.314   1.207   3.085
 4449TIP3    H113311   6.272   1.217   3.170
 4449TIP3    H213312   6.255   1.150   3.035
 4450TIP3   OH213313   6.838   1.396   1.901
 4450TIP3    H113314   6.838   1.469   1.963
 4450TIP3    H213315   6.840   1.318   1.955
 4451TIP3   OH213316   6.480   3.325   2.205
 4451TIP3    H113317   6.393   3.294   2.230
 4451TIP3    H213318   6.540   3.277   2.262
 4452TIP3   OH213319   3.987   0.316   0.803
 4452TIP3    H113320   4.038   0.336   0.881
 4452TIP3    H213321   3.951   0.229   0.819
 4453TIP3   OH213322   6.547   1.799   0.148
 4453TIP3    H113323   6.623   1.857   0.144
 4453TIP3    H213324   6.485   1.838   0.086
 4454TIP3   OH213325   3.864   4.934   0.132
 4454TIP3    H113326   3.871   4.864   0.197
 4454TIP3    H213327   3.787   4.910   0.080
 4455TIP3   OH213328   5.915   1.686   4.332
 4455TIP3    H113329   5.863   1.698   4.253
 4455TIP3    H213330   5.883   1.753   4.392
 4456TIP3   OH213331   6.395   1.419   1.620
 4456TIP3    H113332   6.369   1.482   1.687
 4456TIP3    H213333   6.477   1.383   1.652
 4457TIP3   OH213334   7.181   1.741   0.618
 4457TIP3    H113335   7.100   1.692   0.633
 4457TIP3    H213336   7.163   1.828   0.653
 4458TIP3   OH213337   0.197   5.937   5.410
 4458TIP3    H113338   0.208   5.947   5.505
 4458TIP3    H213339   0.247   5.859   5.388
 4459TIP3   OH213340   3.768   0.033   4.636
 4459TIP3    H113341   3.711   0.105   4.608
 4459TIP3    H213342   3.824   0.072   4.703
 4460TIP3   OH213343   2.680   3.450   1.024
 4460TIP3    H113344   2.645   3.501   0.951
 4460TIP3    H213345   2.729   3.379   0.982
 4461TIP3   OH213346   1.295   5.797   3.404
 4461TIP3    H113347   1.328   5.760   3.486
 4461TIP3    H213348   1.224   5.855   3.432
 4462TIP3   OH213349   7.041   2.621   0.652
 4462TIP3    H113350   7.054   2.577   0.568
 4462TIP3    H213351   7.104   2.581   0.710
 4463TIP3   OH213352   6.038   6.177   3.013
 4463TIP3    H113353   6.116   6.209   2.968
 4463TIP3    H213354   5.998   6.115   2.951
 4464TIP3   OH213355   3.842   5.002   4.996
 4464TIP3    H113356   3.877   4.924   5.040
 4464TIP3    H213357   3.774   4.969   4.938
 4465TIP3   OH213358   6.672   3.814   0.315
 4465TIP3    H113359   6.622   3.749   0.363
 4465TIP3    H213360   6.623   3.895   0.326
 4466TIP3   OH213361   6.787   0.906   3.210
 4466TIP3    H113362   6.741   0.840   3.159
 4466TIP3    H213363   6.879   0.896   3.187
 4467TIP3   OH213364   5.414   2.746   1.025
 4467TIP3    H113365   5.337   2.773   1.074
 4467TIP3    H213366   5.450   2.673   1.074
 4468TIP3   OH213367   1.420   3.825   1.375
 4468TIP3    H113368   1.429   3.730   1.388
 4468TIP3    H213369   1.458   3.842   1.289
 4469TIP3   OH213370   2.507   1.229   3.307
 4469TIP3    H113371   2.444   1.302   3.305
 4469TIP3    H213372   2.548   1.230   3.221
 4470TIP3   OH213373   0.100   2.907   5.128
 4470TIP3    H113374   0.102   2.930   5.036
 4470TIP3    H213375   0.021   2.854   5.138
 4471TIP3   OH213376   3.365   5.642   4.412
 4471TIP3    H113377   3.419   5.580   4.461
 4471TIP3    H213378   3.278   5.634   4.451
 4472TIP3   OH213379   4.093   6.764   2.606
 4472TIP3    H113380   4.036   6.700   2.648
 4472TIP3    H213381   4.177   6.720   2.599
 4473TIP3   OH213382   4.855   0.898   5.439
 4473TIP3    H113383   4.908   0.821   5.458
 4473TIP3    H213384   4.918   0.963   5.408
 4474TIP3   OH213385   0.118   6.448   5.042
 4474TIP3    H113386   0.025   6.466   5.056
 4474TIP3    H213387   0.162   6.522   5.084
 4475TIP3   OH213388   1.859   2.359   0.119
 4475TIP3    H113389   1.880   2.281   0.170
 4475TIP3    H213390   1.813   2.416   0.180
 4476TIP3   OH213391   6.837   3.681   5.017
 4476TIP3    H113392   6.902   3.629   4.970
 4476TIP3    H213393   6.776   3.617   5.053
 4477TIP3   OH213394   5.956   2.244   4.411
 4477TIP3    H113395   5.915   2.276   4.330
 4477TIP3    H213396   6.039   2.207   4.382
 4478TIP3   OH213397   4.541   1.336   5.846
 4478TIP3    H113398   4.539   1.324   5.941
 4478TIP3    H213399   4.633   1.354   5.827
 4479TIP3   OH213400   3.504   1.891   4.788
 4479TIP3    H113401   3.583   1.848   4.820
 4479TIP3    H213402   3.491   1.965   4.847
 4480TIP3   OH213403   2.036   0.773   2.663
 4480TIP3    H113404   2.093   0.826   2.718
 4480TIP3    H213405   1.970   0.738   2.723
 4481TIP3   OH213406   4.049   5.467   2.144
 4481TIP3    H113407   4.072   5.424   2.226
 4481TIP3    H213408   4.121   5.529   2.128
 4482TIP3   OH213409   4.054   3.075   1.357
 4482TIP3    H113410   3.989   3.145   1.351
 4482TIP3    H213411   4.124   3.102   1.298
 4483TIP3   OH213412   1.844   6.606   5.084
 4483TIP3    H113413   1.909   6.545   5.049
 4483TIP3    H213414   1.772   6.549   5.113
 4484TIP3   OH213415   7.172   2.602   5.501
 4484TIP3    H113416   7.093   2.563   5.464
 4484TIP3    H213417   7.241   2.585   5.436
 4485TIP3   OH213418   6.356   0.752   5.571
 4485TIP3    H113419   6.305   0.828   5.544
 4485TIP3    H213420   6.318   0.727   5.655
 4486TIP3   OH213421   0.191   3.343   1.986
 4486TIP3    H113422   0.230   3.270   2.035
 4486TIP3    H213423   0.107   3.357   2.029
 4487TIP3   OH213424   4.986   4.420   3.147
 4487TIP3    H113425   5.003   4.348   3.207
 4487TIP3    H213426   5.006   4.384   3.060
 4488TIP3   OH213427   7.140   4.382   0.719
 4488TIP3    H113428   7.067   4.341   0.764
 4488TIP3    H213429   7.100   4.446   0.660
 4489TIP3   OH213430   3.496   4.066   0.947
 4489TIP3    H113431   3.407   4.031   0.949
 4489TIP3    H213432   3.536   4.036   1.028
 4490TIP3   OH213433   5.191   4.785   5.413
 4490TIP3    H113434   5.116   4.833   5.449
 4490TIP3    H213435   5.152   4.704   5.379
 4491TIP3   OH213436   4.593   4.247   1.389
 4491TIP3    H113437   4.549   4.262   1.306
 4491TIP3    H213438   4.674   4.200   1.366
 4492TIP3   OH213439   3.954   2.168   4.055
 4492TIP3    H113440   3.968   2.253   4.097
 4492TIP3    H213441   3.907   2.188   3.974
 4493TIP3   OH213442   2.209   0.508   0.140
 4493TIP3    H113443   2.240   0.422   0.170
 4493TIP3    H213444   2.154   0.488   0.064
 4494TIP3   OH213445   4.515   3.569   4.226
 4494TIP3    H113446   4.588   3.570   4.164
 4494TIP3    H213447   4.491   3.477   4.233
 4495TIP3   OH213448   4.066   0.880   0.848
 4495TIP3    H113449   4.160   0.866   0.851
 4495TIP3    H213450   4.031   0.826   0.919
 4496TIP3   OH213451   0.874   4.079   0.768
 4496TIP3    H113452   0.923   3.997   0.770
 4496TIP3    H213453   0.924   4.135   0.709
 4497TIP3   OH213454   0.572   6.770   1.661
 4497TIP3    H113455   0.487   6.811   1.643
 4497TIP3    H213456   0.556   6.715   1.738
 4498TIP3   OH213457   4.748   6.008   2.891
 4498TIP3    H113458   4.810   6.041   2.956
 4498TIP3    H213459   4.687   6.081   2.878
 4499TIP3   OH213460   4.679   5.541   2.386
 4499TIP3    H113461   4.697   5.462   2.437
 4499TIP3    H213462   4.753   5.599   2.405
 4500TIP3   OH213463   6.959   0.564   4.070
 4500TIP3    H113464   6.879   0.592   4.027
 4500TIP3    H213465   6.931   0.539   4.158
 4501TIP3   OH213466   0.609   1.982   5.392
 4501TIP3    H113467   0.520   1.953   5.369
 4501TIP3    H213468   0.599   2.076   5.409
 4502TIP3   OH213469   4.955   4.658   1.101
 4502TIP3    H113470   4.913   4.574   1.119
 4502TIP3    H213471   4.897   4.723   1.141
 4503TIP3   OH213472   0.393   1.508   5.558
 4503TIP3    H113473   0.429   1.490   5.471
 4503TIP3    H213474   0.299   1.494   5.549
 4504TIP3   OH213475   3.850   1.295   3.242
 4504TIP3    H113476   3.901   1.370   3.274
 4504TIP3    H213477   3.759   1.317   3.264
 4505TIP3   OH213478   6.559   2.740   1.839
 4505TIP3    H113479   6.490   2.772   1.780
 4505TIP3    H213480   6.512   2.714   1.918
 4506TIP3   OH213481   1.252   0.345   2.154
 4506TIP3    H113482   1.307   0.422   2.138
 4506TIP3    H213483   1.304   0.291   2.214
 4507TIP3   OH213484   1.174   0.282   1.620
 4507TIP3    H113485   1.176   0.190   1.645
 4507TIP3    H213486   1.198   0.283   1.527
 4508TIP3   OH213487   1.393   4.543   0.843
 4508TIP3    H113488   1.373   4.476   0.908
 4508TIP3    H213489   1.307   4.581   0.822
 4509TIP3   OH213490   6.237   6.420   1.241
 4509TIP3    H113491   6.171   6.385   1.182
 4509TIP3    H213492   6.214   6.512   1.251
 4510TIP3   OH213493   0.035   6.252   5.811
 4510TIP3    H113494   0.015   6.176   5.757
 4510TIP3    H213495   0.032   6.220   5.901
 4511TIP3   OH213496   3.594   3.255   1.559
 4511TIP3    H113497   3.618   3.347   1.565
 4511TIP3    H213498   3.569   3.230   1.648
 4512TIP3   OH213499   0.036   3.436   2.514
 4512TIP3    H113500   0.101   3.366   2.527
 4512TIP3    H213501   0.036   3.451   2.419
 4513TIP3   OH213502   5.234   2.215   4.152
 4513TIP3    H113503   5.303   2.187   4.211
 4513TIP3    H213504   5.205   2.134   4.109
 4514TIP3   OH213505   4.626   0.781   0.665
 4514TIP3    H113506   4.538   0.794   0.629
 4514TIP3    H213507   4.629   0.838   0.742
 4515TIP3   OH213508   1.867   2.556   0.688
 4515TIP3    H113509   1.927   2.627   0.667
 4515TIP3    H213510   1.795   2.599   0.735
 4516TIP3   OH213511   5.645   6.110   5.628
 4516TIP3    H113512   5.673   6.081   5.541
 4516TIP3    H213513   5.703   6.184   5.648
 4517TIP3   OH213514   0.907   5.330   4.415
 4517TIP3    H113515   0.997   5.299   4.404
 4517TIP3    H213516   0.861   5.297   4.338
 4518TIP3   OH213517   2.468   1.727   3.891
 4518TIP3    H113518   2.468   1.805   3.836
 4518TIP3    H213519   2.511   1.660   3.838
 4519TIP3   OH213520   2.986   6.213   2.393
 4519TIP3    H113521   2.925   6.241   2.462
 4519TIP3    H213522   2.930   6.186   2.321
 4520TIP3   OH213523   3.594   3.045   3.862
 4520TIP3    H113524   3.628   2.970   3.814
 4520TIP3    H213525   3.536   3.007   3.928
 4521TIP3   OH213526   1.551   0.425   1.623
 4521TIP3    H113527   1.533   0.501   1.567
 4521TIP3    H213528   1.531   0.349   1.568
 4522TIP3   OH213529   7.008   4.636   2.743
 4522TIP3    H113530   6.932   4.689   2.767
 4522TIP3    H213531   7.083   4.683   2.779
 4523TIP3   OH213532   3.923   2.214   1.923
 4523TIP3    H113533   3.873   2.294   1.907
 4523TIP3    H213534   3.872   2.145   1.881
 4524TIP3   OH213535   4.148   6.350   4.855
 4524TIP3    H113536   4.224   6.370   4.909
 4524TIP3    H213537   4.102   6.434   4.847
 4525TIP3   OH213538   6.197   4.842   3.113
 4525TIP3    H113539   6.268   4.806   3.059
 4525TIP3    H213540   6.197   4.787   3.192
 4526TIP3   OH213541   2.491   5.423   2.817
 4526TIP3    H113542   2.429   5.351   2.809
 4526TIP3    H213543   2.449   5.486   2.875
 4527TIP3   OH213544   0.098   0.657   1.342
 4527TIP3    H113545   0.111   0.588   1.278
 4527TIP3    H213546   0.132   0.736   1.299
 4528TIP3   OH213547   6.274   2.167   3.916
 4528TIP3    H113548   6.335   2.101   3.884
 4528TIP3    H213549   6.209   2.118   3.966
 4529TIP3   OH213550   0.441   1.632   0.312
 4529TIP3    H113551   0.446   1.542   0.278
 4529TIP3    H213552   0.386   1.625   0.390
 4530TIP3   OH213553   0.453   1.631   1.916
 4530TIP3    H113554   0.503   1.554   1.945
 4530TIP3    H213555   0.465   1.695   1.987
 4531TIP3   OH213556   0.841   2.615   2.758
 4531TIP3    H113557   0.841   2.548   2.690
 4531TIP3    H213558   0.926   2.659   2.748
 4532TIP3   OH213559   4.846   5.780   0.796
 4532TIP3    H113560   4.915   5.805   0.735
 4532TIP3    H213561   4.891   5.765   0.879
 4533TIP3   OH213562   6.789   6.626   4.068
 4533TIP3    H113563   6.841   6.704   4.090
 4533TIP3    H213564   6.734   6.611   4.144
 4534TIP3   OH213565   0.736   2.837   4.367
 4534TIP3    H113566   0.762   2.784   4.442
 4534TIP3    H213567   0.818   2.876   4.336
 4535TIP3   OH213568   2.961   0.899   0.597
 4535TIP3    H113569   2.905   0.964   0.554
 4535TIP3    H213570   3.029   0.879   0.532
 4536TIP3   OH213571   0.762   2.653   1.524
 4536TIP3    H113572   0.770   2.596   1.600
 4536TIP3    H213573   0.779   2.596   1.449
 4537TIP3   OH213574   1.144   0.466   5.204
 4537TIP3    H113575   1.220   0.520   5.185
 4537TIP3    H213576   1.179   0.378   5.218
 4538TIP3   OH213577   1.441   0.266   0.049
 4538TIP3    H113578   1.452   0.171   0.039
 4538TIP3    H213579   1.371   0.289  -0.013
 4539TIP3   OH213580   6.501   0.847   1.064
 4539TIP3    H113581   6.499   0.937   1.098
 4539TIP3    H213582   6.412   0.815   1.077
 4540TIP3   OH213583   3.601   3.671   3.466
 4540TIP3    H113584   3.555   3.749   3.495
 4540TIP3    H213585   3.678   3.705   3.419
 4541TIP3   OH213586   3.611   4.757   4.489
 4541TIP3    H113587   3.692   4.804   4.470
 4541TIP3    H213588   3.544   4.803   4.439
 4542TIP3   OH213589   0.932   3.939   3.808
 4542TIP3    H113590   0.921   3.952   3.713
 4542TIP3    H213591   1.008   3.881   3.816
 4543TIP3   OH213592   3.152   6.543   0.560
 4543TIP3    H113593   3.224   6.515   0.618
 4543TIP3    H213594   3.074   6.534   0.614
 4544TIP3   OH213595   4.556   6.030   4.567
 4544TIP3    H113596   4.622   5.975   4.526
 4544TIP3    H213597   4.476   6.013   4.517
 4545TIP3   OH213598   0.092   5.198   0.168
 4545TIP3    H113599   0.161   5.132   0.165
 4545TIP3    H213600   0.139   5.281   0.161
 4546TIP3   OH213601   0.070   3.084   4.662
 4546TIP3    H113602   0.079   3.174   4.631
 4546TIP3    H213603  -0.023   3.075   4.681
 4547TIP3   OH213604   4.782   1.365   4.443
 4547TIP3    H113605   4.730   1.412   4.508
 4547TIP3    H213606   4.763   1.410   4.360
 4548TIP3   OH213607   7.222   2.783   2.999
 4548TIP3    H113608   7.173   2.742   2.928
 4548TIP3    H213609   7.175   2.864   3.018
 4549TIP3   OH213610   1.705   5.853   1.074
 4549TIP3    H113611   1.793   5.817   1.059
 4549TIP3    H213612   1.681   5.819   1.160
 4550TIP3   OH213613   4.909   4.873   0.825
 4550TIP3    H113614   4.844   4.804   0.837
 4550TIP3    H213615   4.993   4.827   0.818
 4551TIP3   OH213616   6.021   6.619   3.918
 4551TIP3    H113617   6.023   6.524   3.925
 4551TIP3    H213618   6.075   6.650   3.990
 4552TIP3   OH213619   6.400   2.162   2.308
 4552TIP3    H113620   6.424   2.104   2.380
 4552TIP3    H213621   6.311   2.191   2.330
 4553TIP3   OH213622   6.139   4.126   3.776
 4553TIP3    H113623   6.212   4.140   3.836
 4553TIP3    H213624   6.181   4.096   3.695
 4554TIP3   OH213625   2.960   3.981   0.272
 4554TIP3    H113626   2.926   4.058   0.318
 4554TIP3    H213627   2.884   3.924   0.261
 4555TIP3   OH213628   5.220   5.222   3.337
 4555TIP3    H113629   5.172   5.185   3.411
 4555TIP3    H213630   5.213   5.156   3.268
 4556TIP3   OH213631   3.817   5.822   0.168
 4556TIP3    H113632   3.813   5.740   0.120
 4556TIP3    H213633   3.837   5.888   0.101
 4557TIP3   OH213634   0.667   2.310   2.936
 4557TIP3    H113635   0.642   2.222   2.908
 4557TIP3    H213636   0.667   2.361   2.855
 4558TIP3   OH213637   2.013   5.895   5.007
 4558TIP3    H113638   1.969   5.816   4.975
 4558TIP3    H213639   1.976   5.967   4.957
 4559TIP3   OH213640   6.276   1.103   0.357
 4559TIP3    H113641   6.210   1.107   0.288
 4559TIP3    H213642   6.226   1.094   0.438
 4560TIP3   OH213643   1.417   1.766   5.884
 4560TIP3    H113644   1.494   1.823   5.884
 4560TIP3    H213645   1.452   1.678   5.896
 4561TIP3   OH213646   2.964   2.353   4.976
 4561TIP3    H113647   3.036   2.292   4.989
 4561TIP3    H213648   2.996   2.416   4.911
 4562TIP3   OH213649   2.789   3.721   0.308
 4562TIP3    H113650   2.696   3.706   0.327
 4562TIP3    H213651   2.805   3.672   0.227
 4563TIP3   OH213652   2.150   1.951   3.453
 4563TIP3    H113653   2.179   1.954   3.362
 4563TIP3    H213654   2.215   1.895   3.497
 4564TIP3   OH213655   4.294   1.952   3.234
 4564TIP3    H113656   4.243   1.929   3.311
 4564TIP3    H213657   4.288   1.875   3.177
 4565TIP3   OH213658   7.186   2.107   1.496
 4565TIP3    H113659   7.260   2.048   1.484
 4565TIP3    H213660   7.118   2.072   1.438
 4566TIP3   OH213661   2.367   5.599   2.001
 4566TIP3    H113662   2.405   5.677   2.041
 4566TIP3    H213663   2.442   5.548   1.970
 4567TIP3   OH213664   5.227   6.396   1.835
 4567TIP3    H113665   5.257   6.408   1.925
 4567TIP3    H213666   5.297   6.345   1.793
 4568TIP3   OH213667   5.510   3.108   2.020
 4568TIP3    H113668   5.461   3.089   1.940
 4568TIP3    H213669   5.454   3.168   2.068
 4569TIP3   OH213670   4.893   1.388   0.380
 4569TIP3    H113671   4.981   1.350   0.371
 4569TIP3    H213672   4.856   1.383   0.292
 4570TIP3   OH213673   6.792   6.056   0.617
 4570TIP3    H113674   6.786   5.961   0.627
 4570TIP3    H213675   6.864   6.069   0.554
 4571TIP3   OH213676   6.868   4.465   2.919
 4571TIP3    H113677   6.921   4.521   2.862
 4571TIP3    H213678   6.863   4.513   3.002
 4572TIP3   OH213679   5.590   5.488   3.910
 4572TIP3    H113680   5.512   5.443   3.876
 4572TIP3    H213681   5.600   5.454   3.999
 4573TIP3   OH213682   5.293   3.792   4.676
 4573TIP3    H113683   5.232   3.718   4.670
 4573TIP3    H213684   5.376   3.757   4.643
 4574TIP3   OH213685   2.339   3.360   1.784
 4574TIP3    H113686   2.392   3.298   1.735
 4574TIP3    H213687   2.277   3.306   1.832
 4575TIP3   OH213688   1.166   6.562   0.933
 4575TIP3    H113689   1.182   6.528   1.020
 4575TIP3    H213690   1.243   6.537   0.882
 4576TIP3   OH213691   6.131   5.676   1.452
 4576TIP3    H113692   6.072   5.728   1.507
 4576TIP3    H213693   6.164   5.608   1.511
 4577TIP3   OH213694   5.779   2.484   2.815
 4577TIP3    H113695   5.748   2.564   2.856
 4577TIP3    H213696   5.722   2.415   2.850
 4578TIP3   OH213697   3.327   4.296   3.481
 4578TIP3    H113698   3.236   4.312   3.508
 4578TIP3    H213699   3.322   4.217   3.427
 4579TIP3   OH213700   0.513   4.930   1.760
 4579TIP3    H113701   0.465   4.981   1.826
 4579TIP3    H213702   0.572   4.994   1.719
 4580TIP3   OH213703   2.727   6.746   0.676
 4580TIP3    H113704   2.665   6.762   0.604
 4580TIP3    H213705   2.759   6.833   0.699
 4581TIP3   OH213706   6.779   1.578   4.059
 4581TIP3    H113707   6.728   1.615   3.987
 4581TIP3    H213708   6.844   1.523   4.017
 4582TIP3   OH213709   6.912   0.148   4.741
 4582TIP3    H113710   6.986   0.195   4.780
 4582TIP3    H213711   6.836   0.180   4.789
 4583TIP3   OH213712   0.846   1.191   0.353
 4583TIP3    H113713   0.867   1.106   0.393
 4583TIP3    H213714   0.911   1.201   0.284
 4584TIP3   OH213715   1.552   6.551   2.351
 4584TIP3    H113716   1.641   6.535   2.383
 4584TIP3    H213717   1.503   6.575   2.429
 4585TIP3   OH213718   2.108   3.678   1.160
 4585TIP3    H113719   2.104   3.586   1.187
 4585TIP3    H213720   2.176   3.716   1.215
 4586TIP3   OH213721   2.561   6.743   0.993
 4586TIP3    H113722   2.508   6.708   0.922
 4586TIP3    H213723   2.651   6.717   0.972
 4587TIP3   OH213724   3.655   4.325   5.045
 4587TIP3    H113725   3.736   4.373   5.031
 4587TIP3    H213726   3.594   4.361   4.980
 4588TIP3   OH213727   2.585   1.154   1.383
 4588TIP3    H113728   2.525   1.090   1.421
 4588TIP3    H213729   2.664   1.149   1.437
 4589TIP3   OH213730   5.615   4.988   4.383
 4589TIP3    H113731   5.553   5.050   4.345
 4589TIP3    H213732   5.693   5.041   4.401
 4590TIP3   OH213733   0.445   4.356   3.283
 4590TIP3    H113734   0.385   4.362   3.358
 4590TIP3    H213735   0.530   4.334   3.323
 4591TIP3   OH213736   4.466   2.583   2.833
 4591TIP3    H113737   4.472   2.660   2.890
 4591TIP3    H213738   4.467   2.618   2.744
 4592TIP3   OH213739   4.379   6.658   0.429
 4592TIP3    H113740   4.380   6.746   0.391
 4592TIP3    H213741   4.316   6.610   0.374
 4593TIP3   OH213742   1.225   5.643   0.423
 4593TIP3    H113743   1.246   5.736   0.433
 4593TIP3    H213744   1.131   5.638   0.439
 4594TIP3   OH213745   0.678   1.258   0.977
 4594TIP3    H113746   0.762   1.301   0.961
 4594TIP3    H213747   0.670   1.257   1.072
 4595TIP3   OH213748   2.208   0.149   3.478
 4595TIP3    H113749   2.160   0.215   3.528
 4595TIP3    H213750   2.164   0.144   3.394
 4596TIP3   OH213751   2.532   3.703   1.914
 4596TIP3    H113752   2.551   3.646   1.839
 4596TIP3    H213753   2.474   3.770   1.879
 4597TIP3   OH213754   2.421   1.519   5.622
 4597TIP3    H113755   2.516   1.521   5.614
 4597TIP3    H213756   2.401   1.431   5.656
 4598TIP3   OH213757   2.365   1.822   0.012
 4598TIP3    H113758   2.348   1.832   0.106
 4598TIP3    H213759   2.458   1.800   0.008
 4599TIP3   OH213760   5.585   4.237   1.405
 4599TIP3    H113761   5.534   4.160   1.429
 4599TIP3    H213762   5.521   4.297   1.365
 4600TIP3   OH213763   1.568   4.135   4.887
 4600TIP3    H113764   1.515   4.091   4.954
 4600TIP3    H213765   1.505   4.181   4.833
 4601TIP3   OH213766   4.407   1.716   2.621
 4601TIP3    H113767   4.320   1.730   2.584
 4601TIP3    H213768   4.399   1.636   2.672
 4602TIP3   OH213769   3.501   4.815   1.604
 4602TIP3    H113770   3.506   4.752   1.676
 4602TIP3    H213771   3.585   4.860   1.604
 4603TIP3   OH213772   2.148   0.016   4.631
 4603TIP3    H113773   2.118   0.043   4.718
 4603TIP3    H213774   2.219  -0.046   4.649
 4604TIP3   OH213775   3.702   3.331   5.450
 4604TIP3    H113776   3.691   3.399   5.517
 4604TIP3    H213777   3.653   3.363   5.375
 4605TIP3   OH213778   5.568   2.096   4.850
 4605TIP3    H113779   5.661   2.074   4.853
 4605TIP3    H213780   5.542   2.107   4.941
 4606TIP3   OH213781   5.550   2.607   4.656
 4606TIP3    H113782   5.596   2.627   4.737
 4606TIP3    H213783   5.533   2.513   4.660
 4607TIP3   OH213784   4.910   4.997   1.836
 4607TIP3    H113785   4.844   4.996   1.767
 4607TIP3    H213786   4.980   4.940   1.803
 4608TIP3   OH213787   2.166   1.128   3.457
 4608TIP3    H113788   2.178   1.109   3.550
 4608TIP3    H213789   2.218   1.061   3.412
 4609TIP3   OH213790   2.774   5.518   3.084
 4609TIP3    H113791   2.695   5.509   3.136
 4609TIP3    H213792   2.792   5.429   3.053
 4610TIP3   OH213793   0.554   6.585   4.315
 4610TIP3    H113794   0.470   6.559   4.352
 4610TIP3    H213795   0.603   6.619   4.391
 4611TIP3   OH213796   1.599   6.143   4.705
 4611TIP3    H113797   1.517   6.150   4.657
 4611TIP3    H213798   1.666   6.169   4.642
 4612TIP3   OH213799   1.597   5.240   4.996
 4612TIP3    H113800   1.505   5.216   5.008
 4612TIP3    H213801   1.646   5.160   5.015
 4613TIP3   OH213802   4.673   5.359   5.554
 4613TIP3    H113803   4.627   5.296   5.610
 4613TIP3    H213804   4.604   5.415   5.520
 4614TIP3   OH213805   2.101   3.916   2.452
 4614TIP3    H113806   2.162   3.843   2.442
 4614TIP3    H213807   2.015   3.875   2.458
 4615TIP3   OH213808   3.841   2.487   2.111
 4615TIP3    H113809   3.781   2.418   2.081
 4615TIP3    H213810   3.841   2.551   2.040
 4616TIP3   OH213811   2.460   4.237   5.412
 4616TIP3    H113812   2.394   4.281   5.465
 4616TIP3    H213813   2.420   4.227   5.326
 4617TIP3   OH213814   5.551   4.561   5.466
 4617TIP3    H113815   5.632   4.609   5.450
 4617TIP3    H213816   5.482   4.627   5.460
 4618TIP3   OH213817   5.157   2.061   3.859
 4618TIP3    H113818   5.119   2.020   3.782
 4618TIP3    H213819   5.132   2.003   3.932
 4619TIP3   OH213820   5.235   0.920   0.439
 4619TIP3    H113821   5.207   0.828   0.434
 4619TIP3    H213822   5.189   0.955   0.515
 4620TIP3   OH213823   1.143   3.398   1.808
 4620TIP3    H113824   1.239   3.395   1.810
 4620TIP3    H213825   1.120   3.350   1.728
 4621TIP3   OH213826   5.421   4.239   0.281
 4621TIP3    H113827   5.487   4.169   0.277
 4621TIP3    H213828   5.354   4.205   0.341
 4622TIP3   OH213829   4.804   0.354   4.486
 4622TIP3    H113830   4.728   0.335   4.431
 4622TIP3    H213831   4.867   0.286   4.465
 4623TIP3   OH213832   2.085   5.883   3.934
 4623TIP3    H113833   2.003   5.862   3.979
 4623TIP3    H213834   2.063   5.957   3.877
 4624TIP3   OH213835   6.341   2.075   0.681
 4624TIP3    H113836   6.313   1.997   0.632
 4624TIP3    H213837   6.322   2.148   0.623
 4625TIP3   OH213838   1.666   3.826   0.508
 4625TIP3    H113839   1.637   3.825   0.600
 4625TIP3    H213840   1.591   3.860   0.460
 4626TIP3   OH213841   0.617   5.513   4.810
 4626TIP3    H113842   0.563   5.556   4.875
 4626TIP3    H213843   0.691   5.573   4.797
 4627TIP3   OH213844   6.606   6.274   3.842
 4627TIP3    H113845   6.645   6.188   3.855
 4627TIP3    H213846   6.638   6.326   3.916
 4628TIP3   OH213847   0.130   4.932   3.857
 4628TIP3    H113848   0.135   4.915   3.951
 4628TIP3    H213849   0.128   4.846   3.816
 4629TIP3   OH213850   7.203   2.054   3.505
 4629TIP3    H113851   7.231   2.116   3.572
 4629TIP3    H213852   7.156   1.986   3.554
 4630TIP3   OH213853   0.415   4.103   4.964
 4630TIP3    H113854   0.408   4.114   4.869
 4630TIP3    H213855   0.489   4.159   4.989
 4631TIP3   OH213856   2.354   6.446   4.994
 4631TIP3    H113857   2.438   6.414   4.962
 4631TIP3    H213858   2.313   6.370   5.034
 4632TIP3   OH213859   1.901   1.125   4.336
 4632TIP3    H113860   1.943   1.046   4.370
 4632TIP3    H213861   1.966   1.194   4.350
 4633TIP3   OH213862   4.047   1.278   4.692
 4633TIP3    H113863   4.056   1.268   4.787
 4633TIP3    H213864   4.029   1.371   4.680
 4634TIP3   OH213865   2.101   0.529   2.097
 4634TIP3    H113866   2.115   0.618   2.065
 4634TIP3    H213867   2.008   0.526   2.120
 4635TIP3   OH213868   0.018   5.499   0.020
 4635TIP3    H113869  -0.006   5.536   0.105
 4635TIP3    H213870   0.113   5.484   0.027
 4636TIP3   OH213871   3.369   5.307   1.426
 4636TIP3    H113872   3.312   5.253   1.481
 4636TIP3    H213873   3.372   5.261   1.342
 4637TIP3   OH213874   0.400   0.999   5.165
 4637TIP3    H113875   0.387   1.053   5.243
 4637TIP3    H213876   0.317   1.007   5.116
 4638TIP3   OH213877   4.313   2.640   3.509
 4638TIP3    H113878   4.244   2.575   3.526
 4638TIP3    H213879   4.383   2.590   3.467
 4639TIP3   OH213880   5.705   2.812   3.896
 4639TIP3    H113881   5.646   2.786   3.967
 4639TIP3    H213882   5.738   2.898   3.923
 4640TIP3   OH213883   2.496   0.659   5.127
 4640TIP3    H113884   2.543   0.645   5.044
 4640TIP3    H213885   2.565   0.652   5.194
 4641TIP3   OH213886   1.074   3.814   5.011
 4641TIP3    H113887   1.129   3.823   4.933
 4641TIP3    H213888   0.985   3.832   4.980
 4642TIP3   OH213889   5.827   3.073   0.685
 4642TIP3    H113890   5.818   3.036   0.597
 4642TIP3    H213891   5.912   3.042   0.716
 4643TIP3   OH213892   4.971   0.184   3.719
 4643TIP3    H113893   5.029   0.113   3.747
 4643TIP3    H213894   4.996   0.201   3.628
 4644TIP3   OH213895   4.683   0.158   0.162
 4644TIP3    H113896   4.766   0.206   0.149
 4644TIP3    H213897   4.655   0.137   0.073
 4645TIP3   OH213898   5.274   5.389   2.576
 4645TIP3    H113899   5.257   5.327   2.505
 4645TIP3    H213900   5.356   5.432   2.552
 4646TIP3   OH213901   2.444   4.657   5.128
 4646TIP3    H113902   2.381   4.605   5.079
 4646TIP3    H213903   2.406   4.664   5.216
 4647TIP3   OH213904   2.578   1.835   2.495
 4647TIP3    H113905   2.491   1.867   2.472
 4647TIP3    H213906   2.636   1.909   2.482
 4648TIP3   OH213907   0.522   5.886   1.784
 4648TIP3    H113908   0.441   5.923   1.820
 4648TIP3    H213909   0.588   5.953   1.801
 4649TIP3   OH213910   6.678   5.614   1.414
 4649TIP3    H113911   6.710   5.599   1.502
 4649TIP3    H213912   6.615   5.544   1.398
 4650TIP3   OH213913   3.778   6.157   2.942
 4650TIP3    H113914   3.824   6.074   2.952
 4650TIP3    H213915   3.847   6.221   2.925
 4651TIP3   OH213916   0.905   1.575   2.367
 4651TIP3    H113917   0.827   1.539   2.325
 4651TIP3    H213918   0.896   1.550   2.459
 4652TIP3   OH213919   4.789   1.086   4.756
 4652TIP3    H113920   4.823   1.032   4.827
 4652TIP3    H213921   4.813   1.038   4.676
 4653TIP3   OH213922   7.177   2.959   3.281
 4653TIP3    H113923   7.233   3.015   3.335
 4653TIP3    H213924   7.094   3.006   3.275
 4654TIP3   OH213925   1.133   3.147   2.755
 4654TIP3    H113926   1.212   3.190   2.724
 4654TIP3    H213927   1.163   3.060   2.784
 4655TIP3   OH213928   6.303   3.011   1.992
 4655TIP3    H113929   6.277   2.921   1.971
 4655TIP3    H213930   6.293   3.058   1.909
 4656TIP3   OH213931   3.597   2.005   2.213
 4656TIP3    H113932   3.535   2.011   2.286
 4656TIP3    H213933   3.570   1.927   2.165
 4657TIP3   OH213934   4.500   2.395   4.999
 4657TIP3    H113935   4.553   2.431   5.070
 4657TIP3    H213936   4.563   2.376   4.930
 4658TIP3   OH213937   5.635   6.017   5.275
 4658TIP3    H113938   5.592   5.940   5.313
 4658TIP3    H213939   5.638   5.999   5.182
 4659TIP3   OH213940   2.936   2.577   2.033
 4659TIP3    H113941   2.891   2.638   1.975
 4659TIP3    H213942   2.918   2.610   2.121
 4660TIP3   OH213943   5.080   4.512   0.856
 4660TIP3    H113944   5.164   4.538   0.817
 4660TIP3    H213945   5.041   4.594   0.886
 4661TIP3   OH213946   6.013   3.202   3.547
 4661TIP3    H113947   6.064   3.242   3.476
 4661TIP3    H213948   6.041   3.249   3.625
 4662TIP3   OH213949   1.363   2.848   3.082
 4662TIP3    H113950   1.393   2.861   3.172
 4662TIP3    H213951   1.271   2.875   3.083
 4663TIP3   OH213952   6.484   5.806   5.618
 4663TIP3    H113953   6.517   5.894   5.601
 4663TIP3    H213954   6.463   5.806   5.711
 4664TIP3   OH213955   6.521   0.113   1.096
 4664TIP3    H113956   6.544   0.117   1.003
 4664TIP3    H213957   6.597   0.151   1.141
 4665TIP3   OH213958   6.112   3.235   0.528
 4665TIP3    H113959   6.054   3.180   0.475
 4665TIP3    H213960   6.053   3.290   0.579
 4666TIP3   OH213961   5.112   4.848   1.747
 4666TIP3    H113962   5.106   4.860   1.652
 4666TIP3    H213963   5.067   4.766   1.764
 4667TIP3   OH213964   1.665   2.532   0.216
 4667TIP3    H113965   1.683   2.571   0.301
 4667TIP3    H213966   1.580   2.490   0.226
 4668TIP3   OH213967   7.176   6.273   3.437
 4668TIP3    H113968   7.266   6.301   3.455
 4668TIP3    H213969   7.127   6.297   3.516
 4669TIP3   OH213970   6.195   4.761   2.008
 4669TIP3    H113971   6.237   4.787   2.090
 4669TIP3    H213972   6.227   4.824   1.944
 4670TIP3   OH213973   4.225   5.712   0.799
 4670TIP3    H113974   4.258   5.766   0.727
 4670TIP3    H213975   4.244   5.622   0.773
 4671TIP3   OH213976   2.198   1.138   0.110
 4671TIP3    H113977   2.151   1.185   0.179
 4671TIP3    H213978   2.133   1.076   0.075
 4672TIP3   OH213979   1.131   1.019   4.079
 4672TIP3    H113980   1.204   1.032   4.018
 4672TIP3    H213981   1.140   0.928   4.108
 4673TIP3   OH213982   0.692   0.705   1.283
 4673TIP3    H113983   0.751   0.754   1.226
 4673TIP3    H213984   0.696   0.750   1.367
 4674TIP3   OH213985   4.355   6.158   2.336
 4674TIP3    H113986   4.291   6.204   2.390
 4674TIP3    H213987   4.302   6.115   2.268
 4675TIP3   OH213988   2.932   2.466   3.408
 4675TIP3    H113989   2.896   2.378   3.418
 4675TIP3    H213990   2.894   2.517   3.479
 4676TIP3   OH213991   5.759   2.903   2.407
 4676TIP3    H113992   5.768   2.998   2.413
 4676TIP3    H213993   5.723   2.888   2.320
 4677TIP3   OH213994   5.423   4.427   3.779
 4677TIP3    H113995   5.463   4.354   3.732
 4677TIP3    H213996   5.465   4.505   3.743
 4678TIP3   OH213997   6.350   6.378   4.964
 4678TIP3    H113998   6.342   6.470   4.938
 4678TIP3    H213999   6.425   6.377   5.025
 4679TIP3   OH214000   0.590   3.568   2.425
 4679TIP3    H114001   0.562   3.659   2.430
 4679TIP3    H214002   0.643   3.554   2.504
 4680TIP3   OH214003   1.772   2.676   0.029
 4680TIP3    H114004   1.806   2.623  -0.043
 4680TIP3    H214005   1.736   2.613   0.091
 4681TIP3   OH214006   2.032   2.472   1.100
 4681TIP3    H114007   2.104   2.422   1.141
 4681TIP3    H214008   1.959   2.463   1.161
 4682TIP3   OH214009   5.445   0.278   1.435
 4682TIP3    H114010   5.489   0.362   1.422
 4682TIP3    H214011   5.480   0.221   1.366
 4683TIP3   OH214012   6.755   4.009   3.735
 4683TIP3    H114013   6.708   4.091   3.724
 4683TIP3    H214014   6.753   3.967   3.649
 4684TIP3   OH214015   1.169   5.989   5.292
 4684TIP3    H114016   1.217   5.996   5.210
 4684TIP3    H214017   1.077   5.986   5.266
 4685TIP3   OH214018   1.736   0.224   4.570
 4685TIP3    H114019   1.800   0.193   4.505
 4685TIP3    H214020   1.657   0.241   4.519
 4686TIP3   OH214021   2.226   1.053   3.715
 4686TIP3    H114022   2.135   1.047   3.744
 4686TIP3    H214023   2.272   1.094   3.789
 4687TIP3   OH214024   1.480   3.467   2.073
 4687TIP3    H114025   1.400   3.448   2.124
 4687TIP3    H214026   1.476   3.406   1.999
 4688TIP3   OH214027   6.039   3.301   5.063
 4688TIP3    H114028   6.005   3.321   4.976
 4688TIP3    H214029   6.098   3.227   5.049
 4689TIP3   OH214030   6.505   2.598   4.233
 4689TIP3    H114031   6.449   2.605   4.310
 4689TIP3    H214032   6.477   2.516   4.191
 4690TIP3   OH214033   2.482   0.893   0.033
 4690TIP3    H114034   2.402   0.845   0.056
 4690TIP3    H214035   2.502   0.863  -0.056
 4691TIP3   OH214036   7.062   3.519   0.442
 4691TIP3    H114037   7.022   3.601   0.411
 4691TIP3    H214038   7.146   3.514   0.397
 4692TIP3   OH214039   3.109   4.516   4.737
 4692TIP3    H114040   3.135   4.591   4.684
 4692TIP3    H214041   3.014   4.514   4.732
 4693TIP3   OH214042   2.616   3.620   4.948
 4693TIP3    H114043   2.710   3.630   4.934
 4693TIP3    H214044   2.608   3.540   4.999
 4694TIP3   OH214045   2.607   4.703   2.805
 4694TIP3    H114046   2.592   4.750   2.887
 4694TIP3    H214047   2.594   4.611   2.827
 4695TIP3   OH214048   5.181   6.095   4.287
 4695TIP3    H114049   5.272   6.125   4.286
 4695TIP3    H214050   5.160   6.079   4.195
 4696TIP3   OH214051   5.001   1.038   2.889
 4696TIP3    H114052   5.040   1.020   2.804
 4696TIP3    H214053   4.956   0.957   2.912
 4697TIP3   OH214054   0.055   1.552   2.731
 4697TIP3    H114055  -0.033   1.583   2.753
 4697TIP3    H214056   0.114   1.603   2.786
 4698TIP3   OH214057   2.761   1.477   1.326
 4698TIP3    H114058   2.823   1.466   1.398
 4698TIP3    H214059   2.710   1.555   1.350
 4699TIP3   OH214060   3.679   2.452   3.285
 4699TIP3    H114061   3.716   2.381   3.338
 4699TIP3    H214062   3.646   2.515   3.349
 4700TIP3   OH214063   5.288   3.394   3.540
 4700TIP3    H114064   5.213   3.445   3.509
 4700TIP3    H214065   5.294   3.321   3.479
 4701TIP3   OH214066   3.620   0.825   2.056
 4701TIP3    H114067   3.556   0.770   2.011
 4701TIP3    H214068   3.610   0.911   2.015
 4702TIP3   OH214069   5.940   1.368   5.673
 4702TIP3    H114070   5.990   1.412   5.604
 4702TIP3    H214071   5.977   1.402   5.755
 4703TIP3   OH214072   5.303   1.046   5.208
 4703TIP3    H114073   5.378   1.065   5.265
 4703TIP3    H214074   5.321   0.959   5.174
 4704TIP3   OH214075   1.257   2.758   2.193
 4704TIP3    H114076   1.284   2.770   2.284
 4704TIP3    H214077   1.179   2.702   2.198
 4705TIP3   OH214078   4.423   0.691   1.439
 4705TIP3    H114079   4.475   0.646   1.506
 4705TIP3    H214080   4.474   0.769   1.419
 4706TIP3   OH214081   4.915   4.684   5.706
 4706TIP3    H114082   4.984   4.661   5.768
 4706TIP3    H214083   4.849   4.616   5.718
 4707TIP3   OH214084   3.885   1.129   2.017
 4707TIP3    H114085   3.789   1.125   2.021
 4707TIP3    H214086   3.904   1.215   1.979
 4708TIP3   OH214087   5.479   6.331   4.633
 4708TIP3    H114088   5.405   6.314   4.574
 4708TIP3    H214089   5.534   6.254   4.626
 4709TIP3   OH214090   2.283   3.940   5.064
 4709TIP3    H114091   2.221   3.921   5.135
 4709TIP3    H214092   2.358   3.884   5.082
 4710TIP3   OH214093   5.990   3.831   0.194
 4710TIP3    H114094   5.948   3.748   0.220
 4710TIP3    H214095   6.078   3.806   0.168
 4711TIP3   OH214096   0.267   3.545   5.023
 4711TIP3    H114097   0.263   3.453   5.052
 4711TIP3    H214098   0.324   3.587   5.087
 4712TIP3   OH214099   4.861   1.215   3.716
 4712TIP3    H114100   4.824   1.129   3.700
 4712TIP3    H214101   4.852   1.261   3.633
 4713TIP3   OH214102   0.678   6.455   1.684
 4713TIP3    H114103   0.604   6.423   1.633
 4713TIP3    H214104   0.729   6.506   1.622
 4714TIP3   OH214105   4.950   4.234   1.379
 4714TIP3    H114106   4.931   4.293   1.452
 4714TIP3    H214107   4.972   4.151   1.421
 4715TIP3   OH214108   6.862   5.118   2.226
 4715TIP3    H114109   6.926   5.067   2.275
 4715TIP3    H214110   6.876   5.208   2.255
 4716TIP3   OH214111   6.799   2.318   5.640
 4716TIP3    H114112   6.763   2.251   5.582
 4716TIP3    H214113   6.891   2.292   5.652
 4717TIP3   OH214114   2.471   6.459   3.287
 4717TIP3    H114115   2.501   6.487   3.201
 4717TIP3    H214116   2.537   6.397   3.317
 4718TIP3   OH214117   2.451   1.861   0.841
 4718TIP3    H114118   2.420   1.865   0.750
 4718TIP3    H214119   2.383   1.905   0.891
 4719TIP3   OH214120   1.487   2.778   5.296
 4719TIP3    H114121   1.418   2.741   5.241
 4719TIP3    H214122   1.456   2.866   5.318
 4720TIP3   OH214123   3.898   1.639   4.329
 4720TIP3    H114124   3.920   1.546   4.338
 4720TIP3    H214125   3.939   1.665   4.246
 4721TIP3   OH214126   7.080   6.467   4.863
 4721TIP3    H114127   7.068   6.492   4.954
 4721TIP3    H214128   6.994   6.437   4.835
 4722TIP3   OH214129   3.414   3.636   4.165
 4722TIP3    H114130   3.355   3.711   4.165
 4722TIP3    H214131   3.381   3.579   4.233
 4723TIP3   OH214132   1.636   4.949   2.563
 4723TIP3    H114133   1.560   4.896   2.538
 4723TIP3    H214134   1.697   4.938   2.490
 4724TIP3   OH214135   5.497   4.191   4.067
 4724TIP3    H114136   5.589   4.178   4.090
 4724TIP3    H214137   5.474   4.115   4.015
 4725TIP3   OH214138   3.444   2.464   5.067
 4725TIP3    H114139   3.458   2.408   5.144
 4725TIP3    H214140   3.496   2.542   5.084
 4726TIP3   OH214141   2.770   5.820   0.914
 4726TIP3    H114142   2.819   5.749   0.872
 4726TIP3    H214143   2.695   5.834   0.857
 4727TIP3   OH214144   4.740   5.043   2.597
 4727TIP3    H114145   4.767   5.079   2.682
 4727TIP3    H214146   4.737   4.948   2.613
 4728TIP3   OH214147   0.659   4.931   3.210
 4728TIP3    H114148   0.747   4.908   3.240
 4728TIP3    H214149   0.639   5.013   3.254
 4729TIP3   OH214150   1.002   1.068   4.822
 4729TIP3    H114151   0.925   1.013   4.833
 4729TIP3    H214152   1.053   1.054   4.902
 4730TIP3   OH214153   5.644   0.138   5.713
 4730TIP3    H114154   5.553   0.134   5.741
 4730TIP3    H214155   5.641   0.126   5.618
 4731TIP3   OH214156   1.247   3.887   4.789
 4731TIP3    H114157   1.202   3.825   4.731
 4731TIP3    H214158   1.337   3.888   4.756
 4732TIP3   OH214159   3.295   6.726   0.757
 4732TIP3    H114160   3.310   6.652   0.817
 4732TIP3    H214161   3.371   6.725   0.699
 4733TIP3   OH214162   2.531   6.145   0.902
 4733TIP3    H114163   2.461   6.208   0.919
 4733TIP3    H214164   2.611   6.199   0.902
 4734TIP3   OH214165   5.933   0.574   1.427
 4734TIP3    H114166   5.934   0.670   1.429
 4734TIP3    H214167   5.848   0.553   1.388
 4735TIP3   OH214168   4.429   1.303   0.850
 4735TIP3    H114169   4.499   1.351   0.805
 4735TIP3    H214170   4.348   1.338   0.812
 4736TIP3   OH214171   1.422   1.280   4.373
 4736TIP3    H114172   1.407   1.251   4.463
 4736TIP3    H214173   1.350   1.242   4.323
 4737TIP3   OH214174   3.278   3.959   5.893
 4737TIP3    H114175   3.336   4.036   5.892
 4737TIP3    H214176   3.195   3.991   5.856
 4738TIP3   OH214177   5.164   5.195   1.065
 4738TIP3    H114178   5.196   5.262   1.005
 4738TIP3    H214179   5.242   5.143   1.085
 4739TIP3   OH214180   6.086   5.068   1.153
 4739TIP3    H114181   6.040   5.149   1.131
 4739TIP3    H214182   6.028   4.999   1.120
 4740TIP3   OH214183   1.123   2.641   2.681
 4740TIP3    H114184   1.117   2.552   2.646
 4740TIP3    H214185   1.141   2.629   2.774
 4741TIP3   OH214186   5.439   4.863   3.246
 4741TIP3    H114187   5.487   4.785   3.218
 4741TIP3    H214188   5.432   4.855   3.341
 4742TIP3   OH214189   3.577   4.082   2.109
 4742TIP3    H114190   3.529   4.025   2.169
 4742TIP3    H214191   3.522   4.086   2.031
 4743TIP3   OH214192   3.555   3.432   2.015
 4743TIP3    H114193   3.471   3.424   2.059
 4743TIP3    H214194   3.555   3.520   1.978
 4744TIP3   OH214195   5.815   1.727   3.337
 4744TIP3    H114196   5.847   1.800   3.285
 4744TIP3    H214197   5.859   1.737   3.422
 4745TIP3   OH214198   0.831   2.966   1.628
 4745TIP3    H114199   0.747   2.951   1.585
 4745TIP3    H214200   0.822   3.052   1.669
 4746TIP3   OH214201   1.620   5.732   4.135
 4746TIP3    H114202   1.593   5.823   4.119
 4746TIP3    H214203   1.539   5.682   4.129
 4747TIP3   OH214204   1.468   5.293   5.570
 4747TIP3    H114205   1.539   5.246   5.527
 4747TIP3    H214206   1.391   5.277   5.515
 4748TIP3   OH214207   6.827   6.703   2.983
 4748TIP3    H114208   6.897   6.638   2.977
 4748TIP3    H214209   6.750   6.660   2.946
 4749TIP3   OH214210   2.443   5.145   1.245
 4749TIP3    H114211   2.500   5.111   1.314
 4749TIP3    H214212   2.355   5.118   1.272
 4750TIP3   OH214213   5.328   6.504   3.109
 4750TIP3    H114214   5.412   6.476   3.146
 4750TIP3    H214215   5.350   6.579   3.054
 4751TIP3   OH214216   2.836   2.195   4.238
 4751TIP3    H114217   2.797   2.256   4.175
 4751TIP3    H214218   2.824   2.237   4.323
 4752TIP3   OH214219   6.085   3.886   4.517
 4752TIP3    H114220   6.095   3.842   4.601
 4752TIP3    H214221   5.991   3.880   4.498
 4753TIP3   OH214222   4.497   1.568   1.018
 4753TIP3    H114223   4.467   1.658   1.010
 4753TIP3    H214224   4.467   1.541   1.105
 4754TIP3   OH214225   0.478   0.910   4.926
 4754TIP3    H114226   0.432   0.964   4.862
 4754TIP3    H214227   0.474   0.959   5.008
 4755TIP3   OH214228   0.164   2.719   4.860
 4755TIP3    H114229   0.189   2.810   4.878
 4755TIP3    H214230   0.108   2.694   4.933
 4756TIP3   OH214231   1.541   4.435   2.128
 4756TIP3    H114232   1.574   4.417   2.216
 4756TIP3    H214233   1.496   4.355   2.102
 4757TIP3   OH214234   0.387   3.036   2.836
 4757TIP3    H114235   0.320   2.968   2.825
 4757TIP3    H214236   0.407   3.065   2.747
 4758TIP3   OH214237   1.133   3.668   3.128
 4758TIP3    H114238   1.115   3.744   3.184
 4758TIP3    H214239   1.052   3.654   3.079
 4759TIP3   OH214240   6.193   4.538   5.622
 4759TIP3    H114241   6.250   4.606   5.660
 4759TIP3    H214242   6.156   4.493   5.698
 4760TIP3   OH214243   3.753   3.585   2.388
 4760TIP3    H114244   3.753   3.543   2.474
 4760TIP3    H214245   3.808   3.529   2.333
 4761TIP3   OH214246   4.356   3.645   2.815
 4761TIP3    H114247   4.434   3.598   2.845
 4761TIP3    H214248   4.304   3.659   2.894
 4762TIP3   OH214249   6.306   1.862   4.794
 4762TIP3    H114250   6.262   1.891   4.715
 4762TIP3    H214251   6.398   1.853   4.768
 4763TIP3   OH214252   2.993   5.578   2.713
 4763TIP3    H114253   2.915   5.526   2.732
 4763TIP3    H214254   3.018   5.617   2.797
 4764TIP3   OH214255   3.715   0.369   0.492
 4764TIP3    H114256   3.804   0.357   0.524
 4764TIP3    H214257   3.714   0.322   0.408
 4765TIP3   OH214258   3.684   2.245   5.554
 4765TIP3    H114259   3.767   2.274   5.515
 4765TIP3    H214260   3.641   2.196   5.484
 4766TIP3   OH214261   3.130   4.816   3.271
 4766TIP3    H114262   3.200   4.838   3.332
 4766TIP3    H214263   3.111   4.724   3.288
 4767TIP3   OH214264   3.105   3.940   5.035
 4767TIP3    H114265   3.076   4.026   5.006
 4767TIP3    H214266   3.027   3.900   5.074
 4768TIP3   OH214267   3.007   3.153   4.998
 4768TIP3    H114268   3.010   3.089   4.927
 4768TIP3    H214269   2.987   3.101   5.076
 4769TIP3   OH214270   4.567   4.675   1.203
 4769TIP3    H114271   4.620   4.597   1.219
 4769TIP3    H214272   4.627   4.748   1.215
 4770TIP3   OH214273   4.000   2.433   1.162
 4770TIP3    H114274   4.034   2.456   1.248
 4770TIP3    H214275   4.047   2.352   1.139
 4771TIP3   OH214276   4.344   2.170   4.092
 4771TIP3    H114277   4.288   2.135   4.161
 4771TIP3    H214278   4.430   2.178   4.133
 4772TIP3   OH214279   7.030   1.504   5.424
 4772TIP3    H114280   7.023   1.599   5.427
 4772TIP3    H214281   6.968   1.474   5.491
 4773TIP3   OH214282   3.064   2.383   1.648
 4773TIP3    H114283   3.092   2.467   1.685
 4773TIP3    H214284   3.063   2.324   1.724
 4774TIP3   OH214285   4.264   3.436   0.680
 4774TIP3    H114286   4.184   3.406   0.636
 4774TIP3    H214287   4.279   3.523   0.643
 4775TIP3   OH214288   5.611   4.714   5.070
 4775TIP3    H114289   5.525   4.704   5.109
 4775TIP3    H214290   5.669   4.732   5.144
 4776TIP3   OH214291   3.345   4.910   3.417
 4776TIP3    H114292   3.280   4.971   3.453
 4776TIP3    H214293   3.389   4.875   3.494
 4777TIP3   OH214294   6.635   0.266   5.341
 4777TIP3    H114295   6.543   0.242   5.328
 4777TIP3    H214296   6.663   0.214   5.417
 4778TIP3   OH214297   2.137   3.629   5.027
 4778TIP3    H114298   2.230   3.646   5.043
 4778TIP3    H214299   2.119   3.670   4.942
 4779TIP3   OH214300   6.170   5.439   2.442
 4779TIP3    H114301   6.104   5.503   2.466
 4779TIP3    H214302   6.243   5.491   2.407
 4780TIP3   OH214303   0.301   2.788   3.348
 4780TIP3    H114304   0.334   2.813   3.262
 4780TIP3    H214305   0.229   2.728   3.330
 4781TIP3   OH214306   3.907   0.169   5.648
 4781TIP3    H114307   3.988   0.209   5.680
 4781TIP3    H214308   3.888   0.214   5.567
 4782TIP3   OH214309   5.456   6.568   5.902
 4782TIP3    H114310   5.451   6.491   5.845
 4782TIP3    H214311   5.499   6.634   5.848
 4783TIP3   OH214312   0.343   4.663   4.957
 4783TIP3    H114313   0.406   4.697   5.020
 4783TIP3    H214314   0.395   4.614   4.894
 4784TIP3   OH214315   4.938   0.806   1.679
 4784TIP3    H114316   5.005   0.842   1.737
 4784TIP3    H214317   4.862   0.793   1.735
 4785TIP3   OH214318   2.768   5.069   5.705
 4785TIP3    H114319   2.771   5.028   5.792
 4785TIP3    H214320   2.738   5.158   5.722
 4786TIP3   OH214321   5.900   2.419   5.215
 4786TIP3    H114322   5.888   2.330   5.246
 4786TIP3    H214323   5.870   2.474   5.287
 4787TIP3   OH214324   4.547   4.489   3.694
 4787TIP3    H114325   4.639   4.516   3.697
 4787TIP3    H214326   4.545   4.405   3.740
 4788TIP3   OH214327   5.608   2.240   0.692
 4788TIP3    H114328   5.617   2.334   0.706
 4788TIP3    H214329   5.672   2.220   0.623
 4789TIP3   OH214330   4.963   3.842   0.814
 4789TIP3    H114331   4.935   3.861   0.725
 4789TIP3    H214332   4.940   3.750   0.827
 4790TIP3   OH214333   2.269   2.849   2.220
 4790TIP3    H114334   2.191   2.900   2.242
 4790TIP3    H214335   2.313   2.834   2.303
 4791TIP3   OH214336   0.792   0.762   5.652
 4791TIP3    H114337   0.790   0.675   5.691
 4791TIP3    H214338   0.883   0.789   5.657
 4792TIP3   OH214339   1.454   2.490   5.342
 4792TIP3    H114340   1.387   2.548   5.304
 4792TIP3    H214341   1.536   2.518   5.301
 4793TIP3   OH214342   6.362   0.170   5.292
 4793TIP3    H114343   6.323   0.249   5.255
 4793TIP3    H214344   6.320   0.098   5.244
 4794TIP3   OH214345   5.258   5.631   5.804
 4794TIP3    H114346   5.191   5.696   5.826
 4794TIP3    H214347   5.330   5.649   5.865
 4795TIP3   OH214348   5.993   3.683   4.696
 4795TIP3    H114349   6.065   3.626   4.667
 4795TIP3    H214350   6.019   3.710   4.784
 4796TIP3   OH214351   6.509   3.606   2.353
 4796TIP3    H114352   6.524   3.625   2.261
 4796TIP3    H214353   6.437   3.664   2.379
 4797TIP3   OH214354   3.912   5.726   0.439
 4797TIP3    H114355   3.883   5.788   0.373
 4797TIP3    H214356   3.930   5.781   0.516
 4798TIP3   OH214357   2.407   0.195   0.463
 4798TIP3    H114358   2.381   0.137   0.535
 4798TIP3    H214359   2.391   0.283   0.497
 4799TIP3   OH214360   3.214   3.535   1.568
 4799TIP3    H114361   3.160   3.600   1.614
 4799TIP3    H214362   3.245   3.476   1.637
 4800TIP3   OH214363   0.496   4.171   5.243
 4800TIP3    H114364   0.571   4.214   5.202
 4800TIP3    H214365   0.490   4.086   5.199
 4801TIP3   OH214366   5.509   3.673   2.607
 4801TIP3    H114367   5.417   3.668   2.633
 4801TIP3    H214368   5.558   3.670   2.689
 4802TIP3   OH214369   2.568   6.666   2.545
 4802TIP3    H114370   2.541   6.597   2.606
 4802TIP3    H214371   2.638   6.627   2.494
 4803TIP3   OH214372   1.200   5.472   2.127
 4803TIP3    H114373   1.108   5.498   2.133
 4803TIP3    H214374   1.236   5.489   2.214
 4804TIP3   OH214375   2.992   1.773   2.890
 4804TIP3    H114376   3.052   1.848   2.889
 4804TIP3    H214377   2.919   1.802   2.836
 4805TIP3   OH214378   3.689   3.313   1.120
 4805TIP3    H114379   3.609   3.331   1.071
 4805TIP3    H214380   3.750   3.381   1.092
 4806TIP3   OH214381   3.826   0.558   1.133
 4806TIP3    H114382   3.907   0.576   1.085
 4806TIP3    H214383   3.765   0.625   1.103
 4807TIP3   OH214384   1.376   3.317   3.865
 4807TIP3    H114385   1.388   3.280   3.953
 4807TIP3    H214386   1.328   3.398   3.881
 4808TIP3   OH214387   5.018   3.336   2.514
 4808TIP3    H114388   5.018   3.353   2.608
 4808TIP3    H214389   4.964   3.258   2.503
 4809TIP3   OH214390   4.746   3.611   5.817
 4809TIP3    H114391   4.762   3.659   5.899
 4809TIP3    H214392   4.652   3.596   5.817
 4810TIP3   OH214393   3.416   1.399   5.517
 4810TIP3    H114394   3.407   1.324   5.457
 4810TIP3    H214395   3.417   1.359   5.604
 4811TIP3   OH214396   6.403   2.460   2.283
 4811TIP3    H114397   6.322   2.481   2.330
 4811TIP3    H214398   6.419   2.368   2.300
 4812TIP3   OH214399   6.997   5.029   4.550
 4812TIP3    H114400   6.987   4.939   4.517
 4812TIP3    H214401   6.915   5.048   4.593
 4813TIP3   OH214402   6.646   2.178   3.536
 4813TIP3    H114403   6.583   2.247   3.559
 4813TIP3    H214404   6.716   2.224   3.489
 4814TIP3   OH214405   1.638   6.680   4.721
 4814TIP3    H114406   1.697   6.605   4.731
 4814TIP3    H214407   1.667   6.743   4.787
 4815TIP3   OH214408   4.030   3.329   0.550
 4815TIP3    H114409   3.982   3.252   0.580
 4815TIP3    H214410   3.963   3.397   0.542
 4816TIP3   OH214411   3.492   1.002   5.145
 4816TIP3    H114412   3.581   1.031   5.161
 4816TIP3    H214413   3.468   0.952   5.223
 4817TIP3   OH214414   4.312   6.700   4.142
 4817TIP3    H114415   4.339   6.649   4.065
 4817TIP3    H214416   4.241   6.649   4.181
 4818TIP3   OH214417   6.283   6.137   3.948
 4818TIP3    H114418   6.367   6.184   3.941
 4818TIP3    H214419   6.302   6.049   3.918
 4819TIP3   OH214420   2.232   5.382   0.048
 4819TIP3    H114421   2.311   5.435   0.042
 4819TIP3    H214422   2.191   5.410   0.130
 4820TIP3   OH214423   3.529   3.152   2.262
 4820TIP3    H114424   3.504   3.244   2.274
 4820TIP3    H214425   3.555   3.146   2.170
 4821TIP3   OH214426   3.250   4.324   3.084
 4821TIP3    H114427   3.197   4.268   3.027
 4821TIP3    H214428   3.296   4.382   3.024
 4822TIP3   OH214429   5.864   4.380   3.359
 4822TIP3    H114430   5.878   4.402   3.451
 4822TIP3    H214431   5.937   4.421   3.313
 4823TIP3   OH214432   4.289   3.123   2.271
 4823TIP3    H114433   4.292   3.047   2.213
 4823TIP3    H214434   4.200   3.124   2.304
 4824TIP3   OH214435   0.677   6.180   5.305
 4824TIP3    H114436   0.632   6.100   5.278
 4824TIP3    H214437   0.699   6.166   5.397
 4825TIP3   OH214438   6.614   3.393   1.471
 4825TIP3    H114439   6.687   3.347   1.514
 4825TIP3    H214440   6.581   3.329   1.407
 4826TIP3   OH214441   0.831   4.486   3.324
 4826TIP3    H114442   0.802   4.530   3.244
 4826TIP3    H214443   0.799   4.541   3.395
 4827TIP3   OH214444   2.135   2.531   5.605
 4827TIP3    H114445   2.206   2.494   5.658
 4827TIP3    H214446   2.179   2.568   5.528
 4828TIP3   OH214447   2.270   6.632   4.151
 4828TIP3    H114448   2.246   6.556   4.098
 4828TIP3    H214449   2.353   6.662   4.114
 4829TIP3   OH214450   3.154   4.250   4.120
 4829TIP3    H114451   3.182   4.269   4.031
 4829TIP3    H214452   3.235   4.229   4.167
 4830TIP3   OH214453   2.281   6.634   2.920
 4830TIP3    H114454   2.284   6.715   2.870
 4830TIP3    H214455   2.371   6.620   2.948
 4831TIP3   OH214456   4.546   5.428   0.082
 4831TIP3    H114457   4.478   5.409   0.146
 4831TIP3    H214458   4.628   5.404   0.126
 4832TIP3   OH214459   1.422   4.134   5.846
 4832TIP3    H114460   1.370   4.054   5.853
 4832TIP3    H214461   1.445   4.155   5.937
 4833TIP3   OH214462   1.705   6.014   3.110
 4833TIP3    H114463   1.625   5.974   3.144
 4833TIP3    H214464   1.687   6.107   3.109
 4834TIP3   OH214465   5.180   6.097   0.518
 4834TIP3    H114466   5.104   6.122   0.570
 4834TIP3    H214467   5.153   6.110   0.428
 4835TIP3   OH214468   2.831   5.130   1.891
 4835TIP3    H114469   2.875   5.215   1.889
 4835TIP3    H214470   2.875   5.081   1.961
 4836TIP3   OH214471   5.592   1.758   1.763
 4836TIP3    H114472   5.654   1.827   1.785
 4836TIP3    H214473   5.642   1.697   1.708
 4837TIP3   OH214474   4.959   3.724   1.777
 4837TIP3    H114475   4.998   3.656   1.831
 4837TIP3    H214476   5.002   3.715   1.692
 4838TIP3   OH214477   0.167   0.334   0.258
 4838TIP3    H114478   0.129   0.419   0.277
 4838TIP3    H214479   0.110   0.271   0.302
 4839TIP3   OH214480   3.150   3.339   3.795
 4839TIP3    H114481   3.205   3.300   3.728
 4839TIP3    H214482   3.171   3.433   3.792
 4840TIP3   OH214483   6.517   6.148   3.463
 4840TIP3    H114484   6.434   6.110   3.434
 4840TIP3    H214485   6.557   6.079   3.517
 4841TIP3   OH214486   4.054   4.196   0.937
 4841TIP3    H114487   4.071   4.109   0.972
 4841TIP3    H214488   4.054   4.184   0.842
 4842TIP3   OH214489   3.378   4.008   1.939
 4842TIP3    H114490   3.298   3.968   1.903
 4842TIP3    H214491   3.415   3.942   1.996
 4843TIP3   OH214492   3.069   4.898   0.077
 4843TIP3    H114493   3.012   4.896   0.153
 4843TIP3    H214494   3.009   4.900   0.002
 4844TIP3   OH214495   1.504   1.277   2.126
 4844TIP3    H114496   1.596   1.302   2.140
 4844TIP3    H214497   1.456   1.322   2.196
 4845TIP3   OH214498   1.643   6.744   1.823
 4845TIP3    H114499   1.599   6.711   1.902
 4845TIP3    H214500   1.725   6.696   1.820
 4846TIP3   OH214501   4.948   1.143   4.406
 4846TIP3    H114502   4.908   1.067   4.449
 4846TIP3    H214503   4.877   1.205   4.395
 4847TIP3   OH214504   0.010   4.711   0.725
 4847TIP3    H114505   0.089   4.695   0.777
 4847TIP3    H214506  -0.022   4.796   0.757
 4848TIP3   OH214507   3.290   4.694   1.340
 4848TIP3    H114508   3.280   4.650   1.256
 4848TIP3    H214509   3.368   4.748   1.330
 4849TIP3   OH214510   5.395   0.528   2.671
 4849TIP3    H114511   5.434   0.441   2.668
 4849TIP3    H214512   5.360   0.542   2.583
 4850TIP3   OH214513   0.617   5.261   0.930
 4850TIP3    H114514   0.708   5.239   0.946
 4850TIP3    H214515   0.569   5.179   0.946
 4851TIP3   OH214516   1.924   3.748   1.657
 4851TIP3    H114517   1.914   3.686   1.729
 4851TIP3    H214518   1.895   3.832   1.693
 4852TIP3   OH214519   3.337   1.976   3.956
 4852TIP3    H114520   3.245   1.949   3.952
 4852TIP3    H214521   3.350   2.005   4.046
 4853TIP3   OH214522   2.833   5.239   5.479
 4853TIP3    H114523   2.798   5.182   5.547
 4853TIP3    H214524   2.888   5.302   5.526
 4854TIP3   OH214525   7.114   3.691   0.053
 4854TIP3    H114526   7.053   3.765   0.060
 4854TIP3    H214527   7.057   3.614   0.050
 4855TIP3   OH214528   0.739   0.474   1.462
 4855TIP3    H114529   0.784   0.548   1.505
 4855TIP3    H214530   0.778   0.471   1.374
 4856TIP3   OH214531   7.196   6.290   4.186
 4856TIP3    H114532   7.216   6.212   4.237
 4856TIP3    H214533   7.113   6.269   4.142
 4857TIP3   OH214534   4.653   4.414   0.822
 4857TIP3    H114535   4.562   4.442   0.836
 4857TIP3    H214536   4.647   4.319   0.809
 4858TIP3   OH214537   4.762   2.290   4.093
 4858TIP3    H114538   4.823   2.315   4.162
 4858TIP3    H214539   4.688   2.251   4.140
 4859TIP3   OH214540   4.387   6.148   1.538
 4859TIP3    H114541   4.394   6.052   1.531
 4859TIP3    H214542   4.296   6.166   1.514
 4860TIP3   OH214543   0.714   5.592   5.329
 4860TIP3    H114544   0.760   5.643   5.262
 4860TIP3    H214545   0.771   5.518   5.347
 4861TIP3   OH214546   0.391   6.208   3.428
 4861TIP3    H114547   0.394   6.231   3.521
 4861TIP3    H214548   0.481   6.183   3.407
 4862TIP3   OH214549   1.709   6.687   1.330
 4862TIP3    H114550   1.714   6.619   1.263
 4862TIP3    H214551   1.665   6.645   1.404
 4863TIP3   OH214552   5.806   4.811   2.662
 4863TIP3    H114553   5.857   4.880   2.619
 4863TIP3    H214554   5.760   4.856   2.732
 4864TIP3   OH214555   6.821   2.235   2.008
 4864TIP3    H114556   6.766   2.309   2.034
 4864TIP3    H214557   6.874   2.269   1.935
 4865TIP3   OH214558   5.204   4.115   1.176
 4865TIP3    H114559   5.168   4.203   1.169
 4865TIP3    H214560   5.133   4.058   1.146
 4866TIP3   OH214561   3.506   6.693   3.364
 4866TIP3    H114562   3.493   6.722   3.454
 4866TIP3    H214563   3.560   6.615   3.371
 4867TIP3   OH214564   0.731   2.373   2.374
 4867TIP3    H114565   0.802   2.405   2.430
 4867TIP3    H214566   0.654   2.423   2.401
 4868TIP3   OH214567   5.299   2.556   5.268
 4868TIP3    H114568   5.267   2.470   5.298
 4868TIP3    H214569   5.228   2.616   5.292
 4869TIP3   OH214570   0.973   6.051   4.462
 4869TIP3    H114571   0.909   6.099   4.514
 4869TIP3    H214572   0.950   6.071   4.371
 4870TIP3   OH214573   2.917   0.639   3.935
 4870TIP3    H114574   2.862   0.715   3.914
 4870TIP3    H214575   2.951   0.657   4.022
 4871TIP3   OH214576   2.411   5.449   0.422
 4871TIP3    H114577   2.473   5.522   0.416
 4871TIP3    H214578   2.335   5.477   0.370
 4872TIP3   OH214579   5.303   3.817   2.810
 4872TIP3    H114580   5.329   3.881   2.745
 4872TIP3    H214581   5.212   3.838   2.830
 4873TIP3   OH214582   5.169   6.757   3.852
 4873TIP3    H114583   5.158   6.819   3.780
 4873TIP3    H214584   5.123   6.797   3.925
 4874TIP3   OH214585   4.920   3.419   5.690
 4874TIP3    H114586   4.848   3.479   5.712
 4874TIP3    H214587   4.893   3.335   5.727
 4875TIP3   OH214588   5.869   2.923   3.354
 4875TIP3    H114589   5.898   2.989   3.417
 4875TIP3    H214590   5.931   2.930   3.281
 4876TIP3   OH214591   1.979   1.333   2.278
 4876TIP3    H114592   1.943   1.324   2.367
 4876TIP3    H214593   2.038   1.258   2.269
 4877TIP3   OH214594   1.643   5.823   2.003
 4877TIP3    H114595   1.578   5.894   2.010
 4877TIP3    H214596   1.591   5.744   1.991
 4878TIP3   OH214597   0.464   0.765   3.979
 4878TIP3    H114598   0.478   0.720   4.062
 4878TIP3    H214599   0.369   0.766   3.967
 4879TIP3   OH214600   6.835   5.263   1.482
 4879TIP3    H114601   6.819   5.198   1.413
 4879TIP3    H214602   6.845   5.211   1.562
 4880TIP3   OH214603   3.327   6.058   1.142
 4880TIP3    H114604   3.240   6.098   1.137
 4880TIP3    H214605   3.346   6.054   1.235
 4881TIP3   OH214606   5.512   5.655   4.489
 4881TIP3    H114607   5.486   5.675   4.399
 4881TIP3    H214608   5.445   5.595   4.521
 4882TIP3   OH214609   1.713   3.294   3.263
 4882TIP3    H114610   1.635   3.314   3.210
 4882TIP3    H214611   1.691   3.326   3.350
 4883TIP3   OH214612   4.303   1.183   2.780
 4883TIP3    H114613   4.388   1.149   2.754
 4883TIP3    H214614   4.243   1.152   2.712
 4884TIP3   OH214615   2.567   0.200   5.512
 4884TIP3    H114616   2.582   0.213   5.605
 4884TIP3    H214617   2.625   0.128   5.488
 4885TIP3   OH214618   5.042   0.160   4.398
 4885TIP3    H114619   5.137   0.148   4.391
 4885TIP3    H214620   5.018   0.211   4.321
 4886TIP3   OH214621   4.703   1.552   3.213
 4886TIP3    H114622   4.643   1.548   3.138
 4886TIP3    H214623   4.790   1.545   3.174
 4887TIP3   OH214624   6.071   6.788   5.156
 4887TIP3    H114625   6.052   6.787   5.249
 4887TIP3    H214626   6.056   6.698   5.127
 4888TIP3   OH214627   4.871   5.119   0.237
 4888TIP3    H114628   4.893   5.118   0.144
 4888TIP3    H214629   4.936   5.176   0.277
 4889TIP3   OH214630   5.918   4.666   2.886
 4889TIP3    H114631   5.920   4.678   2.791
 4889TIP3    H214632   5.980   4.595   2.901
 4890TIP3   OH214633   4.578   0.783   4.004
 4890TIP3    H114634   4.641   0.724   4.046
 4890TIP3    H214635   4.526   0.726   3.947
 4891TIP3   OH214636   2.042   2.743   0.580
 4891TIP3    H114637   1.983   2.818   0.569
 4891TIP3    H214638   2.034   2.695   0.498
 4892TIP3   OH214639   5.808   3.510   1.430
 4892TIP3    H114640   5.840   3.492   1.341
 4892TIP3    H214641   5.718   3.478   1.430
 4893TIP3   OH214642   3.060   2.824   3.323
 4893TIP3    H114643   3.108   2.742   3.320
 4893TIP3    H214644   3.088   2.866   3.405
 4894TIP3   OH214645   4.384   3.269   3.409
 4894TIP3    H114646   4.465   3.257   3.360
 4894TIP3    H214647   4.409   3.252   3.500
 4895TIP3   OH214648   7.122   6.600   3.091
 4895TIP3    H114649   7.093   6.581   3.180
 4895TIP3    H214650   7.181   6.675   3.100
 4896TIP3   OH214651   6.317   6.380   3.104
 4896TIP3    H114652   6.319   6.358   3.011
 4896TIP3    H214653   6.389   6.331   3.143
 4897TIP3   OH214654   1.846   0.620   5.746
 4897TIP3    H114655   1.847   0.541   5.801
 4897TIP3    H214656   1.902   0.599   5.672
 4898TIP3   OH214657   5.514   2.192   2.307
 4898TIP3    H114658   5.575   2.157   2.243
 4898TIP3    H214659   5.523   2.287   2.299
 4899TIP3   OH214660   2.390   2.622   3.668
 4899TIP3    H114661   2.308   2.634   3.620
 4899TIP3    H214662   2.428   2.710   3.675
 4900TIP3   OH214663   3.938   1.385   0.309
 4900TIP3    H114664   3.860   1.431   0.339
 4900TIP3    H214665   3.992   1.453   0.269
 4901TIP3   OH214666   4.224   1.203   1.008
 4901TIP3    H114667   4.222   1.152   0.927
 4901TIP3    H214668   4.304   1.256   1.000
 4902TIP3   OH214669   6.001   4.897   0.687
 4902TIP3    H114670   5.972   4.908   0.596
 4902TIP3    H214671   5.928   4.927   0.740
 4903TIP3   OH214672   5.084   5.837   3.287
 4903TIP3    H114673   5.152   5.902   3.268
 4903TIP3    H214674   5.122   5.753   3.258
 4904TIP3   OH214675   1.241   0.999   1.305
 4904TIP3    H114676   1.174   0.984   1.371
 4904TIP3    H214677   1.221   1.087   1.271
 4905TIP3   OH214678   3.428   1.494   2.785
 4905TIP3    H114679   3.491   1.503   2.857
 4905TIP3    H214680   3.377   1.574   2.788
 4906TIP3   OH214681   4.873   5.562   1.488
 4906TIP3    H114682   4.942   5.629   1.478
 4906TIP3    H214683   4.831   5.559   1.402
 4907TIP3   OH214684   1.409   3.842   4.031
 4907TIP3    H114685   1.404   3.881   3.944
 4907TIP3    H214686   1.484   3.884   4.072
 4908TIP3   OH214687   7.014   3.959   0.064
 4908TIP3    H114688   6.986   3.985   0.152
 4908TIP3    H214689   6.981   4.028   0.007
 4909TIP3   OH214690   1.083   4.497   2.532
 4909TIP3    H114691   1.171   4.463   2.517
 4909TIP3    H214692   1.093   4.561   2.602
 4910TIP3   OH214693   0.917   3.671   0.911
 4910TIP3    H114694   0.828   3.682   0.877
 4910TIP3    H214695   0.942   3.583   0.885
 4911TIP3   OH214696   0.667   3.070   3.196
 4911TIP3    H114697   0.709   3.045   3.113
 4911TIP3    H214698   0.733   3.050   3.263
 4912TIP3   OH214699   2.265   3.229   3.367
 4912TIP3    H114700   2.173   3.255   3.360
 4912TIP3    H214701   2.264   3.148   3.418
 4913TIP3   OH214702   6.133   2.206   4.666
 4913TIP3    H114703   6.051   2.220   4.712
 4913TIP3    H214704   6.123   2.120   4.625
 4914TIP3   OH214705   2.336   5.955   2.196
 4914TIP3    H114706   2.362   5.980   2.284
 4914TIP3    H214707   2.243   5.934   2.203
 4915TIP3   OH214708   1.655   6.185   1.768
 4915TIP3    H114709   1.700   6.169   1.684
 4915TIP3    H214710   1.679   6.109   1.822
 4916TIP3   OH214711   2.340   6.332   2.094
 4916TIP3    H114712   2.286   6.371   2.024
 4916TIP3    H214713   2.295   6.357   2.175
 4917TIP3   OH214714   4.805   1.505   0.614
 4917TIP3    H114715   4.846   1.472   0.534
 4917TIP3    H214716   4.802   1.430   0.673
 4918TIP3   OH214717   3.903   1.183   0.566
 4918TIP3    H114718   3.884   1.171   0.473
 4918TIP3    H214719   3.911   1.094   0.600
 4919TIP3   OH214720   7.186   2.112   2.066
 4919TIP3    H114721   7.094   2.111   2.092
 4919TIP3    H214722   7.231   2.065   2.137
 4920TIP3   OH214723   0.428   2.955   5.753
 4920TIP3    H114724   0.354   2.900   5.729
 4920TIP3    H214725   0.471   2.909   5.825
 4921TIP3   OH214726   6.657   3.937   2.446
 4921TIP3    H114727   6.687   4.025   2.426
 4921TIP3    H214728   6.713   3.908   2.518
 4922TIP3   OH214729   4.361   0.577   0.288
 4922TIP3    H114730   4.301   0.572   0.214
 4922TIP3    H214731   4.317   0.527   0.357
 4923TIP3   OH214732   4.417   6.608   0.699
 4923TIP3    H114733   4.403   6.611   0.605
 4923TIP3    H214734   4.450   6.519   0.716
 4924TIP3   OH214735   0.880   5.200   0.953
 4924TIP3    H114736   0.965   5.182   0.913
 4924TIP3    H214737   0.873   5.138   1.025
 4925TIP3   OH214738   0.664   1.836   4.769
 4925TIP3    H114739   0.599   1.775   4.803
 4925TIP3    H214740   0.656   1.830   4.674
 4926TIP3   OH214741   3.673   1.123   4.714
 4926TIP3    H114742   3.640   1.046   4.761
 4926TIP3    H214743   3.688   1.188   4.783
 4927TIP3   OH214744   4.725   5.867   1.082
 4927TIP3    H114745   4.711   5.773   1.082
 4927TIP3    H214746   4.701   5.896   1.170
 4928TIP3   OH214747   0.404   3.134   4.738
 4928TIP3    H114748   0.439   3.173   4.818
 4928TIP3    H214749   0.393   3.207   4.678
 4929TIP3   OH214750   6.715   1.639   2.163
 4929TIP3    H114751   6.742   1.701   2.231
 4929TIP3    H214752   6.702   1.557   2.209
 4930TIP3   OH214753   2.368   4.556   2.367
 4930TIP3    H114754   2.398   4.635   2.412
 4930TIP3    H214755   2.274   4.570   2.353
 4931TIP3   OH214756   6.456   0.049   4.239
 4931TIP3    H114757   6.543   0.036   4.278
 4931TIP3    H214758   6.395   0.028   4.310
 4932TIP3   OH214759   2.243   2.357   4.487
 4932TIP3    H114760   2.222   2.363   4.394
 4932TIP3    H214761   2.337   2.341   4.490
 4933TIP3   OH214762   0.489   1.445   5.314
 4933TIP3    H114763   0.474   1.539   5.308
 4933TIP3    H214764   0.582   1.437   5.333
 4934TIP3   OH214765   3.116   4.870   1.708
 4934TIP3    H114766   3.042   4.832   1.661
 4934TIP3    H214767   3.143   4.944   1.654
 4935TIP3   OH214768   5.577   3.596   3.932
 4935TIP3    H114769   5.574   3.542   3.853
 4935TIP3    H214770   5.581   3.686   3.899
 4936TIP3   OH214771   1.700   5.825   4.877
 4936TIP3    H114772   1.724   5.852   4.788
 4936TIP3    H214773   1.665   5.905   4.917
 4937TIP3   OH214774   3.844   5.356   1.917
 4937TIP3    H114775   3.904   5.394   1.852
 4937TIP3    H214776   3.878   5.268   1.933
 4938TIP3   OH214777   2.163   0.861   4.688
 4938TIP3    H114778   2.156   0.956   4.685
 4938TIP3    H214779   2.204   0.842   4.772
 4939TIP3   OH214780   2.546   1.260   4.116
 4939TIP3    H114781   2.596   1.342   4.120
 4939TIP3    H214782   2.553   1.223   4.204
 4940TIP3   OH214783   2.084   5.838   0.211
 4940TIP3    H114784   2.177   5.839   0.234
 4940TIP3    H214785   2.046   5.912   0.257
 4941TIP3   OH214786   1.766   2.725   5.611
 4941TIP3    H114787   1.847   2.754   5.653
 4941TIP3    H214788   1.772   2.629   5.611
 4942TIP3   OH214789   3.685   5.547   1.258
 4942TIP3    H114790   3.772   5.509   1.257
 4942TIP3    H214791   3.681   5.599   1.178
 4943TIP3   OH214792   4.980   0.519   2.236
 4943TIP3    H114793   5.064   0.498   2.195
 4943TIP3    H214794   4.977   0.615   2.240
 4944TIP3   OH214795   7.001   4.217   0.919
 4944TIP3    H114796   7.006   4.150   0.986
 4944TIP3    H214797   7.007   4.300   0.967
 4945TIP3   OH214798   4.424   1.745   1.667
 4945TIP3    H114799   4.355   1.795   1.623
 4945TIP3    H214800   4.447   1.800   1.743
 4946TIP3   OH214801   5.896   5.977   4.615
 4946TIP3    H114802   5.979   5.990   4.569
 4946TIP3    H214803   5.885   5.882   4.620
 4947TIP3   OH214804   3.803   1.986   3.792
 4947TIP3    H114805   3.805   2.082   3.783
 4947TIP3    H214806   3.864   1.968   3.863
 4948TIP3   OH214807   5.402   4.831   4.348
 4948TIP3    H114808   5.363   4.828   4.435
 4948TIP3    H214809   5.496   4.843   4.364
 4949TIP3   OH214810   4.259   4.588   5.556
 4949TIP3    H114811   4.287   4.501   5.585
 4949TIP3    H214812   4.167   4.593   5.582
 4950TIP3   OH214813   7.084   1.873   4.489
 4950TIP3    H114814   7.051   1.851   4.402
 4950TIP3    H214815   7.100   1.967   4.486
 4951TIP3   OH214816   1.980   0.775   4.144
 4951TIP3    H114817   2.047   0.829   4.102
 4951TIP3    H214818   1.897   0.806   4.107
 4952TIP3   OH214819   2.522   4.864   5.514
 4952TIP3    H114820   2.570   4.831   5.589
 4952TIP3    H214821   2.482   4.946   5.544
 4953TIP3   OH214822   5.611   1.821   2.696
 4953TIP3    H114823   5.597   1.781   2.781
 4953TIP3    H214824   5.529   1.808   2.649
 4954TIP3   OH214825   3.375   0.565   0.326
 4954TIP3    H114826   3.300   0.551   0.268
 4954TIP3    H214827   3.430   0.629   0.280
 4955TIP3   OH214828   4.987   1.844   1.400
 4955TIP3    H114829   5.024   1.932   1.408
 4955TIP3    H214830   5.034   1.805   1.326
 4956TIP3   OH214831   4.833   5.569   0.435
 4956TIP3    H114832   4.740   5.570   0.413
 4956TIP3    H214833   4.874   5.519   0.364
 4957TIP3   OH214834   3.033   2.198   2.968
 4957TIP3    H114835   3.093   2.223   3.039
 4957TIP3    H214836   3.090   2.157   2.903
 4958TIP3   OH214837   1.730   2.900   4.893
 4958TIP3    H114838   1.790   2.917   4.820
 4958TIP3    H214839   1.775   2.834   4.946
 4959TIP3   OH214840   2.413   5.696   0.850
 4959TIP3    H114841   2.473   5.622   0.840
 4959TIP3    H214842   2.440   5.758   0.782
 4960TIP3   OH214843   0.068   6.107   1.738
 4960TIP3    H114844   0.020   6.190   1.737
 4960TIP3    H214845   0.021   6.054   1.802
 4961TIP3   OH214846   6.512   5.129   3.491
 4961TIP3    H114847   6.569   5.131   3.414
 4961TIP3    H214848   6.456   5.206   3.482
 4962TIP3   OH214849   0.021   6.205   3.728
 4962TIP3    H114850   0.116   6.206   3.722
 4962TIP3    H214851  -0.004   6.297   3.740
 4963TIP3   OH214852   2.816   4.106   2.505
 4963TIP3    H114853   2.796   4.031   2.448
 4963TIP3    H214854   2.869   4.164   2.450
 4964TIP3   OH214855   3.664   0.417   3.909
 4964TIP3    H114856   3.644   0.498   3.954
 4964TIP3    H214857   3.677   0.443   3.817
 4965TIP3   OH214858   1.214   2.748   0.404
 4965TIP3    H114859   1.174   2.661   0.400
 4965TIP3    H214860   1.142   2.808   0.381
 4966TIP3   OH214861   6.765   5.877   1.010
 4966TIP3    H114862   6.852   5.836   1.007
 4966TIP3    H214863   6.760   5.915   1.097
 4967TIP3   OH214864   4.813   3.152   2.679
 4967TIP3    H114865   4.880   3.084   2.666
 4967TIP3    H214866   4.834   3.191   2.763
 4968TIP3   OH214867   3.592   4.788   2.393
 4968TIP3    H114868   3.622   4.870   2.354
 4968TIP3    H214869   3.512   4.767   2.346
 4969TIP3   OH214870   2.251   3.431   2.127
 4969TIP3    H114871   2.171   3.400   2.168
 4969TIP3    H214872   2.222   3.498   2.065
 4970TIP3   OH214873   6.810   3.539   3.703
 4970TIP3    H114874   6.727   3.521   3.658
 4970TIP3    H214875   6.834   3.456   3.744
 4971TIP3   OH214876   6.193   1.105   2.094
 4971TIP3    H114877   6.194   1.021   2.048
 4971TIP3    H214878   6.236   1.088   2.177
 4972TIP3   OH214879   0.469   5.107   3.976
 4972TIP3    H114880   0.414   5.173   4.017
 4972TIP3    H214881   0.470   5.130   3.883
 4973TIP3   OH214882   0.610   5.832   3.121
 4973TIP3    H114883   0.620   5.916   3.078
 4973TIP3    H214884   0.559   5.779   3.060
 4974TIP3   OH214885   7.188   0.329   4.538
 4974TIP3    H114886   7.236   0.390   4.482
 4974TIP3    H214887   7.109   0.377   4.563
 4975TIP3   OH214888   5.935   6.118   0.132
 4975TIP3    H114889   5.897   6.030   0.125
 4975TIP3    H214890   6.029   6.102   0.147
 4976TIP3   OH214891   5.664   6.612   4.948
 4976TIP3    H114892   5.570   6.628   4.947
 4976TIP3    H214893   5.692   6.626   4.858
 4977TIP3   OH214894   5.263   3.465   3.806
 4977TIP3    H114895   5.328   3.439   3.871
 4977TIP3    H214896   5.299   3.434   3.723
 4978TIP3   OH214897   3.220   4.840   2.518
 4978TIP3    H114898   3.246   4.891   2.594
 4978TIP3    H214899   3.228   4.900   2.444
 4979TIP3   OH214900   1.981   0.110   1.723
 4979TIP3    H114901   1.912   0.176   1.715
 4979TIP3    H214902   1.934   0.027   1.717
 4980TIP3   OH214903   0.055   2.853   0.151
 4980TIP3    H114904   0.106   2.856   0.070
 4980TIP3    H214905  -0.012   2.787   0.135
 4981TIP3   OH214906   0.242   5.835   3.520
 4981TIP3    H114907   0.182   5.762   3.509
 4981TIP3    H214908   0.317   5.798   3.566
 4982TIP3   OH214909   3.933   2.589   0.592
 4982TIP3    H114910   3.902   2.505   0.627
 4982TIP3    H214911   3.965   2.568   0.505
 4983TIP3   OH214912   2.730   4.946   3.913
 4983TIP3    H114913   2.786   5.020   3.889
 4983TIP3    H214914   2.675   4.931   3.836
 4984TIP3   OH214915   1.906   0.417   4.969
 4984TIP3    H114916   1.988   0.407   4.921
 4984TIP3    H214917   1.884   0.510   4.960
 4985TIP3   OH214918   3.450   5.250   5.031
 4985TIP3    H114919   3.370   5.302   5.042
 4985TIP3    H214920   3.508   5.305   4.979
 4986TIP3   OH214921   6.336   4.648   0.019
 4986TIP3    H114922   6.314   4.668   0.111
 4986TIP3    H214923   6.431   4.661   0.014
 4987TIP3   OH214924   1.777   5.700   3.135
 4987TIP3    H114925   1.717   5.727   3.205
 4987TIP3    H214926   1.847   5.653   3.180
 4988TIP3   OH214927   0.728   5.597   0.144
 4988TIP3    H114928   0.801   5.542   0.173
 4988TIP3    H214929   0.650   5.543   0.158
 4989TIP3   OH214930   3.112   1.661   1.265
 4989TIP3    H114931   3.043   1.721   1.292
 4989TIP3    H214932   3.168   1.652   1.342
 4990TIP3   OH214933   3.853   3.001   2.643
 4990TIP3    H114934   3.784   3.010   2.709
 4990TIP3    H214935   3.867   2.907   2.636
 4991TIP3   OH214936   2.486   5.736   1.735
 4991TIP3    H114937   2.423   5.740   1.807
 4991TIP3    H214938   2.559   5.791   1.764
 4992TIP3   OH214939   3.856   5.291   0.994
 4992TIP3    H114940   3.806   5.209   0.995
 4992TIP3    H214941   3.878   5.307   1.085
 4993TIP3   OH214942   5.295   6.433   4.814
 4993TIP3    H114943   5.363   6.378   4.776
 4993TIP3    H214944   5.335   6.467   4.895
 4994TIP3   OH214945   5.633   6.085   1.073
 4994TIP3    H114946   5.622   5.997   1.039
 4994TIP3    H214947   5.566   6.137   1.029
 4995TIP3   OH214948   4.091   5.305   0.038
 4995TIP3    H114949   4.165   5.337  -0.014
 4995TIP3    H214950   4.056   5.382   0.082
 4996TIP3   OH214951   3.300   1.834   5.749
 4996TIP3    H114952   3.332   1.746   5.770
 4996TIP3    H214953   3.209   1.821   5.723
 4997TIP3   OH214954   6.653   2.595   2.680
 4997TIP3    H114955   6.560   2.611   2.668
 4997TIP3    H214956   6.675   2.528   2.615
 4998TIP3   OH214957   1.745   0.966   5.132
 4998TIP3    H114958   1.836   0.986   5.108
 4998TIP3    H214959   1.722   1.034   5.196
 4999TIP3   OH214960   2.035   2.391   1.949
 4999TIP3    H114961   1.958   2.430   1.990
 4999TIP3    H214962   2.003   2.360   1.864
 5000TIP3   OH214963   5.244   0.162   0.990
 5000TIP3    H114964   5.203   0.186   0.907
 5000TIP3    H214965   5.265   0.069   0.980
 5001TIP3   OH214966   3.106   5.049   4.988
 5001TIP3    H114967   3.025   5.048   5.038
 5001TIP3    H214968   3.084   5.094   4.907
 5002TIP3   OH214969   6.371   2.237   3.271
 5002TIP3    H114970   6.348   2.253   3.362
 5002TIP3    H214971   6.416   2.317   3.243
 5003TIP3   OH214972   0.301   3.748   0.899
 5003TIP3    H114973   0.328   3.766   0.989
 5003TIP3    H214974   0.247   3.823   0.874
 5004TIP3   OH214975   5.234   0.386   5.324
 5004TIP3    H114976   5.199   0.337   5.398
 5004TIP3    H214977   5.280   0.321   5.271
 5005TIP3   OH214978   2.826   6.269   4.318
 5005TIP3    H114979   2.767   6.310   4.381
 5005TIP3    H214980   2.885   6.340   4.291
 5006TIP3   OH214981   6.576   4.941   1.909
 5006TIP3    H114982   6.525   5.020   1.891
 5006TIP3    H214983   6.566   4.887   1.831
 5007TIP3   OH214984   4.971   2.388   1.929
 5007TIP3    H114985   5.053   2.432   1.949
 5007TIP3    H214986   4.910   2.419   1.996
 5008TIP3   OH214987   5.997   0.821   2.983
 5008TIP3    H114988   5.944   0.900   2.972
 5008TIP3    H214989   5.943   0.751   2.944
 5009TIP3   OH214990   5.174   2.477   1.178
 5009TIP3    H114991   5.239   2.417   1.141
 5009TIP3    H214992   5.219   2.517   1.252
 5010TIP3   OH214993   5.746   6.652   3.872
 5010TIP3    H114994   5.840   6.636   3.873
 5010TIP3    H214995   5.711   6.585   3.813
 5011TIP3   OH214996   4.158   1.722   2.504
 5011TIP3    H114997   4.078   1.751   2.459
 5011TIP3    H214998   4.158   1.627   2.496
 5012TIP3   OH214999   6.211   0.312   5.762
 5012TIP3    H115000   6.215   0.231   5.711
 5012TIP3    H215001   6.277   0.301   5.831
 5013TIP3   OH215002   3.786   4.009   3.077
 5013TIP3    H115003   3.805   3.989   2.985
 5013TIP3    H215004   3.694   3.983   3.088
 5014TIP3   OH215005   1.567   0.993   5.779
 5014TIP3    H115006   1.585   1.030   5.865
 5014TIP3    H215007   1.653   0.979   5.740
 5015TIP3   OH215008   3.495   4.721   0.606
 5015TIP3    H115009   3.415   4.736   0.556
 5015TIP3    H215010   3.524   4.634   0.579
 5016TIP3   OH215011   2.061   5.155   2.397
 5016TIP3    H115012   2.119   5.208   2.452
 5016TIP3    H215013   2.019   5.218   2.338
 5017TIP3   OH215014   2.681   0.449   0.273
 5017TIP3    H115015   2.690   0.418   0.183
 5017TIP3    H215016   2.601   0.502   0.273
 5018TIP3   OH215017   6.809   2.070   3.278
 5018TIP3    H115018   6.724   2.027   3.268
 5018TIP3    H215019   6.789   2.156   3.315
 5019TIP3   OH215020   6.649   0.325   0.550
 5019TIP3    H115021   6.650   0.340   0.455
 5019TIP3    H215022   6.675   0.408   0.588
 5020TIP3   OH215023   3.199   5.437   5.322
 5020TIP3    H115024   3.216   5.425   5.228
 5020TIP3    H215025   3.123   5.495   5.325
 5021TIP3   OH215026   1.281   4.258   4.926
 5021TIP3    H115027   1.290   4.177   4.975
 5021TIP3    H215028   1.295   4.232   4.835
 5022TIP3   OH215029   5.358   0.800   2.503
 5022TIP3    H115030   5.422   0.801   2.574
 5022TIP3    H215031   5.407   0.831   2.427
 5023TIP3   OH215032   6.024   0.215   5.142
 5023TIP3    H115033   5.967   0.151   5.098
 5023TIP3    H215034   6.007   0.202   5.235
 5024TIP3   OH215035   6.858   0.483   2.228
 5024TIP3    H115036   6.882   0.416   2.292
 5024TIP3    H215037   6.922   0.473   2.158
 5025TIP3   OH215038   7.017   4.095   4.437
 5025TIP3    H115039   7.055   4.172   4.395
 5025TIP3    H215040   7.067   4.086   4.519
 5026TIP3   OH215041   1.550   4.881   4.207
 5026TIP3    H115042   1.630   4.880   4.259
 5026TIP3    H215043   1.572   4.935   4.131
 5027TIP3   OH215044   6.782   4.813   4.589
 5027TIP3    H115045   6.761   4.726   4.555
 5027TIP3    H215046   6.727   4.873   4.538
 5028TIP3   OH215047   4.540   1.093   1.830
 5028TIP3    H115048   4.466   1.049   1.871
 5028TIP3    H215049   4.533   1.184   1.859
 5029TIP3   OH215050   6.080   5.721   5.630
 5029TIP3    H115051   5.989   5.694   5.615
 5029TIP3    H215052   6.107   5.760   5.547
 5030TIP3   OH215053   3.436   6.570   4.203
 5030TIP3    H115054   3.343   6.561   4.225
 5030TIP3    H215055   3.460   6.484   4.167
 5031TIP3   OH215056   0.059   1.280   0.171
 5031TIP3    H115057  -0.008   1.211   0.176
 5031TIP3    H215058   0.142   1.234   0.181
 5032TIP3   OH215059   5.948   0.831   4.633
 5032TIP3    H115060   5.920   0.774   4.561
 5032TIP3    H215061   5.937   0.919   4.599
 5033TIP3   OH215062   6.649   6.107   0.290
 5033TIP3    H115063   6.603   6.186   0.260
 5033TIP3    H215064   6.605   6.083   0.371
 5034TIP3   OH215065   5.710   5.472   2.670
 5034TIP3    H115066   5.688   5.531   2.742
 5034TIP3    H215067   5.713   5.385   2.711
 5035TIP3   OH215068   6.446   6.699   1.945
 5035TIP3    H115069   6.499   6.720   2.022
 5035TIP3    H215070   6.372   6.649   1.979
 5036TIP3   OH215071   0.710   0.120   0.469
 5036TIP3    H115072   0.674   0.126   0.557
 5036TIP3    H215073   0.779   0.186   0.467
 5037TIP3   OH215074   5.849   4.293   1.336
 5037TIP3    H115075   5.852   4.383   1.302
 5037TIP3    H215076   5.761   4.284   1.372
 5038TIP3   OH215077   1.524   5.849   0.725
 5038TIP3    H115078   1.587   5.777   0.719
 5038TIP3    H215079   1.568   5.923   0.683
 5039TIP3   OH215080   0.699   5.526   4.387
 5039TIP3    H115081   0.748   5.564   4.314
 5039TIP3    H215082   0.764   5.472   4.433
 5040TIP3   OH215083   3.012   2.473   3.152
 5040TIP3    H115084   3.017   2.483   3.247
 5040TIP3    H215085   3.077   2.406   3.131
 5041TIP3   OH215086   7.005   4.110   3.761
 5041TIP3    H115087   6.912   4.089   3.757
 5041TIP3    H215088   7.041   4.048   3.824
 5042TIP3   OH215089   0.074   3.533   0.680
 5042TIP3    H115090   0.062   3.594   0.607
 5042TIP3    H215091   0.036   3.578   0.756
 5043TIP3   OH215092  -0.008   5.977   3.479
 5043TIP3    H115093   0.016   6.044   3.415
 5043TIP3    H215094   0.075   5.932   3.498
 5044TIP3   OH215095   1.060   0.319   4.359
 5044TIP3    H115096   1.128   0.293   4.297
 5044TIP3    H215097   1.022   0.237   4.389
 5045TIP3   OH215098   0.359   3.085   4.430
 5045TIP3    H115099   0.396   3.143   4.496
 5045TIP3    H215100   0.389   2.998   4.454
 5046TIP3   OH215101   6.946   2.306   1.570
 5046TIP3    H115102   6.944   2.241   1.640
 5046TIP3    H215103   6.886   2.273   1.504
 5047TIP3   OH215104   6.682   0.268   4.830
 5047TIP3    H115105   6.638   0.260   4.915
 5047TIP3    H215106   6.652   0.352   4.795
 5048TIP3   OH215107   5.815   2.138   2.194
 5048TIP3    H115108   5.889   2.103   2.242
 5048TIP3    H215109   5.846   2.222   2.159
 5049TIP3   OH215110   6.239   3.632   4.220
 5049TIP3    H115111   6.266   3.554   4.269
 5049TIP3    H215112   6.300   3.636   4.146
 5050TIP3   OH215113   1.788   3.512   1.408
 5050TIP3    H115114   1.812   3.447   1.341
 5050TIP3    H215115   1.814   3.471   1.491
 5051TIP3   OH215116   1.066   4.120   5.614
 5051TIP3    H115117   1.055   4.044   5.672
 5051TIP3    H215118   1.084   4.193   5.674
 5052TIP3   OH215119   4.766   3.487   2.705
 5052TIP3    H115120   4.847   3.443   2.730
 5052TIP3    H215121   4.697   3.426   2.731
 5053TIP3   OH215122   6.659   4.698   0.675
 5053TIP3    H115123   6.630   4.779   0.634
 5053TIP3    H215124   6.738   4.723   0.723
 5054TIP3   OH215125   3.394   4.751   4.925
 5054TIP3    H115126   3.385   4.716   4.836
 5054TIP3    H215127   3.401   4.846   4.912
 5055TIP3   OH215128   3.276   4.295   3.870
 5055TIP3    H115129   3.368   4.312   3.851
 5055TIP3    H215130   3.229   4.338   3.798
 5056TIP3   OH215131   3.913   1.990   1.321
 5056TIP3    H115132   3.901   1.897   1.303
 5056TIP3    H215133   3.950   2.026   1.240
 5057TIP3   OH215134   6.115   2.104   3.195
 5057TIP3    H115135   6.094   2.039   3.262
 5057TIP3    H215136   6.187   2.155   3.232
 5058TIP3   OH215137   2.637   5.052   5.292
 5058TIP3    H115138   2.622   4.961   5.318
 5058TIP3    H215139   2.681   5.091   5.368
 5059TIP3   OH215140   2.039   4.768   1.231
 5059TIP3    H115141   1.968   4.729   1.179
 5059TIP3    H215142   1.994   4.824   1.295
 5060TIP3   OH215143   3.743   0.567   3.425
 5060TIP3    H115144   3.718   0.655   3.395
 5060TIP3    H215145   3.751   0.576   3.520
 5061TIP3   OH215146   0.419   1.358   0.317
 5061TIP3    H115147   0.384   1.353   0.406
 5061TIP3    H215148   0.383   1.282   0.272
 5062TIP3   OH215149   5.055   6.731   2.725
 5062TIP3    H115150   5.080   6.720   2.633
 5062TIP3    H215151   5.095   6.656   2.769
 5063TIP3   OH215152   0.531   2.460   0.146
 5063TIP3    H115153   0.463   2.488   0.084
 5063TIP3    H215154   0.485   2.404   0.208
 5064TIP3   OH215155   2.346   0.554   3.505
 5064TIP3    H115156   2.336   0.645   3.532
 5064TIP3    H215157   2.435   0.531   3.530
 5065TIP3   OH215158   5.412   1.701   0.901
 5065TIP3    H115159   5.415   1.724   0.994
 5065TIP3    H215160   5.486   1.747   0.862
 5066TIP3   OH215161   7.010   4.437   2.534
 5066TIP3    H115162   7.099   4.461   2.507
 5066TIP3    H215163   7.008   4.456   2.628
 5067TIP3   OH215164   0.436   1.092   2.436
 5067TIP3    H115165   0.390   1.008   2.437
 5067TIP3    H215166   0.492   1.089   2.513
 5068TIP3   OH215167   1.472   5.356   5.248
 5068TIP3    H115168   1.437   5.443   5.268
 5068TIP3    H215169   1.414   5.323   5.178
 5069TIP3   OH215170   4.087   6.372   0.514
 5069TIP3    H115171   4.146   6.377   0.439
 5069TIP3    H215172   4.027   6.301   0.493
 5070TIP3   OH215173   1.613   6.204   2.084
 5070TIP3    H115174   1.621   6.180   2.176
 5070TIP3    H215175   1.704   6.209   2.053
 5071TIP3   OH215176   2.050   2.540   4.620
 5071TIP3    H115177   2.094   2.536   4.705
 5071TIP3    H215178   2.118   2.518   4.556
 5072TIP3   OH215179   3.406   1.312   2.572
 5072TIP3    H115180   3.318   1.331   2.540
 5072TIP3    H215181   3.415   1.366   2.651
 5073TIP3   OH215182   2.520   1.572   3.127
 5073TIP3    H115183   2.538   1.620   3.047
 5073TIP3    H215184   2.605   1.538   3.154
 5074TIP3   OH215185   3.072   5.458   1.422
 5074TIP3    H115186   3.030   5.423   1.343
 5074TIP3    H215187   3.114   5.539   1.393
 5075TIP3   OH215188   4.470   3.912   2.061
 5075TIP3    H115189   4.557   3.952   2.057
 5075TIP3    H215190   4.475   3.853   2.137
 5076TIP3   OH215191   3.072   4.726   1.926
 5076TIP3    H115192   3.148   4.693   1.974
 5076TIP3    H215193   3.110   4.766   1.847
 5077TIP3   OH215194   5.212   5.609   0.534
 5077TIP3    H115195   5.199   5.693   0.577
 5077TIP3    H215196   5.231   5.631   0.442
 5078TIP3   OH215197   3.169   0.920   0.144
 5078TIP3    H115198   3.117   0.976   0.202
 5078TIP3    H215199   3.170   0.967   0.061
 5079TIP3   OH215200   5.289   5.694   3.800
 5079TIP3    H115201   5.374   5.715   3.760
 5079TIP3    H215202   5.233   5.670   3.726
 5080TIP3   OH215203   0.857   1.315   2.721
 5080TIP3    H115204   0.866   1.277   2.634
 5080TIP3    H215205   0.884   1.406   2.710
 5081TIP3   OH215206   3.314   1.253   2.916
 5081TIP3    H115207   3.334   1.332   2.966
 5081TIP3    H215208   3.305   1.185   2.983
 5082TIP3   OH215209   5.108   5.727   1.994
 5082TIP3    H115210   5.085   5.782   1.919
 5082TIP3    H215211   5.186   5.680   1.966
 5083TIP3   OH215212   0.305   5.149   2.482
 5083TIP3    H115213   0.288   5.240   2.509
 5083TIP3    H215214   0.388   5.127   2.525
 5084TIP3   OH215215   0.299   4.980   5.602
 5084TIP3    H115216   0.322   5.013   5.515
 5084TIP3    H215217   0.361   4.908   5.617
 5085TIP3   OH215218   1.315   4.788   4.150
 5085TIP3    H115219   1.400   4.815   4.186
 5085TIP3    H215220   1.274   4.739   4.221
 5086TIP3   OH215221   5.735   3.686   3.064
 5086TIP3    H115222   5.715   3.780   3.065
 5086TIP3    H215223   5.673   3.649   3.002
 5087TIP3   OH215224   5.694   4.995   3.695
 5087TIP3    H115225   5.727   5.082   3.720
 5087TIP3    H215226   5.727   4.936   3.763
 5088TIP3   OH215227   5.901   3.230   2.633
 5088TIP3    H115228   5.842   3.162   2.666
 5088TIP3    H215229   5.933   3.196   2.550
 5089TIP3   OH215230   4.105   5.187   5.781
 5089TIP3    H115231   4.084   5.210   5.690
 5089TIP3    H215232   4.051   5.246   5.834
 5090TIP3   OH215233   5.338   1.053   3.375
 5090TIP3    H115234   5.299   1.051   3.287
 5090TIP3    H215235   5.391   1.133   3.376
 5091TIP3   OH215236   7.127   6.270   2.815
 5091TIP3    H115237   7.221   6.265   2.794
 5091TIP3    H215238   7.110   6.189   2.864
 5092TIP3   OH215239   3.312   3.334   0.756
 5092TIP3    H115240   3.329   3.391   0.681
 5092TIP3    H215241   3.233   3.369   0.796
 5093TIP3   OH215242   5.423   6.242   4.269
 5093TIP3    H115243   5.410   6.252   4.174
 5093TIP3    H215244   5.447   6.330   4.298
 5094TIP3   OH215245   4.323   5.008   5.354
 5094TIP3    H115246   4.414   5.036   5.358
 5094TIP3    H215247   4.319   4.947   5.281
 5095TIP3   OH215248   1.291   4.695   2.594
 5095TIP3    H115249   1.354   4.743   2.540
 5095TIP3    H215250   1.336   4.684   2.678
 5096TIP3   OH215251   1.062   6.409   1.733
 5096TIP3    H115252   1.140   6.445   1.776
 5096TIP3    H215253   1.009   6.374   1.804
 5097TIP3   OH215254   1.249   4.513   4.668
 5097TIP3    H115255   1.329   4.489   4.715
 5097TIP3    H215256   1.270   4.498   4.575
 5098TIP3   OH215257   1.374   5.513   0.626
 5098TIP3    H115258   1.383   5.419   0.641
 5098TIP3    H215259   1.334   5.520   0.539
 5099TIP3   OH215260   6.920   3.542   4.569
 5099TIP3    H115261   6.910   3.610   4.503
 5099TIP3    H215262   6.874   3.466   4.532
 5100TIP3   OH215263   3.411   1.112   1.168
 5100TIP3    H115264   3.432   1.071   1.084
 5100TIP3    H215265   3.319   1.138   1.159
 5101TIP3   OH215266   0.583   5.565   3.356
 5101TIP3    H115267   0.601   5.623   3.282
 5101TIP3    H215268   0.551   5.484   3.315
 5102TIP3   OH215269   6.491   3.584   4.956
 5102TIP3    H115270   6.514   3.670   4.991
 5102TIP3    H215271   6.561   3.563   4.895
 5103TIP3   OH215272   5.153   1.147   1.221
 5103TIP3    H115273   5.096   1.202   1.167
 5103TIP3    H215274   5.110   1.144   1.306
 5104TIP3   OH215275   2.470   3.496   2.791
 5104TIP3    H115276   2.415   3.557   2.839
 5104TIP3    H215277   2.551   3.492   2.842
 5105TIP3   OH215278   0.651   6.266   2.339
 5105TIP3    H115279   0.570   6.300   2.301
 5105TIP3    H215280   0.718   6.329   2.312
 5106TIP3   OH215281   3.133   5.296   3.725
 5106TIP3    H115282   3.211   5.287   3.670
 5106TIP3    H215283   3.074   5.352   3.674
 5107TIP3   OH215284   3.021   3.592   1.809
 5107TIP3    H115285   3.051   3.504   1.831
 5107TIP3    H215286   2.944   3.606   1.864
 5108TIP3   OH215287   0.257   5.921   1.861
 5108TIP3    H115288   0.170   5.953   1.837
 5108TIP3    H215289   0.278   5.967   1.942
 5109TIP3   OH215290   1.039   2.551   4.206
 5109TIP3    H115291   1.031   2.500   4.287
 5109TIP3    H215292   1.000   2.495   4.138
 5110TIP3   OH215293   2.905   4.846   3.658
 5110TIP3    H115294   2.890   4.937   3.682
 5110TIP3    H215295   2.895   4.845   3.562
 5111TIP3   OH215296   0.563   5.237   1.664
 5111TIP3    H115297   0.658   5.251   1.662
 5111TIP3    H215298   0.534   5.284   1.742
 5112TIP3   OH215299   4.723   0.826   0.970
 5112TIP3    H115300   4.660   0.872   1.026
 5112TIP3    H215301   4.679   0.743   0.950
 5113TIP3   OH215302   3.122   2.987   4.212
 5113TIP3    H115303   3.109   3.073   4.251
 5113TIP3    H215304   3.044   2.937   4.237
 5114TIP3   OH215305   3.686   2.268   1.189
 5114TIP3    H115306   3.780   2.279   1.176
 5114TIP3    H215307   3.671   2.295   1.280
 5115TIP3   OH215308   3.442   0.660   2.485
 5115TIP3    H115309   3.480   0.645   2.572
 5115TIP3    H215310   3.501   0.723   2.443
 5116TIP3   OH215311   6.818   0.105   5.070
 5116TIP3    H115312   6.865   0.047   5.129
 5116TIP3    H215313   6.885   0.165   5.036
 5117TIP3   OH215314   6.460   5.729   1.548
 5117TIP3    H115315   6.387   5.784   1.576
 5117TIP3    H215316   6.420   5.659   1.497
 5118TIP3   OH215317   5.345   4.686   5.219
 5118TIP3    H115318   5.275   4.653   5.162
 5118TIP3    H215319   5.299   4.737   5.286
 5119TIP3   OH215320   4.200   5.682   4.645
 5119TIP3    H115321   4.225   5.744   4.714
 5119TIP3    H215322   4.237   5.719   4.565
 5120TIP3   OH215323   0.930   0.950   1.137
 5120TIP3    H115324   0.838   0.966   1.118
 5120TIP3    H215325   0.978   0.996   1.068
 5121TIP3   OH215326   2.182   0.179   4.898
 5121TIP3    H115327   2.218   0.235   4.967
 5121TIP3    H215328   2.178   0.235   4.821
 5122TIP3   OH215329   1.422   2.939   4.071
 5122TIP3    H115330   1.392   2.884   4.143
 5122TIP3    H215331   1.514   2.959   4.092
 5123TIP3   OH215332   3.502   5.030   3.243
 5123TIP3    H115333   3.466   5.021   3.154
 5123TIP3    H215334   3.436   4.991   3.299
 5124TIP3   OH215335  -0.003   2.680   3.700
 5124TIP3    H115336   0.048   2.629   3.638
 5124TIP3    H215337   0.029   2.654   3.786
 5125TIP3   OH215338   2.954   4.609   1.318
 5125TIP3    H115339   3.047   4.627   1.303
 5125TIP3    H215340   2.951   4.521   1.356
 5126TIP3   OH215341   0.468   2.728   3.048
 5126TIP3    H115342   0.510   2.762   2.969
 5126TIP3    H215343   0.397   2.673   3.015
 5127TIP3   OH215344   0.140   5.232   4.257
 5127TIP3    H115345   0.121   5.145   4.290
 5127TIP3    H215346   0.055   5.268   4.232
 5128TIP3   OH215347   2.331   5.867   0.349
 5128TIP3    H115348   2.292   5.814   0.418
 5128TIP3    H215349   2.418   5.829   0.335
 5129TIP3   OH215350   0.542   2.054   4.915
 5129TIP3    H115351   0.596   2.015   4.846
 5129TIP3    H215352   0.601   2.068   4.988
 5130TIP3   OH215353   2.323   0.179   0.895
 5130TIP3    H115354   2.347   0.139   0.811
 5130TIP3    H215355   2.407   0.193   0.940
 5131TIP3   OH215356   5.040   3.920   2.901
 5131TIP3    H115357   5.038   3.932   2.996
 5131TIP3    H215358   4.983   3.844   2.885
 5132TIP3   OH215359   4.532   2.159   1.447
 5132TIP3    H115360   4.518   2.086   1.507
 5132TIP3    H215361   4.466   2.224   1.472
 5133TIP3   OH215362   7.171   5.940   0.462
 5133TIP3    H115363   7.146   5.929   0.554
 5133TIP3    H215364   7.176   6.035   0.450
 5134TIP3   OH215365   3.564   0.092   1.997
 5134TIP3    H115366   3.639   0.149   1.979
 5134TIP3    H215367   3.593   0.006   1.967
 5135TIP3   OH215368   4.476   5.575   4.828
 5135TIP3    H115369   4.534   5.616   4.763
 5135TIP3    H215370   4.464   5.485   4.796
 5136TIP3   OH215371   7.168   2.710   2.361
 5136TIP3    H115372   7.130   2.796   2.379
 5136TIP3    H215373   7.099   2.648   2.384
 5137TIP3   OH215374   4.696   4.522   3.165
 5137TIP3    H115375   4.764   4.563   3.218
 5137TIP3    H215376   4.704   4.428   3.184
 5138TIP3   OH215377   2.751   1.836   1.734
 5138TIP3    H115378   2.822   1.783   1.697
 5138TIP3    H215379   2.767   1.834   1.828
 5139TIP3   OH215380   5.043   0.639   1.971
 5139TIP3    H115381   4.990   0.561   1.951
 5139TIP3    H215382   4.994   0.683   2.041
 5140TIP3   OH215383   2.612   4.130   1.180
 5140TIP3    H115384   2.561   4.095   1.106
 5140TIP3    H215385   2.686   4.174   1.138
 5141TIP3   OH215386   2.697   1.190   3.480
 5141TIP3    H115387   2.626   1.206   3.418
 5141TIP3    H215388   2.769   1.244   3.448
 5142TIP3   OH215389   4.536   3.370   2.837
 5142TIP3    H115390   4.564   3.324   2.916
 5142TIP3    H215391   4.542   3.304   2.768
 5143TIP3   OH215392   4.054   0.852   3.375
 5143TIP3    H115393   4.105   0.772   3.386
 5143TIP3    H215394   4.086   0.890   3.293
 5144TIP3   OH215395   6.336   1.664   1.772
 5144TIP3    H115396   6.398   1.701   1.835
 5144TIP3    H215397   6.253   1.659   1.820
 5145TIP3   OH215398   4.016   2.671   5.782
 5145TIP3    H115399   4.057   2.635   5.703
 5145TIP3    H215400   4.083   2.729   5.818
 5146TIP3   OH215401   2.985   5.862   1.647
 5146TIP3    H115402   2.958   5.770   1.651
 5146TIP3    H215403   2.903   5.911   1.653
 5147TIP3   OH215404   3.391   2.817   3.497
 5147TIP3    H115405   3.342   2.840   3.576
 5147TIP3    H215406   3.417   2.902   3.459
 5148TIP3   OH215407   4.691   4.534   5.450
 5148TIP3    H115408   4.747   4.612   5.448
 5148TIP3    H215409   4.700   4.500   5.539
 5149TIP3   OH215410   1.066   2.254   3.900
 5149TIP3    H115411   1.060   2.184   3.836
 5149TIP3    H215412   0.983   2.302   3.890
 5150TIP3   OH215413   3.258   0.905   1.497
 5150TIP3    H115414   3.167   0.879   1.508
 5150TIP3    H215415   3.266   0.929   1.405
 5151TIP3   OH215416   4.465   4.091   1.572
 5151TIP3    H115417   4.419   4.027   1.518
 5151TIP3    H215418   4.503   4.153   1.510
 5152TIP3   OH215419   5.886   3.921   3.444
 5152TIP3    H115420   5.926   3.836   3.459
 5152TIP3    H215421   5.901   3.970   3.525
 5153TIP3   OH215422   4.299   6.720   3.584
 5153TIP3    H115423   4.288   6.649   3.648
 5153TIP3    H215424   4.296   6.800   3.637
 5154TIP3   OH215425   1.303   0.572   4.611
 5154TIP3    H115426   1.244   0.497   4.605
 5154TIP3    H215427   1.358   0.554   4.687
 5155TIP3   OH215428   2.931   3.141   1.170
 5155TIP3    H115429   2.966   3.227   1.194
 5155TIP3    H215430   2.951   3.133   1.077
 5156TIP3   OH215431   5.182   0.182   1.503
 5156TIP3    H115432   5.166   0.226   1.420
 5156TIP3    H215433   5.272   0.204   1.526
 5157TIP3   OH215434   1.070   1.477   1.222
 5157TIP3    H115435   1.044   1.421   1.295
 5157TIP3    H215436   1.091   1.561   1.264
 5158TIP3   OH215437   3.028   5.675   3.230
 5158TIP3    H115438   3.047   5.756   3.279
 5158TIP3    H215439   2.940   5.650   3.258
 5159TIP3   OH215440   0.205   6.505   5.890
 5159TIP3    H115441   0.188   6.412   5.900
 5159TIP3    H215442   0.137   6.536   5.830
 5160TIP3   OH215443   3.855   1.741   1.253
 5160TIP3    H115444   3.763   1.729   1.231
 5160TIP3    H215445   3.899   1.669   1.208
 5161TIP3   OH215446   3.866   0.087   3.454
 5161TIP3    H115447   3.909   0.115   3.535
 5161TIP3    H215448   3.833   0.000   3.474
 5162TIP3   OH215449   0.023   5.422   2.225
 5162TIP3    H115450   0.001   5.498   2.172
 5162TIP3    H215451   0.117   5.430   2.242
 5163TIP3   OH215452   4.887   0.316   3.211
 5163TIP3    H115453   4.898   0.315   3.306
 5163TIP3    H215454   4.931   0.237   3.181
 5164TIP3   OH215455   4.315   5.881   1.282
 5164TIP3    H115456   4.221   5.898   1.288
 5164TIP3    H215457   4.332   5.871   1.189
 5165TIP3   OH215458   0.997   5.083   4.935
 5165TIP3    H115459   1.076   5.122   4.972
 5165TIP3    H215460   0.954   5.155   4.890
 5166TIP3   OH215461   4.728   0.426   1.126
 5166TIP3    H115462   4.665   0.385   1.184
 5166TIP3    H215463   4.771   0.493   1.180
 5167TIP3   OH215464   7.003   3.194   2.333
 5167TIP3    H115465   6.996   3.285   2.304
 5167TIP3    H215466   7.090   3.166   2.304
 5168TIP3   OH215467   0.928   0.592   0.421
 5168TIP3    H115468   0.960   0.503   0.405
 5168TIP3    H215469   0.863   0.606   0.351
 5169TIP3   OH215470   2.686   5.331   1.403
 5169TIP3    H115471   2.741   5.409   1.411
 5169TIP3    H215472   2.687   5.311   1.309
 5170TIP3   OH215473   5.634   6.725   1.918
 5170TIP3    H115474   5.594   6.682   1.843
 5170TIP3    H215475   5.583   6.694   1.994
 5171TIP3   OH215476   0.245   6.175   4.055
 5171TIP3    H115477   0.272   6.241   3.991
 5171TIP3    H215478   0.179   6.219   4.108
 5172TIP3   OH215479   4.844   4.389   4.546
 5172TIP3    H115480   4.773   4.401   4.482
 5172TIP3    H215481   4.923   4.413   4.499
 5173TIP3   OH215482   5.403   1.520   1.300
 5173TIP3    H115483   5.448   1.515   1.384
 5173TIP3    H215484   5.422   1.437   1.257
 5174TIP3   OH215485   1.020   5.095   3.417
 5174TIP3    H115486   0.993   5.011   3.453
 5174TIP3    H215487   1.026   5.153   3.492
 5175TIP3   OH215488   2.900   0.646   0.908
 5175TIP3    H115489   2.902   0.571   0.849
 5175TIP3    H215490   2.976   0.698   0.885
 5176TIP3   OH215491   3.244   1.033   5.728
 5176TIP3    H115492   3.297   0.962   5.694
 5176TIP3    H215493   3.219   1.005   5.816
 5177TIP3   OH215494   6.547   4.750   0.301
 5177TIP3    H115495   6.546   4.819   0.234
 5177TIP3    H215496   6.560   4.797   0.383
 5178TIP3   OH215497   5.511   4.814   2.500
 5178TIP3    H115498   5.574   4.762   2.550
 5178TIP3    H215499   5.531   4.796   2.409
 5179TIP3   OH215500   5.442   6.265   1.706
 5179TIP3    H115501   5.532   6.270   1.674
 5179TIP3    H215502   5.436   6.180   1.748
 5180TIP3   OH215503   2.376   2.426   5.684
 5180TIP3    H115504   2.342   2.338   5.700
 5180TIP3    H215505   2.471   2.417   5.693
 5181TIP3   OH215506   2.978   5.292   1.617
 5181TIP3    H115507   3.030   5.354   1.566
 5181TIP3    H215508   2.962   5.336   1.700
 5182TIP3   OH215509   3.349   0.511   5.192
 5182TIP3    H115510   3.276   0.471   5.240
 5182TIP3    H215511   3.405   0.438   5.168
 5183TIP3   OH215512   5.305   1.640   2.725
 5183TIP3    H115513   5.301   1.593   2.642
 5183TIP3    H215514   5.389   1.617   2.763
 5184TIP3   OH215515   3.879   4.845   5.426
 5184TIP3    H115516   3.792   4.816   5.399
 5184TIP3    H215517   3.873   4.856   5.521
 5185TIP3   OH215518   3.112   3.401   5.204
 5185TIP3    H115519   3.128   3.376   5.295
 5185TIP3    H215520   3.177   3.351   5.154
 5186TIP3   OH215521   3.877   0.419   2.170
 5186TIP3    H115522   3.842   0.508   2.164
 5186TIP3    H215523   3.937   0.411   2.095
 5187TIP3   OH215524   0.692   3.163   4.414
 5187TIP3    H115525   0.696   3.160   4.318
 5187TIP3    H215526   0.598   3.167   4.434
 5188TIP3   OH215527   4.759   2.173   5.036
 5188TIP3    H115528   4.835   2.205   4.988
 5188TIP3    H215529   4.691   2.162   4.970
 5189TIP3   OH215530   0.410   3.236   4.200
 5189TIP3    H115531   0.394   3.181   4.277
 5189TIP3    H215532   0.425   3.323   4.236
 5190TIP3   OH215533   3.914   6.156   4.781
 5190TIP3    H115534   3.920   6.065   4.809
 5190TIP3    H215535   3.979   6.203   4.833
 5191TIP3   OH215536   5.432   3.184   0.595
 5191TIP3    H115537   5.403   3.200   0.684
 5191TIP3    H215538   5.469   3.096   0.597
 5192TIP3   OH215539   4.770   5.395   1.026
 5192TIP3    H115540   4.729   5.383   0.941
 5192TIP3    H215541   4.701   5.431   1.082
 5193TIP3   OH215542   6.263   0.154   1.422
 5193TIP3    H115543   6.176   0.167   1.459
 5193TIP3    H215544   6.250   0.152   1.327
 5194TIP3   OH215545   1.726   4.496   3.479
 5194TIP3    H115546   1.673   4.550   3.537
 5194TIP3    H215547   1.673   4.484   3.401
 5195TIP3   OH215548   0.924   5.348   3.924
 5195TIP3    H115549   1.001   5.401   3.943
 5195TIP3    H215550   0.887   5.329   4.010
 5196TIP3   OH215551   0.782   2.970   0.500
 5196TIP3    H115552   0.700   2.920   0.503
 5196TIP3    H215553   0.823   2.952   0.585
 5197TIP3   OH215554   6.890   1.730   1.615
 5197TIP3    H115555   6.950   1.672   1.661
 5197TIP3    H215556   6.815   1.739   1.674
 5198TIP3   OH215557   4.674   2.585   3.160
 5198TIP3    H115558   4.673   2.681   3.158
 5198TIP3    H215559   4.626   2.562   3.240
 5199TIP3   OH215560   2.946   6.646   5.355
 5199TIP3    H115561   3.036   6.614   5.360
 5199TIP3    H215562   2.940   6.688   5.269
 5200TIP3   OH215563   3.260   1.535   0.302
 5200TIP3    H115564   3.262   1.485   0.384
 5200TIP3    H215565   3.336   1.503   0.253
 5201TIP3   OH215566   6.145   1.087   4.858
 5201TIP3    H115567   6.143   1.138   4.777
 5201TIP3    H215568   6.100   1.143   4.922
 5202TIP3   OH215569   3.789   0.626   3.708
 5202TIP3    H115570   3.758   0.716   3.698
 5202TIP3    H215571   3.867   0.634   3.764
 5203TIP3   OH215572   4.361   3.208   1.848
 5203TIP3    H115573   4.425   3.193   1.918
 5203TIP3    H215574   4.406   3.178   1.768
 5204TIP3   OH215575   3.077   6.048   3.972
 5204TIP3    H115576   3.011   6.080   4.033
 5204TIP3    H215577   3.160   6.076   4.010
 5205TIP3   OH215578   0.539   4.751   4.549
 5205TIP3    H115579   0.551   4.843   4.526
 5205TIP3    H215580   0.627   4.714   4.547
 5206TIP3   OH215581   2.061   4.584   0.271
 5206TIP3    H115582   2.034   4.641   0.199
 5206TIP3    H215583   2.117   4.518   0.230
 5207TIP3   OH215584   1.913   3.859   0.096
 5207TIP3    H115585   1.965   3.852   0.175
 5207TIP3    H215586   1.911   3.770   0.061
 5208TIP3   OH215587   0.441   0.052   0.010
 5208TIP3    H115588   0.501  -0.020  -0.007
 5208TIP3    H215589   0.457   0.075   0.101
 5209TIP3   OH215590   2.735   1.089   3.901
 5209TIP3    H115591   2.658   1.139   3.930
 5209TIP3    H215592   2.808   1.128   3.948
 5210TIP3   OH215593   3.120   4.483   2.668
 5210TIP3    H115594   3.159   4.491   2.581
 5210TIP3    H215595   3.045   4.542   2.666
 5211TIP3   OH215596   3.406   0.916   0.285
 5211TIP3    H115597   3.323   0.914   0.236
 5211TIP3    H215598   3.473   0.930   0.218
 5212TIP3   OH215599   2.988   3.467   2.874
 5212TIP3    H115600   3.071   3.449   2.829
 5212TIP3    H215601   3.010   3.535   2.938
 5213TIP3   OH215602   0.158   2.940   3.836
 5213TIP3    H115603   0.165   2.912   3.745
 5213TIP3    H215604   0.123   3.029   3.832
 5214TIP3   OH215605   4.729   3.287   0.775
 5214TIP3    H115606   4.670   3.361   0.792
 5214TIP3    H215607   4.729   3.278   0.680
 5215TIP3   OH215608   1.400   6.810   1.374
 5215TIP3    H115609   1.439   6.741   1.427
 5215TIP3    H215610   1.307   6.789   1.371
 5216TIP3   OH215611   2.165   3.421   1.246
 5216TIP3    H115612   2.145   3.397   1.337
 5216TIP3    H215613   2.240   3.367   1.222
 5217TIP3   OH215614   5.690   2.389   3.360
 5217TIP3    H115615   5.667   2.369   3.269
 5217TIP3    H215616   5.725   2.478   3.357
 5218TIP3   OH215617   2.403   4.417   3.296
 5218TIP3    H115618   2.361   4.470   3.229
 5218TIP3    H215619   2.413   4.331   3.256
 5219TIP3   OH215620   5.270   3.202   3.363
 5219TIP3    H115621   5.224   3.120   3.347
 5219TIP3    H215622   5.352   3.194   3.315
 5220TIP3   OH215623   2.812   2.233   0.310
 5220TIP3    H115624   2.895   2.193   0.285
 5220TIP3    H215625   2.747   2.191   0.255
 5221TIP3   OH215626   6.211   2.186   4.270
 5221TIP3    H115627   6.169   2.124   4.210
 5221TIP3    H215628   6.274   2.132   4.319
 5222TIP3   OH215629   5.278   2.328   5.505
 5222TIP3    H115630   5.275   2.269   5.429
 5222TIP3    H215631   5.187   2.351   5.522
 5223TIP3   OH215632   1.735   2.869   2.379
 5223TIP3    H115633   1.814   2.863   2.433
 5223TIP3    H215634   1.717   2.963   2.374
 5224TIP3   OH215635   5.482   2.927   0.493
 5224TIP3    H115636   5.539   2.851   0.480
 5224TIP3    H215637   5.489   2.977   0.412
 5225TIP3   OH215638   4.145   2.348   4.707
 5225TIP3    H115639   4.118   2.440   4.703
 5225TIP3    H215640   4.128   2.322   4.798
 5226TIP3   OH215641   0.227   3.490   2.918
 5226TIP3    H115642   0.149   3.542   2.903
 5226TIP3    H215643   0.229   3.475   3.013
 5227TIP3   OH215644   3.833   6.645   0.364
 5227TIP3    H115645   3.916   6.627   0.319
 5227TIP3    H215646   3.844   6.605   0.450
 5228TIP3   OH215647   3.173   1.600   2.604
 5228TIP3    H115648   3.099   1.661   2.610
 5228TIP3    H215649   3.182   1.583   2.510
 5229TIP3   OH215650   6.959   6.122   1.755
 5229TIP3    H115651   7.007   6.197   1.721
 5229TIP3    H215652   6.990   6.112   1.845
 5230TIP3   OH215653   2.843   0.236   1.561
 5230TIP3    H115654   2.748   0.234   1.554
 5230TIP3    H215655   2.874   0.196   1.480
 5231TIP3   OH215656   0.068   5.788   4.260
 5231TIP3    H115657   0.002   5.755   4.200
 5231TIP3    H215658   0.114   5.710   4.291
 5232TIP3   OH215659   1.202   6.353   3.412
 5232TIP3    H115660   1.178   6.416   3.343
 5232TIP3    H215661   1.297   6.357   3.415
 5233TIP3   OH215662   0.906   5.531   1.651
 5233TIP3    H115663   0.816   5.507   1.629
 5233TIP3    H215664   0.913   5.514   1.745
 5234TIP3   OH215665   4.200   6.320   4.269
 5234TIP3    H115666   4.248   6.390   4.313
 5234TIP3    H215667   4.160   6.363   4.193
 5235TIP3   OH215668   2.917   1.265   0.867
 5235TIP3    H115669   2.825   1.288   0.852
 5235TIP3    H215670   2.936   1.297   0.955
 5236TIP3   OH215671   6.046   2.361   1.278
 5236TIP3    H115672   6.051   2.288   1.340
 5236TIP3    H215673   6.134   2.366   1.240
 5237TIP3   OH215674   1.596   1.526   0.662
 5237TIP3    H115675   1.604   1.535   0.757
 5237TIP3    H215676   1.533   1.454   0.650
 5238TIP3   OH215677   1.645   0.200   2.275
 5238TIP3    H115678   1.555   0.198   2.242
 5238TIP3    H215679   1.664   0.108   2.296
 5239TIP3   OH215680   5.597   5.846   0.977
 5239TIP3    H115681   5.635   5.825   0.892
 5239TIP3    H215682   5.630   5.778   1.035
 5240TIP3   OH215683   3.869   4.042   5.038
 5240TIP3    H115684   3.782   4.069   5.067
 5240TIP3    H215685   3.927   4.069   5.110
 5241TIP3   OH215686   0.201   6.408   3.504
 5241TIP3    H115687   0.246   6.424   3.421
 5241TIP3    H215688   0.204   6.492   3.550
 5242TIP3   OH215689   3.845   6.705   5.865
 5242TIP3    H115690   3.832   6.708   5.960
 5242TIP3    H215691   3.790   6.633   5.835
 5243TIP3   OH215692   5.153   2.037   0.830
 5243TIP3    H115693   5.237   2.037   0.784
 5243TIP3    H215694   5.141   2.127   0.857
 5244TIP3   OH215695   1.956   5.634   0.913
 5244TIP3    H115696   1.998   5.718   0.899
 5244TIP3    H215697   1.934   5.632   1.006
 5245TIP3   OH215698   3.875   5.059   1.934
 5245TIP3    H115699   3.804   5.000   1.958
 5245TIP3    H215700   3.934   5.058   2.009
 5246TIP3   OH215701   6.347   5.603   1.295
 5246TIP3    H115702   6.278   5.652   1.341
 5246TIP3    H215703   6.331   5.621   1.202
 5247TIP3   OH215704   5.354   0.161   5.224
 5247TIP3    H115705   5.354   0.087   5.163
 5247TIP3    H215706   5.431   0.212   5.199
 5248TIP3   OH215707   6.159   3.786   4.908
 5248TIP3    H115708   6.185   3.717   4.968
 5248TIP3    H215709   6.229   3.788   4.842
 5249TIP3   OH215710   5.509   4.274   5.497
 5249TIP3    H115711   5.529   4.368   5.502
 5249TIP3    H215712   5.595   4.232   5.493
 5250TIP3   OH215713   1.893   0.305   5.230
 5250TIP3    H115714   1.831   0.361   5.277
 5250TIP3    H215715   1.908   0.350   5.146
 5251TIP3   OH215716   1.548   3.596   1.524
 5251TIP3    H115717   1.567   3.595   1.618
 5251TIP3    H215718   1.626   3.558   1.484
 5252TIP3   OH215719   6.602   3.368   3.664
 5252TIP3    H115720   6.606   3.373   3.759
 5252TIP3    H215721   6.533   3.306   3.645
 5253TIP3   OH215722   5.392   1.081   0.272
 5253TIP3    H115723   5.416   1.065   0.180
 5253TIP3    H215724   5.364   0.995   0.304
 5254TIP3   OH215725   2.318   6.695   3.691
 5254TIP3    H115726   2.403   6.739   3.696
 5254TIP3    H215727   2.288   6.693   3.781
 5255TIP3   OH215728   3.177   2.960   2.835
 5255TIP3    H115729   3.140   2.872   2.832
 5255TIP3    H215730   3.151   2.994   2.921
 5256TIP3   OH215731   4.054   6.085   5.110
 5256TIP3    H115732   4.001   6.067   5.187
 5256TIP3    H215733   4.037   6.177   5.090
 5257TIP3   OH215734   5.487   0.615   5.570
 5257TIP3    H115735   5.582   0.629   5.573
 5257TIP3    H215736   5.450   0.686   5.623
 5258TIP3   OH215737   2.556   4.883   3.680
 5258TIP3    H115738   2.536   4.809   3.622
 5258TIP3    H215739   2.471   4.912   3.712
 5259TIP3   OH215740   6.918   3.396   1.914
 5259TIP3    H115741   6.847   3.418   1.975
 5259TIP3    H215742   6.906   3.302   1.896
 5260TIP3   OH215743   4.456   2.648   0.324
 5260TIP3    H115744   4.536   2.658   0.376
 5260TIP3    H215745   4.387   2.686   0.379
 5261TIP3   OH215746   0.989   0.236   0.638
 5261TIP3    H115747   0.989   0.314   0.694
 5261TIP3    H215748   0.974   0.269   0.550
 5262TIP3   OH215749   3.133   4.098   1.212
 5262TIP3    H115750   3.227   4.118   1.211
 5262TIP3    H215751   3.096   4.163   1.272
 5263TIP3   OH215752   3.458   2.909   1.624
 5263TIP3    H115753   3.401   2.952   1.688
 5263TIP3    H215754   3.402   2.892   1.549
 5264TIP3   OH215755   7.091   0.838   3.156
 5264TIP3    H115756   7.148   0.889   3.214
 5264TIP3    H215757   7.137   0.837   3.072
 5265TIP3   OH215758   3.470   3.311   3.908
 5265TIP3    H115759   3.512   3.225   3.897
 5265TIP3    H215760   3.383   3.292   3.943
 5266TIP3   OH215761   5.256   0.609   0.793
 5266TIP3    H115762   5.177   0.653   0.762
 5266TIP3    H215763   5.286   0.557   0.718
 5267TIP3   OH215764   3.450   1.041   2.463
 5267TIP3    H115765   3.385   1.020   2.396
 5267TIP3    H215766   3.512   0.968   2.460
 5268TIP3   OH215767   4.920   1.478   1.245
 5268TIP3    H115768   4.971   1.549   1.205
 5268TIP3    H215769   4.978   1.443   1.313
 5269TIP3   OH215770   2.327   1.223   3.925
 5269TIP3    H115771   2.404   1.238   3.980
 5269TIP3    H215772   2.261   1.284   3.960
 5270TIP3   OH215773   3.115   1.647   5.013
 5270TIP3    H115774   3.099   1.680   4.924
 5270TIP3    H215775   3.143   1.724   5.062
 5271TIP3   OH215776   2.239   4.783   2.628
 5271TIP3    H115777   2.254   4.695   2.662
 5271TIP3    H215778   2.322   4.808   2.588
 5272TIP3   OH215779   4.657   5.259   3.074
 5272TIP3    H115780   4.644   5.350   3.098
 5272TIP3    H215781   4.729   5.229   3.130
 5273TIP3   OH215782   4.616   4.088   1.011
 5273TIP3    H115783   4.529   4.048   1.003
 5273TIP3    H215784   4.646   4.097   0.920
 5274TIP3   OH215785   6.357   5.239   1.475
 5274TIP3    H115786   6.415   5.212   1.546
 5274TIP3    H215787   6.288   5.172   1.473
 5275TIP3   OH215788   4.700   0.074   0.873
 5275TIP3    H115789   4.785   0.107   0.902
 5275TIP3    H215790   4.670   0.018   0.944
 5276TIP3   OH215791   2.516   0.346   2.030
 5276TIP3    H115792   2.540   0.437   2.011
 5276TIP3    H215793   2.598   0.298   2.029
 5277TIP3   OH215794   2.505   2.794   2.065
 5277TIP3    H115795   2.423   2.824   2.105
 5277TIP3    H215796   2.558   2.873   2.056
 5278TIP3   OH215797   4.423   2.618   0.699
 5278TIP3    H115798   4.340   2.663   0.683
 5278TIP3    H215799   4.485   2.688   0.719
 5279TIP3   OH215800   6.704   0.050   4.399
 5279TIP3    H115801   6.799   0.068   4.399
 5279TIP3    H215802   6.685   0.024   4.489
 5280TIP3   OH215803   0.261   3.432   1.738
 5280TIP3    H115804   0.242   3.392   1.823
 5280TIP3    H215805   0.198   3.392   1.678
 5281TIP3   OH215806   4.877   5.445   4.737
 5281TIP3    H115807   4.876   5.510   4.808
 5281TIP3    H215808   4.853   5.494   4.659
 5282TIP3   OH215809   1.963   3.225   3.629
 5282TIP3    H115810   2.013   3.156   3.584
 5282TIP3    H215811   2.012   3.243   3.709
 5283TIP3   OH215812   1.483   6.557   1.467
 5283TIP3    H115813   1.406   6.518   1.509
 5283TIP3    H215814   1.556   6.536   1.526
 5284TIP3   OH215815   4.100   0.071   0.289
 5284TIP3    H115816   4.175   0.102   0.339
 5284TIP3    H215817   4.041   0.033   0.354
 5285TIP3   OH215818   3.053   2.962   5.650
 5285TIP3    H115819   3.099   2.880   5.661
 5285TIP3    H215820   2.982   2.942   5.589
 5286TIP3   OH215821   0.795   6.042   2.224
 5286TIP3    H115822   0.877   6.057   2.271
 5286TIP3    H215823   0.735   6.108   2.257
 5287TIP3   OH215824   4.541   5.547   1.583
 5287TIP3    H115825   4.539   5.642   1.573
 5287TIP3    H215826   4.464   5.516   1.535
 5288TIP3   OH215827   0.608   6.110   4.246
 5288TIP3    H115828   0.586   6.190   4.198
 5288TIP3    H215829   0.591   6.132   4.338
 5289TIP3   OH215830   3.605   1.349   3.389
 5289TIP3    H115831   3.520   1.305   3.392
 5289TIP3    H215832   3.630   1.359   3.480
 5290TIP3   OH215833   0.002   1.296   2.756
 5290TIP3    H115834  -0.015   1.284   2.849
 5290TIP3    H215835   0.039   1.384   2.750
 5291TIP3   OH215836   1.160   5.487   0.202
 5291TIP3    H115837   1.156   5.501   0.297
 5291TIP3    H215838   1.230   5.546   0.172
 5292TIP3   OH215839   7.067   4.722   5.445
 5292TIP3    H115840   7.079   4.628   5.430
 5292TIP3    H215841   6.973   4.736   5.436
 5293TIP3   OH215842   1.966   4.472   4.944
 5293TIP3    H115843   1.916   4.400   4.905
 5293TIP3    H215844   1.940   4.471   5.036
 5294TIP3   OH215845   4.625   1.680   0.090
 5294TIP3    H115846   4.603   1.768   0.059
 5294TIP3    H215847   4.717   1.687   0.115
 5295TIP3   OH215848   6.982   2.526   2.446
 5295TIP3    H115849   6.979   2.468   2.370
 5295TIP3    H215850   6.963   2.469   2.521
 5296TIP3   OH215851   0.196   2.329   1.072
 5296TIP3    H115852   0.247   2.281   1.137
 5296TIP3    H215853   0.183   2.416   1.111
 5297TIP3   OH215854   0.936   4.666   2.222
 5297TIP3    H115855   0.882   4.631   2.293
 5297TIP3    H215856   1.001   4.721   2.266
 5298TIP3   OH215857   2.445   5.951   0.103
 5298TIP3    H115858   2.514   5.898   0.142
 5298TIP3    H215859   2.424   5.907   0.021
 5299TIP3   OH215860   6.663   4.417   2.736
 5299TIP3    H115861   6.735   4.364   2.770
 5299TIP3    H215862   6.595   4.410   2.803
 5300TIP3   OH215863   3.735   2.497   1.822
 5300TIP3    H115864   3.817   2.538   1.794
 5300TIP3    H215865   3.667   2.542   1.772
 5301TIP3   OH215866   2.706   5.335   5.787
 5301TIP3    H115867   2.737   5.369   5.871
 5301TIP3    H215868   2.687   5.413   5.735
 5302TIP3   OH215869   6.427   3.627   3.973
 5302TIP3    H115870   6.362   3.697   3.984
 5302TIP3    H215871   6.420   3.602   3.881
 5303TIP3   OH215872   2.968   0.030   3.169
 5303TIP3    H115873   2.915   0.109   3.184
 5303TIP3    H215874   3.019   0.050   3.090
 5304TIP3   OH215875   5.448   2.345   0.304
 5304TIP3    H115876   5.397   2.330   0.224
 5304TIP3    H215877   5.390   2.317   0.375
 5305TIP3   OH215878   4.583   1.504   4.667
 5305TIP3    H115879   4.492   1.535   4.670
 5305TIP3    H215880   4.575   1.408   4.669
 5306TIP3   OH215881   5.830   0.210   1.303
 5306TIP3    H115882   5.752   0.211   1.247
 5306TIP3    H215883   5.899   0.175   1.247
 5307TIP3   OH215884   2.837   3.744   1.949
 5307TIP3    H115885   2.841   3.839   1.935
 5307TIP3    H215886   2.747   3.720   1.925
 5308TIP3   OH215887   6.997   6.578   3.880
 5308TIP3    H115888   6.915   6.612   3.917
 5308TIP3    H215889   7.065   6.633   3.918
 5309TIP3   OH215890   2.533   2.983   3.080
 5309TIP3    H115891   2.601   2.974   3.147
 5309TIP3    H215892   2.491   3.066   3.100
 5310TIP3   OH215893   7.079   2.099   1.748
 5310TIP3    H115894   7.152   2.116   1.808
 5310TIP3    H215895   7.120   2.093   1.661
 5311TIP3   OH215896   1.237   4.684   5.764
 5311TIP3    H115897   1.267   4.631   5.691
 5311TIP3    H215898   1.288   4.765   5.758
 5312TIP3   OH215899   1.755   4.049   4.526
 5312TIP3    H115900   1.781   4.039   4.617
 5312TIP3    H215901   1.789   3.972   4.482
 5313TIP3   OH215902   0.194   2.806   5.660
 5313TIP3    H115903   0.107   2.767   5.645
 5313TIP3    H215904   0.196   2.826   5.753
 5314TIP3   OH215905   6.550   2.310   1.473
 5314TIP3    H115906   6.531   2.257   1.550
 5314TIP3    H215907   6.627   2.270   1.433
 5315TIP3   OH215908   6.640   5.286   1.136
 5315TIP3    H115909   6.589   5.205   1.142
 5315TIP3    H215910   6.590   5.349   1.188
 5316TIP3   OH215911   4.913   0.654   4.274
 5316TIP3    H115912   4.861   0.661   4.354
 5316TIP3    H215913   5.000   0.685   4.299
 5317TIP3   OH215914   2.877   6.333   5.229
 5317TIP3    H115915   2.917   6.270   5.168
 5317TIP3    H215916   2.897   6.419   5.191
 5318TIP3   OH215917   4.197   5.813   2.150
 5318TIP3    H115918   4.215   5.901   2.117
 5318TIP3    H215919   4.207   5.756   2.074
 5319TIP3   OH215920   2.647   2.129   2.725
 5319TIP3    H115921   2.710   2.172   2.667
 5319TIP3    H215922   2.691   2.125   2.810
 5320TIP3   OH215923   1.335   5.227   3.271
 5320TIP3    H115924   1.383   5.303   3.238
 5320TIP3    H215925   1.300   5.255   3.355
 5321TIP3   OH215926   3.358   5.540   1.259
 5321TIP3    H115927   3.308   5.606   1.307
 5321TIP3    H215928   3.367   5.467   1.320
 5322TIP3   OH215929   0.666   1.690   3.949
 5322TIP3    H115930   0.668   1.748   4.025
 5322TIP3    H215931   0.705   1.742   3.878
 5323TIP3   OH215932   4.275   2.482   5.344
 5323TIP3    H115933   4.348   2.519   5.295
 5323TIP3    H215934   4.233   2.422   5.284
 5324TIP3   OH215935   0.598   5.396   1.181
 5324TIP3    H115936   0.578   5.364   1.092
 5324TIP3    H215937   0.627   5.318   1.228
 5325TIP3   OH215938   0.039   6.057   4.311
 5325TIP3    H115939   0.053   5.962   4.301
 5325TIP3    H215940   0.029   6.069   4.405
 5326TIP3   OH215941   6.440   3.321   3.123
 5326TIP3    H115942   6.392   3.397   3.091
 5326TIP3    H215943   6.407   3.307   3.212
 5327TIP3   OH215944   6.531   3.159   0.076
 5327TIP3    H115945   6.608   3.126   0.123
 5327TIP3    H215946   6.560   3.243   0.039
 5328TIP3   OH215947   3.231   2.382   0.223
 5328TIP3    H115948   3.270   2.464   0.254
 5328TIP3    H215949   3.289   2.354   0.152
 5329TIP3   OH215950   0.497   0.146   1.338
 5329TIP3    H115951   0.567   0.191   1.290
 5329TIP3    H215952   0.534   0.061   1.360
 5330TIP3   OH215953   1.150   6.614   3.207
 5330TIP3    H115954   1.203   6.578   3.135
 5330TIP3    H215955   1.072   6.649   3.165
 5331TIP3   OH215956   0.226   0.094   4.050
 5331TIP3    H115957   0.181   0.067   4.130
 5331TIP3    H215958   0.155   0.120   3.991
 5332TIP3   OH215959   5.499   3.783   0.410
 5332TIP3    H115960   5.501   3.825   0.497
 5332TIP3    H215961   5.583   3.804   0.371
 5333TIP3   OH215962   0.283   2.814   1.643
 5333TIP3    H115963   0.296   2.812   1.738
 5333TIP3    H215964   0.334   2.739   1.611
 5334TIP3   OH215965   1.174   1.184   4.276
 5334TIP3    H115966   1.165   1.108   4.219
 5334TIP3    H215967   1.094   1.184   4.329
 5335TIP3   OH215968   5.706   1.240   5.111
 5335TIP3    H115969   5.725   1.147   5.125
 5335TIP3    H215970   5.635   1.259   5.172
 5336TIP3   OH215971   0.153   2.400   5.706
 5336TIP3    H115972   0.141   2.322   5.651
 5336TIP3    H215973   0.171   2.471   5.644
 5337TIP3   OH215974   1.458   3.100   5.642
 5337TIP3    H115975   1.365   3.083   5.657
 5337TIP3    H215976   1.487   3.145   5.722
 5338TIP3   OH215977   0.301   3.718   3.762
 5338TIP3    H115978   0.254   3.642   3.727
 5338TIP3    H215979   0.302   3.780   3.690
 5339TIP3   OH215980   5.065   5.135   5.870
 5339TIP3    H115981   5.040   5.105   5.783
 5339TIP3    H215982   5.100   5.223   5.856
 5340TIP3   OH215983   0.026   3.805   2.262
 5340TIP3    H115984   0.075   3.863   2.320
 5340TIP3    H215985  -0.063   3.806   2.299
 5341TIP3   OH215986   1.065   6.703   2.804
 5341TIP3    H115987   0.987   6.692   2.860
 5341TIP3    H215988   1.032   6.690   2.715
 5342TIP3   OH215989   6.253   6.266   1.666
 5342TIP3    H115990   6.273   6.201   1.734
 5342TIP3    H215991   6.181   6.317   1.703
 5343TIP3   OH215992   5.968   5.339   1.093
 5343TIP3    H115993   6.027   5.372   1.160
 5343TIP3    H215994   5.924   5.417   1.059
 5344TIP3   OH215995   1.351   0.164   2.317
 5344TIP3    H115996   1.292   0.088   2.318
 5344TIP3    H215997   1.351   0.194   2.408
 5345TIP3   OH215998   1.810   3.336   2.544
 5345TIP3    H115999   1.793   3.430   2.540
 5345TIP3    H216000   1.746   3.297   2.485
 5346TIP3   OH216001   4.601   5.840   4.078
 5346TIP3    H116002   4.542   5.892   4.023
 5346TIP3    H216003   4.650   5.786   4.015
 5347TIP3   OH216004   6.306   3.025   5.215
 5347TIP3    H116005   6.238   2.959   5.223
 5347TIP3    H216006   6.293   3.064   5.129
 5348TIP3   OH216007   0.195   0.768   5.294
 5348TIP3    H116008   0.226   0.806   5.376
 5348TIP3    H216009   0.273   0.765   5.238
 5349TIP3   OH216010   6.092   4.020   2.384
 5349TIP3    H116011   6.086   4.006   2.290
 5349TIP3    H216012   6.174   4.067   2.397
 5350TIP3   OH216013   0.825   5.233   2.719
 5350TIP3    H116014   0.897   5.275   2.671
 5350TIP3    H216015   0.862   5.150   2.749
 5351TIP3   OH216016   5.525   4.378   0.071
 5351TIP3    H116017   5.504   4.466   0.103
 5351TIP3    H216018   5.494   4.320   0.140
 5352TIP3   OH216019   4.206   0.541   1.261
 5352TIP3    H116020   4.262   0.472   1.225
 5352TIP3    H216021   4.262   0.588   1.323
 5353TIP3   OH216022   0.484   6.111   2.111
 5353TIP3    H116023   0.531   6.195   2.105
 5353TIP3    H216024   0.550   6.045   2.091
 5354TIP3   OH216025   5.743   1.301   2.177
 5354TIP3    H116026   5.740   1.280   2.083
 5354TIP3    H216027   5.810   1.370   2.184
 5355TIP3   OH216028   6.366   3.365   0.465
 5355TIP3    H116029   6.311   3.291   0.437
 5355TIP3    H216030   6.310   3.442   0.455
 5356TIP3   OH216031   2.190   0.034   3.193
 5356TIP3    H116032   2.158  -0.001   3.110
 5356TIP3    H216033   2.250   0.104   3.168
 5357TIP3   OH216034   1.008   4.708   1.182
 5357TIP3    H116035   0.935   4.653   1.153
 5357TIP3    H216036   0.971   4.796   1.186
 5358TIP3   OH216037   5.140   5.693   5.216
 5358TIP3    H116038   5.205   5.625   5.199
 5358TIP3    H216039   5.184   5.756   5.273
 5359TIP3   OH216040   2.658   1.565   2.466
 5359TIP3    H116041   2.607   1.643   2.489
 5359TIP3    H216042   2.716   1.595   2.396
 5360TIP3   OH216043   1.802   2.885   1.154
 5360TIP3    H116044   1.801   2.975   1.186
 5360TIP3    H216045   1.895   2.864   1.147
 5361TIP3   OH216046   5.089   0.544   3.301
 5361TIP3    H116047   5.019   0.488   3.269
 5361TIP3    H216048   5.122   0.498   3.379
 5362TIP3   OH216049   3.059   3.273   5.496
 5362TIP3    H116050   2.973   3.252   5.533
 5362TIP3    H216051   3.120   3.262   5.569
 5363TIP3   OH216052   0.102   4.242   1.508
 5363TIP3    H116053   0.113   4.181   1.581
 5363TIP3    H216054   0.184   4.291   1.506
 5364TIP3   OH216055   4.795   1.972   5.687
 5364TIP3    H116056   4.753   1.899   5.734
 5364TIP3    H216057   4.782   2.048   5.744
 5365TIP3   OH216058   6.951   6.067   5.529
 5365TIP3    H116059   6.933   5.988   5.478
 5365TIP3    H216060   6.883   6.068   5.596
 5366TIP3   OH216061   4.963   2.095   5.442
 5366TIP3    H116062   4.947   2.048   5.523
 5366TIP3    H216063   4.969   2.187   5.468
 5367TIP3   OH216064   1.683   4.924   3.243
 5367TIP3    H116065   1.726   5.009   3.229
 5367TIP3    H216066   1.754   4.860   3.237
 5368TIP3   OH216067   3.983   3.310   4.544
 5368TIP3    H116068   4.078   3.302   4.547
 5368TIP3    H216069   3.965   3.353   4.460
 5369TIP3   OH216070   1.131   3.410   0.372
 5369TIP3    H116071   1.066   3.341   0.365
 5369TIP3    H216072   1.115   3.449   0.458
 5370TIP3   OH216073   0.493   1.970   5.718
 5370TIP3    H116074   0.413   1.984   5.667
 5370TIP3    H216075   0.560   1.953   5.652
 5371TIP3   OH216076   1.870   0.878   5.432
 5371TIP3    H116077   1.862   0.960   5.382
 5371TIP3    H216078   1.810   0.818   5.388
 5372TIP3   OH216079   5.085   1.418   4.373
 5372TIP3    H116080   4.999   1.387   4.402
 5372TIP3    H216081   5.147   1.381   4.436
 5373TIP3   OH216082   3.905   5.042   2.411
 5373TIP3    H116083   3.973   5.029   2.345
 5373TIP3    H216084   3.946   5.013   2.493
 5374TIP3   OH216085   4.243   0.943   0.204
 5374TIP3    H116086   4.157   0.912   0.233
 5374TIP3    H216087   4.244   0.927   0.110
 5375TIP3   OH216088   1.926   1.608   3.834
 5375TIP3    H116089   2.004   1.625   3.886
 5375TIP3    H216090   1.874   1.688   3.842
 5376TIP3   OH216091   0.012   0.494   0.959
 5376TIP3    H116092   0.062   0.472   0.880
 5376TIP3    H216093   0.074   0.483   1.031
 5377TIP3   OH216094   0.256   4.447   3.494
 5377TIP3    H116095   0.328   4.501   3.527
 5377TIP3    H216096   0.195   4.442   3.568
 5378TIP3   OH216097   1.447   4.418   4.459
 5378TIP3    H116098   1.530   4.374   4.440
 5378TIP3    H216099   1.470   4.510   4.466
 5379TIP3   OH216100   6.314   0.117   0.751
 5379TIP3    H116101   6.379   0.061   0.793
 5379TIP3    H216102   6.230   0.084   0.783
 5380TIP3   OH216103   6.126   5.312   0.611
 5380TIP3    H116104   6.036   5.344   0.603
 5380TIP3    H216105   6.137   5.294   0.704
 5381TIP3   OH216106   0.034   5.666   2.683
 5381TIP3    H116107  -0.046   5.661   2.736
 5381TIP3    H216108   0.064   5.756   2.694
 5382TIP3   OH216109   5.541   6.522   4.299
 5382TIP3    H116110   5.619   6.497   4.249
 5382TIP3    H216111   5.495   6.584   4.242
 5383TIP3   OH216112   2.555   2.335   1.562
 5383TIP3    H116113   2.508   2.252   1.568
 5383TIP3    H216114   2.496   2.393   1.514
 5384TIP3   OH216115   6.510   4.516   2.525
 5384TIP3    H116116   6.565   4.480   2.594
 5384TIP3    H216117   6.550   4.486   2.443
 5385TIP3   OH216118   3.210   2.812   3.984
 5385TIP3    H116119   3.207   2.732   4.036
 5385TIP3    H216120   3.190   2.883   4.046
 5386TIP3   OH216121   1.411   5.557   3.526
 5386TIP3    H116122   1.479   5.535   3.462
 5386TIP3    H216123   1.341   5.494   3.509
 5387TIP3   OH216124   5.384   5.289   1.851
 5387TIP3    H116125   5.321   5.338   1.904
 5387TIP3    H216126   5.449   5.258   1.913
 5388TIP3   OH216127   3.508   4.477   1.364
 5388TIP3    H116128   3.603   4.471   1.359
 5388TIP3    H216129   3.489   4.571   1.360
 5389TIP3   OH216130   6.806   1.145   5.387
 5389TIP3    H116131   6.858   1.075   5.349
 5389TIP3    H216132   6.835   1.224   5.341
 5390TIP3   OH216133   4.189   6.780   3.364
 5390TIP3    H116134   4.107   6.763   3.411
 5390TIP3    H216135   4.257   6.765   3.430
 5391TIP3   OH216136   6.668   4.273   2.490
 5391TIP3    H116137   6.731   4.231   2.430
 5391TIP3    H216138   6.723   4.325   2.549
 5392TIP3   OH216139   3.774   5.103   2.750
 5392TIP3    H116140   3.758   5.166   2.820
 5392TIP3    H216141   3.870   5.093   2.749
 5393TIP3   OH216142   2.523   1.688   1.031
 5393TIP3    H116143   2.497   1.730   1.113
 5393TIP3    H216144   2.503   1.753   0.963
 5394TIP3   OH216145   3.169   0.909   2.633
 5394TIP3    H116146   3.258   0.897   2.665
 5394TIP3    H216147   3.146   0.826   2.592
 5395TIP3   OH216148   0.700   3.383   3.535
 5395TIP3    H116149   0.776   3.373   3.591
 5395TIP3    H216150   0.724   3.339   3.453
 5396TIP3   OH216151   4.053   0.159   1.356
 5396TIP3    H116152   4.032   0.068   1.335
 5396TIP3    H216153   4.033   0.167   1.449
 5397TIP3   OH216154   6.954   2.282   0.949
 5397TIP3    H116155   6.984   2.200   0.988
 5397TIP3    H216156   6.862   2.289   0.974
 5398TIP3   OH216157   2.655   2.584   1.830
 5398TIP3    H116158   2.717   2.654   1.851
 5398TIP3    H216159   2.585   2.627   1.781
 5399TIP3   OH216160   6.568   3.945   2.807
 5399TIP3    H116161   6.586   4.036   2.828
 5399TIP3    H216162   6.645   3.916   2.757
 5400TIP3   OH216163   0.380   1.986   1.296
 5400TIP3    H116164   0.431   2.042   1.355
 5400TIP3    H216165   0.441   1.963   1.226
 5401TIP3   OH216166   2.379   6.642   5.181
 5401TIP3    H116167   2.474   6.643   5.192
 5401TIP3    H216168   2.363   6.574   5.116
 5402TIP3   OH216169   0.343   0.397   1.926
 5402TIP3    H116170   0.284   0.340   1.877
 5402TIP3    H216171   0.422   0.345   1.938
 5403TIP3   OH216172   2.541   5.513   5.065
 5403TIP3    H116173   2.600   5.493   5.137
 5403TIP3    H216174   2.594   5.566   5.005
 5404TIP3   OH216175   5.511   3.648   4.574
 5404TIP3    H116176   5.558   3.606   4.646
 5404TIP3    H216177   5.580   3.674   4.513
 5405TIP3   OH216178   6.523   5.779   0.723
 5405TIP3    H116179   6.565   5.803   0.805
 5405TIP3    H216180   6.483   5.693   0.741
 5406TIP3   OH216181   0.646   4.351   2.541
 5406TIP3    H116182   0.551   4.342   2.528
 5406TIP3    H216183   0.658   4.338   2.635
 5407TIP3   OH216184   4.659   4.154   4.134
 5407TIP3    H116185   4.643   4.104   4.214
 5407TIP3    H216186   4.744   4.122   4.103
 5408TIP3   OH216187   7.015   0.172   2.891
 5408TIP3    H116188   7.007   0.185   2.986
 5408TIP3    H216189   7.061   0.089   2.881
 5409TIP3   OH216190   6.424   6.571   0.057
 5409TIP3    H116191   6.463   6.513  -0.008
 5409TIP3    H216192   6.493   6.584   0.122
 5410TIP3   OH216193   2.210   6.453   2.373
 5410TIP3    H116194   2.229   6.454   2.467
 5410TIP3    H216195   2.250   6.533   2.339
 5411TIP3   OH216196   3.132   0.893   3.234
 5411TIP3    H116197   3.060   0.947   3.267
 5411TIP3    H216198   3.096   0.804   3.234
 5412TIP3   OH216199   2.772   3.339   1.848
 5412TIP3    H116200   2.757   3.256   1.804
 5412TIP3    H216201   2.690   3.386   1.840
 5413TIP3   OH216202   2.781   5.479   4.556
 5413TIP3    H116203   2.737   5.497   4.473
 5413TIP3    H216204   2.727   5.413   4.599
 5414TIP3   OH216205   4.629   3.551   0.957
 5414TIP3    H116206   4.682   3.587   1.028
 5414TIP3    H216207   4.576   3.484   0.998
 5415TIP3   OH216208   4.628   0.944   2.452
 5415TIP3    H116209   4.592   1.019   2.404
 5415TIP3    H216210   4.559   0.918   2.512
 5416TIP3   OH216211   5.420   6.046   3.708
 5416TIP3    H116212   5.441   6.006   3.624
 5416TIP3    H216213   5.358   6.116   3.686
 5417TIP3   OH216214   5.865   6.450   5.404
 5417TIP3    H116215   5.807   6.525   5.389
 5417TIP3    H216216   5.854   6.395   5.327
 5418TIP3   OH216217   4.341   6.491   0.027
 5418TIP3    H116218   4.247   6.483   0.041
 5418TIP3    H216219   4.355   6.584   0.008
 5419TIP3   OH216220   5.056   0.131   2.679
 5419TIP3    H116221   5.001   0.207   2.658
 5419TIP3    H216222   5.025   0.062   2.620
 5420TIP3   OH216223   2.369   3.862   3.025
 5420TIP3    H116224   2.394   3.937   2.971
 5420TIP3    H216225   2.320   3.901   3.097
 5421TIP3   OH216226   6.903   1.435   4.437
 5421TIP3    H116227   6.891   1.373   4.365
 5421TIP3    H216228   6.883   1.521   4.399
 5422TIP3   OH216229   6.932   5.355   3.529
 5422TIP3    H116230   6.988   5.413   3.579
 5422TIP3    H216231   6.904   5.288   3.593
 5423TIP3   OH216232   4.197   1.068   4.502
 5423TIP3    H116233   4.102   1.063   4.493
 5423TIP3    H216234   4.219   1.155   4.466
 5424TIP3   OH216235   2.517   1.310   4.435
 5424TIP3    H116236   2.425   1.287   4.444
 5424TIP3    H216237   2.563   1.244   4.487
 5425TIP3   OH216238   4.772   6.561   2.331
 5425TIP3    H116239   4.730   6.621   2.269
 5425TIP3    H216240   4.797   6.486   2.278
 5426TIP3   OH216241   4.186   5.647   2.360
 5426TIP3    H116242   4.251   5.583   2.331
 5426TIP3    H216243   4.191   5.718   2.295
 5427TIP3   OH216244   5.516   1.589   1.964
 5427TIP3    H116245   5.558   1.658   1.911
 5427TIP3    H216246   5.505   1.629   2.050
 5428TIP3   OH216247   1.360   0.664   5.099
 5428TIP3    H116248   1.358   0.751   5.138
 5428TIP3    H216249   1.416   0.612   5.157
 5429TIP3   OH216250   6.511   1.318   5.532
 5429TIP3    H116251   6.466   1.370   5.465
 5429TIP3    H216252   6.514   1.230   5.496
 5430TIP3   OH216253   4.024   1.331   3.838
 5430TIP3    H116254   4.017   1.297   3.749
 5430TIP3    H216255   4.118   1.344   3.852
 5431TIP3   OH216256   1.393   0.012   0.388
 5431TIP3    H116257   1.359   0.075   0.452
 5431TIP3    H216258   1.325  -0.055   0.381
 5432TIP3   OH216259   3.657   2.561   3.854
 5432TIP3    H116260   3.605   2.529   3.928
 5432TIP3    H216261   3.690   2.482   3.811
 5433TIP3   OH216262   1.694   4.096   0.978
 5433TIP3    H116263   1.730   4.089   0.889
 5433TIP3    H216264   1.660   4.185   0.984
 5434TIP3   OH216265   0.350   2.215   4.820
 5434TIP3    H116266   0.379   2.242   4.733
 5434TIP3    H216267   0.410   2.145   4.845
 5435TIP3   OH216268   0.637   3.700   4.536
 5435TIP3    H116269   0.670   3.735   4.618
 5435TIP3    H216270   0.665   3.762   4.469
 5436TIP3   OH216271   3.374   2.064   1.409
 5436TIP3    H116272   3.302   2.070   1.346
 5436TIP3    H216273   3.430   1.993   1.374
 5437TIP3   OH216274   5.686   4.074   0.306
 5437TIP3    H116275   5.716   3.985   0.324
 5437TIP3    H216276   5.754   4.130   0.343
 5438TIP3   OH216277   2.971   1.867   1.053
 5438TIP3    H116278   3.029   1.927   1.101
 5438TIP3    H216279   2.993   1.780   1.087
 5439TIP3   OH216280   3.653   3.028   0.948
 5439TIP3    H116281   3.647   3.093   0.878
 5439TIP3    H216282   3.679   3.079   1.025
 5440TIP3   OH216283   5.452   1.510   3.215
 5440TIP3    H116284   5.381   1.574   3.204
 5440TIP3    H216285   5.532   1.560   3.196
 5441TIP3   OH216286   1.181   6.017   2.763
 5441TIP3    H116287   1.154   6.075   2.834
 5441TIP3    H216288   1.106   6.018   2.703
 5442TIP3   OH216289   6.670   1.725   3.216
 5442TIP3    H116290   6.670   1.787   3.290
 5442TIP3    H216291   6.593   1.671   3.230
 5443TIP3   OH216292   3.464   1.215   3.905
 5443TIP3    H116293   3.482   1.191   3.814
 5443TIP3    H216294   3.389   1.160   3.929
 5444TIP3   OH216295   0.182   4.623   1.817
 5444TIP3    H116296   0.140   4.597   1.899
 5444TIP3    H216297   0.145   4.709   1.796
 5445TIP3   OH216298   3.597   2.950   4.909
 5445TIP3    H116299   3.690   2.955   4.884
 5445TIP3    H216300   3.558   2.893   4.842
 5446TIP3   OH216301   1.779   0.707   5.225
 5446TIP3    H116302   1.821   0.683   5.142
 5446TIP3    H216303   1.736   0.790   5.206
 5447TIP3   OH216304   6.864   2.183   4.250
 5447TIP3    H116305   6.787   2.137   4.282
 5447TIP3    H216306   6.835   2.274   4.240
 5448TIP3   OH216307   0.427   5.643   0.160
 5448TIP3    H116308   0.413   5.614   0.250
 5448TIP3    H216309   0.347   5.617   0.114
 5449TIP3   OH216310   3.933   5.939   3.790
 5449TIP3    H116311   3.882   5.861   3.768
 5449TIP3    H216312   4.024   5.910   3.787
 5450TIP3   OH216313   2.095   2.589   3.896
 5450TIP3    H116314   2.039   2.585   3.819
 5450TIP3    H216315   2.144   2.507   3.895
 5451TIP3   OH216316   3.941   5.871   3.213
 5451TIP3    H116317   3.905   5.881   3.124
 5451TIP3    H216318   3.960   5.960   3.241
 5452TIP3   OH216319   1.945   1.942   5.775
 5452TIP3    H116320   2.005   1.873   5.746
 5452TIP3    H216321   1.992   1.986   5.845
 5453TIP3   OH216322   4.803   1.996   3.365
 5453TIP3    H116323   4.791   1.974   3.273
 5453TIP3    H216324   4.759   1.925   3.412
 5454TIP3   OH216325   0.840   1.406   5.627
 5454TIP3    H116326   0.782   1.340   5.589
 5454TIP3    H216327   0.789   1.487   5.625
 5455TIP3   OH216328   2.574   2.270   0.886
 5455TIP3    H116329   2.619   2.186   0.888
 5455TIP3    H216330   2.559   2.288   0.793
 5456TIP3   OH216331   4.441   5.950   3.245
 5456TIP3    H116332   4.521   5.994   3.273
 5456TIP3    H216333   4.376   5.973   3.312
 5457TIP3   OH216334   1.278   5.327   2.706
 5457TIP3    H116335   1.253   5.248   2.754
 5457TIP3    H216336   1.359   5.303   2.661
 5458TIP3   OH216337   7.185   6.707   1.643
 5458TIP3    H116338   7.188   6.802   1.655
 5458TIP3    H216339   7.241   6.691   1.567
 5459TIP3   OH216340   4.652   1.704   4.496
 5459TIP3    H116341   4.736   1.675   4.459
 5459TIP3    H216342   4.650   1.665   4.583
 5460TIP3   OH216343   1.779   2.502   3.992
 5460TIP3    H116344   1.860   2.554   3.996
 5460TIP3    H216345   1.726   2.545   3.925
 5461TIP3   OH216346   2.170   3.605   5.793
 5461TIP3    H116347   2.228   3.531   5.775
 5461TIP3    H216348   2.208   3.646   5.871
 5462TIP3   OH216349   4.335   2.355   1.505
 5462TIP3    H116350   4.411   2.410   1.524
 5462TIP3    H216351   4.263   2.417   1.492
 5463TIP3   OH216352   2.637   3.823   1.240
 5463TIP3    H116353   2.662   3.911   1.270
 5463TIP3    H216354   2.681   3.813   1.156
 5464TIP3   OH216355   5.336   6.384   0.008
 5464TIP3    H116356   5.315   6.362   0.098
 5464TIP3    H216357   5.390   6.311  -0.023
 5465TIP3   OH216358   1.044   6.134   2.341
 5465TIP3    H116359   1.100   6.211   2.353
 5465TIP3    H216360   1.033   6.100   2.430
 5466TIP3   OH216361   5.832   4.145   5.431
 5466TIP3    H116362   5.810   4.163   5.523
 5466TIP3    H216363   5.881   4.221   5.402
 5467TIP3   OH216364   2.498   0.776   0.751
 5467TIP3    H116365   2.549   0.725   0.814
 5467TIP3    H216366   2.556   0.787   0.676
 5468TIP3   OH216367   6.939   0.994   4.585
 5468TIP3    H116368   6.886   0.988   4.506
 5468TIP3    H216369   6.990   1.074   4.575
 5469TIP3   OH216370   4.822   5.852   1.856
 5469TIP3    H116371   4.786   5.768   1.827
 5469TIP3    H216372   4.869   5.885   1.779
 5470TIP3   OH216373   0.867   0.049   3.684
 5470TIP3    H116374   0.876  -0.018   3.752
 5470TIP3    H216375   0.835   0.126   3.731
 5471TIP3   OH216376   3.831   2.151   2.261
 5471TIP3    H116377   3.766   2.081   2.249
 5471TIP3    H216378   3.790   2.229   2.223
 5472TIP3   OH216379   5.909   1.970   0.496
 5472TIP3    H116380   5.906   1.914   0.419
 5472TIP3    H216381   5.818   1.975   0.525
 5473TIP3   OH216382   6.477   4.090   5.024
 5473TIP3    H116383   6.486   4.178   5.060
 5473TIP3    H216384   6.413   4.100   4.953
 5474TIP3   OH216385   3.218   0.617   3.409
 5474TIP3    H116386   3.210   0.609   3.314
 5474TIP3    H216387   3.264   0.538   3.437
 5475TIP3   OH216388   6.409   2.308   1.855
 5475TIP3    H116389   6.476   2.361   1.812
 5475TIP3    H216390   6.400   2.230   1.800
 5476TIP3   OH216391   3.933   4.574   2.361
 5476TIP3    H116392   3.939   4.613   2.448
 5476TIP3    H216393   3.968   4.485   2.373
 5477TIP3   OH216394   3.456   6.360   4.526
 5477TIP3    H116395   3.541   6.326   4.556
 5477TIP3    H216396   3.408   6.380   4.606
 5478TIP3   OH216397   6.202   6.057   5.224
 5478TIP3    H116398   6.220   6.024   5.136
 5478TIP3    H216399   6.228   6.149   5.221
 5479TIP3   OH216400   0.824   0.898   1.560
 5479TIP3    H116401   0.865   0.834   1.617
 5479TIP3    H216402   0.733   0.869   1.552
 5480TIP3   OH216403   6.511   5.407   1.324
 5480TIP3    H116404   6.464   5.342   1.376
 5480TIP3    H216405   6.447   5.476   1.309
 5481TIP3   OH216406   4.849   6.486   1.947
 5481TIP3    H116407   4.828   6.579   1.939
 5481TIP3    H216408   4.917   6.482   2.015
 5482TIP3   OH216409   6.797   4.748   5.387
 5482TIP3    H116410   6.748   4.826   5.414
 5482TIP3    H216411   6.812   4.761   5.293
 5483TIP3   OH216412   2.992   6.560   4.029
 5483TIP3    H116413   2.917   6.613   4.056
 5483TIP3    H216414   3.059   6.580   4.094
 5484TIP3   OH216415   3.312   5.803   3.783
 5484TIP3    H116416   3.295   5.791   3.877
 5484TIP3    H216417   3.262   5.881   3.760
 5485TIP3   OH216418   3.015   1.158   2.172
 5485TIP3    H116419   2.952   1.090   2.194
 5485TIP3    H216420   3.015   1.216   2.248
 5486TIP3   OH216421   0.502   0.540   2.368
 5486TIP3    H116422   0.410   0.542   2.394
 5486TIP3    H216423   0.503   0.577   2.280
 5487TIP3   OH216424   0.865   4.114   0.068
 5487TIP3    H116425   0.869   4.020   0.084
 5487TIP3    H216426   0.953   4.145   0.088
 5488TIP3   OH216427   5.390   3.634   3.002
 5488TIP3    H116428   5.368   3.705   2.942
 5488TIP3    H216429   5.401   3.557   2.947
 5489TIP3   OH216430   3.483   5.500   3.518
 5489TIP3    H116431   3.418   5.517   3.450
 5489TIP3    H216432   3.567   5.500   3.472
 5490TIP3   OH216433   5.845   4.191   0.597
 5490TIP3    H116434   5.887   4.137   0.664
 5490TIP3    H216435   5.890   4.167   0.516
 5491TIP3   OH216436   7.117   3.220   2.867
 5491TIP3    H116437   7.120   3.183   2.779
 5491TIP3    H216438   7.205   3.208   2.902
 5492TIP3   OH216439   4.771   5.893   5.210
 5492TIP3    H116440   4.762   5.811   5.258
 5492TIP3    H216441   4.708   5.952   5.251
 5493TIP3   OH216442   1.434   6.332   1.276
 5493TIP3    H116443   1.479   6.392   1.335
 5493TIP3    H216444   1.465   6.245   1.301
 5494TIP3   OH216445   7.066   2.171   3.260
 5494TIP3    H116446   7.121   2.114   3.313
 5494TIP3    H216447   6.983   2.124   3.253
 5495TIP3   OH216448   6.329   0.730   5.261
 5495TIP3    H116449   6.250   0.716   5.313
 5495TIP3    H216450   6.296   0.748   5.173
 5496TIP3   OH216451   2.997   2.033   2.069
 5496TIP3    H116452   2.947   2.070   1.997
 5496TIP3    H216453   3.069   2.095   2.082
 5497TIP3   OH216454   5.394   3.406   2.824
 5497TIP3    H116455   5.431   3.331   2.871
 5497TIP3    H216456   5.367   3.370   2.739
 5498TIP3   OH216457   3.247   6.618   3.401
 5498TIP3    H116458   3.309   6.626   3.329
 5498TIP3    H216459   3.294   6.568   3.468
 5499TIP3   OH216460   4.837   6.208   5.337
 5499TIP3    H116461   4.908   6.145   5.345
 5499TIP3    H216462   4.777   6.186   5.408
 5500TIP3   OH216463   2.349   6.052   4.842
 5500TIP3    H116464   2.332   5.965   4.876
 5500TIP3    H216465   2.391   6.037   4.757
 5501TIP3   OH216466   0.130   1.889   1.406
 5501TIP3    H116467   0.106   1.821   1.345
 5501TIP3    H216468   0.224   1.903   1.391
 5502TIP3   OH216469   4.581   3.025   5.226
 5502TIP3    H116470   4.631   3.104   5.208
 5502TIP3    H216471   4.647   2.958   5.246
 5503TIP3   OH216472   3.222   0.561   2.356
 5503TIP3    H116473   3.162   0.618   2.403
 5503TIP3    H216474   3.308   0.582   2.392
 5504TIP3   OH216475   6.304   5.062   4.010
 5504TIP3    H116476   6.334   5.116   3.937
 5504TIP3    H216477   6.240   5.116   4.056
 5505TIP3   OH216478   6.008   4.064   1.440
 5505TIP3    H116479   5.930   4.011   1.427
 5505TIP3    H216480   6.001   4.134   1.375
 5506TIP3   OH216481   7.023   3.470   5.184
 5506TIP3    H116482   7.039   3.563   5.171
 5506TIP3    H216483   6.928   3.461   5.180
 5507TIP3   OH216484   1.590   3.630   2.285
 5507TIP3    H116485   1.531   3.693   2.325
 5507TIP3    H216486   1.540   3.593   2.212
 5508TIP3   OH216487   0.350   0.168   0.674
 5508TIP3    H116488   0.442   0.142   0.664
 5508TIP3    H216489   0.305   0.126   0.600
 5509TIP3   OH216490   6.202   5.224   2.669
 5509TIP3    H116491   6.126   5.172   2.642
 5509TIP3    H216492   6.202   5.298   2.609
 5510TIP3   OH216493   2.914   5.729   0.542
 5510TIP3    H116494   2.992   5.716   0.488
 5510TIP3    H216495   2.936   5.693   0.627
 5511TIP3   OH216496   4.537   2.218   4.268
 5511TIP3    H116497   4.539   2.149   4.335
 5511TIP3    H216498   4.506   2.296   4.315
 5512TIP3   OH216499   0.127   0.145   1.940
 5512TIP3    H116500   0.204   0.145   1.883
 5512TIP3    H216501   0.069   0.211   1.903
 5513TIP3   OH216502   5.907   0.343   2.069
 5513TIP3    H116503   5.861   0.260   2.055
 5513TIP3    H216504   5.985   0.320   2.118
 5514TIP3   OH216505   6.828   1.278   2.342
 5514TIP3    H116506   6.852   1.234   2.261
 5514TIP3    H216507   6.801   1.208   2.401
 5515TIP3   OH216508   1.828   1.092   3.517
 5515TIP3    H116509   1.859   1.007   3.485
 5515TIP3    H216510   1.872   1.156   3.461
 5516TIP3   OH216511   0.456   0.937   0.097
 5516TIP3    H116512   0.460   0.885   0.017
 5516TIP3    H216513   0.547   0.951   0.122
 5517TIP3   OH216514   5.283   4.253   5.123
 5517TIP3    H116515   5.290   4.212   5.037
 5517TIP3    H216516   5.196   4.293   5.124
 5518TIP3   OH216517   0.222   0.474   1.173
 5518TIP3    H116518   0.229   0.384   1.204
 5518TIP3    H216519   0.312   0.498   1.148
 5519TIP3   OH216520   5.681   1.999   3.219
 5519TIP3    H116521   5.677   1.965   3.308
 5519TIP3    H216522   5.769   1.976   3.188
 5520TIP3   OH216523   3.067   2.951   1.683
 5520TIP3    H116524   3.065   3.047   1.681
 5520TIP3    H216525   2.986   2.925   1.640
 5521TIP3   OH216526   3.726   6.678   2.387
 5521TIP3    H116527   3.749   6.737   2.315
 5521TIP3    H216528   3.631   6.681   2.392
 5522TIP3   OH216529   5.856   6.167   5.290
 5522TIP3    H116530   5.781   6.107   5.293
 5522TIP3    H216531   5.907   6.146   5.368
 5523TIP3   OH216532   7.043   2.554   5.746
 5523TIP3    H116533   7.071   2.517   5.662
 5523TIP3    H216534   7.061   2.647   5.739
 5524TIP3   OH216535   0.498   4.486   4.316
 5524TIP3    H116536   0.535   4.538   4.245
 5524TIP3    H216537   0.572   4.435   4.349
 5525TIP3   OH216538   4.580   2.944   1.322
 5525TIP3    H116539   4.653   2.995   1.356
 5525TIP3    H216540   4.606   2.853   1.336
 5526TIP3   OH216541   6.834   3.286   4.476
 5526TIP3    H116542   6.756   3.240   4.508
 5526TIP3    H216543   6.892   3.217   4.445
 5527TIP3   OH216544   2.024   5.570   4.115
 5527TIP3    H116545   1.947   5.519   4.140
 5527TIP3    H216546   1.994   5.661   4.115
 5528TIP3   OH216547   2.346   2.261   3.429
 5528TIP3    H116548   2.277   2.322   3.403
 5528TIP3    H216549   2.361   2.207   3.352
 5529TIP3   OH216550   0.723   6.067   5.786
 5529TIP3    H116551   0.707   6.030   5.873
 5529TIP3    H216552   0.709   5.994   5.726
 5530TIP3   OH216553   2.450   3.427   3.393
 5530TIP3    H116554   2.519   3.378   3.437
 5530TIP3    H216555   2.390   3.360   3.360
 5531TIP3   OH216556   4.355   2.938   1.173
 5531TIP3    H116557   4.359   2.844   1.154
 5531TIP3    H216558   4.425   2.952   1.238
 5532TIP3   OH216559   3.580   5.277   1.926
 5532TIP3    H116560   3.572   5.261   2.020
 5532TIP3    H216561   3.667   5.317   1.916
 5533TIP3   OH216562   2.159   3.265   0.405
 5533TIP3    H116563   2.151   3.230   0.493
 5533TIP3    H216564   2.069   3.289   0.381
 5534TIP3   OH216565   4.688   5.031   1.676
 5534TIP3    H116566   4.679   5.119   1.638
 5534TIP3    H216567   4.598   4.999   1.684
 5535TIP3   OH216568   5.934   4.856   1.032
 5535TIP3    H116569   5.858   4.798   1.025
 5535TIP3    H216570   5.932   4.908   0.952
 5536TIP3   OH216571   7.196   0.987   1.793
 5536TIP3    H116572   7.206   0.964   1.700
 5536TIP3    H216573   7.224   1.078   1.798
 5537TIP3   OH216574   5.463   6.578   1.758
 5537TIP3    H116575   5.410   6.546   1.831
 5537TIP3    H216576   5.399   6.602   1.691
 5538TIP3   OH216577   4.999   5.001   5.578
 5538TIP3    H116578   4.923   4.949   5.603
 5538TIP3    H216579   4.963   5.086   5.553
 5539TIP3   OH216580   6.355   6.171   1.134
 5539TIP3    H116581   6.280   6.114   1.118
 5539TIP3    H216582   6.390   6.191   1.047
 5540TIP3   OH216583   2.963   3.792   5.423
 5540TIP3    H116584   2.940   3.702   5.398
 5540TIP3    H216585   2.880   3.839   5.423
 5541TIP3   OH216586   7.017   1.484   4.996
 5541TIP3    H116587   7.110   1.463   4.984
 5541TIP3    H216588   6.981   1.482   4.908
 5542TIP3   OH216589   2.125   0.825   1.349
 5542TIP3    H116590   2.065   0.874   1.294
 5542TIP3    H216591   2.156   0.753   1.294
 5543TIP3   OH216592   5.256   2.548   1.676
 5543TIP3    H116593   5.188   2.614   1.692
 5543TIP3    H216594   5.224   2.469   1.720
 5544TIP3   OH216595   6.722   0.544   2.738
 5544TIP3    H116596   6.728   0.611   2.807
 5544TIP3    H216597   6.769   0.468   2.774
 5545TIP3   OH216598   2.389   0.470   4.312
 5545TIP3    H116599   2.341   0.521   4.377
 5545TIP3    H216600   2.367   0.379   4.333
 5546TIP3   OH216601   4.249   3.664   3.093
 5546TIP3    H116602   4.162   3.703   3.095
 5546TIP3    H216603   4.238   3.579   3.136
 5547TIP3   OH216604   5.355   4.912   3.996
 5547TIP3    H116605   5.314   4.947   3.916
 5547TIP3    H216606   5.378   4.822   3.974
 5548TIP3   OH216607   2.507   2.248   4.453
 5548TIP3    H116608   2.523   2.163   4.494
 5548TIP3    H216609   2.506   2.230   4.359
 5549TIP3   OH216610   3.224   3.962   3.051
 5549TIP3    H116611   3.203   3.874   3.082
 5549TIP3    H216612   3.214   3.956   2.956
 5550TIP3   OH216613   5.913   5.322   3.517
 5550TIP3    H116614   5.910   5.262   3.592
 5550TIP3    H216615   5.907   5.409   3.556
 5551TIP3   OH216616   1.909   4.136   5.134
 5551TIP3    H116617   1.977   4.070   5.122
 5551TIP3    H216618   1.957   4.218   5.149
 5552TIP3   OH216619   7.108   5.773   5.079
 5552TIP3    H116620   7.138   5.843   5.137
 5552TIP3    H216621   7.099   5.814   4.993
 5553TIP3   OH216622   3.736   5.936   4.904
 5553TIP3    H116623   3.770   5.861   4.855
 5553TIP3    H216624   3.647   5.912   4.927
 5554TIP3   OH216625   4.847   0.437   1.924
 5554TIP3    H116626   4.758   0.470   1.936
 5554TIP3    H216627   4.837   0.342   1.919
 5555TIP3   OH216628   2.751   5.814   5.392
 5555TIP3    H116629   2.758   5.868   5.314
 5555TIP3    H216630   2.842   5.798   5.418
 5556TIP3   OH216631   3.896   2.814   1.317
 5556TIP3    H116632   3.983   2.854   1.325
 5556TIP3    H216633   3.877   2.819   1.223
 5557TIP3   OH216634   2.074   1.641   4.154
 5557TIP3    H116635   2.049   1.688   4.234
 5557TIP3    H216636   2.011   1.569   4.148
 5558TIP3   OH216637   4.051   5.020   2.161
 5558TIP3    H116638   4.073   4.928   2.170
 5558TIP3    H216639   4.135   5.065   2.162
 5559TIP3   OH216640   1.719   4.481   2.676
 5559TIP3    H116641   1.630   4.482   2.711
 5559TIP3    H216642   1.707   4.472   2.581
 5560TIP3   OH216643   6.236   2.704   5.364
 5560TIP3    H116644   6.320   2.700   5.319
 5560TIP3    H216645   6.211   2.612   5.376
 5561TIP3   OH216646   7.035   1.409   3.186
 5561TIP3    H116647   7.091   1.469   3.139
 5561TIP3    H216648   6.978   1.371   3.119
 5562TIP3   OH216649   2.722   4.466   1.202
 5562TIP3    H116650   2.778   4.536   1.235
 5562TIP3    H216651   2.664   4.509   1.139
 5563TIP3   OH216652   5.050   5.129   3.544
 5563TIP3    H116653   4.972   5.181   3.564
 5563TIP3    H216654   5.016   5.044   3.518
 5564TIP3   OH216655   3.414   4.324   0.937
 5564TIP3    H116656   3.486   4.384   0.957
 5564TIP3    H216657   3.445   4.238   0.967
 5565TIP3   OH216658   4.037   2.269   5.637
 5565TIP3    H116659   4.009   2.239   5.723
 5565TIP3    H216660   4.018   2.363   5.637
 5566TIP3   OH216661   6.448   4.984   4.893
 5566TIP3    H116662   6.373   4.942   4.853
 5566TIP3    H216663   6.412   5.037   4.965
 5567TIP3   OH216664   3.903   5.072   3.977
 5567TIP3    H116665   3.986   5.044   3.939
 5567TIP3    H216666   3.859   5.118   3.905
 5568TIP3   OH216667   0.441   5.705   2.365
 5568TIP3    H116668   0.467   5.724   2.455
 5568TIP3    H216669   0.362   5.757   2.351
 5569TIP3   OH216670   5.648   1.039   0.757
 5569TIP3    H116671   5.737   1.031   0.791
 5569TIP3    H216672   5.639   1.131   0.733
 5570TIP3   OH216673   2.915   4.988   2.117
 5570TIP3    H116674   2.912   5.054   2.187
 5570TIP3    H216675   2.836   4.936   2.128
 5571TIP3   OH216676   3.345   2.053   0.212
 5571TIP3    H116677   3.375   2.042   0.122
 5571TIP3    H216678   3.424   2.077   0.261
 5572TIP3   OH216679   1.588   4.911   1.427
 5572TIP3    H116680   1.495   4.932   1.426
 5572TIP3    H216681   1.624   4.962   1.354
 5573TIP3   OH216682   3.834   4.902   5.683
 5573TIP3    H116683   3.835   4.940   5.771
 5573TIP3    H216684   3.743   4.878   5.668
 5574TIP3   OH216685   0.031   1.191   3.052
 5574TIP3    H116686   0.028   1.210   3.145
 5574TIP3    H216687   0.097   1.251   3.017
 5575TIP3   OH216688   5.104   1.584   3.692
 5575TIP3    H116689   5.196   1.588   3.718
 5575TIP3    H216690   5.079   1.676   3.681
 5576TIP3   OH216691   1.727   4.077   3.752
 5576TIP3    H116692   1.733   3.987   3.721
 5576TIP3    H216693   1.794   4.082   3.821
 5577TIP3   OH216694   0.961   3.335   3.282
 5577TIP3    H116695   0.940   3.320   3.190
 5577TIP3    H216696   0.976   3.247   3.317
 5578TIP3   OH216697   3.811   5.368   3.921
 5578TIP3    H116698   3.810   5.461   3.942
 5578TIP3    H216699   3.870   5.329   3.984
 5579TIP3   OH216700   0.303   3.662   1.908
 5579TIP3    H116701   0.219   3.651   1.953
 5579TIP3    H216702   0.299   3.603   1.833
 5580TIP3   OH216703   6.417   1.936   5.763
 5580TIP3    H116704   6.443   2.017   5.806
 5580TIP3    H216705   6.395   1.962   5.674
 5581TIP3   OH216706   5.700   2.709   2.616
 5581TIP3    H116707   5.676   2.745   2.531
 5581TIP3    H216708   5.796   2.711   2.617
 5582TIP3   OH216709   6.637   4.885   3.191
 5582TIP3    H116710   6.638   4.824   3.265
 5582TIP3    H216711   6.639   4.971   3.232
 5583TIP3   OH216712   4.672   1.554   3.483
 5583TIP3    H116713   4.752   1.501   3.488
 5583TIP3    H216714   4.657   1.566   3.389
 5584TIP3   OH216715   1.879   0.151   4.349
 5584TIP3    H116716   1.806   0.157   4.287
 5584TIP3    H216717   1.925   0.071   4.323
 5585TIP3   OH216718   4.784   0.065   2.825
 5585TIP3    H116719   4.877   0.070   2.845
 5585TIP3    H216720   4.769   0.139   2.766
 5586TIP3   OH216721   2.268   5.495   4.253
 5586TIP3    H116722   2.195   5.520   4.196
 5586TIP3    H216723   2.337   5.558   4.233
 5587TIP3   OH216724   0.454   1.216   3.720
 5587TIP3    H116725   0.512   1.256   3.784
 5587TIP3    H216726   0.509   1.151   3.676
 5588TIP3   OH216727   6.772   2.931   5.060
 5588TIP3    H116728   6.835   2.922   5.131
 5588TIP3    H216729   6.765   2.843   5.023
 5589TIP3   OH216730   3.710   6.723   3.825
 5589TIP3    H116731   3.763   6.784   3.875
 5589TIP3    H216732   3.753   6.638   3.837
 5590TIP3   OH216733   0.695   0.795   1.818
 5590TIP3    H116734   0.717   0.881   1.854
 5590TIP3    H216735   0.682   0.740   1.895
 5591TIP3   OH216736   1.034   4.964   1.903
 5591TIP3    H116737   1.020   5.055   1.876
 5591TIP3    H216738   1.120   4.964   1.945
 5592TIP3   OH216739   2.510   0.039   0.723
 5592TIP3    H116740   2.451  -0.017   0.673
 5592TIP3    H216741   2.546  -0.018   0.791
 5593TIP3   OH216742   3.570   1.813   1.161
 5593TIP3    H116743   3.496   1.777   1.112
 5593TIP3    H216744   3.577   1.903   1.131
 5594TIP3   OH216745   4.764   3.253   0.402
 5594TIP3    H116746   4.706   3.300   0.463
 5594TIP3    H216747   4.747   3.161   0.420
 5595TIP3   OH216748   4.869   1.494   3.796
 5595TIP3    H116749   4.963   1.504   3.780
 5595TIP3    H216750   4.847   1.410   3.757
 5596TIP3   OH216751   6.953   3.119   3.696
 5596TIP3    H116752   6.873   3.103   3.645
 5596TIP3    H216753   7.002   3.036   3.690
 5597TIP3   OH216754   0.457   6.223   2.993
 5597TIP3    H116755   0.510   6.284   3.044
 5597TIP3    H216756   0.369   6.232   3.030
 5598TIP3   OH216757   0.245   2.507   1.946
 5598TIP3    H116758   0.200   2.510   1.862
 5598TIP3    H216759   0.231   2.594   1.984
 5599TIP3   OH216760   1.783   0.049   1.456
 5599TIP3    H116761   1.796  -0.014   1.385
 5599TIP3    H216762   1.808   0.002   1.535
 5600TIP3   OH216763   6.554   1.275   3.636
 5600TIP3    H116764   6.546   1.265   3.731
 5600TIP3    H216765   6.647   1.263   3.618
 5601TIP3   OH216766   4.030   1.754   2.943
 5601TIP3    H116767   3.976   1.719   2.873
 5601TIP3    H216768   3.969   1.802   2.999
 5602TIP3   OH216769   1.650   0.036   0.358
 5602TIP3    H116770   1.558   0.023   0.379
 5602TIP3    H216771   1.651   0.113   0.301
 5603TIP3   OH216772   3.522   5.151   5.352
 5603TIP3    H116773   3.597   5.145   5.293
 5603TIP3    H216774   3.445   5.149   5.295
 5604TIP3   OH216775   2.675   6.411   0.914
 5604TIP3    H116776   2.627   6.425   0.995
 5604TIP3    H216777   2.619   6.449   0.846
 5605TIP3   OH216778   7.023   4.111   2.116
 5605TIP3    H116779   7.092   4.076   2.060
 5605TIP3    H216780   7.064   4.119   2.202
 5606TIP3   OH216781   7.050   2.484   3.996
 5606TIP3    H116782   7.050   2.399   3.953
 5606TIP3    H216783   6.993   2.538   3.941
 5607TIP3   OH216784   0.216   4.302   5.089
 5607TIP3    H116785   0.158   4.330   5.160
 5607TIP3    H216786   0.291   4.262   5.133
 5608TIP3   OH216787   2.530   0.716   1.343
 5608TIP3    H116788   2.519   0.807   1.314
 5608TIP3    H216789   2.455   0.670   1.306
 5609TIP3   OH216790   0.163   4.631   5.188
 5609TIP3    H116791   0.187   4.615   5.096
 5609TIP3    H216792   0.245   4.621   5.236
 5610TIP3   OH216793   4.308   4.057   5.015
 5610TIP3    H116794   4.306   4.102   5.100
 5610TIP3    H216795   4.395   4.076   4.980
 5611TIP3   OH216796   0.162   2.301   3.404
 5611TIP3    H116797   0.156   2.327   3.313
 5611TIP3    H216798   0.121   2.214   3.407
 5612TIP3   OH216799   1.778   1.856   0.752
 5612TIP3    H116800   1.722   1.934   0.758
 5612TIP3    H216801   1.818   1.861   0.666
 5613TIP3   OH216802   6.168   2.831   3.262
 5613TIP3    H116803   6.173   2.917   3.222
 5613TIP3    H216804   6.259   2.804   3.274
 5614TIP3   OH216805   5.858   6.241   4.730
 5614TIP3    H116806   5.858   6.157   4.686
 5614TIP3    H216807   5.878   6.221   4.822
 5615TIP3   OH216808   1.999   1.265   1.795
 5615TIP3    H116809   1.977   1.178   1.761
 5615TIP3    H216810   1.918   1.315   1.787
 5616TIP3   OH216811   1.606   4.527   0.302
 5616TIP3    H116812   1.681   4.486   0.347
 5616TIP3    H216813   1.625   4.515   0.209
 5617TIP3   OH216814   4.992   4.233   1.682
 5617TIP3    H116815   4.915   4.284   1.710
 5617TIP3    H216816   5.058   4.252   1.748
 5618TIP3   OH216817   0.659   5.078   2.422
 5618TIP3    H116818   0.619   5.039   2.500
 5618TIP3    H216819   0.675   5.004   2.364
 5619TIP3   OH216820   0.246   0.385   2.179
 5619TIP3    H116821   0.159   0.423   2.191
 5619TIP3    H216822   0.283   0.434   2.105
 5620TIP3   OH216823   1.257   4.307   5.675
 5620TIP3    H116824   1.317   4.381   5.675
 5620TIP3    H216825   1.310   4.232   5.702
 5621TIP3   OH216826   1.927   3.447   0.338
 5621TIP3    H116827   1.935   3.420   0.246
 5621TIP3    H216828   1.930   3.542   0.335
 5622TIP3   OH216829   2.055   1.271   3.241
 5622TIP3    H116830   2.097   1.356   3.257
 5622TIP3    H216831   2.081   1.217   3.315
 5623TIP3   OH216832   3.579   0.906   4.880
 5623TIP3    H116833   3.536   0.829   4.917
 5623TIP3    H216834   3.567   0.974   4.946
 5624TIP3   OH216835   2.202   4.672   3.448
 5624TIP3    H116836   2.126   4.618   3.427
 5624TIP3    H216837   2.166   4.745   3.499
 5625TIP3   OH216838   3.917   1.868   5.818
 5625TIP3    H116839   3.873   1.933   5.763
 5625TIP3    H216840   3.994   1.914   5.851
 5626TIP3   OH216841   6.457   3.260   2.795
 5626TIP3    H116842   6.547   3.253   2.827
 5626TIP3    H216843   6.455   3.342   2.746
 5627TIP3   OH216844   6.235   2.651   0.682
 5627TIP3    H116845   6.299   2.699   0.734
 5627TIP3    H216846   6.287   2.603   0.618
 5628TIP3   OH216847   4.231   4.718   5.802
 5628TIP3    H116848   4.198   4.802   5.771
 5628TIP3    H216849   4.276   4.681   5.726
 5629TIP3   OH216850   1.332   1.392   4.875
 5629TIP3    H116851   1.361   1.475   4.914
 5629TIP3    H216852   1.366   1.325   4.934
 5630TIP3   OH216853   6.855   3.592   2.637
 5630TIP3    H116854   6.877   3.545   2.717
 5630TIP3    H216855   6.817   3.525   2.579
 5631TIP3   OH216856   2.266   6.574   1.048
 5631TIP3    H116857   2.186   6.616   1.080
 5631TIP3    H216858   2.270   6.598   0.955
 5632TIP3   OH216859   2.251   5.477   1.539
 5632TIP3    H116860   2.273   5.397   1.587
 5632TIP3    H216861   2.336   5.516   1.517
 5633TIP3   OH216862   0.872   2.223   3.625
 5633TIP3    H116863   0.823   2.286   3.678
 5633TIP3    H216864   0.811   2.197   3.556
 5634TIP3   OH216865   2.976   2.632   5.595
 5634TIP3    H116866   3.064   2.649   5.562
 5634TIP3    H216867   2.963   2.538   5.583
 5635TIP3   OH216868   6.326   6.062   4.607
 5635TIP3    H116869   6.257   6.058   4.541
 5635TIP3    H216870   6.408   6.061   4.557
 5636TIP3   OH216871   1.575   6.026   5.723
 5636TIP3    H116872   1.657   6.067   5.695
 5636TIP3    H216873   1.601   5.959   5.785
 5637TIP3   OH216874   4.377   5.292   4.525
 5637TIP3    H116875   4.452   5.304   4.583
 5637TIP3    H216876   4.416   5.280   4.438
 5638TIP3   OH216877   0.515   6.804   2.085
 5638TIP3    H116878   0.601   6.846   2.074
 5638TIP3    H216879   0.518   6.728   2.026
 5639TIP3   OH216880   4.092   3.500   1.323
 5639TIP3    H116881   4.169   3.540   1.365
 5639TIP3    H216882   4.019   3.525   1.380
 5640TIP3   OH216883   0.080   4.508   3.053
 5640TIP3    H116884   0.127   4.587   3.026
 5640TIP3    H216885   0.146   4.439   3.052
 5641TIP3   OH216886   1.800   1.439   3.216
 5641TIP3    H116887   1.718   1.419   3.170
 5641TIP3    H216888   1.856   1.363   3.198
 5642TIP3   OH216889   0.842   3.774   2.725
 5642TIP3    H116890   0.862   3.750   2.635
 5642TIP3    H216891   0.913   3.735   2.776
 5643TIP3   OH216892   3.466   5.941   0.249
 5643TIP3    H116893   3.515   5.929   0.168
 5643TIP3    H216894   3.415   6.020   0.235
 5644TIP3   OH216895   5.470   1.832   1.459
 5644TIP3    H116896   5.422   1.816   1.541
 5644TIP3    H216897   5.432   1.913   1.426
 5645TIP3   OH216898   2.788   4.536   1.700
 5645TIP3    H116899   2.868   4.581   1.726
 5645TIP3    H216900   2.744   4.515   1.782
 5646TIP3   OH216901   1.420   3.964   2.252
 5646TIP3    H116902   1.472   4.044   2.257
 5646TIP3    H216903   1.340   3.985   2.302
 5647TIP3   OH216904   2.672   4.023   4.873
 5647TIP3    H116905   2.723   4.069   4.807
 5647TIP3    H216906   2.736   3.991   4.935
 5648TIP3   OH216907   5.677   6.357   5.114
 5648TIP3    H116908   5.694   6.295   5.043
 5648TIP3    H216909   5.688   6.443   5.074
 5649TIP3   OH216910   1.596   2.270   3.936
 5649TIP3    H116911   1.656   2.336   3.970
 5649TIP3    H216912   1.644   2.227   3.866
 5650TIP3   OH216913   5.731   1.285   2.915
 5650TIP3    H116914   5.708   1.289   2.822
 5650TIP3    H216915   5.650   1.310   2.961
 5651TIP3   OH216916   3.480   3.957   2.326
 5651TIP3    H116917   3.488   3.967   2.421
 5651TIP3    H216918   3.482   3.862   2.312
 5652TIP3   OH216919   4.048   6.698   0.880
 5652TIP3    H116920   4.060   6.668   0.791
 5652TIP3    H216921   4.135   6.723   0.910
 5653TIP3   OH216922   2.446   4.332   3.573
 5653TIP3    H116923   2.540   4.316   3.577
 5653TIP3    H216924   2.434   4.393   3.501
 5654TIP3   OH216925   2.417   5.769   5.771
 5654TIP3    H116926   2.387   5.718   5.696
 5654TIP3    H216927   2.512   5.777   5.757
 5655TIP3   OH216928   5.000   6.360   2.135
 5655TIP3    H116929   4.935   6.292   2.120
 5655TIP3    H216930   5.084   6.319   2.112
 5656TIP3   OH216931   3.128   6.718   4.539
 5656TIP3    H116932   3.122   6.664   4.460
 5656TIP3    H216933   3.200   6.778   4.522
 5657TIP3   OH216934   3.282   2.144   0.916
 5657TIP3    H116935   3.274   2.239   0.918
 5657TIP3    H216936   3.203   2.115   0.870
 5658TIP3   OH216937   5.982   2.014   3.434
 5658TIP3    H116938   6.064   2.004   3.481
 5658TIP3    H216939   5.950   2.101   3.456
 5659TIP3   OH216940   4.574   3.214   0.137
 5659TIP3    H116941   4.646   3.260   0.093
 5659TIP3    H216942   4.604   3.201   0.226
 5660TIP3   OH216943   4.218   0.505   5.196
 5660TIP3    H116944   4.278   0.555   5.251
 5660TIP3    H216945   4.158   0.570   5.160
 5661TIP3   OH216946   1.949   2.381   0.467
 5661TIP3    H116947   1.862   2.342   0.457
 5661TIP3    H216948   1.942   2.434   0.547
 5662TIP3   OH216949   6.273   6.650   3.081
 5662TIP3    H116950   6.325   6.698   3.145
 5662TIP3    H216951   6.298   6.558   3.094
 5663TIP3   OH216952   6.870   6.652   2.297
 5663TIP3    H116953   6.900   6.610   2.377
 5663TIP3    H216954   6.930   6.621   2.229
 5664TIP3   OH216955   0.381   3.828   5.843
 5664TIP3    H116956   0.312   3.800   5.782
 5664TIP3    H216957   0.336   3.890   5.902
 5665TIP3   OH216958   3.625   6.173   2.025
 5665TIP3    H116959   3.551   6.158   2.083
 5665TIP3    H216960   3.622   6.267   2.006
 5666TIP3   OH216961   5.470   5.971   2.006
 5666TIP3    H116962   5.554   5.999   1.969
 5666TIP3    H216963   5.424   5.931   1.932
 5667TIP3   OH216964   3.079   3.654   4.410
 5667TIP3    H116965   3.025   3.583   4.377
 5667TIP3    H216966   3.081   3.719   4.340
 5668TIP3   OH216967   0.313   0.993   0.508
 5668TIP3    H116968   0.266   1.004   0.591
 5668TIP3    H216969   0.333   0.900   0.504
 5669TIP3   OH216970   3.038   1.531   3.021
 5669TIP3    H116971   3.000   1.468   2.959
 5669TIP3    H216972   3.016   1.617   2.984
 5670TIP3   OH216973   2.821   0.391   2.712
 5670TIP3    H116974   2.884   0.386   2.640
 5670TIP3    H216975   2.874   0.420   2.787
 5671TIP3   OH216976   3.461   4.847   0.208
 5671TIP3    H116977   3.503   4.814   0.129
 5671TIP3    H216978   3.393   4.783   0.228
 5672TIP3   OH216979   6.837   4.150   5.515
 5672TIP3    H116980   6.771   4.219   5.510
 5672TIP3    H216981   6.851   4.137   5.609
 5673TIP3   OH216982   6.559   5.147   5.250
 5673TIP3    H116983   6.552   5.241   5.234
 5673TIP3    H216984   6.567   5.108   5.163
 5674TIP3   OH216985   1.538   0.552   4.428
 5674TIP3    H116986   1.526   0.533   4.521
 5674TIP3    H216987   1.515   0.644   4.419
 5675TIP3   OH216988   1.203   1.826   3.575
 5675TIP3    H116989   1.143   1.787   3.511
 5675TIP3    H216990   1.255   1.752   3.606
 5676TIP3   OH216991   1.375   0.606   5.499
 5676TIP3    H116992   1.450   0.581   5.553
 5676TIP3    H216993   1.378   0.545   5.425
 5677TIP3   OH216994   5.308   3.953   0.866
 5677TIP3    H116995   5.267   3.897   0.799
 5677TIP3    H216996   5.275   4.041   0.847
 5678TIP3   OH216997   0.735   3.038   1.050
 5678TIP3    H116998   0.682   3.115   1.067
 5678TIP3    H216999   0.815   3.072   1.009
 5679TIP3   OH217000   2.132   0.229   2.224
 5679TIP3    H117001   2.041   0.250   2.204
 5679TIP3    H217002   2.127   0.167   2.298
 5680TIP3   OH217003   0.718   1.833   2.620
 5680TIP3    H117004   0.686   1.746   2.642
 5680TIP3    H217005   0.808   1.835   2.651
 5681TIP3   OH217006   0.136   3.758   3.022
 5681TIP3    H117007   0.052   3.775   2.980
 5681TIP3    H217008   0.124   3.790   3.112
 5682TIP3   OH217009   5.919   5.595   1.004
 5682TIP3    H117010   5.939   5.654   1.076
 5682TIP3    H217011   5.958   5.637   0.927
 5683TIP3   OH217012   7.118   4.485   3.254
 5683TIP3    H117013   7.041   4.529   3.220
 5683TIP3    H217014   7.174   4.472   3.177
 5684TIP3   OH217015   6.080   5.564   3.939
 5684TIP3    H117016   6.118   5.499   3.880
 5684TIP3    H217017   5.991   5.578   3.907
 5685TIP3   OH217018   3.503   1.477   4.814
 5685TIP3    H117019   3.464   1.447   4.896
 5685TIP3    H217020   3.555   1.403   4.783
 5686TIP3   OH217021   0.243   3.189   0.725
 5686TIP3    H117022   0.208   3.180   0.637
 5686TIP3    H217023   0.269   3.100   0.750
 5687TIP3   OH217024   5.812   4.519   0.086
 5687TIP3    H117025   5.741   4.543   0.146
 5687TIP3    H217026   5.887   4.501   0.144
 5688TIP3   OH217027   3.343   3.836   5.151
 5688TIP3    H117028   3.315   3.879   5.071
 5688TIP3    H217029   3.272   3.775   5.172
 5689TIP3   OH217030   4.441   6.619   3.279
 5689TIP3    H117031   4.443   6.630   3.374
 5689TIP3    H217032   4.351   6.637   3.254
 5690TIP3   OH217033   4.457   1.508   5.250
 5690TIP3    H117034   4.497   1.543   5.170
 5690TIP3    H217035   4.529   1.469   5.298
 5691TIP3   OH217036   0.096   4.609   0.471
 5691TIP3    H117037   0.055   4.647   0.548
 5691TIP3    H217038   0.190   4.616   0.487
 5692TIP3   OH217039   1.488   1.118   0.406
 5692TIP3    H117040   1.563   1.150   0.357
 5692TIP3    H217041   1.427   1.086   0.339
 5693TIP3   OH217042   1.646   3.644   5.388
 5693TIP3    H117043   1.627   3.654   5.481
 5693TIP3    H217044   1.586   3.705   5.345
 5694TIP3   OH217045   6.558   1.041   2.186
 5694TIP3    H117046   6.545   0.952   2.220
 5694TIP3    H217047   6.514   1.098   2.249
 5695TIP3   OH217048   7.030   0.603   0.072
 5695TIP3    H117049   6.937   0.610   0.050
 5695TIP3    H217050   7.031   0.582   0.166
 5696TIP3   OH217051   0.943   4.516   0.356
 5696TIP3    H117052   0.967   4.604   0.327
 5696TIP3    H217053   1.021   4.463   0.338
 5697TIP3   OH217054   2.166   2.838   2.664
 5697TIP3    H117055   2.134   2.751   2.689
 5697TIP3    H217056   2.253   2.843   2.703
 5698TIP3   OH217057   4.712   6.384   3.516
 5698TIP3    H117058   4.652   6.377   3.442
 5698TIP3    H217059   4.777   6.449   3.487
 5699TIP3   OH217060   0.354   5.019   1.977
 5699TIP3    H117061   0.261   5.039   1.979
 5699TIP3    H217062   0.387   5.052   2.061
 5700TIP3   OH217063   6.809   4.077   4.784
 5700TIP3    H117064   6.895   4.081   4.743
 5700TIP3    H217065   6.786   3.984   4.783
 5701TIP3   OH217066   3.445   5.004   3.890
 5701TIP3    H117067   3.369   4.967   3.844
 5701TIP3    H217068   3.511   4.936   3.887
 5702TIP3   OH217069   5.720   4.139   2.210
 5702TIP3    H117070   5.784   4.182   2.154
 5702TIP3    H217071   5.637   4.181   2.187
 5703TIP3   OH217072   7.016   0.563   4.867
 5703TIP3    H117073   6.997   0.573   4.961
 5703TIP3    H217074   7.056   0.477   4.859
 5704TIP3   OH217075   2.506   5.350   1.873
 5704TIP3    H117076   2.501   5.273   1.816
 5704TIP3    H217077   2.593   5.387   1.857
 5705TIP3   OH217078   6.045   4.912   5.127
 5705TIP3    H117079   6.035   4.823   5.095
 5705TIP3    H217080   5.958   4.951   5.120
 5706TIP3   OH217081   4.166   1.527   5.480
 5706TIP3    H117082   4.125   1.465   5.419
 5706TIP3    H217083   4.229   1.576   5.427
 5707TIP3   OH217084   5.102   3.420   1.256
 5707TIP3    H117085   5.094   3.502   1.305
 5707TIP3    H217086   5.194   3.419   1.227
 5708TIP3   OH217087   4.335   4.820   1.160
 5708TIP3    H117088   4.371   4.902   1.125
 5708TIP3    H217089   4.411   4.768   1.182
 5709TIP3   OH217090   6.470   4.839   4.495
 5709TIP3    H117091   6.551   4.889   4.483
 5709TIP3    H217092   6.407   4.904   4.527
 5710TIP3   OH217093   2.615   2.028   0.167
 5710TIP3    H117094   2.542   2.089   0.165
 5710TIP3    H217095   2.643   2.021   0.075
 5711TIP3   OH217096   1.926   1.484   2.530
 5711TIP3    H117097   1.907   1.569   2.569
 5711TIP3    H217098   1.982   1.440   2.594
 5712TIP3   OH217099   0.138   1.807   1.845
 5712TIP3    H117100   0.197   1.881   1.830
 5712TIP3    H217101   0.074   1.841   1.908
 5713TIP3   OH217102   2.725   3.504   2.885
 5713TIP3    H117103   2.701   3.596   2.890
 5713TIP3    H217104   2.820   3.503   2.898
 5714TIP3   OH217105   3.055   0.308   3.950
 5714TIP3    H117106   3.106   0.249   3.895
 5714TIP3    H217107   2.969   0.311   3.910
 5715TIP3   OH217108   1.022   0.921   5.679
 5715TIP3    H117109   1.073   0.988   5.724
 5715TIP3    H217110   1.081   0.887   5.612
 5716TIP3   OH217111   4.235   4.970   4.850
 5716TIP3    H117112   4.178   5.028   4.799
 5716TIP3    H217113   4.314   4.960   4.797
 5717TIP3   OH217114   2.513   6.451   2.685
 5717TIP3    H117115   2.532   6.420   2.773
 5717TIP3    H217116   2.505   6.371   2.633
 5718TIP3   OH217117   0.630   5.309   2.564
 5718TIP3    H117118   0.614   5.243   2.497
 5718TIP3    H217119   0.709   5.278   2.609
 5719TIP3   OH217120   1.638   6.085   4.957
 5719TIP3    H117121   1.702   6.153   4.978
 5719TIP3    H217122   1.623   6.095   4.863
 5720TIP3   OH217123   3.344   0.269   0.901
 5720TIP3    H117124   3.261   0.299   0.864
 5720TIP3    H217125   3.406   0.274   0.828
 5721TIP3   OH217126   5.127   3.143   4.424
 5721TIP3    H117127   5.070   3.074   4.459
 5721TIP3    H217128   5.093   3.160   4.336
 5722TIP3   OH217129   3.799   2.338   0.685
 5722TIP3    H117130   3.713   2.376   0.669
 5722TIP3    H217131   3.814   2.279   0.611
 5723TIP3   OH217132   3.457   5.617   2.113
 5723TIP3    H117133   3.458   5.713   2.108
 5723TIP3    H217134   3.549   5.593   2.122
 5724TIP3   OH217135   4.346   0.822   0.527
 5724TIP3    H117136   4.358   0.915   0.508
 5724TIP3    H217137   4.332   0.782   0.441
 5725TIP3   OH217138   6.191   5.598   4.660
 5725TIP3    H117139   6.258   5.584   4.593
 5725TIP3    H217140   6.120   5.539   4.636
 5726TIP3   OH217141   4.616   1.916   2.720
 5726TIP3    H117142   4.572   1.850   2.667
 5726TIP3    H217143   4.616   1.880   2.809
 5727TIP3   OH217144   2.354   1.486   4.296
 5727TIP3    H117145   2.414   1.556   4.271
 5727TIP3    H217146   2.272   1.508   4.252
 5728TIP3   OH217147   0.465   2.961   0.860
 5728TIP3    H117148   0.398   2.893   0.870
 5728TIP3    H217149   0.493   2.980   0.950
 5729TIP3   OH217150   5.450   5.853   0.296
 5729TIP3    H117151   5.434   5.918   0.364
 5729TIP3    H217152   5.366   5.808   0.285
 5730TIP3   OH217153   3.118   4.830   0.779
 5730TIP3    H117154   3.164   4.779   0.713
 5730TIP3    H217155   3.026   4.809   0.767
 5731TIP3   OH217156   6.220   6.386   2.521
 5731TIP3    H117157   6.182   6.371   2.434
 5731TIP3    H217158   6.149   6.368   2.582
 5732TIP3   OH217159   2.134   6.454   0.195
 5732TIP3    H117160   2.043   6.460   0.167
 5732TIP3    H217161   2.185   6.474   0.116
 5733TIP3   OH217162   2.707   4.974   4.834
 5733TIP3    H117163   2.720   4.957   4.740
 5733TIP3    H217164   2.692   4.887   4.871
 5734TIP3   OH217165   5.207   3.465   4.933
 5734TIP3    H117166   5.156   3.485   5.012
 5734TIP3    H217167   5.291   3.507   4.948
 5735TIP3   OH217168   2.485   6.356   5.738
 5735TIP3    H117169   2.482   6.449   5.715
 5735TIP3    H217170   2.445   6.311   5.664
 5736TIP3   OH217171   4.557   0.590   0.978
 5736TIP3    H117172   4.620   0.525   1.009
 5736TIP3    H217173   4.494   0.539   0.926
 5737TIP3   OH217174   2.098   0.343   5.881
 5737TIP3    H117175   2.144   0.412   5.832
 5737TIP3    H217176   2.015   0.333   5.834
 5738TIP3   OH217177   3.341   1.922   5.461
 5738TIP3    H117178   3.311   1.835   5.488
 5738TIP3    H217179   3.416   1.940   5.518
 5739TIP3   OH217180   1.923   2.106   3.232
 5739TIP3    H117181   1.914   2.197   3.204
 5739TIP3    H217182   1.931   2.111   3.327
 5740TIP3   OH217183   3.464   3.371   5.118
 5740TIP3    H117184   3.393   3.313   5.091
 5740TIP3    H217185   3.425   3.459   5.118
 5741TIP3   OH217186   3.357   6.036   4.447
 5741TIP3    H117187   3.335   6.127   4.427
 5741TIP3    H217188   3.311   5.985   4.380
 5742TIP3   OH217189   0.128   5.112   2.078
 5742TIP3    H117190   0.154   5.163   2.155
 5742TIP3    H217191   0.066   5.169   2.031
 5743TIP3   OH217192   6.363   0.192   3.094
 5743TIP3    H117193   6.297   0.129   3.123
 5743TIP3    H217194   6.391   0.236   3.174
 5744TIP3   OH217195   1.762   2.704   5.298
 5744TIP3    H117196   1.758   2.632   5.361
 5744TIP3    H217197   1.675   2.706   5.258
 5745TIP3   OH217198   1.457   5.406   0.310
 5745TIP3    H117199   1.534   5.456   0.340
 5745TIP3    H217200   1.422   5.457   0.237
 5746TIP3   OH217201   6.434   1.495   2.110
 5746TIP3    H117202   6.461   1.576   2.068
 5746TIP3    H217203   6.376   1.453   2.046
 5747TIP3   OH217204   2.624   6.643   1.854
 5747TIP3    H117205   2.716   6.628   1.875
 5747TIP3    H217206   2.626   6.697   1.775
 5748TIP3   OH217207   1.221   2.259   5.653
 5748TIP3    H117208   1.140   2.234   5.698
 5748TIP3    H217209   1.216   2.354   5.645
 5749TIP3   OH217210   5.258   1.051   2.414
 5749TIP3    H117211   5.292   0.975   2.367
 5749TIP3    H217212   5.235   1.114   2.346
 5750TIP3   OH217213   1.536   3.779   4.389
 5750TIP3    H117214   1.608   3.735   4.434
 5750TIP3    H217215   1.475   3.709   4.365
 5751TIP3   OH217216   0.422   5.068   0.981
 5751TIP3    H117217   0.388   5.080   1.070
 5751TIP3    H217218   0.348   5.086   0.924
 5752TIP3   OH217219   2.149   5.008   2.159
 5752TIP3    H117220   2.116   5.059   2.085
 5752TIP3    H217221   2.117   5.055   2.237
 5753TIP3   OH217222   3.589   4.015   0.698
 5753TIP3    H117223   3.598   4.052   0.786
 5753TIP3    H217224   3.495   4.008   0.685
 5754TIP3   OH217225   3.250   4.687   0.012
 5754TIP3    H117226   3.268   4.745  -0.063
 5754TIP3    H217227   3.186   4.736   0.064
 5755TIP3   OH217228   2.586   3.405   5.113
 5755TIP3    H117229   2.657   3.342   5.125
 5755TIP3    H217230   2.511   3.353   5.087
 5756TIP3   OH217231   6.250   3.744   0.063
 5756TIP3    H117232   6.214   3.670   0.014
 5756TIP3    H217233   6.296   3.796  -0.003
 5757TIP3   OH217234   3.291   0.771   5.609
 5757TIP3    H117235   3.358   0.704   5.593
 5757TIP3    H217236   3.266   0.802   5.522
 5758TIP3   OH217237   2.071   1.287   4.065
 5758TIP3    H117238   2.075   1.265   4.158
 5758TIP3    H217239   1.998   1.350   4.059
 5759TIP3   OH217240   1.134   2.389   5.265
 5759TIP3    H117241   1.192   2.320   5.297
 5759TIP3    H217242   1.192   2.461   5.242
 5760TIP3   OH217243   2.831   5.264   2.989
 5760TIP3    H117244   2.915   5.219   2.991
 5760TIP3    H217245   2.767   5.197   3.013
 5761TIP3   OH217246   6.418   6.241   5.421
 5761TIP3    H117247   6.482   6.311   5.403
 5761TIP3    H217248   6.334   6.286   5.428
 5762TIP3   OH217249   1.662   0.375   3.020
 5762TIP3    H117250   1.723   0.382   3.094
 5762TIP3    H217251   1.586   0.329   3.055
 5763TIP3   OH217252   1.680   5.216   5.411
 5763TIP3    H117253   1.620   5.260   5.351
 5763TIP3    H217254   1.767   5.239   5.379
 5764TIP3   OH217255   2.771   4.652   5.773
 5764TIP3    H117256   2.829   4.590   5.729
 5764TIP3    H217257   2.830   4.707   5.825
 5765TIP3   OH217258   7.039   4.177   5.295
 5765TIP3    H117259   6.956   4.183   5.341
 5765TIP3    H217260   7.083   4.260   5.314
 5766TIP3   OH217261   1.949   3.360   5.879
 5766TIP3    H117262   1.953   3.406   5.962
 5766TIP3    H217263   1.995   3.417   5.817
 5767TIP3   OH217264   6.869   2.928   5.349
 5767TIP3    H117265   6.876   2.915   5.443
 5767TIP3    H217266   6.779   2.958   5.335
 5768TIP3   OH217267   2.462   4.633   3.510
 5768TIP3    H117268   2.516   4.667   3.438
 5768TIP3    H217269   2.375   4.622   3.471
 5769TIP3   OH217270   5.770   5.219   5.256
 5769TIP3    H117271   5.748   5.186   5.343
 5769TIP3    H217272   5.790   5.141   5.205
 5770TIP3   OH217273   2.808  -0.004   0.202
 5770TIP3    H117274   2.854   0.080   0.205
 5770TIP3    H217275   2.739   0.005   0.269
 5771TIP3   OH217276   6.170   3.492   4.614
 5771TIP3    H117277   6.215   3.464   4.534
 5771TIP3    H217278   6.217   3.449   4.685
 5772TIP3   OH217279   2.912   5.378   3.588
 5772TIP3    H117280   2.930   5.443   3.520
 5772TIP3    H217281   2.829   5.338   3.561
 5773TIP3   OH217282   5.078   3.526   2.097
 5773TIP3    H117283   4.995   3.518   2.143
 5773TIP3    H217284   5.142   3.483   2.155
 5774TIP3   OH217285   0.355   2.117   3.176
 5774TIP3    H117286   0.373   2.192   3.233
 5774TIP3    H217287   0.283   2.145   3.121
 5775TIP3   OH217288   4.973   0.448   2.864
 5775TIP3    H117289   5.056   0.471   2.905
 5775TIP3    H217290   4.910   0.448   2.936
 5776TIP3   OH217291   0.029   5.964   5.218
 5776TIP3    H117292   0.097   5.989   5.156
 5776TIP3    H217293   0.076   5.954   5.301
 5777TIP3   OH217294   4.019   1.874   3.980
 5777TIP3    H117295   4.095   1.931   3.965
 5777TIP3    H217296   4.051   1.786   3.962
 5778TIP3   OH217297   4.528   4.856   5.879
 5778TIP3    H117298   4.545   4.762   5.883
 5778TIP3    H217299   4.503   4.872   5.788
 5779TIP3   OH217300   5.618   1.195   0.365
 5779TIP3    H117301   5.533   1.175   0.326
 5779TIP3    H217302   5.674   1.121   0.340
 5780TIP3   OH217303   4.627   4.563   0.540
 5780TIP3    H117304   4.574   4.594   0.613
 5780TIP3    H217305   4.565   4.553   0.468
 5781TIP3   OH217306   1.137   1.585   5.433
 5781TIP3    H117307   1.127   1.678   5.454
 5781TIP3    H217308   1.069   1.567   5.368
 5782TIP3   OH217309   3.316   3.061   0.769
 5782TIP3    H117310   3.323   3.156   0.767
 5782TIP3    H217311   3.402   3.029   0.740
 5783TIP3   OH217312   5.939   1.002   5.428
 5783TIP3    H117313   5.889   1.017   5.348
 5783TIP3    H217314   6.003   0.935   5.404
 5784TIP3   OH217315   1.789   3.398   3.509
 5784TIP3    H117316   1.754   3.465   3.567
 5784TIP3    H217317   1.847   3.346   3.565
 5785TIP3   OH217318   1.699   3.171   2.312
 5785TIP3    H117319   1.685   3.219   2.230
 5785TIP3    H217320   1.793   3.153   2.313
 5786TIP3   OH217321   4.004   4.776   2.605
 5786TIP3    H117322   4.063   4.818   2.542
 5786TIP3    H217323   4.028   4.814   2.690
 5787TIP3   OH217324   2.208   5.025   1.353
 5787TIP3    H117325   2.223   4.962   1.423
 5787TIP3    H217326   2.115   5.016   1.331
 5788TIP3   OH217327   1.113   3.791   5.493
 5788TIP3    H117328   1.021   3.806   5.512
 5788TIP3    H217329   1.117   3.781   5.398
 5789TIP3   OH217330   2.100   0.757   5.339
 5789TIP3    H117331   2.021   0.808   5.358
 5789TIP3    H217332   2.172   0.818   5.357
 5790TIP3   OH217333   1.878   1.420   0.190
 5790TIP3    H117334   1.894   1.420   0.096
 5790TIP3    H217335   1.792   1.461   0.199
 5791TIP3   OH217336   5.983   1.625   4.976
 5791TIP3    H117337   5.908   1.566   4.990
 5791TIP3    H217338   6.027   1.590   4.899
 5792TIP3   OH217339   0.165   1.694   4.164
 5792TIP3    H117340   0.126   1.671   4.248
 5792TIP3    H217341   0.260   1.684   4.178
 5793TIP3   OH217342   0.609   4.085   3.783
 5793TIP3    H117343   0.600   4.013   3.721
 5793TIP3    H217344   0.545   4.066   3.852
 5794TIP3   OH217345   4.609   4.036   4.377
 5794TIP3    H117346   4.693   4.071   4.405
 5794TIP3    H217347   4.614   3.942   4.397
 5795TIP3   OH217348   4.431   5.380   3.890
 5795TIP3    H117349   4.368   5.450   3.906
 5795TIP3    H217350   4.408   5.346   3.804
 5796TIP3   OH217351   2.985   0.888   5.234
 5796TIP3    H117352   3.041   0.815   5.260
 5796TIP3    H217353   3.027   0.965   5.274
 5797TIP3   OH217354   1.183   0.595   3.540
 5797TIP3    H117355   1.119   0.564   3.604
 5797TIP3    H217356   1.204   0.683   3.568
 5798TIP3   OH217357   1.068   5.953   0.422
 5798TIP3    H117358   1.158   5.976   0.443
 5798TIP3    H217359   1.016   5.996   0.490
 5799TIP3   OH217360   0.938   1.320   5.205
 5799TIP3    H117361   0.928   1.299   5.112
 5799TIP3    H217362   1.033   1.313   5.221
 5800TIP3   OH217363   1.393   5.787   2.914
 5800TIP3    H117364   1.369   5.739   2.993
 5800TIP3    H217365   1.311   5.824   2.883
 5801TIP3   OH217366   1.186   1.062   2.320
 5801TIP3    H117367   1.259   1.121   2.337
 5801TIP3    H217368   1.219   1.000   2.255
 5802TIP3   OH217369   3.045   5.081   1.271
 5802TIP3    H117370   3.126   5.101   1.224
 5802TIP3    H217371   2.994   5.162   1.266
 5803TIP3   OH217372   6.836   1.785   2.376
 5803TIP3    H117373   6.862   1.759   2.465
 5803TIP3    H217374   6.919   1.794   2.329
 5804TIP3   OH217375   2.517   5.973   4.222
 5804TIP3    H117376   2.537   5.982   4.128
 5804TIP3    H217377   2.507   6.063   4.252
 5805TIP3   OH217378   3.159   6.572   4.276
 5805TIP3    H117379   3.068   6.575   4.306
 5805TIP3    H217380   3.179   6.662   4.251
 5806TIP3   OH217381   7.133   1.118   0.715
 5806TIP3    H117382   7.157   1.104   0.806
 5806TIP3    H217383   7.038   1.106   0.713
 5807TIP3   OH217384   2.195   3.939   4.777
 5807TIP3    H117385   2.198   3.937   4.873
 5807TIP3    H217386   2.284   3.917   4.750
 5808TIP3   OH217387   7.203   5.349   2.784
 5808TIP3    H117388   7.215   5.379   2.694
 5808TIP3    H217389   7.195   5.254   2.777
 5809TIP3   OH217390   4.292   1.187   5.291
 5809TIP3    H117391   4.313   1.250   5.360
 5809TIP3    H217392   4.377   1.161   5.255
 5810TIP3   OH217393   0.664   0.177   1.736
 5810TIP3    H117394   0.683   0.106   1.675
 5810TIP3    H217395   0.632   0.248   1.680
 5811TIP3   OH217396   6.879   2.899   5.606
 5811TIP3    H117397   6.844   2.904   5.695
 5811TIP3    H217398   6.966   2.862   5.616
 5812TIP3   OH217399   6.913   1.258   5.832
 5812TIP3    H117400   6.911   1.167   5.803
 5812TIP3    H217401   6.963   1.304   5.764
 5813TIP3   OH217402   2.930   3.544   3.171
 5813TIP3    H117403   2.947   3.450   3.181
 5813TIP3    H217404   2.836   3.553   3.180
 5814TIP3   OH217405   6.152   5.120   2.214
 5814TIP3    H117406   6.204   5.128   2.134
 5814TIP3    H217407   6.132   5.027   2.221
 5815TIP3   OH217408   4.599   6.233   2.688
 5815TIP3    H117409   4.577   6.303   2.627
 5815TIP3    H217410   4.682   6.259   2.726
 5816TIP3   OH217411   3.216   0.293   2.337
 5816TIP3    H117412   3.302   0.258   2.313
 5816TIP3    H217413   3.230   0.387   2.343
 5817TIP3   OH217414   0.446   0.421   0.256
 5817TIP3    H117415   0.482   0.362   0.191
 5817TIP3    H217416   0.356   0.390   0.269
 5818TIP3   OH217417   6.871   5.723   5.364
 5818TIP3    H117418   6.876   5.813   5.330
 5818TIP3    H217419   6.901   5.669   5.291
 5819TIP3   OH217420   4.013   2.562   2.473
 5819TIP3    H117421   4.090   2.516   2.507
 5819TIP3    H217422   4.003   2.529   2.383
 5820TIP3   OH217423   6.899   4.631   0.229
 5820TIP3    H117424   6.976   4.583   0.197
 5820TIP3    H217425   6.867   4.580   0.303
 5821TIP3   OH217426   5.736   3.062   4.061
 5821TIP3    H117427   5.661   3.011   4.092
 5821TIP3    H217428   5.767   3.109   4.139
 5822TIP3   OH217429   6.329   0.717   0.797
 5822TIP3    H117430   6.330   0.682   0.886
 5822TIP3    H217431   6.417   0.754   0.784
 5823TIP3   OH217432   2.866   3.482   4.342
 5823TIP3    H117433   2.797   3.434   4.388
 5823TIP3    H217434   2.852   3.462   4.250
 5824TIP3   OH217435   6.939   1.313   5.195
 5824TIP3    H117436   6.849   1.342   5.181
 5824TIP3    H217437   6.992   1.369   5.139
 5825TIP3   OH217438   1.218   6.526   1.478
 5825TIP3    H117439   1.170   6.471   1.541
 5825TIP3    H217440   1.174   6.611   1.482
 5826TIP3   OH217441   3.217   1.447   2.110
 5826TIP3    H117442   3.209   1.367   2.060
 5826TIP3    H217443   3.191   1.517   2.050
 5827TIP3   OH217444   2.980   1.115   2.626
 5827TIP3    H117445   3.007   1.189   2.682
 5827TIP3    H217446   3.044   1.046   2.646
 5828TIP3   OH217447   1.296   3.105   3.458
 5828TIP3    H117448   1.263   3.041   3.521
 5828TIP3    H217449   1.360   3.057   3.406
 5829TIP3   OH217450   5.698   3.494   4.768
 5829TIP3    H117451   5.723   3.492   4.860
 5829TIP3    H217452   5.777   3.523   4.722
 5830TIP3   OH217453   2.610   0.921   5.207
 5830TIP3    H117454   2.531   0.879   5.172
 5830TIP3    H217455   2.604   1.012   5.176
 5831TIP3   OH217456   0.648   2.066   2.065
 5831TIP3    H117457   0.562   2.107   2.053
 5831TIP3    H217458   0.684   2.059   1.976
 5832TIP3   OH217459   0.579   4.359   3.710
 5832TIP3    H117460   0.600   4.374   3.802
 5832TIP3    H217461   0.587   4.265   3.698
 5833TIP3   OH217462   3.658   2.263   4.651
 5833TIP3    H117463   3.652   2.205   4.727
 5833TIP3    H217464   3.687   2.207   4.579
 5834TIP3   OH217465   3.396   0.331   3.961
 5834TIP3    H117466   3.489   0.327   3.983
 5834TIP3    H217467   3.388   0.408   3.905
 5835TIP3   OH217468   0.078   4.958   3.336
 5835TIP3    H117469   0.054   4.996   3.420
 5835TIP3    H217470   0.073   4.863   3.350
 5836TIP3   OH217471   2.095   2.103   1.231
 5836TIP3    H117472   2.140   2.184   1.254
 5836TIP3    H217473   2.029   2.130   1.167
 5837TIP3   OH217474   6.723   1.077   4.790
 5837TIP3    H117475   6.807   1.053   4.751
 5837TIP3    H217476   6.743   1.094   4.882
 5838TIP3   OH217477   3.502   3.958   3.133
 5838TIP3    H117478   3.517   3.996   3.219
 5838TIP3    H217479   3.407   3.952   3.125
 5839TIP3   OH217480   1.623   4.098   3.299
 5839TIP3    H117481   1.687   4.126   3.364
 5839TIP3    H217482   1.540   4.135   3.329
 5840TIP3   OH217483   5.329   3.693   0.035
 5840TIP3    H117484   5.308   3.725  -0.053
 5840TIP3    H217485   5.424   3.698   0.040
 5841TIP3   OH217486   4.373   1.881   1.971
 5841TIP3    H117487   4.285   1.918   1.973
 5841TIP3    H217488   4.428   1.952   1.937
 5842TIP3   OH217489   3.176   0.087   5.698
 5842TIP3    H117490   3.239   0.024   5.663
 5842TIP3    H217491   3.171   0.066   5.791
 5843TIP3   OH217492   5.387   1.793   4.244
 5843TIP3    H117493   5.458   1.794   4.308
 5843TIP3    H217494   5.369   1.700   4.230
 5844TIP3   OH217495   3.134   4.194   4.414
 5844TIP3    H117496   3.074   4.230   4.349
 5844TIP3    H217497   3.219   4.229   4.390
 5845TIP3   OH217498   3.944   4.586   5.607
 5845TIP3    H117499   3.911   4.538   5.683
 5845TIP3    H217500   3.898   4.670   5.609
 5846TIP3   OH217501   0.527   0.176   2.393
 5846TIP3    H117502   0.452   0.154   2.337
 5846TIP3    H217503   0.565   0.253   2.352
 5847TIP3   OH217504   3.360   6.408   0.674
 5847TIP3    H117505   3.396   6.402   0.586
 5847TIP3    H217506   3.359   6.317   0.705
 5848TIP3   OH217507   6.501   0.237   3.320
 5848TIP3    H117508   6.579   0.284   3.292
 5848TIP3    H217509   6.533   0.151   3.348
 5849TIP3   OH217510   6.077   2.856   0.806
 5849TIP3    H117511   6.144   2.787   0.806
 5849TIP3    H217512   6.104   2.915   0.736
 5850TIP3   OH217513   1.435   5.537   4.215
 5850TIP3    H117514   1.358   5.482   4.226
 5850TIP3    H217515   1.466   5.553   4.304
 5851TIP3   OH217516   3.435   3.670   0.751
 5851TIP3    H117517   3.368   3.688   0.817
 5851TIP3    H217518   3.434   3.747   0.694
 5852TIP3   OH217519   0.300   5.397   2.187
 5852TIP3    H117520   0.356   5.470   2.162
 5852TIP3    H217521   0.353   5.319   2.170
 5853TIP3   OH217522   4.100   6.568   5.837
 5853TIP3    H117523   4.010   6.600   5.841
 5853TIP3    H217524   4.138   6.592   5.921
 5854TIP3   OH217525   3.089   1.098   3.502
 5854TIP3    H117526   3.121   1.140   3.582
 5854TIP3    H217527   3.018   1.040   3.531
 5855TIP3   OH217528   3.262   0.979   2.271
 5855TIP3    H117529   3.196   1.006   2.207
 5855TIP3    H217530   3.285   0.890   2.245
 5856TIP3   OH217531   4.954   2.486   0.758
 5856TIP3    H117532   4.898   2.528   0.823
 5856TIP3    H217533   4.893   2.449   0.694
 5857TIP3   OH217534   2.325   2.764   3.386
 5857TIP3    H117535   2.412   2.789   3.415
 5857TIP3    H217536   2.327   2.775   3.291
 5858TIP3   OH217537   6.920   1.113   5.001
 5858TIP3    H117538   6.939   1.039   5.058
 5858TIP3    H217539   6.931   1.191   5.056
 5859TIP3   OH217540   0.272   4.697   4.677
 5859TIP3    H117541   0.236   4.655   4.598
 5859TIP3    H217542   0.355   4.734   4.648
 5860TIP3   OH217543   3.788   2.966   3.570
 5860TIP3    H117544   3.728   2.905   3.613
 5860TIP3    H217545   3.746   3.051   3.579
 5861TIP3   OH217546   3.992   3.216   3.702
 5861TIP3    H117547   3.936   3.154   3.749
 5861TIP3    H217548   4.079   3.202   3.738
 5862TIP3   OH217549   4.919   0.133   1.974
 5862TIP3    H117550   4.914   0.117   1.880
 5862TIP3    H217551   4.859   0.069   2.012
 5863TIP3   OH217552   6.801   4.992   2.961
 5863TIP3    H117553   6.768   4.955   3.043
 5863TIP3    H217554   6.796   5.087   2.974
 5864TIP3   OH217555   4.584   2.995   3.981
 5864TIP3    H117556   4.630   2.987   4.064
 5864TIP3    H217557   4.644   3.043   3.924
 5865TIP3   OH217558   2.005   2.746   5.734
 5865TIP3    H117559   2.050   2.681   5.679
 5865TIP3    H217560   2.067   2.765   5.804
 5866TIP3   OH217561   1.177   3.837   3.738
 5866TIP3    H117562   1.205   3.865   3.651
 5866TIP3    H217563   1.238   3.880   3.798
 5867TIP3   OH217564   1.944   6.387   1.526
 5867TIP3    H117565   2.004   6.456   1.497
 5867TIP3    H217566   1.978   6.360   1.611
 5868TIP3   OH217567   6.711   5.136   3.293
 5868TIP3    H117568   6.797   5.097   3.311
 5868TIP3    H217569   6.731   5.220   3.252
 5869TIP3   OH217570   4.690   6.371   4.941
 5869TIP3    H117571   4.738   6.388   4.860
 5869TIP3    H217572   4.641   6.291   4.924
 5870TIP3   OH217573   3.505   6.369   3.334
 5870TIP3    H117574   3.464   6.308   3.395
 5870TIP3    H217575   3.486   6.333   3.248
 5871TIP3   OH217576   0.746   4.991   1.585
 5871TIP3    H117577   0.762   5.070   1.535
 5871TIP3    H217578   0.700   4.932   1.524
 5872TIP3   OH217579   3.309   6.296   4.292
 5872TIP3    H117580   3.390   6.314   4.245
 5872TIP3    H217581   3.327   6.325   4.382
 5873TIP3   OH217582   2.429   4.136   4.919
 5873TIP3    H117583   2.522   4.114   4.919
 5873TIP3    H217584   2.386   4.059   4.957
 5874TIP3   OH217585   7.097   2.498   0.908
 5874TIP3    H117586   7.146   2.505   0.990
 5874TIP3    H217587   7.037   2.425   0.921
 5875TIP3   OH217588   3.662   3.525   0.752
 5875TIP3    H117589   3.585   3.581   0.753
 5875TIP3    H217590   3.703   3.538   0.837
 5876TIP3   OH217591   6.217   3.662   0.733
 5876TIP3    H117592   6.310   3.654   0.713
 5876TIP3    H217593   6.214   3.718   0.811
 5877TIP3   OH217594   7.086   6.243   1.166
 5877TIP3    H117595   7.171   6.206   1.191
 5877TIP3    H217596   7.049   6.180   1.105
 5878TIP3   OH217597   1.876   6.770   5.853
 5878TIP3    H117598   1.863   6.769   5.758
 5878TIP3    H217599   1.966   6.798   5.865
 5879TIP3   OH217600   0.383   1.088   3.212
 5879TIP3    H117601   0.424   1.033   3.145
 5879TIP3    H217602   0.354   1.026   3.279
 5880TIP3   OH217603   0.633   4.742   4.948
 5880TIP3    H117604   0.591   4.719   5.030
 5880TIP3    H217605   0.714   4.787   4.974
 5881TIP3   OH217606   4.034   6.185   5.447
 5881TIP3    H117607   4.038   6.111   5.507
 5881TIP3    H217608   4.053   6.261   5.501
 5882TIP3   OH217609   1.264   0.776   2.832
 5882TIP3    H117610   1.274   0.863   2.868
 5882TIP3    H217611   1.291   0.784   2.741
 5883TIP3   OH217612   2.749   4.786   3.023
 5883TIP3    H117613   2.820   4.829   3.071
 5883TIP3    H217614   2.791   4.711   2.980
 5884TIP3   OH217615   4.760   4.359   1.593
 5884TIP3    H117616   4.733   4.320   1.677
 5884TIP3    H217617   4.689   4.337   1.533
 5885TIP3   OH217618   0.444   4.237   4.042
 5885TIP3    H117619   0.388   4.227   4.119
 5885TIP3    H217620   0.413   4.170   3.981
 5886TIP3   OH217621   2.216   4.945   0.162
 5886TIP3    H117622   2.140   4.949   0.105
 5886TIP3    H217623   2.252   4.857   0.149
 5887TIP3   OH217624   0.706   3.504   5.245
 5887TIP3    H117625   0.782   3.458   5.281
 5887TIP3    H217626   0.741   3.554   5.171
 5888TIP3   OH217627   1.398   4.301   3.748
 5888TIP3    H117628   1.457   4.296   3.823
 5888TIP3    H217629   1.415   4.388   3.710
 5889TIP3   OH217630   5.682   3.123   4.762
 5889TIP3    H117631   5.616   3.188   4.738
 5889TIP3    H217632   5.704   3.143   4.853
 5890TIP3   OH217633   3.300   0.157   4.143
 5890TIP3    H117634   3.297   0.231   4.083
 5890TIP3    H217635   3.306   0.080   4.086
 5891TIP3   OH217636   5.445   0.570   3.076
 5891TIP3    H117637   5.529   0.545   3.036
 5891TIP3    H217638   5.466   0.586   3.168
 5892TIP3   OH217639   2.262   2.908   5.294
 5892TIP3    H117640   2.216   2.894   5.377
 5892TIP3    H217641   2.194   2.934   5.232
 5893TIP3   OH217642   6.301   4.551   5.348
 5893TIP3    H117643   6.374   4.502   5.310
 5893TIP3    H217644   6.325   4.562   5.440
 5894TIP3   OH217645   1.363   2.265   4.095
 5894TIP3    H117646   1.388   2.332   4.158
 5894TIP3    H217647   1.438   2.261   4.035
 5895TIP3   OH217648   1.072   5.251   1.860
 5895TIP3    H117649   1.143   5.311   1.836
 5895TIP3    H217650   1.091   5.226   1.951
 5896TIP3   OH217651   4.284   2.970   3.921
 5896TIP3    H117652   4.267   2.922   3.840
 5896TIP3    H217653   4.377   2.958   3.937
 5897TIP3   OH217654   7.118   4.159   2.373
 5897TIP3    H117655   7.073   4.241   2.394
 5897TIP3    H217656   7.117   4.110   2.456
 5898TIP3   OH217657   6.377   6.173   1.426
 5898TIP3    H117658   6.335   6.190   1.510
 5898TIP3    H217659   6.383   6.077   1.421
 5899TIP3   OH217660   1.338   6.179   4.546
 5899TIP3    H117661   1.279   6.115   4.584
 5899TIP3    H217662   1.330   6.167   4.452
 5900TIP3   OH217663   2.210   2.604   1.694
 5900TIP3    H117664   2.253   2.605   1.608
 5900TIP3    H217665   2.282   2.616   1.757
 5901TIP3   OH217666   1.316   4.409   2.386
 5901TIP3    H117667   1.410   4.416   2.401
 5901TIP3    H217668   1.300   4.455   2.304
 5902TIP3   OH217669   0.360   6.122   0.971
 5902TIP3    H117670   0.376   6.210   0.936
 5902TIP3    H217671   0.389   6.126   1.062
 5903TIP3   OH217672   4.536   3.208   2.616
 5903TIP3    H117673   4.456   3.181   2.570
 5903TIP3    H217674   4.588   3.128   2.622
 5904TIP3   OH217675   6.256   4.706   0.278
 5904TIP3    H117676   6.347   4.725   0.298
 5904TIP3    H217677   6.207   4.779   0.317
 5905TIP3   OH217678   2.650   4.137   5.618
 5905TIP3    H117679   2.621   4.178   5.536
 5905TIP3    H217680   2.570   4.128   5.670
 5906TIP3   OH217681   6.577   1.319   1.781
 5906TIP3    H117682   6.651   1.358   1.826
 5906TIP3    H217683   6.559   1.238   1.829
 5907TIP3   OH217684   2.123   1.352   1.522
 5907TIP3    H117685   2.050   1.397   1.480
 5907TIP3    H217686   2.093   1.335   1.611
 5908TIP3   OH217687   2.627   1.748   1.352
 5908TIP3    H117688   2.675   1.831   1.353
 5908TIP3    H217689   2.536   1.772   1.337
 5909TIP3   OH217690   4.180   1.585   0.867
 5909TIP3    H117691   4.125   1.509   0.844
 5909TIP3    H217692   4.231   1.554   0.942
 5910TIP3   OH217693   3.766   5.824   1.734
 5910TIP3    H117694   3.814   5.784   1.661
 5910TIP3    H217695   3.686   5.771   1.742
 5911TIP3   OH217696   4.524   5.654   1.001
 5911TIP3    H117697   4.541   5.633   0.909
 5911TIP3    H217698   4.457   5.592   1.027
 5912TIP3   OH217699   6.437   5.461   4.016
 5912TIP3    H117700   6.499   5.422   4.077
 5912TIP3    H217701   6.363   5.489   4.071
 5913TIP3   OH217702   6.511   2.852   4.103
 5913TIP3    H117703   6.499   2.767   4.147
 5913TIP3    H217704   6.586   2.891   4.149
 5914TIP3   OH217705   6.988   2.439   4.965
 5914TIP3    H117706   6.940   2.390   5.032
 5914TIP3    H217707   6.948   2.412   4.882
 5915TIP3   OH217708   2.331   5.714   3.381
 5915TIP3    H117709   2.281   5.632   3.380
 5915TIP3    H217710   2.271   5.778   3.342
 5916TIP3   OH217711   2.437   6.725   3.950
 5916TIP3    H117712   2.482   6.705   3.868
 5916TIP3    H217713   2.501   6.705   4.018
 5917TIP3   OH217714   2.361   5.201   2.727
 5917TIP3    H117715   2.395   5.136   2.789
 5917TIP3    H217716   2.270   5.174   2.712
 5918TIP3   OH217717   6.977   5.698   1.807
 5918TIP3    H117718   7.002   5.767   1.746
 5918TIP3    H217719   6.882   5.706   1.815
 5919TIP3   OH217720   0.042   4.012   1.973
 5919TIP3    H117721   0.111   4.076   1.991
 5919TIP3    H217722   0.056   3.942   2.037
 5920TIP3   OH217723   6.593   0.651   3.389
 5920TIP3    H117724   6.599   0.556   3.385
 5920TIP3    H217725   6.649   0.676   3.463
 5921TIP3   OH217726   5.747   2.534   1.510
 5921TIP3    H117727   5.661   2.504   1.481
 5921TIP3    H217728   5.729   2.614   1.560
 5922TIP3   OH217729   2.473   4.296   2.387
 5922TIP3    H117730   2.430   4.373   2.349
 5922TIP3    H217731   2.502   4.246   2.311
 5923TIP3   OH217732   5.550   5.668   3.691
 5923TIP3    H117733   5.555   5.597   3.756
 5923TIP3    H217734   5.535   5.622   3.608
 5924TIP3   OH217735   0.944   6.404   4.989
 5924TIP3    H117736   0.999   6.419   5.066
 5924TIP3    H217737   0.995   6.346   4.933
 5925TIP3   OH217738   3.631   3.551   1.553
 5925TIP3    H117739   3.564   3.595   1.500
 5925TIP3    H217740   3.598   3.557   1.643
 5926TIP3   OH217741   5.361   0.663   0.203
 5926TIP3    H117742   5.346   0.753   0.172
 5926TIP3    H217743   5.435   0.632   0.151
 5927TIP3   OH217744   2.709   1.913   0.573
 5927TIP3    H117745   2.707   1.879   0.662
 5927TIP3    H217746   2.802   1.917   0.550
 5928TIP3   OH217747   3.078   1.258   1.460
 5928TIP3    H117748   3.050   1.349   1.475
 5928TIP3    H217749   3.014   1.224   1.398
 5929TIP3   OH217750   4.476   5.571   5.450
 5929TIP3    H117751   4.408   5.538   5.392
 5929TIP3    H217752   4.438   5.647   5.492
 5930TIP3   OH217753   5.785   1.591   5.846
 5930TIP3    H117754   5.726   1.559   5.914
 5930TIP3    H217755   5.748   1.559   5.764
 5931TIP3   OH217756   5.357   5.959   1.446
 5931TIP3    H117757   5.392   5.881   1.404
 5931TIP3    H217758   5.283   5.985   1.392
 5932TIP3   OH217759   6.310   6.649   2.630
 5932TIP3    H117760   6.257   6.628   2.708
 5932TIP3    H217761   6.288   6.581   2.567
 5933TIP3   OH217762   1.889   1.748   1.195
 5933TIP3    H117763   1.940   1.670   1.214
 5933TIP3    H217764   1.910   1.770   1.104
 5934TIP3   OH217765   0.453   0.631   4.202
 5934TIP3    H117766   0.434   0.554   4.255
 5934TIP3    H217767   0.423   0.705   4.255
 5935TIP3   OH217768   4.821   0.418   3.846
 5935TIP3    H117769   4.863   0.345   3.801
 5935TIP3    H217770   4.738   0.382   3.877
 5936TIP3   OH217771   3.237   3.975   0.975
 5936TIP3    H117772   3.182   3.920   0.920
 5936TIP3    H217773   3.178   4.005   1.045
 5937TIP3   OH217774   4.456   5.004   4.676
 5937TIP3    H117775   4.541   4.961   4.690
 5937TIP3    H217776   4.437   4.990   4.583
 5938TIP3   OH217777   6.002   0.829   1.750
 5938TIP3    H117778   5.967   0.797   1.667
 5938TIP3    H217779   5.927   0.868   1.794
 5939TIP3   OH217780   3.635   1.822   2.538
 5939TIP3    H117781   3.608   1.730   2.541
 5939TIP3    H217782   3.562   1.866   2.495
 5940TIP3   OH217783   6.308   5.713   1.032
 5940TIP3    H117784   6.275   5.801   1.050
 5940TIP3    H217785   6.273   5.691   0.946
 5941TIP3   OH217786   1.071   5.597   1.424
 5941TIP3    H117787   1.026   5.568   1.504
 5941TIP3    H217788   1.118   5.676   1.450
 5942TIP3   OH217789   7.173   0.767   4.279
 5942TIP3    H117790   7.173   0.764   4.184
 5942TIP3    H217791   7.229   0.841   4.301
 5943TIP3   OH217792   0.187   4.956   0.579
 5943TIP3    H117793   0.098   4.929   0.557
 5943TIP3    H217794   0.217   5.004   0.502
 5944TIP3   OH217795   3.874   0.932   0.670
 5944TIP3    H117796   3.948   0.921   0.731
 5944TIP3    H217797   3.873   0.851   0.619
 5945TIP3   OH217798   3.249   0.150   3.799
 5945TIP3    H117799   3.300   0.139   3.718
 5945TIP3    H217800   3.301   0.212   3.851
 5946TIP3   OH217801   3.191   1.669   4.068
 5946TIP3    H117802   3.253   1.663   4.140
 5946TIP3    H217803   3.230   1.617   3.998
 5947TIP3   OH217804   2.698   6.788   2.905
 5947TIP3    H117805   2.763   6.730   2.865
 5947TIP3    H217806   2.684   6.858   2.842
 5948TIP3   OH217807   6.028   4.803   2.356
 5948TIP3    H117808   6.124   4.802   2.347
 5948TIP3    H217809   6.005   4.713   2.377
 5949TIP3   OH217810   6.879   3.479   1.326
 5949TIP3    H117811   6.812   3.465   1.259
 5949TIP3    H217812   6.870   3.405   1.386
 5950TIP3   OH217813   1.189   1.238   1.196
 5950TIP3    H117814   1.166   1.329   1.211
 5950TIP3    H217815   1.139   1.214   1.118
 5951TIP3   OH217816   4.547   4.502   4.088
 5951TIP3    H117817   4.562   4.458   4.004
 5951TIP3    H217818   4.491   4.442   4.137
 5952TIP3   OH217819   5.751   1.228   3.427
 5952TIP3    H117820   5.807   1.296   3.389
 5952TIP3    H217821   5.793   1.146   3.404
 5953TIP3   OH217822   4.945   2.894   4.215
 5953TIP3    H117823   4.962   2.986   4.199
 5953TIP3    H217824   5.012   2.848   4.165
 5954TIP3   OH217825   4.427   3.451   4.662
 5954TIP3    H117826   4.383   3.520   4.713
 5954TIP3    H217827   4.489   3.413   4.723
 5955TIP3   OH217828   4.219   2.415   5.056
 5955TIP3    H117829   4.308   2.393   5.026
 5955TIP3    H217830   4.204   2.503   5.024
 5956TIP3   OH217831   1.843   2.365   4.517
 5956TIP3    H117832   1.909   2.432   4.538
 5956TIP3    H217833   1.823   2.380   4.424
 5957TIP3   OH217834   0.540   4.612   1.272
 5957TIP3    H117835   0.463   4.639   1.223
 5957TIP3    H217836   0.517   4.527   1.310
 5958TIP3   OH217837   6.122   6.352   2.030
 5958TIP3    H117838   6.159   6.293   1.964
 5958TIP3    H217839   6.190   6.357   2.097
 5959TIP3   OH217840   0.376   2.596   1.106
 5959TIP3    H117841   0.452   2.653   1.101
 5959TIP3    H217842   0.303   2.650   1.077
 5960TIP3   OH217843   2.308   3.365   5.765
 5960TIP3    H117844   2.258   3.334   5.689
 5960TIP3    H217845   2.397   3.337   5.747
 5961TIP3   OH217846   5.111   5.783   4.911
 5961TIP3    H117847   5.021   5.794   4.879
 5961TIP3    H217848   5.119   5.847   4.982
 5962TIP3   OH217849   4.712   5.743   3.009
 5962TIP3    H117850   4.721   5.837   2.995
 5962TIP3    H217851   4.790   5.705   2.967
 5963TIP3   OH217852   3.678   2.354   1.463
 5963TIP3    H117853   3.719   2.288   1.519
 5963TIP3    H217854   3.717   2.437   1.491
 5964TIP3   OH217855   2.091   0.848   0.324
 5964TIP3    H117856   2.022   0.866   0.260
 5964TIP3    H217857   2.103   0.930   0.371
 5965TIP3   OH217858   3.698   3.034   1.239
 5965TIP3    H117859   3.779   2.994   1.272
 5965TIP3    H217860   3.719   3.126   1.225
 5966TIP3   OH217861   4.175   0.224   2.975
 5966TIP3    H117862   4.162   0.139   3.018
 5966TIP3    H217863   4.237   0.206   2.904
 5967TIP3   OH217864   5.298   4.513   0.230
 5967TIP3    H117865   5.211   4.533   0.264
 5967TIP3    H217866   5.291   4.424   0.196
 5968TIP3   OH217867   2.293   5.846   2.754
 5968TIP3    H117868   2.231   5.917   2.770
 5968TIP3    H217869   2.279   5.822   2.662
 5969TIP3   OH217870   1.548   5.942   4.430
 5969TIP3    H117871   1.589   6.026   4.412
 5969TIP3    H217872   1.621   5.884   4.453
 5970TIP3   OH217873   6.070   2.357   2.860
 5970TIP3    H117874   6.030   2.298   2.795
 5970TIP3    H217875   5.996   2.406   2.896
 5971TIP3   OH217876   1.848   1.046   4.074
 5971TIP3    H117877   1.783   0.992   4.119
 5971TIP3    H217878   1.899   1.085   4.145
 5972TIP3   OH217879   2.106   3.072   0.083
 5972TIP3    H117880   2.057   2.991   0.095
 5972TIP3    H217881   2.087   3.099  -0.007
 5973TIP3   OH217882   5.033   5.324   2.957
 5973TIP3    H117883   5.086   5.248   2.935
 5973TIP3    H217884   5.085   5.399   2.930
 5974TIP3   OH217885   7.147   5.581   3.913
 5974TIP3    H117886   7.227   5.596   3.963
 5974TIP3    H217887   7.083   5.640   3.952
 5975TIP3   OH217888   5.905   3.370   0.704
 5975TIP3    H117889   5.816   3.390   0.677
 5975TIP3    H217890   5.929   3.442   0.763
 5976TIP3   OH217891   5.479   0.353   0.934
 5976TIP3    H117892   5.439   0.435   0.905
 5976TIP3    H217893   5.410   0.287   0.923
 5977TIP3   OH217894   3.394   3.264   1.354
 5977TIP3    H117895   3.431   3.183   1.320
 5977TIP3    H217896   3.439   3.278   1.438
 5978TIP3   OH217897   6.659   1.089   2.803
 5978TIP3    H117898   6.596   1.024   2.770
 5978TIP3    H217899   6.608   1.142   2.865
 5979TIP3   OH217900   3.054   4.784   5.246
 5979TIP3    H117901   2.967   4.821   5.255
 5979TIP3    H217902   3.066   4.774   5.151
 5980TIP3   OH217903   6.700   4.282   3.432
 5980TIP3    H117904   6.669   4.354   3.488
 5980TIP3    H217905   6.778   4.317   3.389
 5981TIP3   OH217906   4.307   0.939   5.461
 5981TIP3    H117907   4.342   0.977   5.542
 5981TIP3    H217908   4.380   0.941   5.400
 5982TIP3   OH217909   6.324   5.739   5.419
 5982TIP3    H117910   6.383   5.753   5.493
 5982TIP3    H217911   6.376   5.766   5.343
 5983TIP3   OH217912   1.496   3.904   4.664
 5983TIP3    H117913   1.504   3.864   4.577
 5983TIP3    H217914   1.560   3.975   4.663
 5984TIP3   OH217915   3.229   5.589   3.641
 5984TIP3    H117916   3.317   5.592   3.605
 5984TIP3    H217917   3.239   5.618   3.732
 5985TIP3   OH217918   3.847   6.578   1.007
 5985TIP3    H117919   3.870   6.486   0.993
 5985TIP3    H217920   3.925   6.627   0.980
 5986TIP3   OH217921   6.303   5.887   4.243
 5986TIP3    H117922   6.266   5.851   4.163
 5986TIP3    H217923   6.397   5.894   4.225
 5987TIP3   OH217924   7.021   2.721   2.835
 5987TIP3    H117925   7.002   2.646   2.780
 5987TIP3    H217926   6.935   2.753   2.863
 5988TIP3   OH217927   5.724   5.239   4.944
 5988TIP3    H117928   5.664   5.198   4.882
 5988TIP3    H217929   5.769   5.165   4.985
 5989TIP3   OH217930   6.567   5.439   3.191
 5989TIP3    H117931   6.579   5.532   3.172
 5989TIP3    H217932   6.640   5.396   3.146
 5990TIP3   OH217933   4.248   4.194   3.914
 5990TIP3    H117934   4.214   4.158   3.832
 5990TIP3    H217935   4.183   4.170   3.980
 5991TIP3   OH217936   4.946   4.591   1.418
 5991TIP3    H117937   4.925   4.666   1.473
 5991TIP3    H217938   4.864   4.571   1.372
 5992TIP3   OH217939   5.441   2.293   1.514
 5992TIP3    H117940   5.497   2.258   1.444
 5992TIP3    H217941   5.470   2.248   1.593
 5993TIP3   OH217942   4.328   4.746   2.996
 5993TIP3    H117943   4.355   4.655   2.982
 5993TIP3    H217944   4.274   4.743   3.075
 5994TIP3   OH217945   2.462   5.296   5.877
 5994TIP3    H117946   2.504   5.304   5.962
 5994TIP3    H217947   2.535   5.280   5.816
 5995TIP3   OH217948   6.636   0.392   1.898
 5995TIP3    H117949   6.560   0.400   1.840
 5995TIP3    H217950   6.709   0.427   1.846
 5996TIP3   OH217951   5.609   2.066   5.375
 5996TIP3    H117952   5.553   2.009   5.428
 5996TIP3    H217953   5.641   2.008   5.305
 5997TIP3   OH217954   5.439   6.288   1.045
 5997TIP3    H117955   5.344   6.297   1.058
 5997TIP3    H217956   5.475   6.368   1.082
 5998TIP3   OH217957   1.285   2.260   1.414
 5998TIP3    H117958   1.343   2.265   1.337
 5998TIP3    H217959   1.338   2.295   1.486
 5999TIP3   OH217960   0.751   2.087   4.100
 5999TIP3    H117961   0.834   2.062   4.140
 5999TIP3    H217962   0.737   2.177   4.127
 6000TIP3   OH217963   0.934   1.611   3.627
 6000TIP3    H117964   0.907   1.546   3.692
 6000TIP3    H217965   0.913   1.695   3.668
 6001TIP3   OH217966   6.954   0.724   4.628
 6001TIP3    H117967   6.972   0.697   4.718
 6001TIP3    H217968   6.926   0.816   4.636
 6002TIP3   OH217969   6.001   5.982   0.468
 6002TIP3    H117970   5.940   5.941   0.407
 6002TIP3    H217971   6.077   5.924   0.469
 6003TIP3   OH217972   5.119   6.719   2.465
 6003TIP3    H117973   5.146   6.637   2.425
 6003TIP3    H217974   5.071   6.765   2.396
 6004TIP3   OH217975   7.114   5.808   4.583
 6004TIP3    H117976   7.066   5.771   4.509
 6004TIP3    H217977   7.146   5.733   4.632
 6005TIP3   OH217978   4.774   5.414   0.693
 6005TIP3    H117979   4.706   5.477   0.717
 6005TIP3    H217980   4.815   5.453   0.615
 6006TIP3   OH217981   3.156   5.232   0.704
 6006TIP3    H117982   3.133   5.196   0.619
 6006TIP3    H217983   3.171   5.325   0.687
 6007TIP3   OH217984   0.442   1.126   4.530
 6007TIP3    H117985   0.501   1.060   4.493
 6007TIP3    H217986   0.492   1.208   4.527
 6008TIP3   OH217987   3.456   2.802   4.728
 6008TIP3    H117988   3.421   2.714   4.742
 6008TIP3    H217989   3.484   2.803   4.637
 6009TIP3   OH217990   6.755   1.067   0.468
 6009TIP3    H117991   6.734   1.130   0.400
 6009TIP3    H217992   6.685   1.003   0.464
 6010TIP3   OH217993   5.836   6.549   3.433
 6010TIP3    H117994   5.882   6.468   3.409
 6010TIP3    H217995   5.905   6.606   3.468
 6011TIP3   OH217996   2.159   2.688   3.109
 6011TIP3    H117997   2.168   2.779   3.135
 6011TIP3    H217998   2.088   2.654   3.164
 6012TIP3   OH217999   3.225   0.019   0.764
 6012TIP3    H118000   3.287   0.077   0.807
 6012TIP3    H218001   3.172   0.077   0.708
 6013TIP3   OH218002   2.838   4.785   0.310
 6013TIP3    H118003   2.840   4.694   0.338
 6013TIP3    H218004   2.790   4.784   0.227
 6014TIP3   OH218005   5.632   4.932   2.209
 6014TIP3    H118006   5.615   4.958   2.119
 6014TIP3    H218007   5.596   4.844   2.216
 6015TIP3   OH218008   1.422   6.084   2.629
 6015TIP3    H118009   1.343   6.058   2.676
 6015TIP3    H218010   1.399   6.167   2.588
 6016TIP3   OH218011   0.416   1.933   2.923
 6016TIP3    H118012   0.438   1.956   3.013
 6016TIP3    H218013   0.484   1.975   2.870
 6017TIP3   OH218014   5.209   5.474   2.842
 6017TIP3    H118015   5.286   5.531   2.839
 6017TIP3    H218016   5.210   5.428   2.758
 6018TIP3   OH218017   1.388   6.063   3.833
 6018TIP3    H118018   1.388   5.996   3.765
 6018TIP3    H218019   1.298   6.064   3.866
 6019TIP3   OH218020   4.315   2.251   3.411
 6019TIP3    H118021   4.397   2.235   3.458
 6019TIP3    H218022   4.253   2.188   3.447
 6020TIP3   OH218023   1.071   1.083   3.782
 6020TIP3    H118024   1.148   1.088   3.839
 6020TIP3    H218025   1.093   1.139   3.707
 6021TIP3   OH218026   5.600   3.884   0.030
 6021TIP3    H118027   5.557   3.944   0.092
 6021TIP3    H218028   5.621   3.807   0.082
 6022TIP3   OH218029   5.517   6.750   2.401
 6022TIP3    H118030   5.440   6.806   2.407
 6022TIP3    H218031   5.530   6.736   2.307
 6023TIP3   OH218032   6.131   2.814   3.924
 6023TIP3    H118033   6.051   2.792   3.876
 6023TIP3    H218034   6.168   2.729   3.948
 6024TIP3   OH218035   2.903   4.963   3.165
 6024TIP3    H118036   2.979   4.920   3.203
 6024TIP3    H218037   2.894   5.045   3.214
 6025TIP3   OH218038   1.680   4.413   1.806
 6025TIP3    H118039   1.715   4.417   1.717
 6025TIP3    H218040   1.755   4.392   1.861
 6026TIP3   OH218041   5.529   4.715   1.388
 6026TIP3    H118042   5.610   4.678   1.423
 6026TIP3    H218043   5.510   4.662   1.310
 6027TIP3   OH218044   3.353   3.518   0.264
 6027TIP3    H118045   3.284   3.557   0.211
 6027TIP3    H218046   3.322   3.430   0.284
 6028TIP3   OH218047   0.825   3.872   5.251
 6028TIP3    H118048   0.837   3.963   5.224
 6028TIP3    H218049   0.780   3.878   5.335
 6029TIP3   OH218050   5.841   2.338   3.840
 6029TIP3    H118051   5.800   2.370   3.759
 6029TIP3    H218052   5.805   2.251   3.852
 6030TIP3   OH218053   0.678   3.219   0.164
 6030TIP3    H118054   0.705   3.134   0.198
 6030TIP3    H218055   0.635   3.262   0.238
 6031TIP3   OH218056   6.658   2.063   1.179
 6031TIP3    H118057   6.655   2.129   1.109
 6031TIP3    H218058   6.721   1.998   1.147
 6032TIP3   OH218059   2.393   2.707   5.769
 6032TIP3    H118060   2.432   2.636   5.718
 6032TIP3    H218061   2.334   2.663   5.831
 6033TIP3   OH218062   4.737   2.310   3.685
 6033TIP3    H118063   4.705   2.263   3.762
 6033TIP3    H218064   4.827   2.333   3.707
 6034TIP3   OH218065   1.628   5.802   1.326
 6034TIP3    H118066   1.557   5.793   1.390
 6034TIP3    H218067   1.708   5.784   1.375
 6035TIP3   OH218068   6.644   6.299   0.620
 6035TIP3    H118069   6.739   6.287   0.613
 6035TIP3    H218070   6.608   6.212   0.604
 6036TIP3   OH218071   2.963   0.559   2.900
 6036TIP3    H118072   3.054   0.591   2.901
 6036TIP3    H218073   2.916   0.624   2.848
 6037TIP3   OH218074   6.506   0.805   2.320
 6037TIP3    H118075   6.495   0.787   2.414
 6037TIP3    H218076   6.513   0.719   2.280
 6038TIP3   OH218077   3.602   3.018   0.181
 6038TIP3    H118078   3.523   3.061   0.148
 6038TIP3    H218079   3.600   2.930   0.142
 6039TIP3   OH218080   1.834   3.656   4.704
 6039TIP3    H118081   1.801   3.697   4.784
 6039TIP3    H218082   1.924   3.687   4.697
 6040TIP3   OH218083   4.568   1.399   3.863
 6040TIP3    H118084   4.529   1.452   3.933
 6040TIP3    H218085   4.644   1.449   3.834
 6041TIP3   OH218086   3.241   3.805   2.600
 6041TIP3    H118087   3.271   3.888   2.637
 6041TIP3    H218088   3.188   3.831   2.525
 6042TIP3   OH218089   0.651   3.872   0.137
 6042TIP3    H118090   0.659   3.962   0.104
 6042TIP3    H218091   0.619   3.822   0.062
 6043TIP3   OH218092   1.226   5.734   4.422
 6043TIP3    H118093   1.224   5.664   4.357
 6043TIP3    H218094   1.265   5.808   4.376
 6044TIP3   OH218095   5.568   0.623   0.054
 6044TIP3    H118096   5.640   0.661   0.004
 6044TIP3    H218097   5.579   0.529   0.045
 6045TIP3   OH218098   0.961   1.612   4.800
 6045TIP3    H118099   0.866   1.618   4.791
 6045TIP3    H218100   0.989   1.563   4.722
 6046TIP3   OH218101   2.529   2.848   0.664
 6046TIP3    H118102   2.502   2.761   0.692
 6046TIP3    H218103   2.458   2.906   0.693
 6047TIP3   OH218104   6.297   3.007   2.778
 6047TIP3    H118105   6.390   2.987   2.786
 6047TIP3    H218106   6.288   3.045   2.690
 6048TIP3   OH218107   6.081   1.516   4.753
 6048TIP3    H118108   6.045   1.429   4.736
 6048TIP3    H218109   6.131   1.538   4.674
 6049TIP3   OH218110   3.636   5.401   0.054
 6049TIP3    H118111   3.712   5.450   0.022
 6049TIP3    H218112   3.566   5.423  -0.007
 6050TIP3   OH218113   1.001   4.871   0.890
 6050TIP3    H118114   0.925   4.886   0.833
 6050TIP3    H218115   0.966   4.878   0.979
 6051TIP3   OH218116   4.519   0.926   2.050
 6051TIP3    H118117   4.585   0.892   2.111
 6051TIP3    H218118   4.436   0.919   2.097
 6052TIP3   OH218119   5.657   3.633   0.132
 6052TIP3    H118120   5.634   3.542   0.119
 6052TIP3    H218121   5.751   3.632   0.148
 6053TIP3   OH218122   2.125   4.952   4.537
 6053TIP3    H118123   2.113   4.988   4.625
 6053TIP3    H218124   2.039   4.918   4.513
 6054TIP3   OH218125   2.505   4.700   4.293
 6054TIP3    H118126   2.519   4.788   4.329
 6054TIP3    H218127   2.561   4.696   4.216
 6055TIP3   OH218128   1.246   1.078   0.273
 6055TIP3    H118129   1.207   1.017   0.335
 6055TIP3    H218130   1.177   1.144   0.259
 6056TIP3   OH218131   1.659   4.939   1.941
 6056TIP3    H118132   1.567   4.938   1.915
 6056TIP3    H218133   1.685   4.847   1.943
 6057TIP3   OH218134   5.345   2.312   3.312
 6057TIP3    H118135   5.363   2.404   3.335
 6057TIP3    H218136   5.405   2.293   3.240
 6058TIP3   OH218137   2.550   6.186   1.790
 6058TIP3    H118138   2.505   6.264   1.759
 6058TIP3    H218139   2.496   6.113   1.759
 6059TIP3   OH218140   3.470   0.191   2.245
 6059TIP3    H118141   3.541   0.154   2.297
 6059TIP3    H218142   3.489   0.163   2.156
 6060TIP3   OH218143   2.745   3.067   2.862
 6060TIP3    H118144   2.709   3.103   2.943
 6060TIP3    H218145   2.722   3.132   2.795
 6061TIP3   OH218146   1.080   1.057   5.084
 6061TIP3    H118147   0.995   1.058   5.128
 6061TIP3    H218148   1.136   1.113   5.137
 6062TIP3   OH218149   0.960   1.501   1.749
 6062TIP3    H118150   1.005   1.583   1.773
 6062TIP3    H218151   0.870   1.527   1.732
 6063TIP3   OH218152   3.855   4.105   2.476
 6063TIP3    H118153   3.879   4.123   2.385
 6063TIP3    H218154   3.850   4.009   2.481
 6064TIP3   OH218155   0.195   2.553   2.466
 6064TIP3    H118156   0.146   2.481   2.425
 6064TIP3    H218157   0.131   2.624   2.471
 6065TIP3   OH218158   4.599   2.104   2.207
 6065TIP3    H118159   4.587   2.018   2.247
 6065TIP3    H218160   4.571   2.166   2.274
 6066TIP3   OH218161   4.816   4.456   5.124
 6066TIP3    H118162   4.829   4.396   5.051
 6066TIP3    H218163   4.744   4.417   5.174
 6067TIP3   OH218164   2.145   2.659   1.990
 6067TIP3    H118165   2.141   2.566   1.967
 6067TIP3    H218166   2.223   2.666   2.046
 6068TIP3   OH218167   2.459   6.577   1.590
 6068TIP3    H118168   2.502   6.569   1.505
 6068TIP3    H218169   2.504   6.650   1.633
 6069TIP3   OH218170   4.923   2.339   1.662
 6069TIP3    H118171   4.903   2.352   1.755
 6069TIP3    H218172   5.016   2.317   1.660
 6070TIP3   OH218173   0.309   2.405   0.451
 6070TIP3    H118174   0.235   2.457   0.418
 6070TIP3    H218175   0.272   2.352   0.521
 6071TIP3   OH218176   5.704   6.497   0.653
 6071TIP3    H118177   5.693   6.565   0.587
 6071TIP3    H218178   5.627   6.506   0.709
 6072TIP3   OH218179   6.221   5.531   4.190
 6072TIP3    H118180   6.160   5.535   4.116
 6072TIP3    H218181   6.179   5.583   4.258
 6073TIP3   OH218182   2.462   4.963   2.825
 6073TIP3    H118183   2.428   4.889   2.874
 6073TIP3    H218184   2.490   4.925   2.742
 6074TIP3   OH218185   2.588   4.408   0.646
 6074TIP3    H118186   2.500   4.393   0.681
 6074TIP3    H218187   2.614   4.492   0.683
 6075TIP3   OH218188   2.528   0.272   3.697
 6075TIP3    H118189   2.604   0.330   3.705
 6075TIP3    H218190   2.453   0.331   3.704
 6076TIP3   OH218191   3.793   2.155   5.283
 6076TIP3    H118192   3.698   2.156   5.281
 6076TIP3    H218193   3.819   2.233   5.234
 6077TIP3   OH218194   7.084   6.782   4.383
 6077TIP3    H118195   7.048   6.727   4.453
 6077TIP3    H218196   7.135   6.721   4.330
 6078TIP3   OH218197   3.667   6.799   0.879
 6078TIP3    H118198   3.626   6.753   0.805
 6078TIP3    H218199   3.709   6.729   0.930
 6079TIP3   OH218200   6.014   1.236   4.457
 6079TIP3    H118201   6.032   1.240   4.363
 6079TIP3    H218202   6.099   1.222   4.498
 6080TIP3   OH218203   4.525   2.982   2.370
 6080TIP3    H118204   4.540   2.951   2.460
 6080TIP3    H218205   4.453   3.044   2.378
 6081TIP3   OH218206   2.083   0.380   0.478
 6081TIP3    H118207   2.018   0.369   0.547
 6081TIP3    H218208   2.166   0.387   0.524
 6082TIP3   OH218209   4.063   3.902   1.494
 6082TIP3    H118210   4.150   3.865   1.478
 6082TIP3    H218211   4.016   3.890   1.412
 6083TIP3   OH218212   5.310   6.581   2.720
 6083TIP3    H118213   5.333   6.620   2.804
 6083TIP3    H218214   5.388   6.590   2.666
 6084TIP3   OH218215   2.854   3.458   3.625
 6084TIP3    H118216   2.924   3.498   3.573
 6084TIP3    H218217   2.898   3.421   3.701
 6085TIP3   OH218218   6.468   3.214   0.966
 6085TIP3    H118219   6.502   3.264   0.892
 6085TIP3    H218220   6.436   3.132   0.928
 6086TIP3   OH218221   5.662   5.335   1.547
 6086TIP3    H118222   5.652   5.242   1.568
 6086TIP3    H218223   5.589   5.378   1.593
 6087TIP3   OH218224   2.658   0.842   0.278
 6087TIP3    H118225   2.586   0.847   0.215
 6087TIP3    H218226   2.736   0.830   0.224
 6088TIP3   OH218227   5.984   5.015   3.191
 6088TIP3    H118228   6.002   5.100   3.232
 6088TIP3    H218229   5.896   4.993   3.221
 6089TIP3   OH218230   3.912   0.033   2.153
 6089TIP3    H118231   3.950   0.104   2.205
 6089TIP3    H218232   3.879   0.077   2.074
 6090TIP3   OH218233   3.117   0.443   5.326
 6090TIP3    H118234   3.124   0.389   5.405
 6090TIP3    H218235   3.066   0.390   5.265
 6091TIP3   OH218236   2.679   5.678   4.056
 6091TIP3    H118237   2.748   5.741   4.036
 6091TIP3    H218238   2.607   5.700   3.997
 6092TIP3   OH218239   6.704   2.622   1.516
 6092TIP3    H118240   6.708   2.571   1.435
 6092TIP3    H218241   6.793   2.653   1.529
 6093TIP3   OH218242   7.087   1.658   4.652
 6093TIP3    H118243   7.061   1.720   4.583
 6093TIP3    H218244   7.007   1.641   4.700
 6094TIP3   OH218245   2.524   0.638   3.843
 6094TIP3    H118246   2.575   0.558   3.840
 6094TIP3    H218247   2.542   0.675   3.929
 6095TIP3   OH218248   5.841   2.502   0.333
 6095TIP3    H118249   5.936   2.503   0.346
 6095TIP3    H218250   5.830   2.520   0.239
 6096TIP3   OH218251   0.916   3.993   1.853
 6096TIP3    H118252   0.980   3.977   1.784
 6096TIP3    H218253   0.831   3.991   1.808
 6097TIP3   OH218254   0.477   3.857   2.758
 6097TIP3    H118255   0.401   3.913   2.744
 6097TIP3    H218256   0.446   3.768   2.736
 6098TIP3   OH218257   7.209   1.378   2.080
 6098TIP3    H118258   7.234   1.296   2.122
 6098TIP3    H218259   7.156   1.423   2.145
 6099TIP3   OH218260   0.684   3.967   2.869
 6099TIP3    H118261   0.612   3.935   2.815
 6099TIP3    H218262   0.751   3.899   2.863
 6100TIP3   OH218263   7.180   1.705   2.216
 6100TIP3    H118264   7.269   1.701   2.182
 6100TIP3    H218265   7.186   1.663   2.302
 6101TIP3   OH218266   1.389   6.604   3.012
 6101TIP3    H118267   1.384   6.545   2.937
 6101TIP3    H218268   1.442   6.678   2.980
 6102TIP3   OH218269   4.035   5.965   5.634
 6102TIP3    H118270   4.028   5.902   5.563
 6102TIP3    H218271   4.024   5.913   5.714
 6103TIP3   OH218272   3.614   5.976   4.535
 6103TIP3    H118273   3.530   5.995   4.492
 6103TIP3    H218274   3.599   5.894   4.582
 6104TIP3   OH218275   4.175   0.985   2.926
 6104TIP3    H118276   4.097   1.001   2.873
 6104TIP3    H218277   4.248   0.989   2.863
 6105TIP3   OH218278   5.285   3.475   1.856
 6105TIP3    H118279   5.380   3.466   1.852
 6105TIP3    H218280   5.268   3.561   1.816
 6106TIP3   OH218281   3.173   2.543   4.063
 6106TIP3    H118282   3.214   2.499   3.989
 6106TIP3    H218283   3.079   2.543   4.042
 6107TIP3   OH218284   3.305   2.225   4.074
 6107TIP3    H118285   3.336   2.236   3.984
 6107TIP3    H218286   3.363   2.160   4.112
 6108TIP3   OH218287   6.542   5.612   0.976
 6108TIP3    H118288   6.472   5.669   1.009
 6108TIP3    H218289   6.617   5.631   1.033
 6109TIP3   OH218290   1.443   3.932   1.977
 6109TIP3    H118291   1.392   3.864   1.932
 6109TIP3    H218292   1.412   3.929   2.068
 6110TIP3   OH218293   6.676   5.665   3.041
 6110TIP3    H118294   6.614   5.737   3.045
 6110TIP3    H218295   6.737   5.690   2.970
 6111TIP3   OH218296   4.968   3.225   0.925
 6111TIP3    H118297   4.879   3.255   0.906
 6111TIP3    H218298   5.008   3.296   0.975
 6112TIP3   OH218299   1.046   5.419   0.641
 6112TIP3    H118300   1.110   5.457   0.702
 6112TIP3    H218301   1.099   5.375   0.575
 6113TIP3   OH218302   4.108   5.774   4.097
 6113TIP3    H118303   4.179   5.711   4.084
 6113TIP3    H218304   4.046   5.756   4.026
 6114TIP3   OH218305   4.565   4.861   1.990
 6114TIP3    H118306   4.530   4.929   1.932
 6114TIP3    H218307   4.490   4.832   2.042
 6115TIP3   OH218308   0.643   5.457   1.541
 6115TIP3    H118309   0.550   5.481   1.549
 6115TIP3    H218310   0.642   5.376   1.491
 6116TIP3   OH218311   0.245   0.509   2.474
 6116TIP3    H118312   0.265   0.518   2.567
 6116TIP3    H218313   0.233   0.414   2.462
 6117TIP3   OH218314   6.563   2.994   2.536
 6117TIP3    H118315   6.544   2.943   2.615
 6117TIP3    H218316   6.491   3.057   2.530
 6118TIP3   OH218317   0.052   4.962   1.163
 6118TIP3    H118318   0.101   4.882   1.183
 6118TIP3    H218319   0.107   5.033   1.198
 6119TIP3   OH218320   4.782   0.925   3.403
 6119TIP3    H118321   4.863   0.941   3.450
 6119TIP3    H218322   4.714   0.968   3.455
 6120TIP3   OH218323   6.921   2.049   2.656
 6120TIP3    H118324   6.896   2.074   2.745
 6120TIP3    H218325   6.920   1.953   2.657
 6121TIP3   OH218326   5.869   5.026   2.366
 6121TIP3    H118327   5.928   4.953   2.345
 6121TIP3    H218328   5.783   4.995   2.336
 6122TIP3   OH218329   2.748   4.994   4.192
 6122TIP3    H118330   2.806   4.947   4.252
 6122TIP3    H218331   2.768   4.957   4.106
 6123TIP3   OH218332   4.952   2.214   4.813
 6123TIP3    H118333   4.962   2.268   4.734
 6123TIP3    H218334   4.934   2.126   4.780
 6124TIP3   OH218335   1.939   0.066   0.994
 6124TIP3    H118336   1.900   0.141   1.039
 6124TIP3    H218337   1.893  -0.010   1.029
 6125TIP3   OH218338   3.189   3.981   0.110
 6125TIP3    H118339   3.264   4.031   0.140
 6125TIP3    H218340   3.116   4.009   0.165
 6126TIP3   OH218341   0.174   0.831   2.194
 6126TIP3    H118342   0.217   0.850   2.111
 6126TIP3    H218343   0.244   0.838   2.259
 6127TIP3   OH218344   6.483   5.559   4.778
 6127TIP3    H118345   6.421   5.535   4.709
 6127TIP3    H218346   6.432   5.555   4.859
 6128TIP3   OH218347   3.149   1.158   1.116
 6128TIP3    H118348   3.062   1.182   1.148
 6128TIP3    H218349   3.135   1.080   1.063
 6129TIP3   OH218350   6.443   6.518   5.644
 6129TIP3    H118351   6.515   6.484   5.591
 6129TIP3    H218352   6.483   6.586   5.697
 6130TIP3   OH218353   4.063   2.497   4.092
 6130TIP3    H118354   4.079   2.577   4.143
 6130TIP3    H218355   3.976   2.468   4.120
 6131TIP3   OH218356   0.769   5.607   3.588
 6131TIP3    H118357   0.845   5.583   3.534
 6131TIP3    H218358   0.695   5.603   3.528
 6132TIP3   OH218359   5.743   0.592   5.588
 6132TIP3    H118360   5.786   0.510   5.613
 6132TIP3    H218361   5.786   0.659   5.641
 6133TIP3   OH218362   5.292   3.718   5.189
 6133TIP3    H118363   5.330   3.785   5.246
 6133TIP3    H218364   5.363   3.693   5.130
 6134TIP3   OH218365   3.709   3.744   1.804
 6134TIP3    H118366   3.626   3.708   1.772
 6134TIP3    H218367   3.726   3.696   1.885
 6135TIP3   OH218368   6.394   2.686   2.670
 6135TIP3    H118369   6.332   2.701   2.741
 6135TIP3    H218370   6.342   2.695   2.590
 6136TIP3   OH218371   5.126   4.365   5.348
 6136TIP3    H118372   5.048   4.311   5.362
 6136TIP3    H218373   5.091   4.455   5.346
 6137TIP3   OH218374   0.626   3.971   2.111
 6137TIP3    H118375   0.615   3.884   2.072
 6137TIP3    H218376   0.597   4.032   2.043
 6138TIP3   OH218377   4.241   0.246   1.177
 6138TIP3    H118378   4.329   0.217   1.202
 6138TIP3    H218379   4.185   0.215   1.248
 6139TIP3   OH218380   3.310   1.897   0.784
 6139TIP3    H118381   3.368   1.972   0.801
 6139TIP3    H218382   3.288   1.863   0.871
 6140TIP3   OH218383   2.771   4.132   4.191
 6140TIP3    H118384   2.762   4.059   4.252
 6140TIP3    H218385   2.699   4.119   4.129
 6141TIP3   OH218386   3.856   4.559   2.813
 6141TIP3    H118387   3.946   4.536   2.789
 6141TIP3    H218388   3.836   4.637   2.761
 6142TIP3   OH218389   3.870   0.994   2.501
 6142TIP3    H118390   3.833   0.906   2.505
 6142TIP3    H218391   3.929   0.993   2.426
 6143TIP3   OH218392   1.314   0.899   5.260
 6143TIP3    H118393   1.325   0.990   5.232
 6143TIP3    H218394   1.346   0.898   5.350
 6144TIP3   OH218395   1.998   0.990   1.154
 6144TIP3    H118396   1.910   0.972   1.120
 6144TIP3    H218397   2.021   1.075   1.116
 6145TIP3   OH218398   4.060   2.517   3.511
 6145TIP3    H118399   3.983   2.560   3.548
 6145TIP3    H218400   4.052   2.426   3.539
 6146TIP3   OH218401   6.860   4.560   4.488
 6146TIP3    H118402   6.768   4.566   4.511
 6146TIP3    H218403   6.890   4.479   4.530
 6147TIP3   OH218404   2.789   1.221   1.629
 6147TIP3    H118405   2.796   1.225   1.724
 6147TIP3    H218406   2.756   1.307   1.603
 6148TIP3   OH218407   4.631   4.533   2.037
 6148TIP3    H118408   4.544   4.513   2.000
 6148TIP3    H218409   4.613   4.552   2.129
 6149TIP3   OH218410   6.261   5.555   2.181
 6149TIP3    H118411   6.301   5.625   2.232
 6149TIP3    H218412   6.167   5.574   2.184
 6150TIP3   OH218413   3.935   1.874   4.836
 6150TIP3    H118414   3.954   1.965   4.815
 6150TIP3    H218415   3.937   1.829   4.751
 6151TIP3   OH218416   2.285   5.067   3.942
 6151TIP3    H118417   2.277   5.049   4.036
 6151TIP3    H218418   2.303   4.982   3.902
 6152TIP3   OH218419   0.928   6.745   4.500
 6152TIP3    H118420   0.978   6.693   4.563
 6152TIP3    H218421   0.837   6.722   4.518
 6153TIP3   OH218422   4.081   0.667   4.775
 6153TIP3    H118423   4.089   0.678   4.870
 6153TIP3    H218424   3.993   0.698   4.755
 6154TIP3   OH218425   1.015   4.860   5.468
 6154TIP3    H118426   1.111   4.864   5.461
 6154TIP3    H218427   0.998   4.787   5.527
 6155TIP3   OH218428   5.207   3.029   5.233
 6155TIP3    H118429   5.249   3.115   5.232
 6155TIP3    H218430   5.183   3.013   5.142
 6156TIP3   OH218431   6.115   1.414   3.473
 6156TIP3    H118432   6.030   1.425   3.431
 6156TIP3    H218433   6.160   1.349   3.419
 6157TIP3   OH218434   4.806   3.006   3.370
 6157TIP3    H118435   4.841   3.094   3.385
 6157TIP3    H218436   4.752   2.988   3.447
 6158TIP3   OH218437   3.642   2.111   0.343
 6158TIP3    H118438   3.652   2.186   0.285
 6158TIP3    H218439   3.719   2.115   0.401
 6159TIP3   OH218440   4.578   2.699   3.628
 6159TIP3    H118441   4.512   2.714   3.560
 6159TIP3    H218442   4.540   2.632   3.685
 6160TIP3   OH218443   7.079   3.536   3.012
 6160TIP3    H118444   7.002   3.508   2.962
 6160TIP3    H218445   7.138   3.461   3.007
 6161TIP3   OH218446   5.837   1.051   1.126
 6161TIP3    H118447   5.912   0.996   1.104
 6161TIP3    H218448   5.862   1.139   1.098
 6162TIP3   OH218449   1.344   2.657   1.372
 6162TIP3    H118450   1.269   2.634   1.426
 6162TIP3    H218451   1.420   2.641   1.428
 6163TIP3   OH218452   1.810   4.871   4.282
 6163TIP3    H118453   1.809   4.776   4.277
 6163TIP3    H218454   1.814   4.891   4.376
 6164TIP3   OH218455   4.072   6.268   2.222
 6164TIP3    H118456   4.061   6.362   2.203
 6164TIP3    H218457   4.090   6.265   2.316
 6165TIP3   OH218458   5.863   3.414   2.856
 6165TIP3    H118459   5.947   3.459   2.865
 6165TIP3    H218460   5.872   3.359   2.778
 6166TIP3   OH218461   5.631   1.014   0.106
 6166TIP3    H118462   5.683   1.000   0.027
 6166TIP3    H218463   5.682   0.973   0.176
 6167TIP3   OH218464   1.003   1.749   0.222
 6167TIP3    H118465   0.966   1.806   0.154
 6167TIP3    H218466   0.982   1.660   0.192
 6168TIP3   OH218467   6.735   2.568   5.882
 6168TIP3    H118468   6.815   2.539   5.838
 6168TIP3    H218469   6.716   2.499   5.946
 6169TIP3   OH218470   4.754   3.568   4.092
 6169TIP3    H118471   4.816   3.548   4.162
 6169TIP3    H218472   4.809   3.583   4.015
 6170TIP3   OH218473   6.664   5.723   1.693
 6170TIP3    H118474   6.629   5.790   1.753
 6170TIP3    H218475   6.617   5.737   1.611
 6171TIP3   OH218476   2.372   6.134   3.044
 6171TIP3    H118477   2.325   6.213   3.017
 6171TIP3    H218478   2.447   6.167   3.093
 6172TIP3   OH218479   1.682   6.211   0.696
 6172TIP3    H118480   1.675   6.305   0.684
 6172TIP3    H218481   1.659   6.196   0.788
 6173TIP3   OH218482   4.703   5.381   3.871
 6173TIP3    H118483   4.723   5.359   3.962
 6173TIP3    H218484   4.608   5.367   3.863
 6174TIP3   OH218485   4.528   3.834   2.316
 6174TIP3    H118486   4.601   3.890   2.290
 6174TIP3    H218487   4.568   3.766   2.369
 6175TIP3   OH218488   4.799   2.854   1.633
 6175TIP3    H118489   4.835   2.912   1.565
 6175TIP3    H218490   4.768   2.914   1.701
 6176TIP3   OH218491   5.956   0.256   3.525
 6176TIP3    H118492   5.953   0.160   3.523
 6176TIP3    H218493   5.910   0.284   3.446
 6177TIP3   OH218494   5.336   0.405   3.396
 6177TIP3    H118495   5.334   0.500   3.383
 6177TIP3    H218496   5.381   0.394   3.480
 6178TIP3   OH218497   5.417   2.997   3.192
 6178TIP3    H118498   5.451   2.963   3.275
 6178TIP3    H218499   5.351   2.933   3.166
 6179TIP3   OH218500   5.072   5.369   2.229
 6179TIP3    H118501   5.117   5.319   2.297
 6179TIP3    H218502   5.018   5.432   2.277
 6180TIP3   OH218503   4.754   2.773   0.424
 6180TIP3    H118504   4.811   2.832   0.474
 6180TIP3    H218505   4.744   2.696   0.479
 6181TIP3   OH218506   5.332   6.668   2.025
 6181TIP3    H118507   5.365   6.758   2.026
 6181TIP3    H218508   5.400   6.616   2.068
 6182TIP3   OH218509   0.836   0.954   5.456
 6182TIP3    H118510   0.857   0.893   5.384
 6182TIP3    H218511   0.883   0.918   5.531
 6183TIP3   OH218512   1.494   3.012   4.838
 6183TIP3    H118513   1.439   3.030   4.914
 6183TIP3    H218514   1.578   2.985   4.874
 6184TIP3   OH218515   0.524   6.546   3.099
 6184TIP3    H118516   0.462   6.558   3.028
 6184TIP3    H218517   0.539   6.635   3.133
 6185TIP3   OH218518   7.027   6.541   2.102
 6185TIP3    H118519   7.117   6.528   2.133
 6185TIP3    H218520   7.036   6.604   2.030
 6186TIP3   OH218521   1.183   2.958   3.912
 6186TIP3    H118522   1.261   2.970   3.966
 6186TIP3    H218523   1.125   2.903   3.965
 6187TIP3   OH218524   2.321   0.822   0.940
 6187TIP3    H118525   2.325   0.798   0.848
 6187TIP3    H218526   2.403   0.869   0.956
 6188TIP3   OH218527   7.036   0.467   2.021
 6188TIP3    H118528   6.993   0.496   1.940
 6188TIP3    H218529   7.116   0.423   1.991
 6189TIP3   OH218530   3.094   1.972   3.658
 6189TIP3    H118531   3.084   2.061   3.694
 6189TIP3    H218532   3.121   1.919   3.732
 6190TIP3   OH218533   0.976   0.297   5.637
 6190TIP3    H118534   1.061   0.286   5.594
 6190TIP3    H218535   0.914   0.252   5.580
 6191TIP3   OH218536   2.239   0.515   5.731
 6191TIP3    H118537   2.301   0.536   5.800
 6191TIP3    H218538   2.293   0.492   5.655
 6192TIP3   OH218539   2.914   4.697   2.755
 6192TIP3    H118540   2.820   4.689   2.773
 6192TIP3    H218541   2.952   4.730   2.836
 6193TIP3   OH218542   6.807   5.924   4.998
 6193TIP3    H118543   6.798   5.830   5.011
 6193TIP3    H218544   6.833   5.958   5.084
 6194TIP3   OH218545   4.087   3.642   3.918
 6194TIP3    H118546   4.145   3.571   3.945
 6194TIP3    H218547   4.117   3.718   3.968
 6195TIP3   OH218548   7.147   5.293   5.569
 6195TIP3    H118549   7.190   5.248   5.496
 6195TIP3    H218550   7.112   5.373   5.529
 6196TIP3   OH218551   1.035   5.630   2.593
 6196TIP3    H118552   1.045   5.567   2.521
 6196TIP3    H218553   1.078   5.710   2.560
 6197TIP3   OH218554   1.990   1.814   3.225
 6197TIP3    H118555   1.971   1.727   3.260
 6197TIP3    H218556   2.085   1.823   3.232
 6198TIP3   OH218557   2.109   0.319   5.441
 6198TIP3    H118558   2.042   0.319   5.373
 6198TIP3    H218559   2.179   0.265   5.406
 6199TIP3   OH218560   6.401   2.047   5.512
 6199TIP3    H118561   6.495   2.056   5.529
 6199TIP3    H218562   6.396   2.008   5.425
 6200TIP3   OH218563   6.580   5.925   3.627
 6200TIP3    H118564   6.673   5.910   3.610
 6200TIP3    H218565   6.576   5.957   3.717
 6201TIP3   OH218566   4.641   1.721   3.829
 6201TIP3    H118567   4.682   1.742   3.746
 6201TIP3    H218568   4.714   1.719   3.892
 6202TIP3   OH218569   1.667   4.601   0.781
 6202TIP3    H118570   1.572   4.590   0.789
 6202TIP3    H218571   1.697   4.519   0.743
 6203TIP3   OH218572   4.797   4.254   0.161
 6203TIP3    H118573   4.722   4.249   0.102
 6203TIP3    H218574   4.825   4.345   0.157
 6204TIP3   OH218575   0.061   3.455   0.283
 6204TIP3    H118576   0.067   3.404   0.364
 6204TIP3    H218577   0.042   3.391   0.215
 6205TIP3   OH218578   4.854   1.735   1.606
 6205TIP3    H118579   4.881   1.643   1.611
 6205TIP3    H218580   4.896   1.768   1.527
 6206TIP3   OH218581   2.333   5.903   1.019
 6206TIP3    H118582   2.366   5.835   0.960
 6206TIP3    H218583   2.410   5.931   1.068
 6207TIP3   OH218584   4.331   3.875   1.447
 6207TIP3    H118585   4.397   3.822   1.493
 6207TIP3    H218586   4.339   3.850   1.355
 6208TIP3   OH218587   4.725   2.492   1.286
 6208TIP3    H118588   4.752   2.407   1.321
 6208TIP3    H218589   4.682   2.535   1.360
 6209TIP3   OH218590   0.834   3.730   1.957
 6209TIP3    H118591   0.859   3.810   1.909
 6209TIP3    H218592   0.741   3.720   1.939
 6210TIP3   OH218593   5.847   4.495   2.644
 6210TIP3    H118594   5.897   4.522   2.567
 6210TIP3    H218595   5.776   4.559   2.650
 6211TIP3   OH218596   5.878   3.603   0.424
 6211TIP3    H118597   5.869   3.516   0.387
 6211TIP3    H218598   5.811   3.608   0.492
 6212TIP3   OH218599   1.612   0.626   0.172
 6212TIP3    H118600   1.700   0.599   0.198
 6212TIP3    H218601   1.599   0.587   0.085
 6213TIP3   OH218602   3.869   0.454   4.875
 6213TIP3    H118603   3.945   0.486   4.826
 6213TIP3    H218604   3.854   0.521   4.942
 6214TIP3   OH218605   0.900   1.966   4.816
 6214TIP3    H118606   0.824   1.923   4.776
 6214TIP3    H218607   0.900   2.054   4.778
 6215TIP3   OH218608   1.180   0.315   0.171
 6215TIP3    H118609   1.253   0.340   0.228
 6215TIP3    H218610   1.205   0.348   0.084
 6216TIP3   OH218611   1.801   3.729   3.005
 6216TIP3    H118612   1.746   3.654   2.984
 6216TIP3    H218613   1.747   3.785   3.060
 6217TIP3   OH218614   4.016   4.412   5.079
 6217TIP3    H118615   3.940   4.447   5.031
 6217TIP3    H218616   4.016   4.458   5.162
 6218TIP3   OH218617   0.629   6.683   3.410
 6218TIP3    H118618   0.579   6.611   3.451
 6218TIP3    H218619   0.568   6.721   3.347
 6219TIP3   OH218620   6.332   6.548   0.594
 6219TIP3    H118621   6.398   6.614   0.573
 6219TIP3    H218622   6.345   6.480   0.528
 6220TIP3   OH218623   5.206   1.564   3.458
 6220TIP3    H118624   5.182   1.654   3.482
 6220TIP3    H218625   5.185   1.512   3.535
 6221TIP3   OH218626   5.289   1.085   4.747
 6221TIP3    H118627   5.366   1.044   4.787
 6221TIP3    H218628   5.218   1.068   4.810
 6222TIP3   OH218629   1.865   5.982   0.712
 6222TIP3    H118630   1.798   6.049   0.722
 6222TIP3    H218631   1.943   6.019   0.754
 6223TIP3   OH218632   1.867   2.018   0.457
 6223TIP3    H118633   1.931   2.050   0.521
 6223TIP3    H218634   1.899   1.931   0.432
 6224TIP3   OH218635   0.263   6.708   5.131
 6224TIP3    H118636   0.207   6.781   5.102
 6224TIP3    H218637   0.349   6.728   5.093
 6225TIP3   OH218638   2.123   0.779   5.046
 6225TIP3    H118639   2.147   0.823   5.127
 6225TIP3    H218640   2.205   0.773   4.997
 6226TIP3   OH218641   5.251   0.619   4.631
 6226TIP3    H118642   5.223   0.528   4.648
 6226TIP3    H218643   5.249   0.661   4.717
 6227TIP3   OH218644   5.930   3.567   0.120
 6227TIP3    H118645   5.993   3.558   0.049
 6227TIP3    H218646   5.904   3.477   0.140
 6228TIP3   OH218647   0.799   5.924   2.757
 6228TIP3    H118648   0.786   5.829   2.768
 6228TIP3    H218649   0.713   5.962   2.776
 6229TIP3   OH218650   6.974   2.109   5.532
 6229TIP3    H118651   6.928   2.076   5.609
 6229TIP3    H218652   6.971   2.036   5.469
 6230TIP3   OH218653   4.134   1.710   3.714
 6230TIP3    H118654   4.218   1.725   3.756
 6230TIP3    H218655   4.081   1.667   3.780
 6231TIP3   OH218656   4.502   1.035   0.751
 6231TIP3    H118657   4.498   1.065   0.661
 6231TIP3    H218658   4.470   1.108   0.803
 6232TIP3   OH218659   3.981   0.619   1.420
 6232TIP3    H118660   4.025   0.563   1.357
 6232TIP3    H218661   4.047   0.682   1.448
 6233TIP3   OH218662   0.638   2.433   4.985
 6233TIP3    H118663   0.544   2.440   5.000
 6233TIP3    H218664   0.676   2.422   5.073
 6234TIP3   OH218665   4.485   3.509   5.811
 6234TIP3    H118666   4.406   3.494   5.864
 6234TIP3    H218667   4.472   3.454   5.734
 6235TIP3   OH218668   6.060   4.499   1.986
 6235TIP3    H118669   6.142   4.467   1.950
 6235TIP3    H218670   6.080   4.587   2.019
 6236TIP3   OH218671   5.481   3.330   5.106
 6236TIP3    H118672   5.443   3.259   5.055
 6236TIP3    H218673   5.417   3.348   5.175
 6237TIP3   OH218674   0.888   5.928   1.841
 6237TIP3    H118675   0.965   5.973   1.875
 6237TIP3    H218676   0.815   5.986   1.864
 6238TIP3   OH218677   1.825   3.292   2.977
 6238TIP3    H118678   1.823   3.272   3.070
 6238TIP3    H218679   1.764   3.366   2.967
 6239TIP3   OH218680   2.406   6.248   5.493
 6239TIP3    H118681   2.493   6.260   5.454
 6239TIP3    H218682   2.383   6.157   5.473
 6240TIP3   OH218683   6.686   3.428   0.605
 6240TIP3    H118684   6.741   3.443   0.682
 6240TIP3    H218685   6.598   3.417   0.640
 6241TIP3   OH218686   1.065   5.522   4.697
 6241TIP3    H118687   1.049   5.561   4.611
 6241TIP3    H218688   1.152   5.483   4.689
 6242TIP3   OH218689   5.610   0.782   1.733
 6242TIP3    H118690   5.656   0.776   1.817
 6242TIP3    H218691   5.656   0.721   1.675
 6243TIP3   OH218692   1.714   2.609   1.709
 6243TIP3    H118693   1.807   2.628   1.722
 6243TIP3    H218694   1.670   2.691   1.732
 6244TIP3   OH218695   0.106   0.541   0.585
 6244TIP3    H118696   0.157   0.522   0.664
 6244TIP3    H218697   0.066   0.458   0.562
 6245TIP3   OH218698   3.452   4.291   4.818
 6245TIP3    H118699   3.425   4.227   4.884
 6245TIP3    H218700   3.372   4.309   4.768
 6246TIP3   OH218701   3.742   4.980   1.631
 6246TIP3    H118702   3.756   5.047   1.563
 6246TIP3    H218703   3.778   5.019   1.710
 6247TIP3   OH218704   4.108   3.523   1.625
 6247TIP3    H118705   4.188   3.510   1.675
 6247TIP3    H218706   4.038   3.508   1.688
 6248TIP3   OH218707   7.062   3.321   1.062
 6248TIP3    H118708   7.081   3.389   0.997
 6248TIP3    H218709   6.974   3.290   1.040
 6249TIP3   OH218710   4.113   1.736   5.242
 6249TIP3    H118711   4.086   1.692   5.161
 6249TIP3    H218712   4.051   1.808   5.252
 6250TIP3   OH218713   0.412   4.059   4.692
 6250TIP3    H118714   0.378   4.099   4.613
 6250TIP3    H218715   0.500   4.029   4.668
 6251TIP3   OH218716   5.643   5.770   3.255
 6251TIP3    H118717   5.739   5.770   3.250
 6251TIP3    H218718   5.621   5.694   3.309
 6252TIP3   OH218719   3.301   3.446   5.618
 6252TIP3    H118720   3.395   3.461   5.611
 6252TIP3    H218721   3.293   3.354   5.642
 6253TIP3   OH218722   5.554   1.011   4.930
 6253TIP3    H118723   5.621   1.032   4.865
 6253TIP3    H218724   5.527   1.096   4.965
 6254TIP3   OH218725   3.286   3.636   1.003
 6254TIP3    H118726   3.256   3.688   1.077
 6254TIP3    H218727   3.242   3.551   1.015
 6255TIP3   OH218728   5.131   5.356   5.037
 6255TIP3    H118729   5.209   5.376   5.088
 6255TIP3    H218730   5.071   5.429   5.054
 6256TIP3   OH218731   0.294   1.143   0.216
 6256TIP3    H118732   0.248   1.082   0.272
 6256TIP3    H218733   0.361   1.089   0.173
 6257TIP3   OH218734   4.352   0.339   1.842
 6257TIP3    H118735   4.374   0.314   1.752
 6257TIP3    H218736   4.272   0.290   1.861
 6258TIP3   OH218737   6.797   4.762   2.447
 6258TIP3    H118738   6.758   4.849   2.450
 6258TIP3    H218739   6.867   4.765   2.513
 6259TIP3   OH218740   5.652   3.497   5.472
 6259TIP3    H118741   5.717   3.445   5.425
 6259TIP3    H218742   5.636   3.447   5.553
 6260TIP3   OH218743   6.128   2.213   2.361
 6260TIP3    H118744   6.070   2.286   2.337
 6260TIP3    H218745   6.093   2.181   2.444
 6261TIP3   OH218746   6.729   0.458   3.033
 6261TIP3    H118747   6.692   0.380   2.992
 6261TIP3    H218748   6.709   0.448   3.126
 6262TIP3   OH218749   1.133   5.153   4.096
 6262TIP3    H118750   1.047   5.158   4.136
 6262TIP3    H218751   1.186   5.103   4.158
 6263TIP3   OH218752   2.910   0.428   4.760
 6263TIP3    H118753   2.969   0.434   4.834
 6263TIP3    H218754   2.911   0.335   4.735
 6264TIP3   OH218755   5.675   5.866   2.519
 6264TIP3    H118756   5.655   5.889   2.609
 6264TIP3    H218757   5.590   5.857   2.476
 6265TIP3   OH218758   3.542   3.202   0.473
 6265TIP3    H118759   3.469   3.199   0.412
 6265TIP3    H218760   3.553   3.295   0.494
 6266TIP3   OH218761   6.612   3.849   4.234
 6266TIP3    H118762   6.623   3.867   4.140
 6266TIP3    H218763   6.680   3.901   4.277
 6267TIP3   OH218764   0.031   4.693   0.220
 6267TIP3    H118765   0.012   4.612   0.171
 6267TIP3    H218766   0.076   4.663   0.299
 6268TIP3   OH218767   3.617   4.748   5.396
 6268TIP3    H118768   3.611   4.714   5.307
 6268TIP3    H218769   3.600   4.672   5.451
 6269TIP3   OH218770   0.916   1.435   0.994
 6269TIP3    H118771   0.948   1.353   0.957
 6269TIP3    H218772   0.951   1.437   1.083
 6270TIP3   OH218773   3.743   1.052  -0.026
 6270TIP3    H118774   3.705   1.021   0.057
 6270TIP3    H218775   3.832   1.079  -0.003
 6271TIP3   OH218776   2.969   5.526   2.427
 6271TIP3    H118777   3.014   5.443   2.446
 6271TIP3    H218778   2.964   5.570   2.512
 6272TIP3   OH218779   7.004   4.101   1.827
 6272TIP3    H118780   7.094   4.092   1.793
 6272TIP3    H218781   7.004   4.186   1.871
 6273TIP3   OH218782   1.943   0.101   0.705
 6273TIP3    H118783   1.965   0.094   0.797
 6273TIP3    H218784   1.935   0.195   0.689
 6274TIP3   OH218785   5.270   2.067   5.724
 6274TIP3    H118786   5.190   2.022   5.752
 6274TIP3    H218787   5.294   2.023   5.642
 6275TIP3   OH218788   2.001   5.587   2.559
 6275TIP3    H118789   2.047   5.604   2.642
 6275TIP3    H218790   1.913   5.562   2.585
 6276TIP3   OH218791   5.910   4.001   5.856
 6276TIP3    H118792   5.872   4.078   5.815
 6276TIP3    H218793   5.834   3.952   5.889
 6277TIP3   OH218794   4.345   6.533   5.263
 6277TIP3    H118795   4.417   6.595   5.267
 6277TIP3    H218796   4.269   6.585   5.236
 6278TIP3   OH218797   3.618   6.510   3.575
 6278TIP3    H118798   3.577   6.435   3.619
 6278TIP3    H218799   3.586   6.586   3.623
 6279TIP3   OH218800   5.299   3.721   0.620
 6279TIP3    H118801   5.388   3.755   0.621
 6279TIP3    H218802   5.309   3.626   0.628
 6280TIP3   OH218803   5.816   5.026   0.851
 6280TIP3    H118804   5.722   5.024   0.869
 6280TIP3    H218805   5.834   5.116   0.824
 6281TIP3   OH218806   0.724   6.012   0.168
 6281TIP3    H118807   0.700   5.931   0.214
 6281TIP3    H218808   0.780   5.984   0.096
 6282TIP3   OH218809   5.633   4.414   5.224
 6282TIP3    H118810   5.586   4.465   5.290
 6282TIP3    H218811   5.584   4.332   5.218
 6283TIP3   OH218812   0.336   4.745   2.088
 6283TIP3    H118813   0.401   4.776   2.024
 6283TIP3    H218814   0.255   4.737   2.038
 6284TIP3   OH218815   0.905   3.056   4.586
 6284TIP3    H118816   0.826   3.008   4.611
 6284TIP3    H218817   0.875   3.121   4.523
 6285TIP3   OH218818   2.615   5.422   4.334
 6285TIP3    H118819   2.526   5.458   4.339
 6285TIP3    H218820   2.602   5.332   4.305
 6286TIP3   OH218821   5.640   5.227   1.979
 6286TIP3    H118822   5.656   5.309   1.931
 6286TIP3    H218823   5.691   5.162   1.931
 6287TIP3   OH218824   1.437   6.640   1.157
 6287TIP3    H118825   1.382   6.567   1.187
 6287TIP3    H218826   1.418   6.711   1.218
 6288TIP3   OH218827   2.444   6.228   2.499
 6288TIP3    H118828   2.497   6.247   2.422
 6288TIP3    H218829   2.426   6.134   2.493
 6289TIP3   OH218830   0.661   0.919   1.078
 6289TIP3    H118831   0.642   0.988   1.015
 6289TIP3    H218832   0.575   0.891   1.111
 6290TIP3   OH218833   1.498   4.474   4.804
 6290TIP3    H118834   1.530   4.564   4.809
 6290TIP3    H218835   1.477   4.450   4.894
 6291TIP3   OH218836   1.699   3.178   3.722
 6291TIP3    H118837   1.765   3.180   3.652
 6291TIP3    H218838   1.616   3.192   3.677
 6292TIP3   OH218839   4.897   1.522   2.975
 6292TIP3    H118840   4.973   1.556   3.023
 6292TIP3    H218841   4.905   1.427   2.981
 6293TIP3   OH218842   2.748   5.645   1.371
 6293TIP3    H118843   2.653   5.637   1.359
 6293TIP3    H218844   2.779   5.689   1.292
 6294TIP3   OH218845   2.230   1.910   3.195
 6294TIP3    H118846   2.222   1.881   3.104
 6294TIP3    H218847   2.314   1.955   3.198
 6295TIP3   OH218848   2.113   4.804   1.767
 6295TIP3    H118849   2.155   4.807   1.853
 6295TIP3    H218850   2.037   4.747   1.780
 6296TIP3   OH218851   5.943   6.110   4.301
 6296TIP3    H118852   5.882   6.170   4.343
 6296TIP3    H218853   5.892   6.069   4.231
 6297TIP3   OH218854   6.463   6.656   4.636
 6297TIP3    H118855   6.423   6.739   4.607
 6297TIP3    H218856   6.552   6.660   4.602
 6298TIP3   OH218857   5.821   4.735   3.335
 6298TIP3    H118858   5.869   4.707   3.413
 6298TIP3    H218859   5.842   4.670   3.269
 6299TIP3   OH218860   6.181   2.205   0.864
 6299TIP3    H118861   6.235   2.270   0.909
 6299TIP3    H218862   6.239   2.128   0.857
 6300TIP3   OH218863   1.904   4.492   5.593
 6300TIP3    H118864   1.835   4.517   5.531
 6300TIP3    H218865   1.877   4.406   5.625
 6301TIP3   OH218866   6.973   2.285   3.804
 6301TIP3    H118867   6.903   2.223   3.827
 6301TIP3    H218868   6.936   2.337   3.732
 6302TIP3   OH218869   0.836   6.066   2.992
 6302TIP3    H118870   0.789   6.147   2.971
 6302TIP3    H218871   0.832   6.015   2.911
 6303TIP3   OH218872   2.363   5.855   3.025
 6303TIP3    H118873   2.399   5.943   3.033
 6303TIP3    H218874   2.343   5.845   2.932
 6304TIP3   OH218875   5.758   5.684   2.896
 6304TIP3    H118876   5.835   5.631   2.879
 6304TIP3    H218877   5.745   5.679   2.990
 6305TIP3   OH218878   0.833   5.293   3.158
 6305TIP3    H118879   0.900   5.236   3.195
 6305TIP3    H218880   0.765   5.297   3.225
 6306TIP3   OH218881   5.771   4.687   5.290
 6306TIP3    H118882   5.848   4.676   5.346
 6306TIP3    H218883   5.768   4.607   5.238
 6307TIP3   OH218884   6.344   3.521   1.934
 6307TIP3    H118885   6.264   3.535   1.985
 6307TIP3    H218886   6.408   3.580   1.974
 6308TIP3   OH218887   5.846   5.554   1.684
 6308TIP3    H118888   5.915   5.610   1.719
 6308TIP3    H218889   5.777   5.555   1.750
 6309TIP3   OH218890   1.906   2.101   2.720
 6309TIP3    H118891   1.961   2.178   2.736
 6309TIP3    H218892   1.835   2.134   2.665
 6310TIP3   OH218893   1.718   4.281   3.022
 6310TIP3    H118894   1.698   4.210   3.083
 6310TIP3    H218895   1.793   4.250   2.972
 6311TIP3   OH218896   0.220   3.249   5.016
 6311TIP3    H118897   0.184   3.278   4.932
 6311TIP3    H218898   0.146   3.254   5.077
 6312TIP3   OH218899   3.323   4.602   1.994
 6312TIP3    H118900   3.308   4.517   2.036
 6312TIP3    H218901   3.370   4.581   1.914
 6313TIP3   OH218902   4.117   0.507   0.419
 6313TIP3    H118903   4.090   0.563   0.492
 6313TIP3    H218904   4.037   0.491   0.369
 6314TIP3   OH218905   0.144   4.366   4.626
 6314TIP3    H118906   0.180   4.287   4.586
 6314TIP3    H218907   0.106   4.415   4.553
 6315TIP3   OH218908   0.614   5.908   1.526
 6315TIP3    H118909   0.703   5.878   1.510
 6315TIP3    H218910   0.599   5.890   1.619
 6316TIP3   OH218911   5.973   5.522   2.831
 6316TIP3    H118912   5.987   5.454   2.765
 6316TIP3    H218913   6.026   5.596   2.800
 6317TIP3   OH218914   1.605   2.831   2.985
 6317TIP3    H118915   1.525   2.858   3.031
 6317TIP3    H218916   1.573   2.789   2.905
 6318TIP3   OH218917   0.601   4.465   5.348
 6318TIP3    H118918   0.611   4.431   5.437
 6318TIP3    H218919   0.691   4.481   5.318
 6319TIP3   OH218920   6.185   1.363   2.020
 6319TIP3    H118921   6.142   1.367   1.935
 6319TIP3    H218922   6.195   1.269   2.037
 6320TIP3   OH218923   4.303   0.711   3.194
 6320TIP3    H118924   4.247   0.646   3.151
 6320TIP3    H218925   4.338   0.664   3.270
 6321TIP3   OH218926   1.395   0.527   1.056
 6321TIP3    H118927   1.339   0.453   1.034
 6321TIP3    H218928   1.338   0.603   1.046
 6322TIP3   OH218929   4.667   6.387   0.672
 6322TIP3    H118930   4.733   6.333   0.629
 6322TIP3    H218931   4.642   6.452   0.606
 6323TIP3   OH218932   4.251   6.505   3.776
 6323TIP3    H118933   4.303   6.517   3.855
 6323TIP3    H218934   4.170   6.464   3.806
 6324TIP3   OH218935   4.237   2.739   0.445
 6324TIP3    H118936   4.163   2.765   0.390
 6324TIP3    H218937   4.204   2.743   0.535
 6325TIP3   OH218938   2.779   3.264   5.276
 6325TIP3    H118939   2.864   3.222   5.260
 6325TIP3    H218940   2.758   3.243   5.367
 6326TIP3   OH218941   0.703   0.247   4.862
 6326TIP3    H118942   0.740   0.282   4.781
 6326TIP3    H218943   0.681   0.325   4.913
 6327TIP3   OH218944   2.873   0.324   5.128
 6327TIP3    H118945   2.826   0.307   5.210
 6327TIP3    H218946   2.813   0.296   5.060
 6328TIP3   OH218947   4.116   3.713   1.986
 6328TIP3    H118948   4.200   3.669   1.975
 6328TIP3    H218949   4.082   3.722   1.897
 6329TIP3   OH218950   4.322   3.306   0.095
 6329TIP3    H118951   4.295   3.306   0.187
 6329TIP3    H218952   4.414   3.280   0.096
 6330TIP3   OH218953   5.517   4.151   3.248
 6330TIP3    H118954   5.474   4.125   3.166
 6330TIP3    H218955   5.574   4.224   3.223
 6331TIP3   OH218956   3.129   6.320   4.068
 6331TIP3    H118957   3.055   6.380   4.063
 6331TIP3    H218958   3.149   6.315   4.161
 6332TIP3   OH218959   2.342   4.718   0.844
 6332TIP3    H118960   2.259   4.718   0.796
 6332TIP3    H218961   2.317   4.732   0.935
 6333TIP3   OH218962   2.737   0.438   3.905
 6333TIP3    H118963   2.783   0.378   3.846
 6333TIP3    H218964   2.804   0.497   3.937
 6334TIP3   OH218965   4.250   5.075   1.580
 6334TIP3    H118966   4.278   5.156   1.622
 6334TIP3    H218967   4.179   5.042   1.635
 6335TIP3   OH218968   5.463   3.505   0.346
 6335TIP3    H118969   5.542   3.480   0.394
 6335TIP3    H218970   5.452   3.598   0.364
 6336TIP3   OH218971   6.678   6.535   2.699
 6336TIP3    H118972   6.630   6.481   2.636
 6336TIP3    H218973   6.611   6.573   2.755
 6337TIP3   OH218974   0.606   3.859   3.626
 6337TIP3    H118975   0.697   3.865   3.596
 6337TIP3    H218976   0.555   3.897   3.555
 6338TIP3   OH218977   4.427   4.887   2.332
 6338TIP3    H118978   4.422   4.826   2.259
 6338TIP3    H218979   4.465   4.966   2.294
 6339TIP3   OH218980   0.215   4.067   0.896
 6339TIP3    H118981   0.219   4.163   0.891
 6339TIP3    H218982   0.131   4.045   0.856
 6340TIP3   OH218983   1.771   1.367   2.094
 6340TIP3    H118984   1.832   1.371   2.168
 6340TIP3    H218985   1.818   1.408   2.021
 6341TIP3   OH218986   5.962   4.168   4.353
 6341TIP3    H118987   5.893   4.102   4.354
 6341TIP3    H218988   5.948   4.218   4.433
 6342TIP3   OH218989   5.953   5.384   4.232
 6342TIP3    H118990   6.031   5.439   4.238
 6342TIP3    H218991   5.969   5.326   4.158
 6343TIP3   OH218992   1.586   0.536   5.666
 6343TIP3    H118993   1.668   0.584   5.674
 6343TIP3    H218994   1.612   0.444   5.660
 6344TIP3   OH218995   4.391   5.383   3.616
 6344TIP3    H118996   4.379   5.298   3.573
 6344TIP3    H218997   4.482   5.407   3.596
 6345TIP3   OH218998   2.850   6.758   4.143
 6345TIP3    H118999   2.856   6.852   4.128
 6345TIP3    H219000   2.757   6.738   4.132
 6346TIP3   OH219001   5.503   5.182   3.437
 6346TIP3    H119002   5.408   5.178   3.423
 6346TIP3    H219003   5.528   5.093   3.462
 6347TIP3   OH219004   2.908   6.540   0.711
 6347TIP3    H119005   2.894   6.462   0.658
 6347TIP3    H219006   2.845   6.604   0.677
 6348TIP3   OH219007   6.800   2.746   2.480
 6348TIP3    H119008   6.737   2.716   2.545
 6348TIP3    H219009   6.853   2.669   2.460
 6349TIP3   OH219010   1.418   0.791   4.527
 6349TIP3    H119011   1.363   0.859   4.566
 6349TIP3    H219012   1.374   0.709   4.551
 6350TIP3   OH219013   0.971   3.066   2.004
 6350TIP3    H119014   0.989   3.031   1.917
 6350TIP3    H219015   1.055   3.099   2.035
 6351TIP3   OH219016   4.097   4.578   3.435
 6351TIP3    H119017   4.065   4.494   3.469
 6351TIP3    H219018   4.174   4.597   3.489
 6352TIP3   OH219019   3.741   1.157   3.005
 6352TIP3    H119020   3.724   1.065   3.028
 6352TIP3    H219021   3.782   1.194   3.083
 6353TIP3   OH219022   5.986   4.317   3.641
 6353TIP3    H119023   5.913   4.363   3.682
 6353TIP3    H219024   6.012   4.252   3.706
 6354TIP3   OH219025   4.698   2.307   5.576
 6354TIP3    H119026   4.687   2.245   5.504
 6354TIP3    H219027   4.745   2.381   5.537
 6355TIP3   OH219028   5.760   5.190   1.229
 6355TIP3    H119029   5.681   5.244   1.224
 6355TIP3    H219030   5.818   5.225   1.161
 6356TIP3   OH219031   0.563   1.376   4.511
 6356TIP3    H119032   0.637   1.437   4.512
 6356TIP3    H219033   0.491   1.426   4.472
 6357TIP3   OH219034   6.327   6.628   4.859
 6357TIP3    H119035   6.279   6.710   4.872
 6357TIP3    H219036   6.383   6.644   4.783
 6358TIP3   OH219037   1.648   2.587   3.745
 6358TIP3    H119038   1.597   2.517   3.705
 6358TIP3    H219039   1.584   2.637   3.796
 6359TIP3   OH219040   1.352   1.642   2.902
 6359TIP3    H119041   1.308   1.637   2.986
 6359TIP3    H219042   1.439   1.677   2.922
 6360TIP3   OH219043   0.619   1.391   1.988
 6360TIP3    H119044   0.703   1.365   1.949
 6360TIP3    H219045   0.638   1.401   2.081
 6361TIP3   OH219046   7.195   0.811   0.695
 6361TIP3    H119047   7.197   0.716   0.685
 6361TIP3    H219048   7.115   0.829   0.744
 6362TIP3   OH219049   3.743   1.837   0.142
 6362TIP3    H119050   3.793   1.876   0.213
 6362TIP3    H219051   3.718   1.912   0.087
 6363TIP3   OH219052   5.132   3.894   2.302
 6363TIP3    H119053   5.072   3.917   2.230
 6363TIP3    H219054   5.192   3.968   2.308
 6364TIP3   OH219055   2.498   4.050   0.950
 6364TIP3    H119056   2.444   3.973   0.969
 6364TIP3    H219057   2.518   4.043   0.857
 6365TIP3   OH219058   6.018   6.633   1.928
 6365TIP3    H119059   6.051   6.585   2.004
 6365TIP3    H219060   6.046   6.723   1.942
 6366TIP3   OH219061   2.434   6.355   4.694
 6366TIP3    H119062   2.364   6.289   4.698
 6366TIP3    H219063   2.423   6.396   4.608
 6367TIP3   OH219064   6.929   5.894   3.804
 6367TIP3    H119065   7.024   5.889   3.820
 6367TIP3    H219066   6.920   5.957   3.733
 6368TIP3   OH219067   5.898   5.573   3.618
 6368TIP3    H119068   5.844   5.630   3.563
 6368TIP3    H219069   5.890   5.610   3.706
 6369TIP3   OH219070   3.278   4.562   2.448
 6369TIP3    H119071   3.245   4.651   2.465
 6369TIP3    H219072   3.333   4.572   2.370
 6370TIP3   OH219073   6.108   2.596   1.456
 6370TIP3    H119074   6.082   2.504   1.451
 6370TIP3    H219075   6.192   2.594   1.502
 6371TIP3   OH219076   1.961   6.462   5.744
 6371TIP3    H119077   2.007   6.384   5.777
 6371TIP3    H219078   1.955   6.521   5.819
 6372TIP3   OH219079   0.643   5.320   4.070
 6372TIP3    H119080   0.554   5.297   4.094
 6372TIP3    H219081   0.645   5.416   4.074
 6373TIP3   OH219082   6.050   5.201   4.051
 6373TIP3    H119083   6.051   5.185   3.956
 6373TIP3    H219084   5.993   5.133   4.086
 6374TIP3   OH219085   6.960   0.769   2.550
 6374TIP3    H119086   7.029   0.717   2.591
 6374TIP3    H219087   6.888   0.768   2.613
 6375TIP3   OH219088   1.488   2.880   3.319
 6375TIP3    H119089   1.541   2.923   3.387
 6375TIP3    H219090   1.452   2.803   3.362
 6376TIP3   OH219091   4.506   2.532   3.856
 6376TIP3    H119092   4.550   2.525   3.940
 6376TIP3    H219093   4.420   2.493   3.871
 6377TIP3   OH219094   5.610   6.089   5.007
 6377TIP3    H119095   5.607   6.029   4.932
 6377TIP3    H219096   5.701   6.116   5.013
 6378TIP3   OH219097   3.997   1.000   3.625
 6378TIP3    H119098   4.082   0.957   3.626
 6378TIP3    H219099   3.970   0.998   3.533
 6379TIP3   OH219100   3.792   3.773   5.237
 6379TIP3    H119101   3.855   3.733   5.177
 6379TIP3    H219102   3.754   3.845   5.186
 6380TIP3   OH219103   3.743   3.461   3.304
 6380TIP3    H119104   3.680   3.506   3.359
 6380TIP3    H219105   3.802   3.417   3.365
 6381TIP3   OH219106   0.342   4.817   2.467
 6381TIP3    H119107   0.251   4.842   2.451
 6381TIP3    H219108   0.381   4.814   2.380
 6382TIP3   OH219109   4.442   5.728   2.905
 6382TIP3    H119110   4.519   5.758   2.952
 6382TIP3    H219111   4.476   5.672   2.836
 6383TIP3   OH219112   6.098   1.253   3.692
 6383TIP3    H119113   6.119   1.313   3.763
 6383TIP3    H219114   6.127   1.298   3.612
 6384TIP3   OH219115   5.851   3.334   3.925
 6384TIP3    H119116   5.864   3.380   4.008
 6384TIP3    H219117   5.884   3.245   3.942
 6385TIP3   OH219118   4.112   6.440   2.686
 6385TIP3    H119119   4.194   6.415   2.727
 6385TIP3    H219120   4.074   6.506   2.744
 6386TIP3   OH219121   5.510   6.520   1.162
 6386TIP3    H119122   5.544   6.561   1.083
 6386TIP3    H219123   5.531   6.582   1.232
 6387TIP3   OH219124   5.996   5.367   1.503
 6387TIP3    H119125   6.027   5.339   1.417
 6387TIP3    H219126   6.047   5.315   1.565
 6388TIP3   OH219127   4.500   2.627   4.255
 6388TIP3    H119128   4.593   2.630   4.276
 6388TIP3    H219129   4.471   2.718   4.259
 6389TIP3   OH219130   1.994   5.383   1.444
 6389TIP3    H119131   2.078   5.402   1.485
 6389TIP3    H219132   1.942   5.463   1.458
 6390TIP3   OH219133   6.720   2.310   5.126
 6390TIP3    H119134   6.702   2.242   5.191
 6390TIP3    H219135   6.697   2.392   5.170
 6391TIP3   OH219136   4.225   2.307   2.234
 6391TIP3    H119137   4.219   2.265   2.320
 6391TIP3    H219138   4.319   2.317   2.218
 6392TIP3   OH219139   3.758   1.165   5.424
 6392TIP3    H119140   3.763   1.147   5.518
 6392TIP3    H219141   3.724   1.254   5.419
 6393TIP3   OH219142   3.467   5.923   0.912
 6393TIP3    H119143   3.429   5.938   0.999
 6393TIP3    H219144   3.398   5.879   0.863
 6394TIP3   OH219145   0.890   3.719   1.220
 6394TIP3    H119146   0.979   3.746   1.198
 6394TIP3    H219147   0.834   3.784   1.178
 6395TIP3   OH219148   3.086   2.982   3.580
 6395TIP3    H119149   3.155   3.047   3.570
 6395TIP3    H219150   3.059   2.989   3.672
 6396TIP3   OH219151   6.283   4.369   4.969
 6396TIP3    H119152   6.230   4.429   5.022
 6396TIP3    H219153   6.220   4.306   4.933
 6397TIP3   OH219154   1.002   0.401   2.001
 6397TIP3    H119155   0.992   0.306   2.003
 6397TIP3    H219156   1.070   0.419   2.066
 6398TIP3   OH219157   3.417   1.950   2.417
 6398TIP3    H119158   3.358   2.011   2.461
 6398TIP3    H219159   3.360   1.895   2.364
 6399TIP3   OH219160   1.032   5.835   2.988
 6399TIP3    H119161   1.102   5.873   3.042
 6399TIP3    H219162   0.965   5.903   2.986
 6400TIP3   OH219163   4.757   6.298   0.970
 6400TIP3    H119164   4.716   6.314   0.885
 6400TIP3    H219165   4.706   6.350   1.032
 6401TIP3   OH219166   6.705   5.592   0.375
 6401TIP3    H119167   6.748   5.598   0.290
 6401TIP3    H219168   6.774   5.567   0.436
 6402TIP3   OH219169   6.976   4.866   1.358
 6402TIP3    H119170   6.957   4.873   1.452
 6402TIP3    H219171   7.012   4.778   1.348
 6403TIP3   OH219172   3.393   5.186   1.181
 6403TIP3    H119173   3.368   5.094   1.175
 6403TIP3    H219174   3.437   5.204   1.099
 6404TIP3   OH219175   5.308   3.910   3.176
 6404TIP3    H119176   5.397   3.936   3.154
 6404TIP3    H219177   5.292   3.832   3.123
 6405TIP3   OH219178   5.165   5.749   3.547
 6405TIP3    H119179   5.149   5.797   3.466
 6405TIP3    H219180   5.127   5.663   3.532
 6406TIP3   OH219181   6.423   2.358   4.042
 6406TIP3    H119182   6.472   2.294   4.092
 6406TIP3    H219183   6.359   2.306   3.993
 6407TIP3   OH219184   6.380   2.692   2.126
 6407TIP3    H119185   6.404   2.621   2.186
 6407TIP3    H219186   6.284   2.694   2.129
 6408TIP3   OH219187   5.161   1.743   0.810
 6408TIP3    H119188   5.248   1.718   0.840
 6408TIP3    H219189   5.151   1.834   0.838
 6409TIP3   OH219190   4.020   3.185   4.210
 6409TIP3    H119191   4.032   3.279   4.195
 6409TIP3    H219192   3.925   3.174   4.219
 6410TIP3   OH219193   5.033   2.080   2.668
 6410TIP3    H119194   5.008   2.123   2.586
 6410TIP3    H219195   5.020   1.986   2.651
 6411TIP3   OH219196   1.909   0.777   3.788
 6411TIP3    H119197   1.946   0.862   3.811
 6411TIP3    H219198   1.982   0.729   3.748
 6412TIP3   OH219199   1.562   0.670   3.408
 6412TIP3    H119200   1.484   0.626   3.443
 6412TIP3    H219201   1.635   0.620   3.443
 6413TIP3   OH219202   3.137   4.341   1.747
 6413TIP3    H119203   3.194   4.415   1.727
 6413TIP3    H219204   3.152   4.323   1.840
 6414TIP3   OH219205   6.666   5.640   5.061
 6414TIP3    H119206   6.639   5.612   4.974
 6414TIP3    H219207   6.754   5.605   5.072
 6415TIP3   OH219208   1.704   2.265   2.618
 6415TIP3    H119209   1.705   2.354   2.584
 6415TIP3    H219210   1.650   2.216   2.556
 6416TIP3   OH219211   4.184   0.443   4.488
 6416TIP3    H119212   4.183   0.406   4.400
 6416TIP3    H219213   4.222   0.374   4.543
 6417TIP3   OH219214   0.781   6.405   2.952
 6417TIP3    H119215   0.799   6.377   2.862
 6417TIP3    H219216   0.734   6.488   2.943
 6418TIP3   OH219217   4.801   6.264   0.454
 6418TIP3    H119218   4.843   6.308   0.380
 6418TIP3    H219219   4.821   6.171   0.442
 6419TIP3   OH219220   3.971   5.145   0.466
 6419TIP3    H119221   3.971   5.076   0.532
 6419TIP3    H219222   4.035   5.117   0.401
 6420TIP3   OH219223   6.951   0.580   5.154
 6420TIP3    H119224   6.913   0.513   5.210
 6420TIP3    H219225   7.043   0.584   5.180
 6421TIP3   OH219226   2.298   6.685   2.514
 6421TIP3    H119227   2.265   6.617   2.572
 6421TIP3    H219228   2.393   6.674   2.516
 6422TIP3   OH219229   5.831   1.041   2.974
 6422TIP3    H119230   5.757   0.981   2.970
 6422TIP3    H219231   5.797   1.124   2.939
 6423TIP3   OH219232   6.006   4.633   0.738
 6423TIP3    H119233   6.040   4.625   0.827
 6423TIP3    H219234   6.008   4.727   0.720
 6424TIP3   OH219235   0.794   4.312   0.507
 6424TIP3    H119236   0.808   4.275   0.420
 6424TIP3    H219237   0.854   4.387   0.511
 6425TIP3   OH219238   2.741   1.827   5.228
 6425TIP3    H119239   2.720   1.873   5.146
 6425TIP3    H219240   2.700   1.742   5.219
 6426TIP3   OH219241   0.178   2.582   0.235
 6426TIP3    H119242   0.214   2.658   0.282
 6426TIP3    H219243   0.233   2.573   0.157
 6427TIP3   OH219244   7.156   1.522   3.993
 6427TIP3    H119245   7.248   1.532   4.018
 6427TIP3    H219246   7.122   1.611   3.988
 6428TIP3   OH219247   4.264   4.669   0.207
 6428TIP3    H119248   4.200   4.661   0.277
 6428TIP3    H219249   4.215   4.703   0.132
 6429TIP3   OH219250   2.265   1.486   3.174
 6429TIP3    H119251   2.298   1.489   3.264
 6429TIP3    H219252   2.343   1.492   3.119
 6430TIP3   OH219253   4.247   6.715   2.059
 6430TIP3    H119254   4.276   6.806   2.068
 6430TIP3    H219255   4.182   6.717   1.989
 6431TIP3   OH219256   3.916   6.634   2.783
 6431TIP3    H119257   3.842   6.582   2.816
 6431TIP3    H219258   3.890   6.725   2.800
 6432TIP3   OH219259   6.592   2.806   5.386
 6432TIP3    H119260   6.599   2.742   5.457
 6432TIP3    H219261   6.568   2.888   5.429
 6433TIP3   OH219262   4.237   2.429   2.523
 6433TIP3    H119263   4.231   2.336   2.499
 6433TIP3    H219264   4.327   2.454   2.500
 6434TIP3   OH219265   6.755   1.662   1.382
 6434TIP3    H119266   6.793   1.581   1.349
 6434TIP3    H219267   6.767   1.658   1.477
 6435TIP3   OH219268   1.919   5.074   1.964
 6435TIP3    H119269   1.964   5.106   1.886
 6435TIP3    H219270   1.836   5.039   1.932
 6436TIP3   OH219271   3.507   5.043   4.156
 6436TIP3    H119272   3.440   5.108   4.178
 6436TIP3    H219273   3.494   5.027   4.063
 6437TIP3   OH219274   1.766   6.715   5.604
 6437TIP3    H119275   1.849   6.694   5.563
 6437TIP3    H219276   1.750   6.807   5.582
 6438TIP3   OH219277   0.654   2.462   3.419
 6438TIP3    H119278   0.706   2.503   3.489
 6438TIP3    H219279   0.638   2.533   3.357
 6439TIP3   OH219280   0.049   2.771   4.204
 6439TIP3    H119281   0.048   2.829   4.280
 6439TIP3    H219282   0.141   2.765   4.179
 6440TIP3   OH219283   1.347   1.316   0.656
 6440TIP3    H119284   1.335   1.359   0.571
 6440TIP3    H219285   1.315   1.227   0.642
 6441TIP3   OH219286   2.723   0.974   5.586
 6441TIP3    H119287   2.818   0.981   5.574
 6441TIP3    H219288   2.711   0.888   5.627
 6442TIP3   OH219289   2.377   1.032   0.729
 6442TIP3    H119290   2.421   0.955   0.763
 6442TIP3    H219291   2.422   1.051   0.647
 6443TIP3   OH219292   1.926   4.513   4.497
 6443TIP3    H119293   1.867   4.512   4.573
 6443TIP3    H219294   1.979   4.434   4.508
 6444TIP3   OH219295   6.836   3.872   0.754
 6444TIP3    H119296   6.857   3.865   0.661
 6444TIP3    H219297   6.754   3.920   0.756
 6445TIP3   OH219298   3.043   2.144   0.763
 6445TIP3    H119299   3.004   2.091   0.693
 6445TIP3    H219300   2.983   2.217   0.773
 6446TIP3   OH219301   7.095   2.297   0.651
 6446TIP3    H119302   7.029   2.237   0.617
 6446TIP3    H219303   7.048   2.348   0.717
 6447TIP3   OH219304   3.623   1.691   0.721
 6447TIP3    H119305   3.710   1.715   0.689
 6447TIP3    H219306   3.562   1.730   0.657
 6448TIP3   OH219307   6.785   2.655   4.986
 6448TIP3    H119308   6.712   2.613   4.940
 6448TIP3    H219309   6.846   2.584   5.005
 6449TIP3   OH219310   0.237   1.996   5.639
 6449TIP3    H119311   0.206   2.080   5.606
 6449TIP3    H219312   0.199   1.990   5.727
 6450TIP3   OH219313   1.529   0.846   0.879
 6450TIP3    H119314   1.588   0.770   0.886
 6450TIP3    H219315   1.547   0.881   0.792
 6451TIP3   OH219316   6.112   0.740   2.673
 6451TIP3    H119317   6.096   0.835   2.676
 6451TIP3    H219318   6.174   0.724   2.744
 6452TIP3   OH219319   0.248   6.018   5.068
 6452TIP3    H119320   0.280   6.107   5.085
 6452TIP3    H219321   0.320   5.975   5.023
 6453TIP3   OH219322   1.102   5.014   1.540
 6453TIP3    H119323   1.047   5.091   1.528
 6453TIP3    H219324   1.076   4.978   1.625
 6454TIP3   OH219325   6.376   2.693   4.730
 6454TIP3    H119326   6.317   2.621   4.751
 6454TIP3    H219327   6.357   2.760   4.797
 6455TIP3   OH219328   2.913   0.193   0.879
 6455TIP3    H119329   2.896   0.278   0.918
 6455TIP3    H219330   2.947   0.213   0.792
 6456TIP3   OH219331   3.142   1.658   1.907
 6456TIP3    H119332   3.185   1.743   1.898
 6456TIP3    H219333   3.075   1.658   1.838
 6457TIP3   OH219334   2.381   5.673   5.525
 6457TIP3    H119335   2.418   5.656   5.438
 6457TIP3    H219336   2.290   5.700   5.508
 6458TIP3   OH219337   0.083   6.029   1.171
 6458TIP3    H119338   0.098   6.035   1.265
 6458TIP3    H219339   0.145   5.962   1.141
 6459TIP3   OH219340   4.398   4.484   1.873
 6459TIP3    H119341   4.407   4.392   1.851
 6459TIP3    H219342   4.323   4.488   1.932
 6460TIP3   OH219343   6.226   3.741   3.497
 6460TIP3    H119344   6.156   3.676   3.501
 6460TIP3    H219345   6.262   3.743   3.586
 6461TIP3   OH219346   1.055   2.083   4.129
 6461TIP3    H119347   1.051   2.154   4.065
 6461TIP3    H219348   1.099   2.012   4.083
 6462TIP3   OH219349   3.698   5.165   5.149
 6462TIP3    H119350   3.750   5.109   5.091
 6462TIP3    H219351   3.627   5.198   5.093
 6463TIP3   OH219352   5.918   2.624   3.850
 6463TIP3    H119353   5.833   2.665   3.835
 6463TIP3    H219354   5.898   2.532   3.866
 6464TIP3   OH219355   4.241   2.225   0.002
 6464TIP3    H119356   4.265   2.207   0.093
 6464TIP3    H219357   4.324   2.246  -0.041
 6465TIP3   OH219358   4.304   0.217   3.506
 6465TIP3    H119359   4.340   0.194   3.420
 6465TIP3    H219360   4.210   0.196   3.499
 6466TIP3   OH219361   6.484   2.729   0.198
 6466TIP3    H119362   6.430   2.712   0.276
 6466TIP3    H219363   6.557   2.668   0.205
 6467TIP3   OH219364   6.949   4.861   5.093
 6467TIP3    H119365   6.993   4.912   5.161
 6467TIP3    H219366   6.857   4.886   5.099
 6468TIP3   OH219367   0.175   4.006   2.389
 6468TIP3    H119368   0.108   4.071   2.371
 6468TIP3    H219369   0.258   4.054   2.383
 6469TIP3   OH219370   6.907   6.638   1.363
 6469TIP3    H119371   6.821   6.645   1.323
 6469TIP3    H219372   6.956   6.713   1.327
 6470TIP3   OH219373   3.156   0.562   1.474
 6470TIP3    H119374   3.176   0.619   1.549
 6470TIP3    H219375   3.067   0.530   1.491
 6471TIP3   OH219376   6.127   1.911   5.580
 6471TIP3    H119377   6.080   1.965   5.644
 6471TIP3    H219378   6.211   1.893   5.621
 6472TIP3   OH219379   1.160   6.421   2.328
 6472TIP3    H119380   1.223   6.402   2.259
 6472TIP3    H219381   1.100   6.485   2.290
 6473TIP3   OH219382   5.998   2.118   2.578
 6473TIP3    H119383   5.960   2.149   2.660
 6473TIP3    H219384   5.925   2.078   2.532
 6474TIP3   OH219385   2.878   4.701   0.689
 6474TIP3    H119386   2.860   4.782   0.642
 6474TIP3    H219387   2.792   4.669   0.717
 6475TIP3   OH219388   2.556   5.450   3.479
 6475TIP3    H119389   2.498   5.399   3.535
 6475TIP3    H219390   2.588   5.388   3.414
 6476TIP3   OH219391   2.562   4.840   5.788
 6476TIP3    H119392   2.626   4.769   5.785
 6476TIP3    H219393   2.596   4.901   5.853
 6477TIP3   OH219394   6.227   1.913   2.575
 6477TIP3    H119395   6.194   1.853   2.508
 6477TIP3    H219396   6.155   1.975   2.588
 6478TIP3   OH219397   0.081   3.733   0.253
 6478TIP3    H119398   0.018   3.770   0.190
 6478TIP3    H219399   0.060   3.640   0.256
 6479TIP3   OH219400   2.997   5.938   0.083
 6479TIP3    H119401   3.029   5.866   0.138
 6479TIP3    H219402   2.927   5.899   0.031
 6480TIP3   OH219403   0.985   0.410   0.913
 6480TIP3    H119404   0.998   0.485   0.855
 6480TIP3    H219405   1.065   0.408   0.966
 6481TIP3   OH219406   5.767   2.637   0.060
 6481TIP3    H119407   5.677   2.623   0.089
 6481TIP3    H219408   5.767   2.609  -0.031
 6482TIP3   OH219409   3.684   1.217   2.523
 6482TIP3    H119410   3.749   1.148   2.507
 6482TIP3    H219411   3.714   1.291   2.469
 6483TIP3   OH219412   6.004   1.304   4.206
 6483TIP3    H119413   5.964   1.363   4.142
 6483TIP3    H219414   6.078   1.264   4.160
 6484TIP3   OH219415   2.637   6.367   2.933
 6484TIP3    H119416   2.637   6.278   2.969
 6484TIP3    H219417   2.730   6.390   2.927
 6485TIP3   OH219418   3.112   0.796   3.600
 6485TIP3    H119419   3.165   0.770   3.524
 6485TIP3    H219420   3.028   0.752   3.586
 6486TIP3   OH219421   0.453   1.043   2.854
 6486TIP3    H119422   0.528   1.078   2.805
 6486TIP3    H219423   0.428   1.113   2.914
 6487TIP3   OH219424   4.893   0.458   5.314
 6487TIP3    H119425   4.972   0.446   5.263
 6487TIP3    H219426   4.907   0.540   5.361
 6488TIP3   OH219427   0.384   6.716   0.860
 6488TIP3    H119428   0.374   6.810   0.845
 6488TIP3    H219429   0.435   6.685   0.785
 6489TIP3   OH219430   6.027   0.551   3.255
 6489TIP3    H119431   6.109   0.570   3.301
 6489TIP3    H219432   6.022   0.456   3.253
 6490TIP3   OH219433   5.070   6.646   2.117
 6490TIP3    H119434   5.066   6.560   2.160
 6490TIP3    H219435   5.162   6.657   2.095
 6491TIP3   OH219436   4.386   6.667   1.434
 6491TIP3    H119437   4.310   6.617   1.404
 6491TIP3    H219438   4.449   6.662   1.361
 6492TIP3   OH219439   5.895   5.401   5.485
 6492TIP3    H119440   5.975   5.348   5.482
 6492TIP3    H219441   5.836   5.352   5.543
 6493TIP3   OH219442   2.820   3.001   0.632
 6493TIP3    H119443   2.913   2.980   0.639
 6493TIP3    H219444   2.779   2.918   0.609
 6494TIP3   OH219445   2.871   6.634   3.498
 6494TIP3    H119446   2.912   6.552   3.524
 6494TIP3    H219447   2.926   6.702   3.537
 6495TIP3   OH219448   5.268   3.675   2.418
 6495TIP3    H119449   5.343   3.659   2.361
 6495TIP3    H219450   5.231   3.758   2.388
 6496TIP3   OH219451   2.777   2.978   4.661
 6496TIP3    H119452   2.756   2.888   4.633
 6496TIP3    H219453   2.854   2.968   4.716
 6497TIP3   OH219454   1.802   1.862   3.753
 6497TIP3    H119455   1.708   1.849   3.742
 6497TIP3    H219456   1.838   1.854   3.665
 6498TIP3   OH219457   1.757   5.675   0.730
 6498TIP3    H119458   1.819   5.655   0.800
 6498TIP3    H219459   1.813   5.703   0.657
 6499TIP3   OH219460   6.349   0.467   3.822
 6499TIP3    H119461   6.312   0.546   3.860
 6499TIP3    H219462   6.284   0.438   3.758
 6500TIP3   OH219463   0.989   2.294   0.346
 6500TIP3    H119464   0.913   2.314   0.402
 6500TIP3    H219465   1.042   2.374   0.347
 6501TIP3   OH219466   0.340   6.280   5.085
 6501TIP3    H119467   0.417   6.335   5.102
 6501TIP3    H219468   0.271   6.342   5.062
 6502TIP3   OH219469   7.131   3.882   3.870
 6502TIP3    H119470   7.149   3.791   3.847
 6502TIP3    H219471   7.098   3.878   3.960
 6503TIP3   OH219472   4.469   0.491   3.092
 6503TIP3    H119473   4.445   0.442   3.171
 6503TIP3    H219474   4.454   0.582   3.115
 6504TIP3   OH219475   3.136   0.193   3.436
 6504TIP3    H119476   3.074   0.123   3.456
 6504TIP3    H219477   3.122   0.258   3.505
 6505TIP3   OH219478   2.559   1.497   0.293
 6505TIP3    H119479   2.558   1.562   0.363
 6505TIP3    H219480   2.525   1.543   0.217
 6506TIP3   OH219481   1.413   2.738   5.562
 6506TIP3    H119482   1.445   2.714   5.475
 6506TIP3    H219483   1.490   2.776   5.606
 6507TIP3   OH219484   3.480   2.295   3.123
 6507TIP3    H119485   3.496   2.204   3.147
 6507TIP3    H219486   3.540   2.345   3.179
 6508TIP3   OH219487   6.089   2.867   5.007
 6508TIP3    H119488   6.075   2.773   5.019
 6508TIP3    H219489   6.017   2.895   4.950
 6509TIP3   OH219490   2.455   0.018   3.766
 6509TIP3    H119491   2.476   0.109   3.745
 6509TIP3    H219492   2.534  -0.031   3.747
 6510TIP3   OH219493   4.376   5.242   5.514
 6510TIP3    H119494   4.354   5.161   5.468
 6510TIP3    H219495   4.332   5.311   5.463
 6511TIP3   OH219496   2.856   5.016   5.089
 6511TIP3    H119497   2.807   4.977   5.161
 6511TIP3    H219498   2.824   4.970   5.011
 6512TIP3   OH219499   5.115   3.614   3.487
 6512TIP3    H119500   5.196   3.665   3.485
 6512TIP3    H219501   5.114   3.568   3.403
 6513TIP3   OH219502   4.991   3.570   0.301
 6513TIP3    H119503   5.078   3.563   0.262
 6513TIP3    H219504   4.999   3.529   0.388
 6514TIP3   OH219505   0.928   2.620   5.647
 6514TIP3    H119506   0.888   2.670   5.719
 6514TIP3    H219507   0.902   2.529   5.664
 6515TIP3   OH219508   0.267   4.285   2.332
 6515TIP3    H119509   0.334   4.277   2.400
 6515TIP3    H219510   0.303   4.348   2.270
 6516TIP3   OH219511   7.048   3.506   3.459
 6516TIP3    H119512   7.051   3.596   3.492
 6516TIP3    H219513   7.043   3.452   3.538
 6517TIP3   OH219514   5.482   2.618   3.915
 6517TIP3    H119515   5.420   2.558   3.873
 6517TIP3    H219516   5.517   2.568   3.989
 6518TIP3   OH219517   5.365   5.645   5.545
 6518TIP3    H119518   5.414   5.719   5.508
 6518TIP3    H219519   5.348   5.671   5.636
 6519TIP3   OH219520   3.548   4.222   5.674
 6519TIP3    H119521   3.615   4.182   5.618
 6519TIP3    H219522   3.465   4.189   5.639
 6520TIP3   OH219523   6.861   0.977   4.286
 6520TIP3    H119524   6.919   0.967   4.210
 6520TIP3    H219525   6.792   0.912   4.271
 6521TIP3   OH219526   6.147   1.637   4.065
 6521TIP3    H119527   6.136   1.567   4.129
 6521TIP3    H219528   6.241   1.655   4.064
 6522TIP3   OH219529   6.262   2.958   5.588
 6522TIP3    H119530   6.228   2.888   5.644
 6522TIP3    H219531   6.357   2.945   5.589
 6523TIP3   OH219532   4.582   5.550   5.104
 6523TIP3    H119533   4.541   5.463   5.110
 6523TIP3    H219534   4.576   5.572   5.012
 6524TIP3   OH219535   1.932   0.034   5.258
 6524TIP3    H119536   1.930   0.124   5.223
 6524TIP3    H219537   1.999  -0.010   5.206
 6525TIP3   OH219538   0.370   2.712   0.747
 6525TIP3    H119539   0.448   2.656   0.745
 6525TIP3    H219540   0.300   2.654   0.776
 6526TIP3   OH219541   2.885   0.729   3.261
 6526TIP3    H119542   2.818   0.717   3.193
 6526TIP3    H219543   2.869   0.817   3.296
 6527TIP3   OH219544   5.758   4.983   5.107
 6527TIP3    H119545   5.673   4.971   5.150
 6527TIP3    H219546   5.781   4.896   5.075
 6528TIP3   OH219547   2.895   6.405   2.642
 6528TIP3    H119548   2.839   6.336   2.679
 6528TIP3    H219549   2.984   6.375   2.661
 6529TIP3   OH219550   1.192   4.036   4.483
 6529TIP3    H119551   1.139   3.966   4.519
 6529TIP3    H219552   1.213   4.007   4.394
 6530TIP3   OH219553   3.350   5.388   4.817
 6530TIP3    H119554   3.300   5.309   4.798
 6530TIP3    H219555   3.431   5.379   4.766
 6531TIP3   OH219556   0.926   6.317   4.369
 6531TIP3    H119557   0.902   6.248   4.307
 6531TIP3    H219558   0.866   6.304   4.443
 6532TIP3   OH219559   4.284   5.405   5.288
 6532TIP3    H119560   4.260   5.384   5.198
 6532TIP3    H219561   4.209   5.453   5.323
 6533TIP3   OH219562   2.997   1.916   5.251
 6533TIP3    H119563   3.014   1.942   5.160
 6533TIP3    H219564   2.906   1.887   5.251
 6534TIP3   OH219565   0.037   1.886   2.533
 6534TIP3    H119566   0.028   1.924   2.620
 6534TIP3    H219567   0.128   1.858   2.528
 6535TIP3   OH219568   3.274   2.628   3.315
 6535TIP3    H119569   3.289   2.540   3.349
 6535TIP3    H219570   3.280   2.685   3.392
 6536TIP3   OH219571   3.398   4.920   1.076
 6536TIP3    H119572   3.409   4.828   1.052
 6536TIP3    H219573   3.350   4.958   1.003
 6537TIP3   OH219574   1.785   6.702   4.017
 6537TIP3    H119575   1.806   6.626   3.963
 6537TIP3    H219576   1.866   6.722   4.064
 6538TIP3   OH219577   5.053   0.063   4.659
 6538TIP3    H119578   5.109   0.109   4.721
 6538TIP3    H219579   5.030   0.129   4.594
 6539TIP3   OH219580   3.468   2.473   2.017
 6539TIP3    H119581   3.503   2.499   1.931
 6539TIP3    H219582   3.400   2.538   2.035
 6540TIP3   OH219583   5.298   2.866   2.837
 6540TIP3    H119584   5.273   2.830   2.922
 6540TIP3    H219585   5.277   2.797   2.774
 6541TIP3   OH219586   4.873   5.795   3.431
 6541TIP3    H119587   4.809   5.866   3.427
 6541TIP3    H219588   4.947   5.826   3.380
 6542TIP3   OH219589   2.809   2.000   2.462
 6542TIP3    H119590   2.775   2.055   2.391
 6542TIP3    H219591   2.862   2.060   2.515
 6543TIP3   OH219592   1.770   3.321   2.103
 6543TIP3    H119593   1.730   3.362   2.026
 6543TIP3    H219594   1.797   3.395   2.158
 6544TIP3   OH219595   4.616   4.122   5.360
 6544TIP3    H119596   4.625   4.208   5.319
 6544TIP3    H219597   4.613   4.060   5.287
 6545TIP3   OH219598   6.334   4.508   2.717
 6545TIP3    H119599   6.378   4.487   2.799
 6545TIP3    H219600   6.395   4.479   2.649
 6546TIP3   OH219601   6.693   3.014   1.846
 6546TIP3    H119602   6.622   3.079   1.848
 6546TIP3    H219603   6.649   2.930   1.855
 6547TIP3   OH219604   2.434   0.621   0.254
 6547TIP3    H119605   2.375   0.626   0.179
 6547TIP3    H219606   2.378   0.635   0.330
 6548TIP3   OH219607   1.640   2.166   1.901
 6548TIP3    H119608   1.582   2.222   1.953
 6548TIP3    H219609   1.647   2.210   1.816
 6549TIP3   OH219610   3.084   0.433   4.977
 6549TIP3    H119611   3.016   0.399   5.036
 6549TIP3    H219612   3.153   0.367   4.980
 6550TIP3   OH219613   4.317   3.037   4.964
 6550TIP3    H119614   4.336   3.097   4.892
 6550TIP3    H219615   4.353   3.081   5.042
 6551TIP3   OH219616   2.430   3.322   1.160
 6551TIP3    H119617   2.435   3.264   1.083
 6551TIP3    H219618   2.505   3.296   1.214
 6552TIP3   OH219619   1.287   0.741   1.838
 6552TIP3    H119620   1.380   0.718   1.838
 6552TIP3    H219621   1.242   0.659   1.818
 6553TIP3   OH219622   1.383   6.251   1.658
 6553TIP3    H119623   1.372   6.326   1.716
 6553TIP3    H219624   1.473   6.223   1.671
 6554TIP3   OH219625   5.702   1.542   1.637
 6554TIP3    H119626   5.616   1.513   1.609
 6554TIP3    H219627   5.739   1.467   1.684
 6555TIP3   OH219628   4.977   6.334   1.746
 6555TIP3    H119629   4.930   6.387   1.810
 6555TIP3    H219630   5.064   6.320   1.785
 6556TIP3   OH219631   5.986   0.883   0.149
 6556TIP3    H119632   5.991   0.814   0.215
 6556TIP3    H219633   6.064   0.937   0.164
 6557TIP3   OH219634   2.349   5.328   5.160
 6557TIP3    H119635   2.406   5.257   5.129
 6557TIP3    H219636   2.377   5.404   5.109
 6558TIP3   OH219637   4.895   0.277   0.968
 6558TIP3    H119638   4.846   0.326   1.034
 6558TIP3    H219639   4.943   0.344   0.919
 6559TIP3   OH219640   3.563   6.619   0.698
 6559TIP3    H119641   3.649   6.599   0.659
 6559TIP3    H219642   3.514   6.537   0.690
 6560TIP3   OH219643   2.200   3.013   1.247
 6560TIP3    H119644   2.146   3.066   1.306
 6560TIP3    H219645   2.176   3.042   1.160
 6561TIP3   OH219646   5.427   2.767   5.749
 6561TIP3    H119647   5.480   2.758   5.828
 6561TIP3    H219648   5.408   2.860   5.744
 6562TIP3   OH219649   1.583   2.657   4.748
 6562TIP3    H119650   1.627   2.735   4.781
 6562TIP3    H219651   1.641   2.585   4.773
 6563TIP3   OH219652   2.710   6.623   4.813
 6563TIP3    H119653   2.698   6.696   4.753
 6563TIP3    H219654   2.761   6.659   4.886
 6564TIP3   OH219655   6.523   3.455   4.503
 6564TIP3    H119656   6.590   3.497   4.448
 6564TIP3    H219657   6.448   3.445   4.445
 6565TIP3   OH219658   7.115   2.210   5.168
 6565TIP3    H119659   7.193   2.207   5.224
 6565TIP3    H219660   7.103   2.303   5.150
 6566TIP3   OH219661   2.116   1.418   5.623
 6566TIP3    H119662   2.193   1.377   5.585
 6566TIP3    H219663   2.042   1.377   5.578
 6567TIP3   OH219664   5.665   0.492   1.347
 6567TIP3    H119665   5.623   0.567   1.304
 6567TIP3    H219666   5.660   0.422   1.282
 6568TIP3   OH219667   3.640   2.763   0.076
 6568TIP3    H119668   3.582   2.713   0.019
 6568TIP3    H219669   3.717   2.781   0.022
 6569TIP3   OH219670   3.384   1.291   4.427
 6569TIP3    H119671   3.360   1.313   4.517
 6569TIP3    H219672   3.365   1.197   4.420
 6570TIP3   OH219673   5.437   5.489   0.674
 6570TIP3    H119674   5.430   5.567   0.729
 6570TIP3    H219675   5.389   5.512   0.594
 6571TIP3   OH219676   1.849   6.026   4.189
 6571TIP3    H119677   1.787   6.067   4.249
 6571TIP3    H219678   1.799   6.013   4.108
 6572TIP3   OH219679   1.288   5.506   4.931
 6572TIP3    H119680   1.322   5.421   4.960
 6572TIP3    H219681   1.201   5.512   4.970
 6573TIP3   OH219682   4.690   0.921   4.937
 6573TIP3    H119683   4.757   0.938   5.004
 6573TIP3    H219684   4.733   0.861   4.875
 6574TIP3   OH219685   0.004   1.090   2.266
 6574TIP3    H119686   0.050   1.135   2.337
 6574TIP3    H219687   0.057   1.012   2.248
 6575TIP3   OH219688   2.848   0.420   2.275
 6575TIP3    H119689   2.757   0.393   2.283
 6575TIP3    H219690   2.875   0.385   2.190
 6576TIP3   OH219691   4.709   2.538   0.557
 6576TIP3    H119692   4.659   2.540   0.638
 6576TIP3    H219693   4.702   2.447   0.527
 6577TIP3   OH219694   3.994   4.083   0.058
 6577TIP3    H119695   4.018   4.031  -0.019
 6577TIP3    H219696   4.075   4.087   0.110
 6578TIP3   OH219697   2.397   5.358   5.422
 6578TIP3    H119698   2.319   5.393   5.466
 6578TIP3    H219699   2.364   5.327   5.337
 6579TIP3   OH219700   0.325   5.964   0.477
 6579TIP3    H119701   0.285   5.977   0.564
 6579TIP3    H219702   0.342   5.870   0.473
 6580TIP3   OH219703   3.786   0.747   1.784
 6580TIP3    H119704   3.746   0.716   1.702
 6580TIP3    H219705   3.714   0.789   1.831
 6581TIP3   OH219706   1.957   6.025   2.488
 6581TIP3    H119707   1.961   5.937   2.452
 6581TIP3    H219708   2.017   6.076   2.433
 6582TIP3   OH219709   6.097   3.205   0.826
 6582TIP3    H119710   6.024   3.242   0.777
 6582TIP3    H219711   6.155   3.170   0.759
 6583TIP3   OH219712   0.385   0.523   2.963
 6583TIP3    H119713   0.361   0.538   2.872
 6583TIP3    H219714   0.430   0.604   2.989
 6584TIP3   OH219715   3.193   6.187   5.579
 6584TIP3    H119716   3.121   6.250   5.590
 6584TIP3    H219717   3.158   6.105   5.613
 6585TIP3   OH219718   3.671   0.890   3.674
 6585TIP3    H119719   3.615   0.962   3.646
 6585TIP3    H219720   3.728   0.928   3.741
 6586TIP3   OH219721   2.838   4.869   1.232
 6586TIP3    H119722   2.902   4.937   1.251
 6586TIP3    H219723   2.880   4.788   1.262
 6587TIP3   OH219724   5.189   0.923   5.639
 6587TIP3    H119725   5.281   0.931   5.613
 6587TIP3    H219726   5.141   0.964   5.567
 6588TIP3   OH219727   5.334   2.429   3.780
 6588TIP3    H119728   5.411   2.414   3.725
 6588TIP3    H219729   5.262   2.441   3.717
 6589TIP3   OH219730   3.858   3.688   4.065
 6589TIP3    H119731   3.918   3.653   3.998
 6589TIP3    H219732   3.787   3.624   4.068
 6590TIP3   OH219733   4.239   5.984   3.437
 6590TIP3    H119734   4.288   5.943   3.509
 6590TIP3    H219735   4.201   6.063   3.476
 6591TIP3   OH219736   3.038   0.944   4.029
 6591TIP3    H119737   2.980   1.003   4.078
 6591TIP3    H219738   3.045   0.866   4.083
 6592TIP3   OH219739   2.093   6.228   4.720
 6592TIP3    H119740   2.154   6.178   4.666
 6592TIP3    H219741   2.118   6.319   4.706
 6593TIP3   OH219742   3.834   4.289   1.089
 6593TIP3    H119743   3.771   4.331   1.031
 6593TIP3    H219744   3.900   4.250   1.031
 6594TIP3   OH219745   6.933   5.750   1.359
 6594TIP3    H119746   6.856   5.714   1.403
 6594TIP3    H219747   6.900   5.825   1.310
 6595TIP3   OH219748   2.526   3.128   0.023
 6595TIP3    H119749   2.452   3.186   0.042
 6595TIP3    H219750   2.486   3.041   0.013
 6596TIP3   OH219751   4.024   0.919   2.230
 6596TIP3    H119752   4.020   1.004   2.186
 6596TIP3    H219753   4.111   0.885   2.210
 6597TIP3   OH219754   6.833   2.863   0.025
 6597TIP3    H119755   6.811   2.778   0.064
 6597TIP3    H219756   6.807   2.927   0.091
 6598TIP3   OH219757   0.163   1.756   3.240
 6598TIP3    H119758   0.143   1.849   3.235
 6598TIP3    H219759   0.257   1.751   3.225
 6599TIP3   OH219760   3.838   6.784   3.250
 6599TIP3    H119761   3.806   6.698   3.273
 6599TIP3    H219762   3.904   6.804   3.317
 6600TIP3   OH219763   0.017   0.943   3.391
 6600TIP3    H119764   0.111   0.946   3.410
 6600TIP3    H219765  -0.003   1.029   3.355
 6601TIP3   OH219766   2.375   6.372   0.311
 6601TIP3    H119767   2.294   6.414   0.282
 6601TIP3    H219768   2.364   6.279   0.289
 6602TIP3   OH219769   5.429   5.933   2.411
 6602TIP3    H119770   5.348   5.946   2.459
 6602TIP3    H219771   5.458   6.021   2.388
 6603TIP3   OH219772   1.995   1.940   5.081
 6603TIP3    H119773   2.019   2.032   5.092
 6603TIP3    H219774   1.966   1.934   4.990
 6604TIP3   OH219775   3.350   5.649   3.328
 6604TIP3    H119776   3.266   5.666   3.285
 6604TIP3    H219777   3.405   5.723   3.304
 6605TIP3   OH219778   2.939   0.778   4.824
 6605TIP3    H119779   2.870   0.792   4.889
 6605TIP3    H219780   3.019   0.769   4.875
 6606TIP3   OH219781   7.086   6.052   0.020
 6606TIP3    H119782   7.070   5.961  -0.008
 6606TIP3    H219783   7.041   6.059   0.104
 6607TIP3   OH219784   4.314   5.990   5.677
 6607TIP3    H119785   4.224   5.984   5.645
 6607TIP3    H219786   4.367   5.958   5.604
 6608TIP3   OH219787   1.768   2.530   2.593
 6608TIP3    H119788   1.819   2.467   2.643
 6608TIP3    H219789   1.786   2.614   2.634
 6609TIP3   OH219790   3.125   0.357   0.279
 6609TIP3    H119791   3.044   0.309   0.297
 6609TIP3    H219792   3.193   0.306   0.323
 6610TIP3   OH219793   2.896   1.265   4.031
 6610TIP3    H119794   2.878   1.242   4.122
 6610TIP3    H219795   2.914   1.359   4.034
 6611TIP3   OH219796   0.585   5.345   0.136
 6611TIP3    H119797   0.636   5.297   0.071
 6611TIP3    H219798   0.610   5.307   0.220
 6612TIP3   OH219799   2.707   0.958   2.922
 6612TIP3    H119800   2.792   0.994   2.946
 6612TIP3    H219801   2.709   0.868   2.955
 6613TIP3   OH219802   1.546   3.518   1.103
 6613TIP3    H119803   1.626   3.563   1.130
 6613TIP3    H219804   1.483   3.535   1.173
 6614TIP3   OH219805   7.171   6.547   4.233
 6614TIP3    H119806   7.183   6.584   4.146
 6614TIP3    H219807   7.189   6.453   4.222
 6615TIP3   OH219808   0.710   0.352   0.812
 6615TIP3    H119809   0.789   0.380   0.858
 6615TIP3    H219810   0.676   0.433   0.772
 6616TIP3   OH219811   0.769   1.024   4.560
 6616TIP3    H119812   0.709   0.998   4.490
 6616TIP3    H219813   0.760   0.956   4.626
 6617TIP3   OH219814   1.982   4.380   2.745
 6617TIP3    H119815   1.888   4.396   2.735
 6617TIP3    H219816   1.987   4.289   2.775
 6618TIP3   OH219817   5.406   1.616   4.802
 6618TIP3    H119818   5.335   1.619   4.866
 6618TIP3    H219819   5.415   1.523   4.780
 6619TIP3   OH219820   3.801   3.933   0.557
 6619TIP3    H119821   3.767   3.921   0.468
 6619TIP3    H219822   3.724   3.953   0.610
 6620TIP3   OH219823   6.684   2.411   2.457
 6620TIP3    H119824   6.610   2.354   2.476
 6620TIP3    H219825   6.692   2.409   2.361
 6621TIP3   OH219826   3.166   2.589   2.546
 6621TIP3    H119827   3.246   2.631   2.578
 6621TIP3    H219828   3.100   2.658   2.548
 6622TIP3   OH219829   5.039   3.583   4.753
 6622TIP3    H119830   5.118   3.547   4.796
 6622TIP3    H219831   4.967   3.536   4.794
 6623TIP3   OH219832   5.091   2.663   3.331
 6623TIP3    H119833   5.003   2.632   3.352
 6623TIP3    H219834   5.119   2.607   3.258
 6624TIP3   OH219835   1.080   3.739   2.090
 6624TIP3    H119836   1.005   3.743   2.030
 6624TIP3    H219837   1.045   3.700   2.170
 6625TIP3   OH219838   6.146   1.589   3.205
 6625TIP3    H119839   6.116   1.542   3.127
 6625TIP3    H219840   6.189   1.668   3.171
 6626TIP3   OH219841   7.060   1.807   5.486
 6626TIP3    H119842   7.036   1.861   5.411
 6626TIP3    H219843   7.150   1.833   5.507
 6627TIP3   OH219844   1.098   1.457   5.662
 6627TIP3    H119845   1.004   1.442   5.651
 6627TIP3    H219846   1.130   1.469   5.572
 6628TIP3   OH219847   5.708   3.173   1.645
 6628TIP3    H119848   5.623   3.212   1.666
 6628TIP3    H219849   5.772   3.237   1.674
 6629TIP3   OH219850   3.240   6.425   1.854
 6629TIP3    H119851   3.196   6.366   1.915
 6629TIP3    H219852   3.201   6.405   1.769
 6630TIP3   OH219853   6.395   2.552   4.485
 6630TIP3    H119854   6.411   2.565   4.578
 6630TIP3    H219855   6.301   2.566   4.474
 6631TIP3   OH219856   6.187   1.311   5.874
 6631TIP3    H119857   6.245   1.383   5.850
 6631TIP3    H219858   6.214   1.239   5.816
 6632TIP3   OH219859   6.133   5.743   0.423
 6632TIP3    H119860   6.100   5.700   0.344
 6632TIP3    H219861   6.178   5.674   0.471
 6633TIP3   OH219862   4.362   3.205   4.741
 6633TIP3    H119863   4.430   3.175   4.680
 6633TIP3    H219864   4.339   3.292   4.708
 6634TIP3   OH219865   0.521   6.579   1.891
 6634TIP3    H119866   0.587   6.543   1.832
 6634TIP3    H219867   0.459   6.507   1.904
 6635TIP3   OH219868   5.139   0.988   2.645
 6635TIP3    H119869   5.060   0.959   2.599
 6635TIP3    H219870   5.191   1.033   2.578
 6636TIP3   OH219871   6.405   0.886   4.049
 6636TIP3    H119872   6.328   0.865   3.995
 6636TIP3    H219873   6.453   0.804   4.055
 6637TIP3   OH219874   0.553   0.203   0.987
 6637TIP3    H119875   0.596   0.256   0.920
 6637TIP3    H219876   0.618   0.195   1.057
 6638TIP3   OH219877   1.538   4.810   5.434
 6638TIP3    H119878   1.596   4.805   5.510
 6638TIP3    H219879   1.597   4.806   5.359
 6639TIP3   OH219880   4.927   1.572   4.675
 6639TIP3    H119881   4.913   1.488   4.719
 6639TIP3    H219882   4.965   1.628   4.742
 6640TIP3   OH219883   3.662   4.494   2.244
 6640TIP3    H119884   3.648   4.511   2.150
 6640TIP3    H219885   3.748   4.531   2.263
 6641TIP3   OH219886   2.474   1.892   1.679
 6641TIP3    H119887   2.568   1.881   1.694
 6641TIP3    H219888   2.435   1.812   1.714
 6642TIP3   OH219889   6.604   5.256   0.866
 6642TIP3    H119890   6.596   5.301   0.950
 6642TIP3    H219891   6.621   5.165   0.889
 6643TIP3   OH219892   5.961   0.544   5.206
 6643TIP3    H119893   5.889   0.508   5.257
 6643TIP3    H219894   5.919   0.589   5.133
 6644TIP3   OH219895   2.615   5.199   3.667
 6644TIP3    H119896   2.595   5.108   3.647
 6644TIP3    H219897   2.576   5.214   3.753
 6645TIP3   OH219898   2.591   6.665   3.756
 6645TIP3    H119899   2.678   6.704   3.758
 6645TIP3    H219900   2.586   6.622   3.670
 6646TIP3   OH219901   5.610   0.356   2.222
 6646TIP3    H119902   5.627   0.276   2.172
 6646TIP3    H219903   5.590   0.421   2.155
 6647TIP3   OH219904   3.223   5.620   5.603
 6647TIP3    H119905   3.294   5.555   5.596
 6647TIP3    H219906   3.238   5.663   5.687
 6648TIP3   OH219907   5.062   3.821   3.877
 6648TIP3    H119908   5.012   3.857   3.804
 6648TIP3    H219909   5.153   3.830   3.851
 6649TIP3   OH219910   3.933   2.812   5.493
 6649TIP3    H119911   3.900   2.889   5.539
 6649TIP3    H219912   3.996   2.773   5.553
 6650TIP3   OH219913   3.938   5.492   3.674
 6650TIP3    H119914   4.021   5.539   3.669
 6650TIP3    H219915   3.874   5.558   3.702
 6651TIP3   OH219916   0.701   3.504   5.718
 6651TIP3    H119917   0.651   3.548   5.787
 6651TIP3    H219918   0.781   3.474   5.760
 6652TIP3   OH219919   2.812   2.048   4.816
 6652TIP3    H119920   2.879   2.036   4.884
 6652TIP3    H219921   2.847   2.117   4.760
 6653TIP3   OH219922   5.516   2.293   5.129
 6653TIP3    H119923   5.430   2.278   5.167
 6653TIP3    H219924   5.577   2.251   5.190
 6654TIP3   OH219925   0.815   3.637   3.700
 6654TIP3    H119926   0.880   3.619   3.632
 6654TIP3    H219927   0.864   3.632   3.782
 6655TIP3   OH219928   5.263   2.914   0.013
 6655TIP3    H119929   5.238   2.960   0.093
 6655TIP3    H219930   5.230   2.825   0.025
 6656TIP3   OH219931   2.837   0.742   2.721
 6656TIP3    H119932   2.756   0.693   2.707
 6656TIP3    H219933   2.817   0.831   2.692
 6657TIP3   OH219934   1.802   2.496   4.817
 6657TIP3    H119935   1.840   2.435   4.754
 6657TIP3    H219936   1.811   2.453   4.902
 6658TIP3   OH219937   7.146   3.731   5.127
 6658TIP3    H119938   7.164   3.735   5.033
 6658TIP3    H219939   7.132   3.823   5.152
 6659TIP3   OH219940   6.784   6.477   5.706
 6659TIP3    H119941   6.876   6.504   5.707
 6659TIP3    H219942   6.765   6.452   5.796
 6660TIP3   OH219943   6.549   4.046   3.448
 6660TIP3    H119944   6.609   4.120   3.439
 6660TIP3    H219945   6.603   3.977   3.486
 6661TIP3   OH219946   1.108   4.432   2.951
 6661TIP3    H119947   1.131   4.524   2.934
 6661TIP3    H219948   1.126   4.387   2.869
 6662TIP3   OH219949   5.225   4.070   3.736
 6662TIP3    H119950   5.245   4.074   3.643
 6662TIP3    H219951   5.144   4.120   3.746
 6663TIP3   OH219952   0.723   1.929   1.844
 6663TIP3    H119953   0.799   1.952   1.790
 6663TIP3    H219954   0.756   1.862   1.904
 6664TIP3   OH219955   3.063   5.078   5.764
 6664TIP3    H119956   3.047   5.169   5.738
 6664TIP3    H219957   3.146   5.055   5.721
 6665TIP3   OH219958   5.716   5.580   2.337
 6665TIP3    H119959   5.762   5.498   2.318
 6665TIP3    H219960   5.766   5.620   2.408
 6666TIP3   OH219961   0.416   3.475   3.974
 6666TIP3    H119962   0.469   3.519   4.041
 6666TIP3    H219963   0.339   3.532   3.964
 6667TIP3   OH219964   4.478   1.116   3.800
 6667TIP3    H119965   4.495   1.210   3.804
 6667TIP3    H219966   4.413   1.100   3.869
 6668TIP3   OH219967   4.156   0.832   1.504
 6668TIP3    H119968   4.247   0.830   1.475
 6668TIP3    H219969   4.152   0.907   1.564
 6669TIP3   OH219970   4.433   2.402   0.900
 6669TIP3    H119971   4.503   2.365   0.954
 6669TIP3    H219972   4.476   2.470   0.849
 6670TIP3   OH219973   6.743   0.241   1.257
 6670TIP3    H119974   6.704   0.226   1.344
 6670TIP3    H219975   6.747   0.336   1.249
 6671TIP3   OH219976   3.828   3.052   5.646
 6671TIP3    H119977   3.839   3.097   5.562
 6671TIP3    H219978   3.790   3.119   5.703
 6672TIP3   OH219979   3.817   6.518   0.643
 6672TIP3    H119980   3.901   6.565   0.648
 6672TIP3    H219981   3.837   6.431   0.677
 6673TIP3   OH219982   2.380   1.189   2.082
 6673TIP3    H119983   2.390   1.274   2.124
 6673TIP3    H219984   2.417   1.201   1.995
 6674TIP3   OH219985   5.288   5.492   0.977
 6674TIP3    H119986   5.193   5.496   0.987
 6674TIP3    H219987   5.311   5.576   0.937
 6675TIP3   OH219988   3.696   2.545   0.301
 6675TIP3    H119989   3.785   2.510   0.304
 6675TIP3    H219990   3.704   2.626   0.251
 6676TIP3   OH219991   5.266   6.579   1.374
 6676TIP3    H119992   5.241   6.656   1.324
 6676TIP3    H219993   5.191   6.561   1.431
 6677TIP3   OH219994   2.503   6.383   3.594
 6677TIP3    H119995   2.551   6.383   3.512
 6677TIP3    H219996   2.426   6.438   3.577
 6678TIP3   OH219997   6.285   0.321   4.409
 6678TIP3    H119998   6.285   0.345   4.502
 6678TIP3    H219999   6.193   0.328   4.383
 6679TIP3   OH220000   5.125   5.846   2.972
 6679TIP3    H120001   5.073   5.815   2.898
 6679TIP3    H220002   5.062   5.886   3.032
 6680TIP3   OH220003   4.793   4.453   2.340
 6680TIP3    H120004   4.712   4.491   2.375
 6680TIP3    H220005   4.858   4.523   2.350
 6681TIP3   OH220006   3.325   0.435   0.539
 6681TIP3    H120007   3.357   0.466   0.454
 6681TIP3    H220008   3.403   0.430   0.594
 6682TIP3   OH220009   3.371   5.103   1.731
 6682TIP3    H120010   3.310   5.084   1.660
 6682TIP3    H220011   3.428   5.026   1.735
 6683TIP3   OH220012   6.442   1.985   3.791
 6683TIP3    H120013   6.502   2.044   3.747
 6683TIP3    H220014   6.490   1.954   3.868
 6684TIP3   OH220015   1.785   0.583   3.518
 6684TIP3    H120016   1.818   0.526   3.448
 6684TIP3    H220017   1.856   0.585   3.582
 6685TIP3   OH220018   5.974   5.338   5.083
 6685TIP3    H120019   5.885   5.313   5.104
 6685TIP3    H220020   5.969   5.432   5.067
 6686TIP3   OH220021   3.926   1.772   2.364
 6686TIP3    H120022   3.914   1.835   2.293
 6686TIP3    H220023   3.844   1.776   2.413
 6687TIP3   OH220024   5.064   5.385   0.614
 6687TIP3    H120025   5.114   5.460   0.582
 6687TIP3    H220026   5.026   5.414   0.697
 6688TIP3   OH220027   3.888   4.307   2.950
 6688TIP3    H120028   3.929   4.307   2.864
 6688TIP3    H220029   3.834   4.386   2.952
 6689TIP3   OH220030   5.015   1.495   0.940
 6689TIP3    H120031   5.041   1.583   0.966
 6689TIP3    H220032   4.925   1.486   0.971
 6690TIP3   OH220033   1.919   4.012   3.959
 6690TIP3    H120034   1.985   3.945   3.939
 6690TIP3    H220035   1.955   4.059   4.034
 6691TIP3   OH220036   3.214   0.388   4.484
 6691TIP3    H120037   3.303   0.401   4.451
 6691TIP3    H220038   3.221   0.401   4.578
 6692TIP3   OH220039   1.325   0.786   4.028
 6692TIP3    H120040   1.405   0.793   3.975
 6692TIP3    H220041   1.350   0.819   4.114
 6693TIP3   OH220042   2.464   0.661   3.106
 6693TIP3    H120043   2.478   0.728   3.174
 6693TIP3    H220044   2.410   0.706   3.040
 6694TIP3   OH220045   5.655   6.185   4.096
 6694TIP3    H120046   5.609   6.116   4.144
 6694TIP3    H220047   5.590   6.217   4.033
 6695TIP3   OH220048   3.947   4.257   2.679
 6695TIP3    H120049   3.899   4.196   2.624
 6695TIP3    H220050   4.023   4.282   2.627
 6696TIP3   OH220051   7.217   2.242   3.711
 6696TIP3    H120052   7.126   2.254   3.737
 6696TIP3    H220053   7.238   2.320   3.660
 6697TIP3   OH220054   1.018   0.180   1.250
 6697TIP3    H120055   1.053   0.103   1.294
 6697TIP3    H220056   1.095   0.222   1.212
 6698TIP3   OH220057   0.121   1.845   3.926
 6698TIP3    H120058   0.132   1.798   4.009
 6698TIP3    H220059   0.195   1.906   3.924
 6699TIP3   OH220060   5.661   0.305  -0.007
 6699TIP3    H120061   5.566   0.305  -0.001
 6699TIP3    H220062   5.692   0.306   0.083
 6700TIP3   OH220063   4.806   4.852   1.235
 6700TIP3    H120064   4.795   4.922   1.171
 6700TIP3    H220065   4.837   4.897   1.314
 6701TIP3   OH220066   4.239   4.022   1.937
 6701TIP3    H120067   4.175   3.954   1.958
 6701TIP3    H220068   4.323   3.985   1.964
 6702TIP3   OH220069   6.998   2.782   3.843
 6702TIP3    H120070   7.074   2.759   3.790
 6702TIP3    H220071   6.945   2.703   3.845
 6703TIP3   OH220072   5.850   6.196   3.888
 6703TIP3    H120073   5.804   6.190   3.972
 6703TIP3    H220074   5.859   6.105   3.859
 6704TIP3   OH220075   3.145   5.095   1.520
 6704TIP3    H120076   3.139   5.077   1.426
 6704TIP3    H220077   3.061   5.134   1.543
 6705TIP3   OH220078   4.958   2.721   4.772
 6705TIP3    H120079   4.903   2.744   4.847
 6705TIP3    H220080   4.916   2.643   4.735
 6706TIP3   OH220081   5.716   4.379   2.333
 6706TIP3    H120082   5.706   4.287   2.308
 6706TIP3    H220083   5.628   4.408   2.353
 6707TIP3   OH220084   6.599   6.675   4.268
 6707TIP3    H120085   6.508   6.650   4.250
 6707TIP3    H220086   6.599   6.700   4.361
 6708TIP3   OH220087   1.351   5.815   5.431
 6708TIP3    H120088   1.351   5.795   5.524
 6708TIP3    H220089   1.275   5.872   5.419
 6709TIP3   OH220090   0.437   3.611   5.222
 6709TIP3    H120091   0.420   3.544   5.289
 6709TIP3    H220092   0.530   3.601   5.202
 6710TIP3   OH220093   2.787   4.810   5.312
 6710TIP3    H120094   2.805   4.840   5.401
 6710TIP3    H220095   2.743   4.725   5.324
 6711TIP3   OH220096   3.131   4.977   5.413
 6711TIP3    H120097   3.187   5.027   5.354
 6711TIP3    H220098   3.108   4.899   5.362
 6712TIP3   OH220099   3.188   1.698   0.563
 6712TIP3    H120100   3.219   1.616   0.601
 6712TIP3    H220101   3.107   1.675   0.517
 6713TIP3   OH220102   2.854   2.407   1.476
 6713TIP3    H120103   2.914   2.396   1.550
 6713TIP3    H220104   2.776   2.449   1.514
 6714TIP3   OH220105   0.549   4.873   0.593
 6714TIP3    H120106   0.608   4.853   0.520
 6714TIP3    H220107   0.482   4.931   0.555
 6715TIP3   OH220108   2.330   4.280   4.686
 6715TIP3    H120109   2.393   4.343   4.721
 6715TIP3    H220110   2.363   4.195   4.715
 6716TIP3   OH220111   5.769   5.215   5.681
 6716TIP3    H120112   5.809   5.129   5.665
 6716TIP3    H220113   5.678   5.194   5.706
 6717TIP3   OH220114   0.266   6.493   4.319
 6717TIP3    H120115   0.220   6.575   4.333
 6717TIP3    H220116   0.248   6.471   4.227
 6718TIP3   OH220117   6.206   3.225   2.933
 6718TIP3    H120118   6.193   3.229   2.838
 6718TIP3    H220119   6.301   3.221   2.944
 6719TIP3   OH220120   6.273   5.520   0.525
 6719TIP3    H120121   6.223   5.439   0.536
 6719TIP3    H220122   6.294   5.547   0.614
 6720TIP3   OH220123   1.451   0.163   3.035
 6720TIP3    H120124   1.437   0.183   3.127
 6720TIP3    H220125   1.461   0.068   3.032
 6721TIP3   OH220126   5.189   4.871   3.779
 6721TIP3    H120127   5.110   4.879   3.832
 6721TIP3    H220128   5.183   4.784   3.740
 6722TIP3   OH220129   0.505   0.529   5.683
 6722TIP3    H120130   0.513   0.452   5.739
 6722TIP3    H220131   0.590   0.571   5.689
 6723TIP3   OH220132   6.171   5.367   1.274
 6723TIP3    H120133   6.210   5.299   1.329
 6723TIP3    H220134   6.202   5.449   1.313
 6724TIP3   OH220135   2.805   2.159   2.237
 6724TIP3    H120136   2.798   2.215   2.160
 6724TIP3    H220137   2.868   2.092   2.211
 6725TIP3   OH220138   4.971   6.402   0.251
 6725TIP3    H120139   4.973   6.456   0.330
 6725TIP3    H220140   5.062   6.383   0.232
 6726TIP3   OH220141   3.945   4.514   0.140
 6726TIP3    H120142   3.875   4.455   0.168
 6726TIP3    H220143   3.929   4.595   0.189
 6727TIP3   OH220144   5.123   5.898   5.620
 6727TIP3    H120145   5.211   5.934   5.632
 6727TIP3    H220146   5.127   5.812   5.662
 6728TIP3   OH220147   6.688   0.485   4.189
 6728TIP3    H120148   6.710   0.399   4.153
 6728TIP3    H220149   6.644   0.466   4.271
 6729TIP3   OH220150   2.088   0.385   3.391
 6729TIP3    H120151   2.093   0.377   3.296
 6729TIP3    H220152   2.170   0.426   3.416
 6730TIP3   OH220153   2.353   5.660   5.257
 6730TIP3    H120154   2.263   5.632   5.238
 6730TIP3    H220155   2.401   5.643   5.176
 6731TIP3   OH220156   5.681   0.807   2.602
 6731TIP3    H120157   5.614   0.870   2.627
 6731TIP3    H220158   5.729   0.789   2.682
 6732TIP3   OH220159   6.338   5.007   1.091
 6732TIP3    H120160   6.325   4.921   1.050
 6732TIP3    H220161   6.249   5.038   1.109
 6733TIP3   OH220162   0.429   1.719   3.204
 6733TIP3    H120163   0.437   1.625   3.220
 6733TIP3    H220164   0.511   1.756   3.236
 6734TIP3   OH220165   3.006   5.411   5.638
 6734TIP3    H120166   3.090   5.456   5.630
 6734TIP3    H220167   2.981   5.423   5.729
 6735TIP3   OH220168   5.200   4.286   0.066
 6735TIP3    H120169   5.228   4.205   0.109
 6735TIP3    H220170   5.198   4.265  -0.027
 6736TIP3   OH220171   1.216   5.645   0.837
 6736TIP3    H120172   1.293   5.682   0.794
 6736TIP3    H220173   1.247   5.562   0.874
 6737TIP3   OH220174   5.970   1.703   2.606
 6737TIP3    H120175   6.051   1.665   2.638
 6737TIP3    H220176   5.902   1.643   2.637
 6738TIP3   OH220177   5.538   1.385   1.499
 6738TIP3    H120178   5.465   1.351   1.551
 6738TIP3    H220179   5.578   1.307   1.460
 6739TIP3   OH220180   6.366   2.284   5.293
 6739TIP3    H120181   6.366   2.345   5.219
 6739TIP3    H220182   6.301   2.319   5.354
 6740TIP3   OH220183   5.859   2.040   3.975
 6740TIP3    H120184   5.810   1.966   4.010
 6740TIP3    H220185   5.834   2.044   3.883
 6741TIP3   OH220186   6.997   0.990   0.286
 6741TIP3    H120187   7.007   1.046   0.209
 6741TIP3    H220188   6.928   1.032   0.338
 6742TIP3   OH220189   5.845   2.511   0.916
 6742TIP3    H120190   5.851   2.485   0.824
 6742TIP3    H220191   5.935   2.529   0.942
 6743TIP3   OH220192   2.971   1.545   5.224
 6743TIP3    H120193   2.969   1.461   5.177
 6743TIP3    H220194   2.981   1.611   5.156
 6744TIP3   OH220195   5.160   6.394   2.594
 6744TIP3    H120196   5.207   6.456   2.651
 6744TIP3    H220197   5.171   6.309   2.638
 6745TIP3   OH220198   7.227   2.530   1.191
 6745TIP3    H120199   7.170   2.588   1.241
 6745TIP3    H220200   7.205   2.442   1.222
 6746TIP3   OH220201   2.338   6.088   0.513
 6746TIP3    H120202   2.296   6.058   0.594
 6746TIP3    H220203   2.361   6.007   0.467
 6747TIP3   OH220204   6.713   4.225   0.859
 6747TIP3    H120205   6.689   4.311   0.895
 6747TIP3    H220206   6.807   4.218   0.875
 6748TIP3   OH220207   4.237   1.509   3.172
 6748TIP3    H120208   4.234   1.559   3.254
 6748TIP3    H220209   4.231   1.418   3.199
 6749TIP3   OH220210   1.713   2.431   4.278
 6749TIP3    H120211   1.640   2.376   4.305
 6749TIP3    H220212   1.678   2.483   4.205
 6750TIP3   OH220213   5.202   5.709   0.241
 6750TIP3    H120214   5.245   5.636   0.196
 6750TIP3    H220215   5.117   5.716   0.199
 6751TIP3   OH220216   1.638   6.431   5.530
 6751TIP3    H120217   1.646   6.398   5.619
 6751TIP3    H220218   1.667   6.523   5.535
 6752TIP3   OH220219   5.319   4.456   4.784
 6752TIP3    H120220   5.266   4.502   4.720
 6752TIP3    H220221   5.274   4.372   4.796
 6753TIP3   OH220222   4.452   1.046   5.682
 6753TIP3    H120223   4.459   1.126   5.630
 6753TIP3    H220224   4.515   1.058   5.754
 6754TIP3   OH220225   6.258   1.320   4.055
 6754TIP3    H120226   6.241   1.387   3.989
 6754TIP3    H220227   6.276   1.370   4.135
 6755TIP3   OH220228   2.693   2.063   3.958
 6755TIP3    H120229   2.716   2.058   4.050
 6755TIP3    H220230   2.674   2.156   3.943
 6756TIP3   OH220231   6.940   4.812   1.672
 6756TIP3    H120232   6.956   4.718   1.679
 6756TIP3    H220233   6.976   4.849   1.752
 6757TIP3   OH220234   2.152   2.791   4.127
 6757TIP3    H120235   2.144   2.755   4.039
 6757TIP3    H220236   2.102   2.730   4.182
 6758TIP3   OH220237   1.190   1.996   0.156
 6758TIP3    H120238   1.157   2.015   0.244
 6758TIP3    H220239   1.152   1.910   0.134
 6759TIP3   OH220240   0.415   4.706   1.690
 6759TIP3    H120241   0.354   4.681   1.760
 6759TIP3    H220242   0.439   4.796   1.710
 6760TIP3   OH220243   3.750   5.260   2.966
 6760TIP3    H120244   3.735   5.347   2.929
 6760TIP3    H220245   3.839   5.263   2.999
 6761TIP3   OH220246   3.199   2.032   4.536
 6761TIP3    H120247   3.287   1.994   4.526
 6761TIP3    H220248   3.146   1.985   4.472
 6762TIP3   OH220249   4.556   6.171   1.966
 6762TIP3    H120250   4.513   6.228   1.902
 6762TIP3    H220251   4.545   6.217   2.050
 6763TIP3   OH220252   3.448   5.775   1.158
 6763TIP3    H120253   3.441   5.682   1.182
 6763TIP3    H220254   3.479   5.817   1.239
 6764TIP3   OH220255   6.156   0.403   4.109
 6764TIP3    H120256   6.120   0.372   4.026
 6764TIP3    H220257   6.247   0.372   4.108
 6765TIP3   OH220258   6.502   0.954   0.461
 6765TIP3    H120259   6.453   1.036   0.461
 6765TIP3    H220260   6.499   0.925   0.552
 6766TIP3   OH220261   5.920   6.010   2.816
 6766TIP3    H120262   5.834   5.976   2.793
 6766TIP3    H220263   5.980   5.937   2.797
 6767TIP3   OH220264   4.248   1.980   5.755
 6767TIP3    H120265   4.307   1.934   5.814
 6767TIP3    H220266   4.200   2.041   5.812
 6768TIP3   OH220267   5.624   1.173   4.625
 6768TIP3    H120268   5.597   1.090   4.586
 6768TIP3    H220269   5.704   1.151   4.673
 6769TIP3   OH220270   3.151   5.761   5.831
 6769TIP3    H120271   3.092   5.817   5.880
 6769TIP3    H220272   3.190   5.703   5.897
 6770TIP3   OH220273   1.435   2.419   0.254
 6770TIP3    H120274   1.360   2.455   0.207
 6770TIP3    H220275   1.399   2.390   0.338
 6771TIP3   OH220276   6.252   1.890   0.497
 6771TIP3    H120277   6.162   1.866   0.475
 6771TIP3    H220278   6.298   1.807   0.503
 6772TIP3   OH220279   5.813   0.323   5.609
 6772TIP3    H120280   5.875   0.323   5.682
 6772TIP3    H220281   5.738   0.274   5.641
 6773TIP3   OH220282   3.250   3.779   4.865
 6773TIP3    H120283   3.187   3.838   4.907
 6773TIP3    H220284   3.198   3.704   4.838
 6774TIP3   OH220285   5.560   2.870   1.715
 6774TIP3    H120286   5.491   2.906   1.771
 6774TIP3    H220287   5.583   2.942   1.657
 6775TIP3   OH220288   4.923   1.312   4.737
 6775TIP3    H120289   4.868   1.246   4.779
 6775TIP3    H220290   4.897   1.309   4.644
 6776TIP3   OH220291   5.949   1.016   3.393
 6776TIP3    H120292   5.906   0.944   3.348
 6776TIP3    H220293   6.005   1.056   3.327
 6777TIP3   OH220294   6.045   1.401   2.247
 6777TIP3    H120295   6.010   1.489   2.239
 6777TIP3    H220296   6.091   1.386   2.165
 6778TIP3   OH220297   2.521   3.027   1.875
 6778TIP3    H120298   2.520   3.089   1.949
 6778TIP3    H220299   2.431   3.025   1.844
 6779TIP3   OH220300   1.441   0.458   5.291
 6779TIP3    H120301   1.414   0.392   5.226
 6779TIP3    H220302   1.518   0.419   5.333
 6780TIP3   OH220303   2.138   5.075   2.701
 6780TIP3    H120304   2.169   4.987   2.682
 6780TIP3    H220305   2.042   5.070   2.692
 6781TIP3   OH220306   2.665   3.762   3.045
 6781TIP3    H120307   2.628   3.847   3.069
 6781TIP3    H220308   2.597   3.699   3.068
 6782TIP3   OH220309   4.222   0.598   1.736
 6782TIP3    H120310   4.281   0.598   1.812
 6782TIP3    H220311   4.266   0.654   1.672
 6783TIP3   OH220312   2.566   6.222   4.945
 6783TIP3    H120313   2.519   6.141   4.925
 6783TIP3    H220314   2.644   6.219   4.889
 6784TIP3   OH220315   1.689   2.216   5.305
 6784TIP3    H120316   1.594   2.212   5.316
 6784TIP3    H220317   1.716   2.125   5.297
 6785TIP3   OH220318   3.684   6.085   3.390
 6785TIP3    H120319   3.732   6.059   3.469
 6785TIP3    H220320   3.745   6.141   3.342
 6786TIP3   OH220321   4.850   6.140   2.038
 6786TIP3    H120322   4.762   6.140   2.002
 6786TIP3    H220323   4.882   6.051   2.025
 6787TIP3   OH220324   6.336   5.753   2.373
 6787TIP3    H120325   6.274   5.826   2.385
 6787TIP3    H220326   6.385   5.750   2.456
 6788TIP3   OH220327   1.430   1.917   1.578
 6788TIP3    H120328   1.463   2.004   1.554
 6788TIP3    H220329   1.402   1.878   1.495
 6789TIP3   OH220330   5.188   0.947   1.064
 6789TIP3    H120331   5.182   1.032   1.109
 6789TIP3    H220332   5.111   0.899   1.095
 6790TIP3   OH220333   4.949   5.586   2.314
 6790TIP3    H120334   5.030   5.621   2.352
 6790TIP3    H220335   4.919   5.653   2.253
 6791TIP3   OH220336   6.232   0.671   3.393
 6791TIP3    H120337   6.195   0.680   3.481
 6791TIP3    H220338   6.309   0.615   3.406
 6792TIP3   OH220339   4.731   2.846   3.142
 6792TIP3    H120340   4.764   2.884   3.223
 6792TIP3    H220341   4.810   2.827   3.090
 6793TIP3   OH220342   6.116   3.521   2.840
 6793TIP3    H120343   6.151   3.565   2.917
 6793TIP3    H220344   6.193   3.494   2.790
 6794TIP3   OH220345   4.662   2.579   0.846
 6794TIP3    H120346   4.639   2.663   0.807
 6794TIP3    H220347   4.666   2.597   0.940
 6795TIP3   OH220348   5.099   6.569   2.967
 6795TIP3    H120349   5.137   6.638   3.022
 6795TIP3    H220350   5.163   6.497   2.972
 6796TIP3   OH220351   4.847   3.631   5.241
 6796TIP3    H120352   4.801   3.692   5.184
 6796TIP3    H220353   4.787   3.616   5.314
 6797TIP3   OH220354   5.533   0.614   4.608
 6797TIP3    H120355   5.439   0.602   4.600
 6797TIP3    H220356   5.571   0.552   4.546
 6798TIP3   OH220357   3.770   2.608   1.445
 6798TIP3    H120358   3.702   2.592   1.379
 6798TIP3    H220359   3.821   2.680   1.409
 6799TIP3   OH220360   3.141   4.791   4.678
 6799TIP3    H120361   3.227   4.819   4.647
 6799TIP3    H220362   3.081   4.859   4.648
 6800TIP3   OH220363   4.423   0.911   4.192
 6800TIP3    H120364   4.477   0.954   4.258
 6800TIP3    H220365   4.486   0.872   4.131
 6801TIP3   OH220366   5.768   5.443   0.165
 6801TIP3    H120367   5.806   5.454   0.078
 6801TIP3    H220368   5.812   5.508   0.219
 6802TIP3   OH220369   0.402   3.422   1.167
 6802TIP3    H120370   0.378   3.333   1.195
 6802TIP3    H220371   0.387   3.477   1.243
 6803TIP3   OH220372   3.499   5.194   0.938
 6803TIP3    H120373   3.438   5.122   0.921
 6803TIP3    H220374   3.565   5.185   0.869
 6804TIP3   OH220375   6.049   6.428   1.749
 6804TIP3    H120376   5.980   6.468   1.696
 6804TIP3    H220377   6.063   6.490   1.821
 6805TIP3   OH220378   2.223   1.893   2.881
 6805TIP3    H120379   2.310   1.917   2.848
 6805TIP3    H220380   2.171   1.876   2.802
 6806TIP3   OH220381   0.464   1.755   1.645
 6806TIP3    H120382   0.440   1.838   1.687
 6806TIP3    H220383   0.429   1.688   1.704
 6807TIP3   OH220384   5.724   5.468   3.075
 6807TIP3    H120385   5.743   5.450   3.167
 6807TIP3    H220386   5.697   5.383   3.040
 6808TIP3   OH220387   3.847   3.426   3.866
 6808TIP3    H120388   3.862   3.333   3.883
 6808TIP3    H220389   3.809   3.459   3.947
 6809TIP3   OH220390   6.733   5.149   0.565
 6809TIP3    H120391   6.798   5.134   0.496
 6809TIP3    H220392   6.783   5.188   0.637
 6810TIP3   OH220393   2.132   2.014   1.490
 6810TIP3    H120394   2.128   1.921   1.469
 6810TIP3    H220395   2.096   2.058   1.413
 6811TIP3   OH220396   4.947   5.683   2.845
 6811TIP3    H120397   4.976   5.593   2.830
 6811TIP3    H220398   4.902   5.708   2.765
 6812TIP3   OH220399   3.751   4.810   4.122
 6812TIP3    H120400   3.726   4.890   4.167
 6812TIP3    H220401   3.844   4.799   4.143
 6813TIP3   OH220402   1.424   5.624   5.231
 6813TIP3    H120403   1.511   5.653   5.204
 6813TIP3    H220404   1.385   5.700   5.274
 6814TIP3   OH220405   0.753   3.711   0.325
 6814TIP3    H120406   0.717   3.738   0.409
 6814TIP3    H220407   0.721   3.776   0.262
 6815TIP3   OH220408   1.811   4.244   2.502
 6815TIP3    H120409   1.895   4.285   2.525
 6815TIP3    H220410   1.809   4.247   2.407
 6816TIP3   OH220411   4.020   6.512   1.598
 6816TIP3    H120412   4.057   6.495   1.685
 6816TIP3    H220413   3.925   6.511   1.611
 6817TIP3   OH220414   0.345   0.094   3.612
 6817TIP3    H120415   0.376   0.181   3.586
 6817TIP3    H220416   0.277   0.072   3.549
 6818TIP3   OH220417   5.471   1.321   3.425
 6818TIP3    H120418   5.562   1.307   3.397
 6818TIP3    H220419   5.445   1.402   3.381
 6819TIP3   OH220420   4.105   0.544   2.285
 6819TIP3    H120421   4.096   0.608   2.356
 6819TIP3    H220422   4.017   0.509   2.273
 6820TIP3   OH220423   4.870   5.570   2.026
 6820TIP3    H120424   4.842   5.560   1.935
 6820TIP3    H220425   4.951   5.620   2.021
 6821TIP3   OH220426   4.423   5.857   3.683
 6821TIP3    H120427   4.457   5.768   3.689
 6821TIP3    H220428   4.500   5.912   3.698
 6822TIP3   OH220429   3.249   4.592   1.622
 6822TIP3    H120430   3.254   4.665   1.683
 6822TIP3    H220431   3.262   4.632   1.536
 6823TIP3   OH220432   2.051   0.313   4.150
 6823TIP3    H120433   2.006   0.322   4.066
 6823TIP3    H220434   2.019   0.387   4.202
 6824TIP3   OH220435   6.021   3.302   2.145
 6824TIP3    H120436   6.020   3.388   2.102
 6824TIP3    H220437   5.934   3.266   2.128
 6825TIP3   OH220438   4.796   5.906   1.507
 6825TIP3    H120439   4.883   5.870   1.488
 6825TIP3    H220440   4.812   5.999   1.526
 6826TIP3   OH220441   2.435   2.774   1.708
 6826TIP3    H120442   2.502   2.822   1.660
 6826TIP3    H220443   2.401   2.837   1.772
 6827TIP3   OH220444   2.812   5.379   0.193
 6827TIP3    H120445   2.757   5.305   0.219
 6827TIP3    H220446   2.750   5.450   0.175
 6828TIP3   OH220447   0.540   4.967   2.652
 6828TIP3    H120448   0.556   4.986   2.745
 6828TIP3    H220449   0.511   4.876   2.651
 6829TIP3   OH220450   1.017   2.313   3.236
 6829TIP3    H120451   0.939   2.346   3.192
 6829TIP3    H220452   1.001   2.219   3.245
 6830TIP3   OH220453   0.640   0.133   2.632
 6830TIP3    H120454   0.701   0.064   2.605
 6830TIP3    H220455   0.599   0.161   2.550
 6831TIP3   OH220456   5.483   2.257   5.770
 6831TIP3    H120457   5.409   2.199   5.754
 6831TIP3    H220458   5.516   2.232   5.856
 6832TIP3   OH220459   6.499   5.764   2.102
 6832TIP3    H120460   6.565   5.832   2.087
 6832TIP3    H220461   6.460   5.787   2.186
 6833TIP3   OH220462   1.492   6.202   5.530
 6833TIP3    H120463   1.528   6.287   5.554
 6833TIP3    H220464   1.521   6.143   5.600
 6834TIP3   OH220465   4.646   3.706   0.472
 6834TIP3    H120466   4.562   3.730   0.435
 6834TIP3    H220467   4.626   3.672   0.560
 6835TIP3   OH220468   1.854   3.252   3.941
 6835TIP3    H120469   1.817   3.340   3.944
 6835TIP3    H220470   1.799   3.205   3.878
 6836TIP3   OH220471   3.072   1.998   4.998
 6836TIP3    H120472   3.144   1.953   4.955
 6836TIP3    H220473   3.107   2.085   5.018
 6837TIP3   OH220474   5.248   1.465   0.098
 6837TIP3    H120475   5.212   1.553   0.088
 6837TIP3    H220476   5.181   1.418   0.149
 6838TIP3   OH220477   5.825   1.905   1.787
 6838TIP3    H120478   5.912   1.874   1.814
 6838TIP3    H220479   5.839   1.939   1.698
 6839TIP3   OH220480   6.782   5.825   2.519
 6839TIP3    H120481   6.730   5.899   2.551
 6839TIP3    H220482   6.790   5.841   2.425
 6840TIP3   OH220483   3.662   3.534   5.262
 6840TIP3    H120484   3.700   3.622   5.255
 6840TIP3    H220485   3.578   3.548   5.306
 6841TIP3   OH220486   1.409   3.155   1.407
 6841TIP3    H120487   1.499   3.177   1.383
 6841TIP3    H220488   1.373   3.113   1.329
 6842TIP3   OH220489   2.829   5.616   4.785
 6842TIP3    H120490   2.822   5.592   4.692
 6842TIP3    H220491   2.738   5.623   4.814
 6843TIP3   OH220492   1.207   2.504   0.701
 6843TIP3    H120493   1.257   2.522   0.780
 6843TIP3    H220494   1.135   2.567   0.703
 6844TIP3   OH220495   2.753   0.348   5.364
 6844TIP3    H120496   2.685   0.313   5.421
 6844TIP3    H220497   2.729   0.440   5.352
 6845TIP3   OH220498   3.200   2.222   5.040
 6845TIP3    H120499   3.281   2.267   5.018
 6845TIP3    H220500   3.218   2.181   5.125
 6846TIP3   OH220501   5.882   4.694   5.682
 6846TIP3    H120502   5.828   4.666   5.756
 6846TIP3    H220503   5.967   4.716   5.721
 6847TIP3   OH220504   6.651   4.348   3.157
 6847TIP3    H120505   6.739   4.385   3.149
 6847TIP3    H220506   6.652   4.301   3.240
 6848TIP3   OH220507   1.346   3.086   5.038
 6848TIP3    H120508   1.349   3.178   5.063
 6848TIP3    H220509   1.336   3.039   5.122
 6849TIP3   OH220510   5.417   1.434   2.280
 6849TIP3    H120511   5.503   1.471   2.297
 6849TIP3    H220512   5.435   1.348   2.240
 6850TIP3   OH220513   1.926   5.456   0.398
 6850TIP3    H120514   1.901   5.373   0.438
 6850TIP3    H220515   1.844   5.494   0.366
 6851TIP3   OH220516   5.429   3.994   3.902
 6851TIP3    H120517   5.450   3.937   3.828
 6851TIP3    H220518   5.366   4.057   3.866
 6852TIP3   OH220519   2.306   3.381   4.279
 6852TIP3    H120520   2.374   3.351   4.218
 6852TIP3    H220521   2.252   3.441   4.227
 6853TIP3   OH220522   0.622   1.087   2.178
 6853TIP3    H120523   0.553   1.068   2.242
 6853TIP3    H220524   0.638   1.181   2.188
 6854TIP3   OH220525   6.152   2.318   5.700
 6854TIP3    H120526   6.091   2.267   5.647
 6854TIP3    H220527   6.237   2.301   5.660
 6855TIP3   OH220528   4.640   2.378   5.825
 6855TIP3    H120529   4.660   2.341   5.738
 6855TIP3    H220530   4.640   2.303   5.883
 6856TIP3   OH220531   1.126   4.998   0.584
 6856TIP3    H120532   1.116   4.921   0.529
 6856TIP3    H220533   1.221   5.013   0.588
 6857TIP3   OH220534   3.895   0.433   0.239
 6857TIP3    H120535   3.956   0.454   0.168
 6857TIP3    H220536   3.845   0.358   0.206
 6858TIP3   OH220537   4.235   3.924   4.804
 6858TIP3    H120538   4.287   3.975   4.742
 6858TIP3    H220539   4.264   3.953   4.890
 6859TIP3   OH220540   6.501   5.471   2.031
 6859TIP3    H120541   6.498   5.557   2.074
 6859TIP3    H220542   6.543   5.414   2.095
 6860TIP3   OH220543   5.648   4.776   0.627
 6860TIP3    H120544   5.633   4.870   0.631
 6860TIP3    H220545   5.630   4.752   0.536
 6861TIP3   OH220546   6.625   3.806   5.294
 6861TIP3    H120547   6.721   3.815   5.290
 6861TIP3    H220548   6.599   3.862   5.367
 6862TIP3   OH220549   1.262   6.076   1.411
 6862TIP3    H120550   1.358   6.070   1.408
 6862TIP3    H220551   1.244   6.139   1.481
 6863TIP3   OH220552   6.323   2.414   4.745
 6863TIP3    H120553   6.263   2.350   4.708
 6863TIP3    H220554   6.378   2.364   4.806
 6864TIP3   OH220555   7.017   0.337   1.512
 6864TIP3    H120556   7.046   0.295   1.431
 6864TIP3    H220557   6.923   0.318   1.518
 6865TIP3   OH220558   6.538   1.487   0.934
 6865TIP3    H120559   6.543   1.543   1.012
 6865TIP3    H220560   6.460   1.433   0.949
 6866TIP3   OH220561   6.394   2.785   3.662
 6866TIP3    H120562   6.352   2.871   3.663
 6866TIP3    H220563   6.479   2.800   3.703
 6867TIP3   OH220564   0.646   0.564   4.494
 6867TIP3    H120565   0.650   0.474   4.462
 6867TIP3    H220566   0.703   0.613   4.434
 6868TIP3   OH220567   0.086   2.232   4.041
 6868TIP3    H120568   0.150   2.303   4.038
 6868TIP3    H220569   0.044   2.234   3.955
 6869TIP3   OH220570   5.927   3.395   5.631
 6869TIP3    H120571   5.948   3.487   5.616
 6869TIP3    H220572   5.838   3.396   5.667
 6870TIP3   OH220573   0.464   3.831   5.530
 6870TIP3    H120574   0.433   3.902   5.586
 6870TIP3    H220575   0.528   3.872   5.472
 6871TIP3   OH220576   4.373   1.231   4.822
 6871TIP3    H120577   4.305   1.284   4.780
 6871TIP3    H220578   4.380   1.268   4.911
 6872TIP3   OH220579   3.520   0.865   1.596
 6872TIP3    H120580   3.580   0.806   1.550
 6872TIP3    H220581   3.433   0.827   1.582
 6873TIP3   OH220582   4.114   3.266   1.976
 6873TIP3    H120583   4.054   3.199   1.942
 6873TIP3    H220584   4.195   3.252   1.927
 6874TIP3   OH220585   6.243   4.387   0.027
 6874TIP3    H120586   6.182   4.379   0.100
 6874TIP3    H220587   6.263   4.480   0.022
 6875TIP3   OH220588   5.620   4.198   4.421
 6875TIP3    H120589   5.542   4.181   4.473
 6875TIP3    H220590   5.667   4.266   4.469
 6876TIP3   OH220591   0.858   4.366   4.906
 6876TIP3    H120592   0.840   4.360   4.813
 6876TIP3    H220593   0.947   4.331   4.916
 6877TIP3   OH220594   3.938   6.140   1.568
 6877TIP3    H120595   3.874   6.152   1.497
 6877TIP3    H220596   3.884   6.120   1.645
 6878TIP3   OH220597   3.771   4.324   3.628
 6878TIP3    H120598   3.835   4.266   3.586
 6878TIP3    H220599   3.797   4.325   3.720
 6879TIP3   OH220600   5.703   3.811   3.758
 6879TIP3    H120601   5.734   3.899   3.779
 6879TIP3    H220602   5.693   3.811   3.663
 6880TIP3   OH220603   5.171   0.352   4.658
 6880TIP3    H120604   5.218   0.289   4.602
 6880TIP3    H220605   5.176   0.314   4.746
 6881TIP3   OH220606   6.018   0.363   4.693
 6881TIP3    H120607   6.027   0.381   4.787
 6881TIP3    H220608   6.107   0.359   4.660
 6882TIP3   OH220609   5.537   2.604   1.699
 6882TIP3    H120610   5.551   2.699   1.696
 6882TIP3    H220611   5.441   2.594   1.700
 6883TIP3   OH220612   5.448   3.912   5.329
 6883TIP3    H120613   5.466   3.866   5.411
 6883TIP3    H220614   5.408   3.994   5.355
 6884TIP3   OH220615   3.048   1.797   0.800
 6884TIP3    H120616   3.038   1.853   0.877
 6884TIP3    H220617   2.984   1.727   0.812
 6885TIP3   OH220618   4.423   2.115   5.124
 6885TIP3    H120619   4.388   2.183   5.066
 6885TIP3    H220620   4.401   2.033   5.081
 6886TIP3   OH220621   2.233   1.898   1.018
 6886TIP3    H120622   2.200   1.970   1.071
 6886TIP3    H220623   2.188   1.906   0.934
 6887TIP3   OH220624   0.728   1.293   3.066
 6887TIP3    H120625   0.734   1.203   3.099
 6887TIP3    H220626   0.636   1.301   3.038
 6888TIP3   OH220627   7.176   5.663   3.157
 6888TIP3    H120628   7.208   5.603   3.089
 6888TIP3    H220629   7.247   5.666   3.221
 6889TIP3   OH220630   6.775   5.804   3.393
 6889TIP3    H120631   6.751   5.712   3.398
 6889TIP3    H220632   6.703   5.845   3.344
 6890TIP3   OH220633   2.084   2.651   3.458
 6890TIP3    H120634   2.075   2.686   3.547
 6890TIP3    H220635   2.167   2.687   3.427
 6891TIP3   OH220636   1.390   2.571   4.381
 6891TIP3    H120637   1.350   2.492   4.416
 6891TIP3    H220638   1.480   2.570   4.416
 6892TIP3   OH220639   6.120   5.111   1.431
 6892TIP3    H120640   6.093   5.027   1.469
 6892TIP3    H220641   6.105   5.101   1.337
 6893TIP3   OH220642   0.364   2.702   5.343
 6893TIP3    H120643   0.311   2.781   5.330
 6893TIP3    H220644   0.449   2.725   5.305
 6894TIP3   OH220645   6.897   2.094   2.940
 6894TIP3    H120646   6.953   2.031   2.985
 6894TIP3    H220647   6.812   2.086   2.983
 6895TIP3   OH220648   4.680   3.763   4.861
 6895TIP3    H120649   4.703   3.671   4.875
 6895TIP3    H220650   4.764   3.808   4.853
 6896TIP3   OH220651   6.380   5.585   0.002
 6896TIP3    H120652   6.334   5.579   0.086
 6896TIP3    H220653   6.472   5.599   0.027
 6897TIP3   OH220654   0.453   1.194   1.812
 6897TIP3    H120655   0.533   1.219   1.767
 6897TIP3    H220656   0.449   1.253   1.888
 6898TIP3   OH220657   1.906   0.720   4.648
 6898TIP3    H120658   1.978   0.778   4.621
 6898TIP3    H220659   1.936   0.632   4.623
 6899TIP3   OH220660   2.166   1.362   4.841
 6899TIP3    H120661   2.170   1.450   4.878
 6899TIP3    H220662   2.097   1.367   4.774
 6900TIP3   OH220663   1.927   3.051   4.150
 6900TIP3    H120664   1.993   3.087   4.209
 6900TIP3    H220665   1.897   3.126   4.099
 6901TIP3   OH220666   1.880   5.097   3.572
 6901TIP3    H120667   1.895   5.116   3.665
 6901TIP3    H220668   1.789   5.067   3.567
 6902TIP3   OH220669   4.321   3.831   1.146
 6902TIP3    H120670   4.330   3.748   1.100
 6902TIP3    H220671   4.357   3.896   1.086
 6903TIP3   OH220672   3.751   6.013   5.502
 6903TIP3    H120673   3.834   6.000   5.547
 6903TIP3    H220674   3.685   5.995   5.568
 6904TIP3   OH220675   4.928   2.455   4.251
 6904TIP3    H120676   5.015   2.464   4.211
 6904TIP3    H220677   4.904   2.544   4.277
 6905TIP3   OH220678   0.296   5.468   5.110
 6905TIP3    H120679   0.391   5.481   5.102
 6905TIP3    H220680   0.260   5.556   5.120
 6906TIP3   OH220681   5.087   4.626   2.035
 6906TIP3    H120682   5.018   4.666   1.983
 6906TIP3    H220683   5.125   4.699   2.084
 6907TIP3   OH220684   0.310   2.789   0.365
 6907TIP3    H120685   0.386   2.819   0.415
 6907TIP3    H220686   0.235   2.828   0.411
 6908TIP3   OH220687   3.218   2.143   5.298
 6908TIP3    H120688   3.234   2.225   5.345
 6908TIP3    H220689   3.258   2.075   5.353
 6909TIP3   OH220690   1.013   4.037   2.107
 6909TIP3    H120691   0.975   4.035   2.019
 6909TIP3    H220692   1.048   3.949   2.119
 6910TIP3   OH220693   2.229   0.762   0.074
 6910TIP3    H120694   2.212   0.817   0.150
 6910TIP3    H220695   2.192   0.677   0.097
 6911TIP3   OH220696   1.486   6.700   2.568
 6911TIP3    H120697   1.447   6.771   2.518
 6911TIP3    H220698   1.561   6.739   2.612
 6912TIP3   OH220699   0.571   3.820   0.509
 6912TIP3    H120700   0.611   3.907   0.500
 6912TIP3    H220701   0.483   3.830   0.474
 6913TIP3   OH220702   1.704   5.455   3.488
 6913TIP3    H120703   1.783   5.508   3.481
 6913TIP3    H220704   1.695   5.438   3.582
 6914TIP3   OH220705   3.602   3.967   5.177
 6914TIP3    H120706   3.572   4.039   5.122
 6914TIP3    H220707   3.524   3.913   5.190
 6915TIP3   OH220708   0.786   0.768   5.237
 6915TIP3    H120709   0.822   0.688   5.275
 6915TIP3    H220710   0.795   0.756   5.143
 6916TIP3   OH220711   1.043   2.040   0.778
 6916TIP3    H120712   1.034   1.945   0.791
 6916TIP3    H220713   1.096   2.069   0.851
 6917TIP3   OH220714   6.081   5.709   4.393
 6917TIP3    H120715   5.997   5.752   4.380
 6917TIP3    H220716   6.131   5.770   4.446
 6918TIP3   OH220717   1.502   2.480   3.113
 6918TIP3    H120718   1.543   2.532   3.044
 6918TIP3    H220719   1.418   2.522   3.128
 6919TIP3   OH220720   3.316   4.144   5.514
 6919TIP3    H120721   3.347   4.206   5.448
 6919TIP3    H220722   3.224   4.131   5.493
 6920TIP3   OH220723   2.548   0.964   4.237
 6920TIP3    H120724   2.611   0.906   4.280
 6920TIP3    H220725   2.463   0.925   4.255
 6921TIP3   OH220726   7.232   6.481   2.485
 6921TIP3    H120727   7.204   6.571   2.475
 6921TIP3    H220728   7.151   6.431   2.493
 6922TIP3   OH220729   5.074   5.228   1.708
 6922TIP3    H120730   4.982   5.215   1.685
 6922TIP3    H220731   5.087   5.174   1.786
 6923TIP3   OH220732   0.528   4.673   5.175
 6923TIP3    H120733   0.562   4.605   5.233
 6923TIP3    H220734   0.476   4.730   5.232
 6924TIP3   OH220735   0.290   3.825   1.168
 6924TIP3    H120736   0.250   3.752   1.214
 6924TIP3    H220737   0.379   3.830   1.202
 6925TIP3   OH220738   2.484   1.376   1.893
 6925TIP3    H120739   2.503   1.307   1.829
 6925TIP3    H220740   2.391   1.396   1.880
 6926TIP3   OH220741   0.651   5.645   1.928
 6926TIP3    H120742   0.639   5.715   1.864
 6926TIP3    H220743   0.650   5.689   2.013
 6927TIP3   OH220744   1.231   3.662   1.593
 6927TIP3    H120745   1.324   3.672   1.611
 6927TIP3    H220746   1.193   3.746   1.618
 6928TIP3   OH220747   0.389   0.555   4.628
 6928TIP3    H120748   0.470   0.598   4.600
 6928TIP3    H220749   0.368   0.495   4.556
 6929TIP3   OH220750   6.601   1.381   3.307
 6929TIP3    H120751   6.681   1.410   3.352
 6929TIP3    H220752   6.631   1.321   3.240
 6930TIP3   OH220753   6.865   1.420   0.811
 6930TIP3    H120754   6.852   1.468   0.893
 6930TIP3    H220755   6.782   1.428   0.765
 6931TIP3   OH220756   5.566   3.050   1.416
 6931TIP3    H120757   5.601   3.090   1.336
 6931TIP3    H220758   5.611   3.097   1.487
 6932TIP3   OH220759   4.515   2.421   4.452
 6932TIP3    H120760   4.513   2.481   4.377
 6932TIP3    H220761   4.531   2.478   4.527
 6933TIP3   OH220762   0.771   5.308   4.930
 6933TIP3    H120763   0.737   5.325   5.018
 6933TIP3    H220764   0.722   5.368   4.873
 6934TIP3   OH220765   2.713   3.943   5.293
 6934TIP3    H120766   2.743   3.895   5.215
 6934TIP3    H220767   2.640   3.891   5.326
 6935TIP3   OH220768   0.392   3.585   5.663
 6935TIP3    H120769   0.397   3.530   5.585
 6935TIP3    H220770   0.436   3.666   5.638
 6936TIP3   OH220771   5.922   6.278   2.367
 6936TIP3    H120772   5.891   6.355   2.415
 6936TIP3    H220773   5.889   6.289   2.278
 6937TIP3   OH220774   0.617   1.161   0.669
 6937TIP3    H120775   0.523   1.154   0.686
 6937TIP3    H220776   0.638   1.251   0.691
 6938TIP3   OH220777   2.207   5.763   0.556
 6938TIP3    H120778   2.188   5.675   0.590
 6938TIP3    H220779   2.223   5.816   0.633
 6939TIP3   OH220780   1.314   6.077   5.744
 6939TIP3    H120781   1.299   6.093   5.651
 6939TIP3    H220782   1.409   6.078   5.754
 6940TIP3   OH220783   0.917   5.666   1.896
 6940TIP3    H120784   0.829   5.649   1.928
 6940TIP3    H220785   0.918   5.759   1.874
 6941TIP3   OH220786   6.297   0.687   2.877
 6941TIP3    H120787   6.322   0.596   2.858
 6941TIP3    H220788   6.258   0.684   2.964
 6942TIP3   OH220789   6.700   1.081   2.523
 6942TIP3    H120790   6.732   1.090   2.613
 6942TIP3    H220791   6.731   0.995   2.496
 6943TIP3   OH220792   0.561   4.034   3.423
 6943TIP3    H120793   0.519   4.050   3.339
 6943TIP3    H220794   0.616   4.110   3.438
 6944TIP3   OH220795   3.169   0.779   4.425
 6944TIP3    H120796   3.225   0.735   4.489
 6944TIP3    H220797   3.103   0.713   4.402
 6945TIP3   OH220798   6.419   2.388   5.601
 6945TIP3    H120799   6.457   2.301   5.593
 6945TIP3    H220800   6.491   2.448   5.581
 6946TIP3   OH220801   4.610   5.593   2.728
 6946TIP3    H120802   4.645   5.678   2.700
 6946TIP3    H220803   4.682   5.531   2.713
 6947TIP3   OH220804   5.621   4.229   1.877
 6947TIP3    H120805   5.635   4.254   1.786
 6947TIP3    H220806   5.527   4.240   1.890
 6948TIP3   OH220807   1.089   0.923   3.387
 6948TIP3    H120808   0.998   0.899   3.369
 6948TIP3    H220809   1.103   0.899   3.479
 6949TIP3   OH220810   0.367   3.319   3.715
 6949TIP3    H120811   0.364   3.303   3.810
 6949TIP3    H220812   0.288   3.276   3.682
 6950TIP3   OH220813   0.661   5.781   2.170
 6950TIP3    H120814   0.700   5.850   2.223
 6950TIP3    H220815   0.582   5.756   2.218
 6951TIP3   OH220816   5.065   1.659   0.570
 6951TIP3    H120817   4.974   1.633   0.557
 6951TIP3    H220818   5.069   1.686   0.661
 6952TIP3   OH220819   1.529   3.774   2.830
 6952TIP3    H120820   1.460   3.710   2.813
 6952TIP3    H220821   1.565   3.794   2.744
 6953TIP3   OH220822   2.877   1.640   4.335
 6953TIP3    H120823   2.876   1.734   4.348
 6953TIP3    H220824   2.792   1.610   4.365
 6954TIP3   OH220825   5.142   1.711   1.866
 6954TIP3    H120826   5.159   1.633   1.814
 6954TIP3    H220827   5.048   1.724   1.859
 6955TIP3   OH220828   3.135   5.184   0.086
 6955TIP3    H120829   3.129   5.089   0.090
 6955TIP3    H220830   3.215   5.206   0.133
 6956TIP3   OH220831   3.017   3.145   2.666
 6956TIP3    H120832   3.021   3.066   2.720
 6956TIP3    H220833   2.926   3.174   2.672
 6957TIP3   OH220834   0.557   3.435   1.815
 6957TIP3    H120835   0.601   3.505   1.768
 6957TIP3    H220836   0.470   3.470   1.836
 6958TIP3   OH220837   6.225   2.562   3.997
 6958TIP3    H120838   6.154   2.548   4.059
 6958TIP3    H220839   6.293   2.501   4.025
 6959TIP3   OH220840   3.058   3.199   0.365
 6959TIP3    H120841   3.021   3.145   0.294
 6959TIP3    H220842   3.001   3.276   0.369
 6960TIP3   OH220843   1.340   0.268   5.136
 6960TIP3    H120844   1.290   0.187   5.122
 6960TIP3    H220845   1.388   0.280   5.054
 6961TIP3   OH220846   6.328   5.256   0.378
 6961TIP3    H120847   6.244   5.278   0.419
 6961TIP3    H220848   6.394   5.277   0.443
 6962TIP3   OH220849   2.940   3.134   3.398
 6962TIP3    H120850   2.996   3.086   3.459
 6962TIP3    H220851   2.995   3.207   3.369
 6963TIP3   OH220852   4.687   0.335   5.531
 6963TIP3    H120853   4.732   0.265   5.578
 6963TIP3    H220854   4.748   0.362   5.462
 6964TIP3   OH220855   5.467   2.587   5.045
 6964TIP3    H120856   5.404   2.583   5.118
 6964TIP3    H220857   5.450   2.508   4.994
 6965TIP3   OH220858   0.563   1.483   4.065
 6965TIP3    H120859   0.579   1.392   4.040
 6965TIP3    H220860   0.602   1.534   3.993
 6966TIP3   OH220861   6.342   0.961   5.013
 6966TIP3    H120862   6.428   0.927   4.988
 6966TIP3    H220863   6.288   0.949   4.936
 6967TIP3   OH220864   3.016   1.805   2.185
 6967TIP3    H120865   3.020   1.883   2.130
 6967TIP3    H220866   3.000   1.733   2.123
 6968TIP3   OH220867   3.243   3.603   3.861
 6968TIP3    H120868   3.323   3.595   3.810
 6968TIP3    H220869   3.230   3.698   3.871
 6969TIP3   OH220870   2.632   5.028   1.408
 6969TIP3    H120871   2.657   4.954   1.463
 6969TIP3    H220872   2.693   5.098   1.432
 6970TIP3   OH220873   3.041   0.939   0.982
 6970TIP3    H120874   3.102   0.907   0.915
 6970TIP3    H220875   2.956   0.942   0.938
 6971TIP3   OH220876   1.242   5.804   3.824
 6971TIP3    H120877   1.171   5.754   3.784
 6971TIP3    H220878   1.246   5.773   3.914
 6972TIP3   OH220879   7.117   5.662   0.270
 6972TIP3    H120880   7.196   5.613   0.293
 6972TIP3    H220881   7.122   5.742   0.322
 6973TIP3   OH220882   7.210   3.616   4.598
 6973TIP3    H120883   7.256   3.637   4.679
 6973TIP3    H220884   7.119   3.605   4.626
 6974TIP3   OH220885   6.909   6.002   4.541
 6974TIP3    H120886   6.866   5.980   4.624
 6974TIP3    H220887   6.993   5.956   4.544
 6975TIP3   OH220888   1.334   0.492   2.507
 6975TIP3    H120889   1.418   0.457   2.479
 6975TIP3    H220890   1.322   0.460   2.596
 6976TIP3   OH220891   5.345   2.522   1.407
 6976TIP3    H120892   5.375   2.435   1.432
 6976TIP3    H220893   5.278   2.544   1.472
 6977TIP3   OH220894   5.547   4.523   2.043
 6977TIP3    H120895   5.617   4.458   2.045
 6977TIP3    H220896   5.468   4.473   2.023
 6978TIP3   OH220897   1.192   5.231   5.377
 6978TIP3    H120898   1.176   5.324   5.394
 6978TIP3    H220899   1.198   5.225   5.282
 6979TIP3   OH220900   5.423   1.253   3.674
 6979TIP3    H120901   5.422   1.287   3.585
 6979TIP3    H220902   5.332   1.260   3.703
 6980TIP3   OH220903   3.563   3.232   2.659
 6980TIP3    H120904   3.472   3.213   2.684
 6980TIP3    H220905   3.614   3.164   2.704
 6981TIP3   OH220906   0.485   5.872   5.683
 6981TIP3    H120907   0.390   5.871   5.694
 6981TIP3    H220908   0.499   5.837   5.595
 6982TIP3   OH220909   3.601   5.165   5.767
 6982TIP3    H120910   3.512   5.199   5.759
 6982TIP3    H220911   3.613   5.110   5.689
 6983TIP3   OH220912   6.948   3.472   4.157
 6983TIP3    H120913   7.009   3.400   4.140
 6983TIP3    H220914   7.003   3.544   4.187
 6984TIP3   OH220915   2.942   0.498   3.399
 6984TIP3    H120916   3.030   0.505   3.435
 6984TIP3    H220917   2.930   0.578   3.347
 6985TIP3   OH220918   6.564   0.893   3.502
 6985TIP3    H120919   6.548   0.817   3.445
 6985TIP3    H220920   6.656   0.885   3.527
 6986TIP3   OH220921   2.699   4.486   1.976
 6986TIP3    H120922   2.616   4.440   1.984
 6986TIP3    H220923   2.681   4.574   2.008
 6987TIP3   OH220924   0.458   4.331   1.155
 6987TIP3    H120925   0.467   4.357   1.247
 6987TIP3    H220926   0.391   4.263   1.156
 6988TIP3   OH220927   0.139   5.321   4.943
 6988TIP3    H120928   0.056   5.329   4.989
 6988TIP3    H220929   0.200   5.374   4.995
 6989TIP3   OH220930   6.125   6.554   2.824
 6989TIP3    H120931   6.155   6.587   2.909
 6989TIP3    H220932   6.043   6.510   2.843
 6990TIP3   OH220933   3.823   0.983   1.496
 6990TIP3    H120934   3.824   0.907   1.555
 6990TIP3    H220935   3.848   1.057   1.553
 6991TIP3   OH220936   4.597   2.713   1.118
 6991TIP3    H120937   4.670   2.775   1.116
 6991TIP3    H220938   4.633   2.635   1.160
 6992TIP3   OH220939   4.866   5.934   3.904
 6992TIP3    H120940   4.954   5.922   3.869
 6992TIP3    H220941   4.872   6.014   3.956
 6993TIP3   OH220942   0.674   3.535   2.699
 6993TIP3    H120943   0.719   3.616   2.722
 6993TIP3    H220944   0.710   3.469   2.758
 6994TIP3   OH220945   4.146   2.710   0.690
 6994TIP3    H120946   4.126   2.761   0.768
 6994TIP3    H220947   4.061   2.693   0.650
 6995TIP3   OH220948   4.087   6.514   4.101
 6995TIP3    H120949   4.078   6.591   4.046
 6995TIP3    H220950   4.006   6.511   4.153
 6996TIP3   OH220951   4.211   6.076   2.080
 6996TIP3    H120952   4.173   6.158   2.113
 6996TIP3    H220953   4.242   6.099   1.992
 6997TIP3   OH220954   1.744   5.508   2.924
 6997TIP3    H120955   1.726   5.568   2.851
 6997TIP3    H220956   1.770   5.565   2.996
 6998TIP3   OH220957   4.022   5.490   4.671
 6998TIP3    H120958   4.105   5.524   4.639
 6998TIP3    H220959   3.956   5.541   4.623
 6999TIP3   OH220960   5.863   1.803   2.882
 6999TIP3    H120961   5.846   1.733   2.818
 6999TIP3    H220962   5.951   1.833   2.862
 7000TIP3   OH220963   3.311   1.493   3.064
 7000TIP3    H120964   3.217   1.502   3.052
 7000TIP3    H220965   3.346   1.581   3.050
 7001TIP3   OH220966   4.189   0.416   0.963
 7001TIP3    H120967   4.216   0.385   1.050
 7001TIP3    H220968   4.247   0.370   0.902
 7002TIP3   OH220969   0.849   4.008   4.885
 7002TIP3    H120970   0.796   3.960   4.821
 7002TIP3    H220971   0.909   4.061   4.832
 7003TIP3   OH220972   3.560   4.642   5.107
 7003TIP3    H120973   3.502   4.621   5.180
 7003TIP3    H220974   3.501   4.681   5.041
 7004TIP3   OH220975   1.377   0.271   1.819
 7004TIP3    H120976   1.300   0.295   1.767
 7004TIP3    H220977   1.443   0.336   1.796
 7005TIP3   OH220978   4.847   3.835   0.297
 7005TIP3    H120979   4.787   3.798   0.363
 7005TIP3    H220980   4.905   3.762   0.275
 7006TIP3   OH220981   4.020   6.187   0.133
 7006TIP3    H120982   3.930   6.161   0.112
 7006TIP3    H220983   4.075   6.130   0.080
 7007TIP3   OH220984   5.857   0.384   1.795
 7007TIP3    H120985   5.945   0.409   1.766
 7007TIP3    H220986   5.854   0.411   1.887
 7008TIP3   OH220987   7.187   5.196   3.106
 7008TIP3    H120988   7.148   5.280   3.081
 7008TIP3    H220989   7.178   5.142   3.028
 7009TIP3   OH220990   0.450   4.257   2.823
 7009TIP3    H120991   0.395   4.327   2.788
 7009TIP3    H220992   0.539   4.279   2.795
 7010TIP3   OH220993   1.281   4.338   3.142
 7010TIP3    H120994   1.211   4.349   3.077
 7010TIP3    H220995   1.303   4.427   3.169
 7011TIP3   OH220996   0.027   5.701   2.152
 7011TIP3    H120997   0.002   5.729   2.240
 7011TIP3    H220998   0.115   5.737   2.140
 7012TIP3   OH220999   1.834   2.968   0.342
 7012TIP3    H121000   1.851   3.047   0.393
 7012TIP3    H221001   1.804   3.001   0.257
 7013TIP3   OH221002   5.320   0.259   3.934
 7013TIP3    H121003   5.283   0.303   4.011
 7013TIP3    H221004   5.382   0.196   3.970
 7014TIP3   OH221005   3.085   2.647   1.040
 7014TIP3    H121006   3.153   2.699   1.083
 7014TIP3    H221007   3.044   2.598   1.111
 7015TIP3   OH221008   1.406   2.661   3.467
 7015TIP3    H121009   1.405   2.566   3.480
 7015TIP3    H221010   1.364   2.696   3.545
 7016TIP3   OH221011   4.918   2.453   5.196
 7016TIP3    H121012   4.993   2.413   5.152
 7016TIP3    H221013   4.957   2.514   5.258
 7017TIP3   OH221014   4.679   5.721   5.721
 7017TIP3    H121015   4.707   5.639   5.763
 7017TIP3    H221016   4.596   5.742   5.763
 7018TIP3   OH221017   1.623   4.341   1.088
 7018TIP3    H121018   1.640   4.317   1.179
 7018TIP3    H221019   1.532   4.372   1.088
 7019TIP3   OH221020   6.392   2.583   1.521
 7019TIP3    H121021   6.479   2.551   1.545
 7019TIP3    H221022   6.384   2.667   1.566
 7020TIP3   OH221023   1.318   1.539   1.706
 7020TIP3    H121024   1.321   1.462   1.763
 7020TIP3    H221025   1.348   1.506   1.620
 7021TIP3   OH221026   4.083   2.123   3.515
 7021TIP3    H121027   3.990   2.108   3.528
 7021TIP3    H221028   4.103   2.200   3.568
 7022TIP3   OH221029   0.345   1.988   5.306
 7022TIP3    H121030   0.382   1.961   5.222
 7022TIP3    H221031   0.301   1.910   5.338
 7023TIP3   OH221032   6.667   0.325   1.541
 7023TIP3    H121033   6.590   0.286   1.582
 7023TIP3    H221034   6.735   0.259   1.551
 7024TIP3   OH221035   6.138   5.273   4.446
 7024TIP3    H121036   6.075   5.216   4.400
 7024TIP3    H221037   6.084   5.328   4.502
 7025TIP3   OH221038   2.149   0.898   5.894
 7025TIP3    H121039   2.193   0.926   5.814
 7025TIP3    H221040   2.057   0.923   5.880
 7026TIP3   OH221041   3.394   0.839   3.789
 7026TIP3    H121042   3.430   0.855   3.701
 7026TIP3    H221043   3.310   0.885   3.789
 7027TIP3   OH221044   3.497   2.281   3.849
 7027TIP3    H121045   3.491   2.219   3.776
 7027TIP3    H221046   3.589   2.306   3.851
 7028TIP3   OH221047   0.424   3.174   3.088
 7028TIP3    H121048   0.404   3.117   3.014
 7028TIP3    H221049   0.505   3.140   3.124
 7029TIP3   OH221050   4.700   4.827   3.385
 7029TIP3    H121051   4.678   4.788   3.301
 7029TIP3    H221052   4.665   4.916   3.380
 7030TIP3   OH221053   1.279   4.611   1.272
 7030TIP3    H121054   1.366   4.640   1.244
 7030TIP3    H221055   1.220   4.681   1.243
 7031TIP3   OH221056   6.754   5.093   1.711
 7031TIP3    H121057   6.735   5.007   1.675
 7031TIP3    H221058   6.795   5.075   1.796
 7032TIP3   OH221059   2.596   0.249   0.952
 7032TIP3    H121060   2.648   0.252   0.872
 7032TIP3    H221061   2.580   0.341   0.973
 7033TIP3   OH221062   6.760   3.115   2.712
 7033TIP3    H121063   6.847   3.151   2.692
 7033TIP3    H221064   6.710   3.128   2.632
 7034TIP3   OH221065   5.550   2.777   2.836
 7034TIP3    H121066   5.479   2.839   2.825
 7034TIP3    H221067   5.616   2.804   2.772
 7035TIP3   OH221068   2.691   1.459   5.612
 7035TIP3    H121069   2.710   1.395   5.544
 7035TIP3    H221070   2.736   1.425   5.690
 7036TIP3   OH221071   4.334   5.095   4.253
 7036TIP3    H121072   4.415   5.143   4.262
 7036TIP3    H221073   4.351   5.032   4.182
 7037TIP3   OH221074   1.565   6.015   4.061
 7037TIP3    H121075   1.540   6.108   4.064
 7037TIP3    H221076   1.538   5.986   3.973
 7038TIP3   OH221077   6.551   1.070   5.414
 7038TIP3    H121078   6.553   0.974   5.419
 7038TIP3    H221079   6.641   1.095   5.395
 7039TIP3   OH221080   5.611   5.365   0.972
 7039TIP3    H121081   5.546   5.377   0.903
 7039TIP3    H221082   5.688   5.328   0.927
 7040TIP3   OH221083   4.769   4.706   5.003
 7040TIP3    H121084   4.782   4.638   5.069
 7040TIP3    H221085   4.759   4.658   4.920
 7041TIP3   OH221086   3.821   6.065   0.861
 7041TIP3    H121087   3.869   6.076   0.943
 7041TIP3    H221088   3.857   5.986   0.822
 7042TIP3   OH221089   2.745   1.379   5.342
 7042TIP3    H121090   2.662   1.335   5.319
 7042TIP3    H221091   2.812   1.313   5.323
 7043TIP3   OH221092   3.493   3.545   3.761
 7043TIP3    H121093   3.563   3.524   3.700
 7043TIP3    H221094   3.475   3.463   3.806
 7044TIP3   OH221095   5.609   0.262   4.136
 7044TIP3    H121096   5.556   0.337   4.108
 7044TIP3    H221097   5.694   0.300   4.157
 7045TIP3   OH221098   3.991   0.889   1.932
 7045TIP3    H121099   3.928   0.849   1.872
 7045TIP3    H221100   3.956   0.977   1.948
 7046TIP3   OH221101   4.934   1.223   3.078
 7046TIP3    H121102   5.006   1.262   3.127
 7046TIP3    H221103   4.972   1.146   3.036
 7047TIP3   OH221104   2.391   3.390   0.728
 7047TIP3    H121105   2.315   3.448   0.716
 7047TIP3    H221106   2.457   3.446   0.769
 7048TIP3   OH221107   6.220   3.328   1.040
 7048TIP3    H121108   6.199   3.306   0.949
 7048TIP3    H221109   6.308   3.291   1.054
 7049TIP3   OH221110   2.056   3.366   2.706
 7049TIP3    H121111   1.976   3.334   2.665
 7049TIP3    H221112   2.127   3.323   2.658
 7050TIP3   OH221113   0.852   3.536   4.076
 7050TIP3    H121114   0.926   3.544   4.137
 7050TIP3    H221115   0.891   3.545   3.989
 7051TIP3   OH221116   6.455   4.482   0.715
 7051TIP3    H121117   6.508   4.555   0.683
 7051TIP3    H221118   6.389   4.468   0.647
 7052TIP3   OH221119   0.381   1.185   5.381
 7052TIP3    H121120   0.463   1.231   5.364
 7052TIP3    H221121   0.348   1.224   5.462
 7053TIP3   OH221122   5.741   1.746   1.032
 7053TIP3    H121123   5.670   1.802   1.064
 7053TIP3    H221124   5.732   1.747   0.937
 7054TIP3   OH221125   3.540   0.937   0.522
 7054TIP3    H121126   3.494   0.926   0.439
 7054TIP3    H221127   3.521   1.027   0.549
 7055TIP3   OH221128   5.083   1.109   5.362
 7055TIP3    H121129   5.147   1.077   5.299
 7055TIP3    H221130   5.136   1.153   5.429
 7056TIP3   OH221131   0.706   0.970   0.169
 7056TIP3    H121132   0.715   1.051   0.118
 7056TIP3    H221133   0.672   1.000   0.254
 7057TIP3   OH221134   6.909   3.869   3.315
 7057TIP3    H121135   6.981   3.921   3.279
 7057TIP3    H221136   6.910   3.788   3.265
 7058TIP3   OH221137   2.149   6.229   2.759
 7058TIP3    H121138   2.154   6.167   2.686
 7058TIP3    H221139   2.080   6.194   2.816
 7059TIP3   OH221140   6.373   2.044   4.437
 7059TIP3    H121141   6.412   2.128   4.461
 7059TIP3    H221142   6.448   1.989   4.413
 7060TIP3   OH221143   5.540   0.338   5.131
 7060TIP3    H121144   5.479   0.401   5.171
 7060TIP3    H221145   5.622   0.352   5.179
 7061TIP3   OH221146   4.577   3.653   3.007
 7061TIP3    H121147   4.556   3.562   3.026
 7061TIP3    H221148   4.558   3.700   3.088
 7062TIP3   OH221149   1.112   3.908   1.650
 7062TIP3    H121150   1.190   3.959   1.671
 7062TIP3    H221151   1.076   3.950   1.572
 7063TIP3   OH221152   4.481   0.642   4.378
 7063TIP3    H121153   4.455   0.587   4.304
 7063TIP3    H221154   4.411   0.707   4.384
 7064TIP3   OH221155   2.889   5.153   3.798
 7064TIP3    H121156   2.974   5.191   3.776
 7064TIP3    H221157   2.828   5.197   3.739
 7065TIP3   OH221158   5.959   3.895   1.075
 7065TIP3    H121159   5.907   3.975   1.082
 7065TIP3    H221160   5.971   3.866   1.165
 7066TIP3   OH221161   1.303   3.506   4.686
 7066TIP3    H121162   1.286   3.444   4.615
 7066TIP3    H221163   1.238   3.575   4.675
 7067TIP3   OH221164   3.122   4.250   2.822
 7067TIP3    H121165   3.035   4.223   2.851
 7067TIP3    H221166   3.107   4.333   2.775
 7068TIP3   OH221167   1.925   4.000   4.769
 7068TIP3    H121168   1.883   3.923   4.807
 7068TIP3    H221169   2.013   3.969   4.744
 7069TIP3   OH221170   0.721   6.365   2.012
 7069TIP3    H121171   0.709   6.423   1.937
 7069TIP3    H221172   0.710   6.421   2.088
 7070TIP3   OH221173   2.229   1.615   3.895
 7070TIP3    H121174   2.192   1.641   3.979
 7070TIP3    H221175   2.314   1.658   3.891
 7071TIP3   OH221176   5.175   1.830   2.850
 7071TIP3    H121177   5.217   1.760   2.800
 7071TIP3    H221178   5.246   1.873   2.897
 7072TIP3   OH221179   3.763   1.984   2.768
 7072TIP3    H121180   3.851   1.972   2.733
 7072TIP3    H221181   3.708   2.000   2.691
 7073TIP3   OH221182   5.815   3.989   2.416
 7073TIP3    H121183   5.798   4.052   2.346
 7073TIP3    H221184   5.910   3.993   2.428
 7074TIP3   OH221185   0.871   6.269   1.574
 7074TIP3    H121186   0.934   6.328   1.616
 7074TIP3    H221187   0.786   6.310   1.590
 7075TIP3   OH221188   3.028   2.776   5.146
 7075TIP3    H121189   2.958   2.825   5.188
 7075TIP3    H221190   2.997   2.686   5.143
 7076TIP3   OH221191   5.086   5.575   1.308
 7076TIP3    H121192   5.052   5.489   1.284
 7076TIP3    H221193   5.179   5.572   1.284
 7077TIP3   OH221194   3.897   5.232   1.608
 7077TIP3    H121195   3.835   5.304   1.594
 7077TIP3    H221196   3.938   5.252   1.692
 7078TIP3   OH221197   0.866   1.275   4.291
 7078TIP3    H121198   0.795   1.339   4.297
 7078TIP3    H221199   0.901   1.269   4.380
 7079TIP3   OH221200   3.887   1.126   0.994
 7079TIP3    H121201   3.822   1.139   1.063
 7079TIP3    H221202   3.926   1.041   1.012
 7080TIP3   OH221203   1.385   2.991   1.639
 7080TIP3    H121204   1.466   3.000   1.690
 7080TIP3    H221205   1.386   3.066   1.580
 7081TIP3   OH221206   5.388   0.335   5.561
 7081TIP3    H121207   5.420   0.424   5.579
 7081TIP3    H221208   5.449   0.300   5.497
 7082TIP3   OH221209   6.046   0.202   4.301
 7082TIP3    H121210   6.111   0.234   4.238
 7082TIP3    H221211   6.053   0.106   4.295
 7083TIP3   OH221212   1.391   1.764   5.312
 7083TIP3    H121213   1.333   1.782   5.238
 7083TIP3    H221214   1.333   1.765   5.388
 7084TIP3   OH221215   3.336   4.592   0.311
 7084TIP3    H121216   3.270   4.528   0.284
 7084TIP3    H221217   3.418   4.561   0.271
 7085TIP3   OH221218   1.356   5.326   1.971
 7085TIP3    H121219   1.298   5.383   2.021
 7085TIP3    H221220   1.425   5.301   2.033
 7086TIP3   OH221221   4.902   4.769   2.890
 7086TIP3    H121222   4.819   4.788   2.847
 7086TIP3    H221223   4.903   4.674   2.901
 7087TIP3   OH221224   1.510   3.286   1.856
 7087TIP3    H121225   1.573   3.230   1.811
 7087TIP3    H221226   1.468   3.336   1.786
 7088TIP3   OH221227   2.388   4.286   2.657
 7088TIP3    H121228   2.428   4.295   2.571
 7088TIP3    H221229   2.308   4.235   2.641
 7089TIP3   OH221230   2.051   5.179   5.697
 7089TIP3    H121231   2.123   5.156   5.756
 7089TIP3    H221232   1.998   5.100   5.692
 7090TIP3   OH221233   1.124   6.035   4.673
 7090TIP3    H121234   1.188   5.965   4.669
 7090TIP3    H221235   1.072   6.025   4.593
 7091TIP3   OH221236   4.468   4.705   5.406
 7091TIP3    H121237   4.408   4.666   5.469
 7091TIP3    H221238   4.540   4.641   5.400
 7092TIP3   OH221239   1.459   0.043   4.549
 7092TIP3    H121240   1.453   0.122   4.496
 7092TIP3    H221241   1.419  -0.025   4.495
 7093TIP3   OH221242   1.747   1.360   1.686
 7093TIP3    H121243   1.753   1.455   1.694
 7093TIP3    H221244   1.749   1.344   1.592
 7094TIP3   OH221245   1.791   4.611   4.268
 7094TIP3    H121246   1.840   4.572   4.340
 7094TIP3    H221247   1.770   4.537   4.211
 7095TIP3   OH221248   3.016   6.643   5.780
 7095TIP3    H121249   3.074   6.583   5.733
 7095TIP3    H221250   3.045   6.638   5.871
 7096TIP3   OH221251   3.111   5.444   0.002
 7096TIP3    H121252   3.033   5.420  -0.049
 7096TIP3    H221253   3.132   5.365   0.052
 7097TIP3   OH221254   4.022   3.705   5.645
 7097TIP3    H121255   4.106   3.708   5.599
 7097TIP3    H221256   4.027   3.625   5.698
 7098TIP3   OH221257   0.025   4.642   2.303
 7098TIP3    H121258  -0.001   4.581   2.371
 7098TIP3    H221259   0.065   4.715   2.349
 7099TIP3   OH221260   0.485   5.662   2.966
 7099TIP3    H121261   0.488   5.588   3.027
 7099TIP3    H221262   0.512   5.625   2.882
 7100TIP3   OH221263   1.998   6.347   2.264
 7100TIP3    H121264   2.075   6.368   2.318
 7100TIP3    H221265   1.987   6.425   2.209
 7101TIP3   OH221266   3.720   4.772   3.593
 7101TIP3    H121267   3.674   4.777   3.678
 7101TIP3    H221268   3.702   4.683   3.562
 7102TIP3   OH221269   1.684   2.215   0.461
 7102TIP3    H121270   1.626   2.205   0.386
 7102TIP3    H221271   1.740   2.137   0.459
 7103TIP3   OH221272   2.565   1.277   0.555
 7103TIP3    H121273   2.624   1.348   0.528
 7103TIP3    H221274   2.478   1.317   0.556
 7104TIP3   OH221275   7.155   2.630   2.081
 7104TIP3    H121276   7.142   2.647   2.174
 7104TIP3    H221277   7.221   2.694   2.054
 7105TIP3   OH221278   1.560  -0.008   3.303
 7105TIP3    H121279   1.504   0.070   3.312
 7105TIP3    H221280   1.639   0.014   3.352
 7106TIP3   OH221281   4.294   1.791   0.494
 7106TIP3    H121282   4.365   1.757   0.440
 7106TIP3    H221283   4.334   1.863   0.543
 7107TIP3   OH221284   5.356   0.161   2.610
 7107TIP3    H121285   5.347   0.184   2.517
 7107TIP3    H221286   5.267   0.167   2.645
 7108TIP3   OH221287   3.135   0.504   2.111
 7108TIP3    H121288   3.169   0.535   2.195
 7108TIP3    H221289   3.211   0.505   2.053
 7109TIP3   OH221290   2.864   3.607   2.209
 7109TIP3    H121291   2.845   3.639   2.121
 7109TIP3    H221292   2.960   3.604   2.213
 7110TIP3   OH221293   6.176   3.851   0.514
 7110TIP3    H121294   6.234   3.851   0.438
 7110TIP3    H221295   6.181   3.762   0.548
 7111TIP3   OH221296   5.185   3.356   4.181
 7111TIP3    H121297   5.235   3.275   4.193
 7111TIP3    H221298   5.248   3.418   4.145
 7112TIP3   OH221299   0.776   0.510   2.382
 7112TIP3    H121300   0.800   0.423   2.350
 7112TIP3    H221301   0.680   0.511   2.377
 7113TIP3   OH221302   2.709   6.365   3.382
 7113TIP3    H121303   2.703   6.286   3.327
 7113TIP3    H221304   2.790   6.353   3.431
 7114TIP3   OH221305   1.702   3.379   5.762
 7114TIP3    H121306   1.639   3.410   5.827
 7114TIP3    H221307   1.779   3.356   5.813
 7115TIP3   OH221308   6.819   6.786   3.665
 7115TIP3    H121309   6.897   6.736   3.639
 7115TIP3    H221310   6.853   6.870   3.694
 7116TIP3   OH221311   4.451   4.536   3.295
 7116TIP3    H121312   4.405   4.617   3.271
 7116TIP3    H221313   4.519   4.527   3.228
 7117TIP3   OH221314   2.543   3.486   2.080
 7117TIP3    H121315   2.547   3.551   2.011
 7117TIP3    H221316   2.452   3.455   2.078
 7118TIP3   OH221317   5.254   3.737   1.262
 7118TIP3    H121318   5.347   3.716   1.255
 7118TIP3    H221319   5.230   3.713   1.352
 7119TIP3   OH221320   6.594   3.147   5.279
 7119TIP3    H121321   6.554   3.225   5.239
 7119TIP3    H221322   6.522   3.085   5.288
 7120TIP3   OH221323   5.451   3.723   5.784
 7120TIP3    H121324   5.509   3.659   5.826
 7120TIP3    H221325   5.391   3.670   5.731
 7121TIP3   OH221326   4.356   3.944   3.688
 7121TIP3    H121327   4.374   3.859   3.729
 7121TIP3    H221328   4.437   3.964   3.640
 7122TIP3   OH221329   0.387   6.505   2.850
 7122TIP3    H121330   0.302   6.522   2.810
 7122TIP3    H221331   0.437   6.461   2.781
 7123TIP3   OH221332   1.176   3.885   2.412
 7123TIP3    H121333   1.088   3.874   2.449
 7123TIP3    H221334   1.192   3.980   2.417
 7124TIP3   OH221335   1.853   4.236   5.667
 7124TIP3    H121336   1.887   4.160   5.714
 7124TIP3    H221337   1.840   4.205   5.577
 7125TIP3   OH221338   5.383   1.664   5.298
 7125TIP3    H121339   5.456   1.690   5.353
 7125TIP3    H221340   5.305   1.696   5.344
 7126TIP3   OH221341   2.919   4.877   5.565
 7126TIP3    H121342   2.870   4.929   5.629
 7126TIP3    H221343   3.001   4.924   5.553
 7127TIP3   OH221344   5.606   0.395   3.664
 7127TIP3    H121345   5.531   0.336   3.649
 7127TIP3    H221346   5.574   0.459   3.727
 7128TIP3   OH221347   6.560   6.703   0.613
 7128TIP3    H121348   6.637   6.743   0.654
 7128TIP3    H221349   6.552   6.747   0.529
 7129TIP3   OH221350   2.463   0.484   0.558
 7129TIP3    H121351   2.383   0.497   0.610
 7129TIP3    H221352   2.482   0.571   0.523
 7130TIP3   OH221353   0.650   4.396   0.966
 7130TIP3    H121354   0.648   4.311   0.920
 7130TIP3    H221355   0.584   4.388   1.034
 7131TIP3   OH221356   3.082   2.920   0.713
 7131TIP3    H121357   3.100   2.906   0.620
 7131TIP3    H221358   3.144   2.988   0.739
 7132TIP3   OH221359   0.896   5.594   0.509
 7132TIP3    H121360   0.808   5.555   0.517
 7132TIP3    H221361   0.953   5.533   0.555
 7133TIP3   OH221362   3.367   1.258   4.969
 7133TIP3    H121363   3.349   1.165   4.956
 7133TIP3    H221364   3.415   1.261   5.052
 7134TIP3   OH221365   4.196   1.349   5.853
 7134TIP3    H121366   4.276   1.340   5.905
 7134TIP3    H221367   4.193   1.442   5.829
 7135TIP3   OH221368   3.771   2.689   4.831
 7135TIP3    H121369   3.810   2.746   4.764
 7135TIP3    H221370   3.706   2.637   4.783
 7136TIP3   OH221371   2.735   2.566   0.245
 7136TIP3    H121372   2.741   2.644   0.300
 7136TIP3    H221373   2.674   2.509   0.292
 7137TIP3   OH221374   5.115   0.641   2.459
 7137TIP3    H121375   5.184   0.697   2.495
 7137TIP3    H221376   5.153   0.606   2.378
 7138TIP3   OH221377   0.185   5.361   3.909
 7138TIP3    H121378   0.269   5.345   3.952
 7138TIP3    H221379   0.172   5.455   3.918
 7139TIP3   OH221380   2.858   6.296   1.090
 7139TIP3    H121381   2.889   6.381   1.119
 7139TIP3    H221382   2.781   6.315   1.035
 7140TIP3   OH221383   4.988   2.896   5.299
 7140TIP3    H121384   5.077   2.914   5.268
 7140TIP3    H221385   4.978   2.950   5.377
 7141TIP3   OH221386   4.213   5.096   3.701
 7141TIP3    H121387   4.185   5.176   3.745
 7141TIP3    H221388   4.134   5.062   3.659
 7142TIP3   OH221389   2.137   6.586   1.537
 7142TIP3    H121390   2.076   6.658   1.552
 7142TIP3    H221391   2.221   6.619   1.569
 7143TIP3   OH221392   3.181   5.713   1.372
 7143TIP3    H121393   3.161   5.767   1.296
 7143TIP3    H221394   3.158   5.768   1.447
 7144TIP3   OH221395   7.069   5.788   2.359
 7144TIP3    H121396   7.059   5.831   2.445
 7144TIP3    H221397   7.016   5.842   2.300
 7145TIP3   OH221398   1.261   5.462   2.399
 7145TIP3    H121399   1.353   5.478   2.421
 7145TIP3    H221400   1.220   5.548   2.406
 7146TIP3   OH221401   5.997   5.336   2.058
 7146TIP3    H121402   6.049   5.317   2.136
 7146TIP3    H221403   5.918   5.283   2.068
 7147TIP3   OH221404   5.350   3.058   1.800
 7147TIP3    H121405   5.255   3.060   1.807
 7147TIP3    H221406   5.368   3.064   1.706
 7148TIP3   OH221407   4.244   0.425   2.579
 7148TIP3    H121408   4.298   0.420   2.658
 7148TIP3    H221409   4.304   0.404   2.508
 7149TIP3   OH221410   3.687   3.009   2.847
 7149TIP3    H121411   3.637   2.933   2.878
 7149TIP3    H221412   3.758   3.018   2.910
 7150TIP3   OH221413   5.694   2.291   5.514
 7150TIP3    H121414   5.656   2.224   5.457
 7150TIP3    H221415   5.673   2.374   5.470
 7151TIP3   OH221416   3.427   3.614   5.348
 7151TIP3    H121417   3.362   3.609   5.418
 7151TIP3    H221418   3.405   3.694   5.301
 7152TIP3   OH221419   2.511   1.123   1.791
 7152TIP3    H121420   2.421   1.120   1.760
 7152TIP3    H221421   2.563   1.109   1.712
 7153TIP3   OH221422   1.524   5.588   2.379
 7153TIP3    H121423   1.470   5.666   2.364
 7153TIP3    H221424   1.576   5.611   2.456
 7154TIP3   OH221425   6.018   3.631   4.383
 7154TIP3    H121426   6.094   3.631   4.326
 7154TIP3    H221427   6.040   3.694   4.452
 7155TIP3   OH221428   6.069   0.804   4.876
 7155TIP3    H121429   6.101   0.894   4.868
 7155TIP3    H221430   6.016   0.791   4.797
 7156TIP3   OH221431   0.543   6.553   2.619
 7156TIP3    H121432   0.628   6.543   2.576
 7156TIP3    H221433   0.485   6.584   2.549
 7157TIP3   OH221434   3.074   3.603   4.691
 7157TIP3    H121435   3.078   3.510   4.711
 7157TIP3    H221436   3.069   3.608   4.596
 7158TIP3   OH221437   1.882   2.097   3.868
 7158TIP3    H121438   1.849   2.007   3.858
 7158TIP3    H221439   1.963   2.099   3.816
 7159TIP3   OH221440   5.083   6.781   0.495
 7159TIP3    H121441   5.035   6.698   0.496
 7159TIP3    H221442   5.064   6.819   0.410
 7160TIP3   OH221443   0.287   6.468   3.253
 7160TIP3    H121444   0.377   6.476   3.222
 7160TIP3    H221445   0.237   6.442   3.176
 7161TIP3   OH221446   4.294   6.277   3.172
 7161TIP3    H121447   4.208   6.239   3.187
 7161TIP3    H221448   4.277   6.370   3.159
 7162TIP3   OH221449   1.195   0.664   3.251
 7162TIP3    H121450   1.149   0.620   3.322
 7162TIP3    H221451   1.180   0.757   3.266
 7163TIP3   OH221452   4.193   2.192   1.988
 7163TIP3    H121453   4.207   2.193   2.083
 7163TIP3    H221454   4.099   2.205   1.977
 7164TIP3   OH221455   3.760   3.856   1.023
 7164TIP3    H121456   3.707   3.935   1.014
 7164TIP3    H221457   3.706   3.796   1.074
 7165TIP3   OH221458   0.361   0.618   1.522
 7165TIP3    H121459   0.321   0.577   1.445
 7165TIP3    H221460   0.293   0.614   1.589
 7166TIP3   OH221461   2.981   2.358   5.566
 7166TIP3    H121462   2.971   2.322   5.478
 7166TIP3    H221463   3.044   2.300   5.609
 7167TIP3   OH221464   6.180   1.731   4.389
 7167TIP3    H121465   6.091   1.718   4.356
 7167TIP3    H221466   6.228   1.766   4.315
 7168TIP3   OH221467   5.490   5.702   4.213
 7168TIP3    H121468   5.467   5.738   4.128
 7168TIP3    H221469   5.562   5.642   4.195
 7169TIP3   OH221470   2.461   2.271   0.627
 7169TIP3    H121471   2.410   2.282   0.546
 7169TIP3    H221472   2.550   2.294   0.601
 7170TIP3   OH221473   5.001   4.618   5.251
 7170TIP3    H121474   4.938   4.689   5.265
 7170TIP3    H221475   4.952   4.554   5.199
 7171TIP3   OH221476   5.499   2.484   1.940
 7171TIP3    H121477   5.530   2.397   1.966
 7171TIP3    H221478   5.495   2.482   1.845
 7172TIP3   OH221479   0.549   2.956   5.502
 7172TIP3    H121480   0.474   2.998   5.459
 7172TIP3    H221481   0.530   2.962   5.596
 7173TIP3   OH221482   1.427   1.157   5.022
 7173TIP3    H121483   1.510   1.195   5.050
 7173TIP3    H221484   1.453   1.081   4.969
 7174TIP3   OH221485   4.812   0.464   0.375
 7174TIP3    H121486   4.756   0.539   0.355
 7174TIP3    H221487   4.824   0.421   0.291
 7175TIP3   OH221488   3.369   6.167   3.551
 7175TIP3    H121489   3.422   6.088   3.556
 7175TIP3    H221490   3.289   6.146   3.600
 7176TIP3   OH221491   4.209   1.305   4.313
 7176TIP3    H121492   4.300   1.311   4.341
 7176TIP3    H221493   4.211   1.319   4.219
 7177TIP3   OH221494   5.308   2.204   1.099
 7177TIP3    H121495   5.258   2.225   1.020
 7177TIP3    H221496   5.389   2.164   1.067
 7178TIP3   OH221497   6.227   4.027   4.292
 7178TIP3    H121498   6.160   4.007   4.357
 7178TIP3    H221499   6.211   4.119   4.268
 7179TIP3   OH221500   6.937   0.620   4.375
 7179TIP3    H121501   7.007   0.678   4.346
 7179TIP3    H221502   6.914   0.650   4.463
 7180TIP3   OH221503   2.537   0.915   1.557
 7180TIP3    H121504   2.621   0.870   1.566
 7180TIP3    H221505   2.476   0.860   1.606
 7181TIP3   OH221506   2.340   0.452   2.214
 7181TIP3    H121507   2.394   0.397   2.158
 7181TIP3    H221508   2.251   0.440   2.181
 7182TIP3   OH221509   3.618   4.472   2.906
 7182TIP3    H121510   3.697   4.521   2.882
 7182TIP3    H221511   3.559   4.483   2.833
 7183TIP3   OH221512   2.695   2.083   5.369
 7183TIP3    H121513   2.711   2.012   5.308
 7183TIP3    H221514   2.600   2.090   5.373
 7184TIP3   OH221515   0.510   6.513   5.711
 7184TIP3    H121516   0.500   6.485   5.619
 7184TIP3    H221517   0.496   6.433   5.761
 7185TIP3   OH221518   5.667   3.179   0.884
 7185TIP3    H121519   5.707   3.148   0.803
 7185TIP3    H221520   5.730   3.243   0.919
 7186TIP3   OH221521   2.055   1.466   0.794
 7186TIP3    H121522   1.985   1.529   0.809
 7186TIP3    H221523   2.135   1.511   0.820
 7187TIP3   OH221524   4.954   4.524   3.518
 7187TIP3    H121525   4.867   4.538   3.556
 7187TIP3    H221526   4.950   4.435   3.483
 7188TIP3   OH221527   5.968   2.528   0.662
 7188TIP3    H121528   5.976   2.433   0.668
 7188TIP3    H221529   6.055   2.557   0.632
 7189TIP3   OH221530   5.380   6.578   0.265
 7189TIP3    H121531   5.329   6.601   0.187
 7189TIP3    H221532   5.351   6.489   0.287
 7190TIP3   OH221533   4.103   3.443   2.179
 7190TIP3    H121534   4.144   3.385   2.116
 7190TIP3    H221535   4.012   3.413   2.184
 7191TIP3   OH221536   4.801   5.525   4.443
 7191TIP3    H121537   4.897   5.523   4.448
 7191TIP3    H221538   4.783   5.532   4.349
 7192TIP3   OH221539   4.403   1.814   0.973
 7192TIP3    H121540   4.423   1.895   0.926
 7192TIP3    H221541   4.310   1.821   0.994
 7193TIP3   OH221542   3.161   0.321   0.713
 7193TIP3    H121543   3.090   0.386   0.717
 7193TIP3    H221544   3.226   0.359   0.654
 7194TIP3   OH221545   7.036   3.380   3.697
 7194TIP3    H121546   7.038   3.292   3.660
 7194TIP3    H221547   6.986   3.370   3.778
 7195TIP3   OH221548   6.803   2.534   3.104
 7195TIP3    H121549   6.880   2.483   3.082
 7195TIP3    H221550   6.831   2.591   3.176
 7196TIP3   OH221551   3.212   1.411   0.552
 7196TIP3    H121552   3.123   1.426   0.584
 7196TIP3    H221553   3.212   1.320   0.523
 7197TIP3   OH221554   5.083   3.032   2.639
 7197TIP3    H121555   5.118   3.080   2.713
 7197TIP3    H221556   5.086   2.940   2.665
 7198TIP3   OH221557   0.735   1.548   4.272
 7198TIP3    H121558   0.668   1.538   4.205
 7198TIP3    H221559   0.807   1.593   4.228
 7199TIP3   OH221560   0.592   2.245   5.427
 7199TIP3    H121561   0.591   2.293   5.510
 7199TIP3    H221562   0.609   2.313   5.361
 7200TIP3   OH221563   6.012   2.087   1.372
 7200TIP3    H121564   5.976   2.105   1.459
 7200TIP3    H221565   5.947   2.030   1.331
 7201TIP3   OH221566   0.344   0.785   4.384
 7201TIP3    H121567   0.347   0.729   4.461
 7201TIP3    H221568   0.272   0.846   4.401
 7202TIP3   OH221569   1.233   0.220   3.675
 7202TIP3    H121570   1.253   0.127   3.672
 7202TIP3    H221571   1.182   0.236   3.595
 7203TIP3   OH221572   5.686   0.028   3.048
 7203TIP3    H121573   5.603   0.032   3.000
 7203TIP3    H221574   5.687  -0.059   3.088
 7204TIP3   OH221575   2.800   3.301   0.118
 7204TIP3    H121576   2.746   3.247   0.061
 7204TIP3    H221577   2.889   3.287   0.088
 7205TIP3   OH221578   4.910   6.463   3.286
 7205TIP3    H121579   4.973   6.530   3.312
 7205TIP3    H221580   4.839   6.512   3.244
 7206TIP3   OH221581   6.680   0.731   3.008
 7206TIP3    H121582   6.612   0.797   3.020
 7206TIP3    H221583   6.635   0.648   3.020
 7207TIP3   OH221584   5.819   1.448   1.329
 7207TIP3    H121585   5.767   1.527   1.345
 7207TIP3    H221586   5.758   1.376   1.346
 7208TIP3   OH221587   1.141   6.290   2.920
 7208TIP3    H121588   1.228   6.254   2.904
 7208TIP3    H221589   1.103   6.231   2.986
 7209TIP3   OH221590   3.384   4.406   2.221
 7209TIP3    H121591   3.475   4.435   2.223
 7209TIP3    H221592   3.375   4.350   2.298
 7210TIP3   OH221593   5.713   1.556   3.127
 7210TIP3    H121594   5.791   1.510   3.097
 7210TIP3    H221595   5.746   1.634   3.171
 7211TIP3   OH221596   3.144   2.296   4.539
 7211TIP3    H121597   3.147   2.202   4.553
 7211TIP3    H221598   3.138   2.307   4.445
 7212TIP3   OH221599   5.722   4.607   0.338
 7212TIP3    H121600   5.639   4.625   0.294
 7212TIP3    H221601   5.706   4.525   0.387
 7213TIP3   OH221602   3.496   0.380   4.334
 7213TIP3    H121603   3.523   0.453   4.390
 7213TIP3    H221604   3.426   0.416   4.279
 7214TIP3   OH221605   3.769   3.051   0.377
 7214TIP3    H121606   3.709   3.112   0.421
 7214TIP3    H221607   3.718   3.014   0.305
 7215TIP3   OH221608   5.998   4.042   2.764
 7215TIP3    H121609   5.936   3.981   2.803
 7215TIP3    H221610   5.947   4.091   2.700
 7216TIP3   OH221611   1.133   3.411   1.426
 7216TIP3    H121612   1.087   3.350   1.484
 7216TIP3    H221613   1.120   3.496   1.468
 7217TIP3   OH221614   4.326   2.760   1.407
 7217TIP3    H121615   4.413   2.751   1.369
 7217TIP3    H221616   4.341   2.764   1.502
 7218TIP3   OH221617   1.383   3.573   3.601
 7218TIP3    H121618   1.394   3.480   3.585
 7218TIP3    H221619   1.370   3.611   3.514
 7219TIP3   OH221620   5.142   4.633   3.686
 7219TIP3    H121621   5.195   4.573   3.737
 7219TIP3    H221622   5.081   4.577   3.638
 7220TIP3   OH221623   2.056   5.994   2.078
 7220TIP3    H121624   2.012   6.065   2.031
 7220TIP3    H221625   1.984   5.942   2.114
 7221TIP3   OH221626   1.062   0.378   4.637
 7221TIP3    H121627   1.049   0.379   4.542
 7221TIP3    H221628   0.997   0.439   4.671
 7222TIP3   OH221629   5.372   2.070   2.028
 7222TIP3    H121630   5.453   2.090   1.982
 7222TIP3    H221631   5.310   2.046   1.959
 7223TIP3   OH221632   3.841   4.075   3.469
 7223TIP3    H121633   3.848   4.010   3.539
 7223TIP3    H221634   3.888   4.036   3.396
 7224TIP3   OH221635   2.310   1.532   5.015
 7224TIP3    H121636   2.381   1.523   4.952
 7224TIP3    H221637   2.265   1.613   4.990
 7225TIP3   OH221638   0.214   2.708   2.205
 7225TIP3    H121639   0.180   2.652   2.274
 7225TIP3    H221640   0.156   2.785   2.206
 7226TIP3   OH221641   1.346   0.184   3.298
 7226TIP3    H121642   1.266   0.216   3.256
 7226TIP3    H221643   1.316   0.122   3.364
 7227TIP3   OH221644   3.392   2.730   0.554
 7227TIP3    H121645   3.389   2.825   0.569
 7227TIP3    H221646   3.325   2.694   0.612
 7228TIP3   OH221647   1.750   3.849   3.378
 7228TIP3    H121648   1.710   3.927   3.340
 7228TIP3    H221649   1.712   3.777   3.328
 7229TIP3   OH221650   5.648   2.908   4.943
 7229TIP3    H121651   5.560   2.945   4.948
 7229TIP3    H221652   5.706   2.981   4.962
 7230TIP3   OH221653   6.301   3.668   5.455
 7230TIP3    H121654   6.286   3.748   5.505
 7230TIP3    H221655   6.214   3.644   5.423
 7231TIP3   OH221656   4.024   3.716   3.639
 7231TIP3    H121657   4.076   3.677   3.569
 7231TIP3    H221658   4.075   3.700   3.719
 7232TIP3   OH221659   0.167   5.950   0.233
 7232TIP3    H121660   0.236   5.916   0.289
 7232TIP3    H221661   0.086   5.925   0.277
 7233TIP3   OH221662   1.084   3.666   0.213
 7233TIP3    H121663   1.003   3.656   0.262
 7233TIP3    H221664   1.143   3.600   0.248
 7234TIP3   OH221665   4.434   3.458   0.352
 7234TIP3    H121666   4.358   3.514   0.338
 7234TIP3    H221667   4.502   3.497   0.297
 7235TIP3   OH221668   3.935   5.224   3.169
 7235TIP3    H121669   3.959   5.276   3.245
 7235TIP3    H221670   4.011   5.230   3.111
 7236TIP3   OH221671   3.699   1.514   0.385
 7236TIP3    H121672   3.638   1.448   0.351
 7236TIP3    H221673   3.653   1.597   0.376
 7237TIP3   OH221674   0.421   5.251   0.622
 7237TIP3    H121675   0.477   5.174   0.626
 7237TIP3    H221676   0.458   5.312   0.686
 7238TIP3   OH221677   2.108   4.163   3.152
 7238TIP3    H121678   2.097   4.147   3.246
 7238TIP3    H221679   2.203   4.157   3.138
 7239TIP3   OH221680   2.609   1.731   5.507
 7239TIP3    H121681   2.631   1.791   5.437
 7239TIP3    H221682   2.694   1.698   5.538
 7240TIP3   OH221683   2.707   4.518   5.338
 7240TIP3    H121684   2.651   4.535   5.414
 7240TIP3    H221685   2.787   4.482   5.376
 7241TIP3   OH221686   6.134   5.909   2.437
 7241TIP3    H121687   6.057   5.916   2.381
 7241TIP3    H221688   6.104   5.856   2.511
 7242TIP3   OH221689   6.473   3.366   5.153
 7242TIP3    H121690   6.480   3.433   5.220
 7242TIP3    H221691   6.444   3.413   5.075
 7243TIP3   OH221692   0.179   5.216   5.741
 7243TIP3    H121693   0.173   5.139   5.685
 7243TIP3    H221694   0.089   5.249   5.746
 7244TIP3   OH221695   2.197   3.518   3.456
 7244TIP3    H121696   2.120   3.466   3.477
 7244TIP3    H221697   2.240   3.469   3.385
 7245TIP3   OH221698   0.393   1.747   3.931
 7245TIP3    H121699   0.405   1.842   3.941
 7245TIP3    H221700   0.478   1.709   3.953
 7246TIP3   OH221701   5.935   1.275   0.998
 7246TIP3    H121702   5.940   1.360   1.042
 7246TIP3    H221703   5.911   1.296   0.908
 7247TIP3   OH221704   2.271   1.229   1.272
 7247TIP3    H121705   2.206   1.275   1.219
 7247TIP3    H221706   2.290   1.290   1.344
 7248TIP3   OH221707   3.570   5.591   3.750
 7248TIP3    H121708   3.549   5.549   3.666
 7248TIP3    H221709   3.489   5.634   3.776
 7249TIP3   OH221710   6.969   4.890   5.793
 7249TIP3    H121711   6.980   4.950   5.867
 7249TIP3    H221712   7.049   4.901   5.742
 7250TIP3   OH221713   5.239   3.909   1.595
 7250TIP3    H121714   5.282   3.922   1.679
 7250TIP3    H221715   5.218   3.816   1.593
 7251TIP3   OH221716   5.813   2.271   1.544
 7251TIP3    H121717   5.810   2.366   1.550
 7251TIP3    H221718   5.847   2.242   1.629
 7252TIP3   OH221719   4.743   6.754   1.950
 7252TIP3    H121720   4.710   6.781   2.036
 7252TIP3    H221721   4.819   6.810   1.935
 7253TIP3   OH221722   0.485   6.476   3.487
 7253TIP3    H121723   0.430   6.402   3.460
 7253TIP3    H221724   0.427   6.529   3.542
 7254TIP3   OH221725   1.375   4.902   0.817
 7254TIP3    H121726   1.334   4.819   0.791
 7254TIP3    H221727   1.407   4.940   0.735
 7255TIP3   OH221728   0.234   1.895   0.497
 7255TIP3    H121729   0.248   1.804   0.523
 7255TIP3    H221730   0.282   1.947   0.562
 7256TIP3   OH221731   1.336   0.332   3.912
 7256TIP3    H121732   1.285   0.293   3.842
 7256TIP3    H221733   1.378   0.257   3.956
 7257TIP3   OH221734   7.015   6.380   3.647
 7257TIP3    H121735   6.923   6.390   3.624
 7257TIP3    H221736   7.031   6.448   3.713
 7258TIP3   OH221737   0.038   5.300   1.896
 7258TIP3    H121738  -0.005   5.386   1.899
 7258TIP3    H221739   0.131   5.319   1.902
 7259TIP3   OH221740   1.491   6.736   5.138
 7259TIP3    H121741   1.395   6.740   5.141
 7259TIP3    H221742   1.511   6.643   5.153
 7260TIP3   OH221743   4.296   2.227   4.527
 7260TIP3    H121744   4.248   2.274   4.595
 7260TIP3    H221745   4.378   2.274   4.518
 7261TIP3   OH221746   3.416   5.506   4.102
 7261TIP3    H121747   3.426   5.471   4.190
 7261TIP3    H221748   3.409   5.428   4.046
 7262TIP3   OH221749   6.116   3.038   1.017
 7262TIP3    H121750   6.129   3.115   0.962
 7262TIP3    H221751   6.111   2.965   0.956
 7263TIP3   OH221752   6.142   4.097   5.584
 7263TIP3    H121753   6.226   4.144   5.581
 7263TIP3    H221754   6.081   4.158   5.624
 7264TIP3   OH221755   6.050   0.624   5.727
 7264TIP3    H121756   6.098   0.570   5.664
 7264TIP3    H221757   6.013   0.561   5.789
 7265TIP3   OH221758   1.077   4.137   5.288
 7265TIP3    H121759   1.004   4.160   5.232
 7265TIP3    H221760   1.118   4.221   5.310
 7266TIP3   OH221761   4.754   0.910   0.409
 7266TIP3    H121762   4.696   0.838   0.383
 7266TIP3    H221763   4.770   0.958   0.328
 7267TIP3   OH221764   6.285   1.062   5.763
 7267TIP3    H121765   6.277   0.976   5.805
 7267TIP3    H221766   6.263   1.046   5.671
 7268TIP3   OH221767   1.885   0.307   2.197
 7268TIP3    H121768   1.801   0.266   2.216
 7268TIP3    H221769   1.862   0.386   2.147
 7269TIP3   OH221770   6.666   2.052   5.250
 7269TIP3    H121771   6.603   1.989   5.215
 7269TIP3    H221772   6.733   2.059   5.183
 7270TIP3   OH221773   5.371   3.042   4.333
 7270TIP3    H121774   5.334   2.990   4.261
 7270TIP3    H221775   5.294   3.079   4.377
 7271TIP3   OH221776   0.572   5.356   1.910
 7271TIP3    H121777   0.600   5.446   1.926
 7271TIP3    H221778   0.610   5.306   1.983
 7272TIP3   OH221779   4.486   4.498   4.661
 7272TIP3    H121780   4.463   4.554   4.735
 7272TIP3    H221781   4.438   4.416   4.678
 7273TIP3   OH221782   0.702   5.329   0.385
 7273TIP3    H121783   0.691   5.402   0.447
 7273TIP3    H221784   0.786   5.347   0.342
 7274TIP3   OH221785   2.619   3.381   5.756
 7274TIP3    H121786   2.700   3.420   5.791
 7274TIP3    H221787   2.620   3.292   5.791
 7275TIP3   OH221788   2.878   0.761   1.920
 7275TIP3    H121789   2.883   0.695   1.989
 7275TIP3    H221790   2.917   0.839   1.958
 7276TIP3   OH221791   0.148   0.502   5.575
 7276TIP3    H121792   0.194   0.493   5.659
 7276TIP3    H221793   0.082   0.570   5.591
 7277TIP3   OH221794   1.709   6.421   1.870
 7277TIP3    H121795   1.655   6.346   1.848
 7277TIP3    H221796   1.658   6.469   1.935
 7278TIP3   OH221797   2.301   6.296   0.968
 7278TIP3    H121798   2.288   6.388   0.991
 7278TIP3    H221799   2.212   6.262   0.958
 7279TIP3   OH221800   1.169   4.087   0.778
 7279TIP3    H121801   1.194   4.127   0.695
 7279TIP3    H221802   1.144   4.160   0.834
 7280TIP3   OH221803   6.796   0.819   2.785
 7280TIP3    H121804   6.733   0.888   2.804
 7280TIP3    H221805   6.800   0.766   2.865
 7281TIP3   OH221806   4.141   4.949   3.924
 7281TIP3    H121807   4.213   4.945   3.987
 7281TIP3    H221808   4.180   4.987   3.845
 7282TIP3   OH221809   4.406   1.186   1.307
 7282TIP3    H121810   4.319   1.168   1.273
 7282TIP3    H221811   4.399   1.175   1.401
 7283TIP3   OH221812   3.358   4.449   0.685
 7283TIP3    H121813   3.272   4.411   0.705
 7283TIP3    H221814   3.401   4.456   0.770
 7284TIP3   OH221815   1.192   3.099   0.375
 7284TIP3    H121816   1.096   3.103   0.374
 7284TIP3    H221817   1.212   3.029   0.438
 7285TIP3   OH221818   4.419   4.085   5.634
 7285TIP3    H121819   4.451   4.023   5.700
 7285TIP3    H221820   4.377   4.030   5.568
 7286TIP3   OH221821   3.487   3.171   1.824
 7286TIP3    H121822   3.423   3.101   1.839
 7286TIP3    H221823   3.563   3.145   1.875
 7287TIP3   OH221824   0.377   4.342   0.410
 7287TIP3    H121825   0.295   4.310   0.448
 7287TIP3    H221826   0.412   4.402   0.476
 7288TIP3   OH221827   3.508   4.261   3.180
 7288TIP3    H121828   3.522   4.208   3.258
 7288TIP3    H221829   3.413   4.266   3.171
 7289TIP3   OH221830   5.086   2.728   4.020
 7289TIP3    H121831   5.052   2.639   4.010
 7289TIP3    H221832   5.082   2.765   3.932
 7290TIP3   OH221833   5.293   0.316   5.794
 7290TIP3    H121834   5.345   0.240   5.820
 7290TIP3    H221835   5.317   0.331   5.703
 7291TIP3   OH221836   2.954   6.324   1.422
 7291TIP3    H121837   2.904   6.246   1.397
 7291TIP3    H221838   3.045   6.301   1.402
 7292TIP3   OH221839   4.557   1.798   2.963
 7292TIP3    H121840   4.577   1.714   2.922
 7292TIP3    H221841   4.469   1.787   2.999
 7293TIP3   OH221842   4.099   2.174   2.804
 7293TIP3    H121843   4.041   2.205   2.874
 7293TIP3    H221844   4.061   2.091   2.776
 7294TIP3   OH221845   5.716   0.923   0.371
 7294TIP3    H121846   5.802   0.931   0.412
 7294TIP3    H221847   5.721   0.842   0.320
 7295TIP3   OH221848   4.081   4.134   1.709
 7295TIP3    H121849   4.103   4.079   1.634
 7295TIP3    H221850   4.115   4.086   1.785
 7296TIP3   OH221851   1.736   5.188   0.426
 7296TIP3    H121852   1.670   5.155   0.365
 7296TIP3    H221853   1.820   5.167   0.385
 7297TIP3   OH221854   0.336   5.240   3.407
 7297TIP3    H121855   0.289   5.313   3.366
 7297TIP3    H221856   0.310   5.244   3.499
 7298TIP3   OH221857   7.161   0.109   0.380
 7298TIP3    H121858   7.068   0.096   0.361
 7298TIP3    H221859   7.202   0.025   0.359
 7299TIP3   OH221860   7.025   5.774   3.498
 7299TIP3    H121861   7.067   5.860   3.499
 7299TIP3    H221862   6.937   5.791   3.463
 7300TIP3   OH221863   1.513   2.236   2.413
 7300TIP3    H121864   1.501   2.330   2.395
 7300TIP3    H221865   1.444   2.194   2.362
 7301TIP3   OH221866   5.975   4.589   4.663
 7301TIP3    H121867   5.936   4.518   4.714
 7301TIP3    H221868   6.037   4.546   4.605
 7302TIP3   OH221869   0.259   4.893   2.745
 7302TIP3    H121870   0.265   4.978   2.789
 7302TIP3    H221871   0.263   4.913   2.652
 7303TIP3   OH221872   6.243   4.879   0.535
 7303TIP3    H121873   6.164   4.862   0.586
 7303TIP3    H221874   6.212   4.926   0.458
 7304TIP3   OH221875   0.013   1.582   5.783
 7304TIP3    H121876   0.005   1.664   5.833
 7304TIP3    H221877   0.000   1.513   5.849
 7305TIP3   OH221878   1.697   4.643   1.387
 7305TIP3    H121879   1.765   4.652   1.320
 7305TIP3    H221880   1.664   4.733   1.399
 7306TIP3   OH221881   2.667   0.284   0.641
 7306TIP3    H121882   2.605   0.344   0.600
 7306TIP3    H221883   2.621   0.199   0.642
 7307TIP3   OH221884   1.994   6.698   0.622
 7307TIP3    H121885   1.991   6.661   0.533
 7307TIP3    H221886   2.014   6.791   0.608
 7308TIP3   OH221887   5.118   6.648   1.709
 7308TIP3    H121888   5.092   6.604   1.627
 7308TIP3    H221889   5.135   6.576   1.770
 7309TIP3   OH221890   3.959   4.231   4.785
 7309TIP3    H121891   3.967   4.195   4.873
 7309TIP3    H221892   4.027   4.298   4.779
 7310TIP3   OH221893   2.653   6.081   2.938
 7310TIP3    H121894   2.707   6.034   3.001
 7310TIP3    H221895   2.607   6.011   2.890
 7311TIP3   OH221896   1.278   1.450   0.140
 7311TIP3    H121897   1.283   1.364   0.099
 7311TIP3    H221898   1.332   1.506   0.085
 7312TIP3   OH221899   2.793   0.678   2.175
 7312TIP3    H121900   2.812   0.588   2.199
 7312TIP3    H221901   2.762   0.719   2.256
 7313TIP3   OH221902   6.834   3.909   2.963
 7313TIP3    H121903   6.744   3.922   2.995
 7313TIP3    H221904   6.876   3.993   2.978
 7314TIP3   OH221905   5.302   6.244   5.544
 7314TIP3    H121906   5.216   6.281   5.525
 7314TIP3    H221907   5.364   6.301   5.500
 7315TIP3   OH221908   0.257   3.246   2.533
 7315TIP3    H121909   0.315   3.170   2.529
 7315TIP3    H221910   0.310   3.314   2.573
 7316TIP3   OH221911   7.161   5.556   1.950
 7316TIP3    H121912   7.180   5.613   2.025
 7316TIP3    H221913   7.106   5.610   1.893
 7317TIP3   OH221914   4.309   4.336   5.629
 7317TIP3    H121915   4.354   4.255   5.604
 7317TIP3    H221916   4.217   4.310   5.639
 7318TIP3   OH221917   6.771   3.505   0.354
 7318TIP3    H121918   6.728   3.485   0.437
 7318TIP3    H221919   6.833   3.575   0.375
 7319TIP3   OH221920   3.429   0.557   5.743
 7319TIP3    H121921   3.342   0.555   5.783
 7319TIP3    H221922   3.472   0.478   5.775
 7320TIP3   OH221923   0.605   0.281   1.970
 7320TIP3    H121924   0.624   0.221   1.898
 7320TIP3    H221925   0.641   0.365   1.942
 7321TIP3   OH221926   4.909   4.132   5.148
 7321TIP3    H121927   4.866   4.091   5.222
 7321TIP3    H221928   4.949   4.059   5.100
 7322TIP3   OH221929   0.534   5.901   4.562
 7322TIP3    H121930   0.460   5.851   4.598
 7322TIP3    H221931   0.600   5.899   4.631
 7323TIP3   OH221932   6.546   0.768   1.789
 7323TIP3    H121933   6.585   0.720   1.716
 7323TIP3    H221934   6.610   0.761   1.860
 7324TIP3   OH221935   6.032   6.777   5.421
 7324TIP3    H121936   6.116   6.735   5.444
 7324TIP3    H221937   5.973   6.753   5.492
 7325TIP3   OH221938   5.720   6.501   4.674
 7325TIP3    H121939   5.634   6.458   4.669
 7325TIP3    H221940   5.783   6.429   4.664
 7326TIP3   OH221941   2.862   3.077   4.291
 7326TIP3    H121942   2.780   3.054   4.335
 7326TIP3    H221943   2.836   3.099   4.201
 7327TIP3   OH221944   5.333   4.236   4.555
 7327TIP3    H121945   5.306   4.152   4.518
 7327TIP3    H221946   5.283   4.244   4.636
 7328TIP3   OH221947   6.138   3.581   1.091
 7328TIP3    H121948   6.194   3.654   1.061
 7328TIP3    H221949   6.195   3.504   1.085
 7329TIP3   OH221950   0.649   1.229   1.248
 7329TIP3    H121951   0.732   1.196   1.284
 7329TIP3    H221952   0.582   1.182   1.297
 7330TIP3   OH221953   3.355   6.682   1.576
 7330TIP3    H121954   3.383   6.651   1.662
 7330TIP3    H221955   3.352   6.778   1.586
 7331TIP3   OH221956   6.687   1.517   4.960
 7331TIP3    H121957   6.594   1.502   4.945
 7331TIP3    H221958   6.705   1.474   5.043
 7332TIP3   OH221959   5.966   2.250   5.519
 7332TIP3    H121960   5.961   2.184   5.450
 7332TIP3    H221961   5.877   2.284   5.528
 7333TIP3   OH221962   5.022   5.991   5.088
 7333TIP3    H121963   4.984   6.078   5.072
 7333TIP3    H221964   4.949   5.938   5.119
 7334TIP3   OH221965   4.105   2.487   1.467
 7334TIP3    H121966   4.093   2.441   1.550
 7334TIP3    H221967   4.049   2.564   1.473
 7335TIP3   OH221968   7.058   5.314   4.764
 7335TIP3    H121969   7.115   5.259   4.709
 7335TIP3    H221970   7.053   5.267   4.847
 7336TIP3   OH221971   2.530   5.226   1.624
 7336TIP3    H121972   2.573   5.304   1.586
 7336TIP3    H221973   2.445   5.222   1.581
 7337TIP3   OH221974   0.661   1.752   3.361
 7337TIP3    H121975   0.704   1.668   3.343
 7337TIP3    H221976   0.629   1.743   3.451
 7338TIP3   OH221977   6.519   5.962   3.883
 7338TIP3    H121978   6.511   5.881   3.933
 7338TIP3    H221979   6.585   6.014   3.931
 7339TIP3   OH221980   6.099   3.845   5.740
 7339TIP3    H121981   6.031   3.872   5.803
 7339TIP3    H221982   6.108   3.920   5.681
 7340TIP3   OH221983   2.686   0.567   4.929
 7340TIP3    H121984   2.756   0.506   4.905
 7340TIP3    H221985   2.730   0.639   4.972
 7341TIP3   OH221986   6.879   5.353   2.622
 7341TIP3    H121987   6.867   5.391   2.709
 7341TIP3    H221988   6.902   5.428   2.566
 7342TIP3   OH221989   6.787   3.869   2.682
 7342TIP3    H121990   6.832   3.867   2.767
 7342TIP3    H221991   6.792   3.779   2.650
 7343TIP3   OH221992   2.112   0.313   1.021
 7343TIP3    H121993   2.180   0.269   0.970
 7343TIP3    H221994   2.043   0.247   1.030
 7344TIP3   OH221995   5.669   6.124   2.397
 7344TIP3    H121996   5.745   6.134   2.340
 7344TIP3    H221997   5.677   6.035   2.432
 7345TIP3   OH221998   5.088   5.165   0.444
 7345TIP3    H121999   5.176   5.153   0.408
 7345TIP3    H222000   5.099   5.231   0.513
 7346TIP3   OH222001   4.585   4.040   4.913
 7346TIP3    H122002   4.636   4.084   4.846
 7346TIP3    H222003   4.563   3.955   4.875
 7347TIP3   OH222004   5.826   0.989   5.107
 7347TIP3    H122005   5.814   0.958   5.017
 7347TIP3    H222006   5.802   0.914   5.161
 7348TIP3   OH222007   1.433   5.572   2.695
 7348TIP3    H122008   1.362   5.507   2.700
 7348TIP3    H222009   1.416   5.632   2.768
 7349TIP3   OH222010   0.999   1.678   3.379
 7349TIP3    H122011   0.959   1.765   3.381
 7349TIP3    H222012   0.993   1.647   3.469
 7350TIP3   OH222013   2.317   4.520   1.108
 7350TIP3    H122014   2.393   4.492   1.158
 7350TIP3    H222015   2.246   4.463   1.138
 7351TIP3   OH222016   4.328   5.426   1.047
 7351TIP3    H122017   4.284   5.342   1.039
 7351TIP3    H222018   4.273   5.476   1.108
 7352TIP3   OH222019   2.812   4.490   2.953
 7352TIP3    H122020   2.832   4.447   2.869
 7352TIP3    H222021   2.750   4.431   2.996
 7353TIP3   OH222022   3.850   6.604   0.057
 7353TIP3    H122023   3.769   6.600   0.107
 7353TIP3    H222024   3.856   6.695   0.028
 7354TIP3   OH222025   6.436   1.608   3.976
 7354TIP3    H122026   6.512   1.650   3.936
 7354TIP3    H222027   6.370   1.607   3.907
 7355TIP3   OH222028   4.476   4.840   0.422
 7355TIP3    H122029   4.510   4.895   0.351
 7355TIP3    H222030   4.417   4.779   0.378
 7356TIP3   OH222031   1.943   5.255   2.873
 7356TIP3    H122032   2.038   5.254   2.858
 7356TIP3    H222033   1.911   5.176   2.830
 7357TIP3   OH222034   6.321   1.405   4.998
 7357TIP3    H122035   6.351   1.403   4.907
 7357TIP3    H222036   6.314   1.498   5.019
 7358TIP3   OH222037   2.409   2.209   0.144
 7358TIP3    H122038   2.335   2.159   0.108
 7358TIP3    H222039   2.373   2.252   0.221
 7359TIP3   OH222040   0.699   0.105   2.169
 7359TIP3    H122041   0.630   0.154   2.124
 7359TIP3    H222042   0.768   0.169   2.183
 7360TIP3   OH222043   0.341   0.125   1.738
 7360TIP3    H122044   0.360   0.032   1.751
 7360TIP3    H222045   0.410   0.155   1.678
 7361TIP3   OH222046   1.294   3.140   3.057
 7361TIP3    H122047   1.357   3.084   3.104
 7361TIP3    H222048   1.217   3.084   3.048
 7362TIP3   OH222049   4.573   2.824   0.788
 7362TIP3    H122050   4.502   2.878   0.823
 7362TIP3    H222051   4.652   2.875   0.805
 7363TIP3   OH222052   1.465   1.847   0.267
 7363TIP3    H122053   1.484   1.855   0.360
 7363TIP3    H222054   1.406   1.921   0.248
 7364TIP3   OH222055   3.074   3.850   0.762
 7364TIP3    H122056   3.006   3.882   0.702
 7364TIP3    H222057   3.067   3.755   0.758
 7365TIP3   OH222058   2.569   3.604   3.733
 7365TIP3    H122059   2.649   3.599   3.682
 7365TIP3    H222060   2.598   3.633   3.820
 7366TIP3   OH222061   0.962   0.314   0.356
 7366TIP3    H122062   1.048   0.318   0.315
 7366TIP3    H222063   0.901   0.310   0.283
 7367TIP3   OH222064   1.184   3.474   3.340
 7367TIP3    H122065   1.114   3.408   3.337
 7367TIP3    H222066   1.171   3.526   3.260
 7368TIP3   OH222067   4.618   6.330   1.514
 7368TIP3    H122068   4.556   6.257   1.512
 7368TIP3    H222069   4.577   6.395   1.571
 7369TIP3   OH222070   1.851   2.281   1.412
 7369TIP3    H122071   1.889   2.369   1.411
 7369TIP3    H222072   1.840   2.259   1.319
 7370TIP3   OH222073   0.650   2.778   2.857
 7370TIP3    H122074   0.627   2.801   2.766
 7370TIP3    H222075   0.723   2.717   2.848
 7371TIP3   OH222076   1.351   5.186   0.645
 7371TIP3    H122077   1.437   5.145   0.646
 7371TIP3    H222078   1.319   5.177   0.735
 7372TIP3   OH222079   0.587   6.242   4.873
 7372TIP3    H122080   0.666   6.195   4.899
 7372TIP3    H222081   0.515   6.181   4.892
 7373TIP3   OH222082   5.230   5.122   5.305
 7373TIP3    H122083   5.150   5.127   5.252
 7373TIP3    H222084   5.208   5.169   5.385
 7374TIP3   OH222085   3.262   6.245   5.180
 7374TIP3    H122086   3.300   6.221   5.096
 7374TIP3    H222087   3.204   6.319   5.160
 7375TIP3   OH222088   0.884   6.669   4.174
 7375TIP3    H122089   0.887   6.754   4.216
 7375TIP3    H222090   0.958   6.621   4.211
 7376TIP3   OH222091   3.128   6.016   5.275
 7376TIP3    H122092   3.165   6.097   5.240
 7376TIP3    H222093   3.141   6.022   5.369
 7377TIP3   OH222094   6.868   0.107   0.258
 7377TIP3    H122095   6.916   0.188   0.242
 7377TIP3    H222096   6.776   0.132   0.256
 7378TIP3   OH222097   6.371   6.622   1.002
 7378TIP3    H122098   6.431   6.629   0.929
 7378TIP3    H222099   6.427   6.608   1.079
 7379TIP3   OH222100   4.915   6.680   5.617
 7379TIP3    H122101   4.886   6.589   5.610
 7379TIP3    H222102   5.010   6.674   5.624
 7380TIP3   OH222103   0.420   0.091   5.605
 7380TIP3    H122104   0.392  -0.001   5.601
 7380TIP3    H222105   0.431   0.116   5.514
 7381TIP3   OH222106   5.488   1.165   4.218
 7381TIP3    H122107   5.450   1.133   4.136
 7381TIP3    H222108   5.500   1.086   4.271
 7382TIP3   OH222109   4.144   4.461   0.988
 7382TIP3    H122110   4.136   4.368   0.965
 7382TIP3    H222111   4.113   4.467   1.078
 7383TIP3   OH222112   1.790   5.900   4.589
 7383TIP3    H122113   1.833   5.932   4.510
 7383TIP3    H222114   1.832   5.816   4.608
 7384TIP3   OH222115   7.146   5.934   1.931
 7384TIP3    H122116   7.115   5.941   2.021
 7384TIP3    H222117   7.136   5.841   1.909
 7385TIP3   OH222118   5.579   4.455   4.874
 7385TIP3    H122119   5.574   4.510   4.953
 7385TIP3    H222120   5.489   4.449   4.843
 7386TIP3   OH222121   3.514   3.219   4.533
 7386TIP3    H122122   3.443   3.162   4.562
 7386TIP3    H222123   3.593   3.165   4.539
 7387TIP3   OH222124   2.597   2.283   5.628
 7387TIP3    H122125   2.543   2.204   5.622
 7387TIP3    H222126   2.686   2.250   5.638
 7388TIP3   OH222127   5.671   0.508   1.620
 7388TIP3    H122128   5.672   0.487   1.527
 7388TIP3    H222129   5.734   0.447   1.659
 7389TIP3   OH222130   1.349   1.784   5.603
 7389TIP3    H122131   1.393   1.857   5.646
 7389TIP3    H222132   1.279   1.823   5.553
 7390TIP3   OH222133   1.882   3.826   4.429
 7390TIP3    H122134   1.848   3.742   4.397
 7390TIP3    H222135   1.950   3.802   4.492
 7391TIP3   OH222136   2.651   1.098   0.002
 7391TIP3    H122137   2.731   1.050   0.022
 7391TIP3    H222138   2.583   1.031  -0.002
 7392TIP3   OH222139   5.303   4.325   5.677
 7392TIP3    H122140   5.262   4.392   5.622
 7392TIP3    H222141   5.333   4.259   5.616
 7393TIP3   OH222142   3.806   2.522   5.454
 7393TIP3    H122143   3.789   2.613   5.480
 7393TIP3    H222144   3.862   2.531   5.376
 7394TIP3   OH222145   1.397   4.553   1.524
 7394TIP3    H122146   1.480   4.592   1.497
 7394TIP3    H222147   1.343   4.553   1.445
 7395TIP3   OH222148   6.607   2.778   3.286
 7395TIP3    H122149   6.543   2.744   3.223
 7395TIP3    H222150   6.595   2.873   3.282
 7396TIP3   OH222151   1.084   6.214   4.866
 7396TIP3    H122152   1.087   6.133   4.815
 7396TIP3    H222153   1.142   6.274   4.819
 7397TIP3   OH222154   2.248   4.684   4.532
 7397TIP3    H122155   2.226   4.699   4.440
 7397TIP3    H222156   2.211   4.760   4.578
 7398TIP3   OH222157   0.072   3.161   2.303
 7398TIP3    H122158   0.130   3.134   2.374
 7398TIP3    H222159   0.127   3.210   2.242
 7399TIP3   OH222160   6.930   3.741   0.359
 7399TIP3    H122161   6.835   3.756   0.366
 7399TIP3    H222162   6.965   3.827   0.334
 7400TIP3   OH222163   5.647   5.924   2.792
 7400TIP3    H122164   5.680   5.836   2.811
 7400TIP3    H222165   5.644   5.967   2.877
 7401TIP3   OH222166   3.094   5.291   2.494
 7401TIP3    H122167   3.179   5.247   2.499
 7401TIP3    H222168   3.043   5.252   2.565
 7402TIP3   OH222169   6.291   5.125   5.079
 7402TIP3    H122170   6.214   5.126   5.136
 7402TIP3    H222171   6.307   5.217   5.058
 7403TIP3   OH222172   6.205   2.979   4.278
 7403TIP3    H122173   6.223   2.900   4.327
 7403TIP3    H222174   6.209   3.049   4.343
 7404TIP3   OH222175   4.803   5.948   4.430
 7404TIP3    H122176   4.804   6.019   4.493
 7404TIP3    H222177   4.895   5.920   4.424
 7405TIP3   OH222178   1.523   5.897   3.285
 7405TIP3    H122179   1.469   5.836   3.335
 7405TIP3    H222180   1.483   5.983   3.300
 7406TIP3   OH222181   2.350   4.084   0.176
 7406TIP3    H122182   2.335   3.996   0.142
 7406TIP3    H222183   2.437   4.107   0.144
 7407TIP3   OH222184   1.302   6.573   0.212
 7407TIP3    H122185   1.207   6.562   0.215
 7407TIP3    H222186   1.315   6.668   0.215
 7408TIP3   OH222187   0.974   5.127   0.345
 7408TIP3    H122188   1.040   5.194   0.362
 7408TIP3    H222189   0.957   5.087   0.430
 7409TIP3   OH222190   2.867   4.459   4.670
 7409TIP3    H122191   2.859   4.384   4.728
 7409TIP3    H222192   2.845   4.424   4.583
 7410TIP3   OH222193   6.322   2.364   1.029
 7410TIP3    H122194   6.315   2.357   1.124
 7410TIP3    H222195   6.400   2.417   1.015
 7411TIP3   OH222196   1.701   6.768   3.338
 7411TIP3    H122197   1.622   6.811   3.371
 7411TIP3    H222198   1.757   6.761   3.415
 7412TIP3   OH222199   1.770   5.360   1.623
 7412TIP3    H122200   1.829   5.399   1.688
 7412TIP3    H222201   1.827   5.303   1.571
 7413TIP3   OH222202   3.921   5.476   5.002
 7413TIP3    H122203   3.861   5.516   5.064
 7413TIP3    H222204   3.958   5.402   5.049
 7414TIP3   OH222205   1.902   2.110   0.794
 7414TIP3    H122206   1.930   2.197   0.821
 7414TIP3    H222207   1.806   2.112   0.801
 7415TIP3   OH222208   7.039   5.302   5.091
 7415TIP3    H122209   6.968   5.248   5.056
 7415TIP3    H222210   7.089   5.244   5.148
 7416TIP3   OH222211   1.992   4.498   2.391
 7416TIP3    H122212   1.970   4.508   2.298
 7416TIP3    H222213   2.025   4.408   2.398
 7417TIP3   OH222214   0.469   3.851   2.403
 7417TIP3    H122215   0.421   3.866   2.321
 7417TIP3    H222216   0.410   3.797   2.455
 7418TIP3   OH222217   3.782   4.256   0.598
 7418TIP3    H122218   3.699   4.211   0.579
 7418TIP3    H222219   3.840   4.187   0.630
 7419TIP3   OH222220   2.800   6.204   0.769
 7419TIP3    H122221   2.788   6.282   0.823
 7419TIP3    H222222   2.731   6.210   0.703
 7420TIP3   OH222223   2.014   6.092   3.762
 7420TIP3    H122224   2.085   6.081   3.699
 7420TIP3    H222225   1.972   6.174   3.737
 7421TIP3   OH222226   5.184   3.077   2.386
 7421TIP3    H122227   5.271   3.038   2.387
 7421TIP3    H222228   5.158   3.082   2.478
 7422TIP3   OH222229   5.553   4.135   5.146
 7422TIP3    H122230   5.461   4.159   5.158
 7422TIP3    H222231   5.556   4.042   5.166
 7423TIP3   OH222232   1.244   1.414   2.176
 7423TIP3    H122233   1.179   1.344   2.179
 7423TIP3    H222234   1.221   1.472   2.249
 7424TIP3   OH222235   0.204   1.206   3.611
 7424TIP3    H122236   0.295   1.215   3.638
 7424TIP3    H222237   0.173   1.128   3.657
 7425TIP3   OH222238   1.969   4.156   2.898
 7425TIP3    H122239   1.949   4.067   2.869
 7425TIP3    H222240   2.013   4.145   2.982
 7426TIP3   OH222241   3.694   1.781   5.111
 7426TIP3    H122242   3.712   1.765   5.018
 7426TIP3    H222243   3.776   1.817   5.145
 7427TIP3   OH222244   3.840   2.868   5.877
 7427TIP3    H122245   3.835   2.776   5.852
 7427TIP3    H222246   3.824   2.917   5.797
 7428TIP3   OH222247   4.602   6.539   2.568
 7428TIP3    H122248   4.636   6.509   2.484
 7428TIP3    H222249   4.658   6.614   2.590
 7429TIP3   OH222250   6.432   0.352   1.737
 7429TIP3    H122251   6.415   0.428   1.681
 7429TIP3    H222252   6.368   0.287   1.709
 7430TIP3   OH222253   3.826   1.959   4.154
 7430TIP3    H122254   3.853   2.034   4.101
 7430TIP3    H222255   3.888   1.889   4.131
 7431TIP3   OH222256   4.530   2.632   4.633
 7431TIP3    H122257   4.615   2.674   4.624
 7431TIP3    H222258   4.470   2.702   4.659
 7432TIP3   OH222259   2.817   1.161   1.956
 7432TIP3    H122260   2.723   1.143   1.967
 7432TIP3    H222261   2.840   1.215   2.031
 7433TIP3   OH222262   3.443   5.014   4.865
 7433TIP3    H122263   3.382   5.026   4.792
 7433TIP3    H222264   3.415   5.079   4.930
 7434TIP3   OH222265   5.672   0.140   2.066
 7434TIP3    H122266   5.593   0.090   2.042
 7434TIP3    H222267   5.741   0.074   2.070
 7435TIP3   OH222268   2.074   0.357   3.114
 7435TIP3    H122269   2.041   0.280   3.068
 7435TIP3    H222270   2.167   0.361   3.090
 7436TIP3   OH222271   6.991   0.737   3.420
 7436TIP3    H122272   7.062   0.754   3.482
 7436TIP3    H222273   7.025   0.769   3.336
 7437TIP3   OH222274   6.586   1.155   3.113
 7437TIP3    H122275   6.493   1.176   3.106
 7437TIP3    H222276   6.588   1.063   3.136
 7438TIP3   OH222277   2.074   4.190   0.132
 7438TIP3    H122278   2.033   4.128   0.192
 7438TIP3    H222279   2.146   4.142   0.092
 7439TIP3   OH222280   6.011   6.425   0.136
 7439TIP3    H122281   5.942   6.386   0.190
 7439TIP3    H222282   6.092   6.385   0.168
 7440TIP3   OH222283   0.451   5.916   4.888
 7440TIP3    H122284   0.517   5.849   4.910
 7440TIP3    H222285   0.413   5.886   4.806
 7441TIP3   OH222286   4.961   3.954   4.498
 7441TIP3    H122287   4.974   3.993   4.585
 7441TIP3    H222288   5.044   3.966   4.454
 7442TIP3   OH222289   2.325   3.884   0.740
 7442TIP3    H122290   2.268   3.829   0.793
 7442TIP3    H222291   2.287   3.881   0.652
 7443TIP3   OH222292   2.843   5.053   1.595
 7443TIP3    H122293   2.878   5.141   1.579
 7443TIP3    H222294   2.807   5.057   1.683
 7444TIP3   OH222295   2.076   4.429   2.996
 7444TIP3    H122296   2.062   4.434   2.902
 7444TIP3    H222297   2.031   4.349   3.024
 7445TIP3   OH222298   0.094   3.028   4.356
 7445TIP3    H122299   0.187   3.031   4.380
 7445TIP3    H222300   0.048   3.056   4.434
 7446TIP3   OH222301   1.043   5.446   5.065
 7446TIP3    H122302   1.074   5.355   5.063
 7446TIP3    H222303   1.057   5.473   5.155
 7447TIP3   OH222304   2.317   0.442   3.815
 7447TIP3    H122305   2.304   0.534   3.838
 7447TIP3    H222306   2.329   0.397   3.899
 7448TIP3   OH222307   0.588   3.498   0.012
 7448TIP3    H122308   0.662   3.480   0.071
 7448TIP3    H222309   0.552   3.412  -0.009
 7449TIP3   OH222310   5.005   2.360   5.529
 7449TIP3    H122311   4.982   2.331   5.617
 7449TIP3    H222312   4.947   2.435   5.513
 7450TIP3   OH222313   3.028   4.489   5.245
 7450TIP3    H122314   3.056   4.579   5.262
 7450TIP3    H222315   3.060   4.469   5.157
 7451TIP3   OH222316   1.837   1.343   0.614
 7451TIP3    H122317   1.915   1.388   0.644
 7451TIP3    H222318   1.766   1.382   0.665
 7452TIP3   OH222319   5.928   3.568   2.534
 7452TIP3    H122320   5.863   3.505   2.504
 7452TIP3    H222321   5.936   3.552   2.628
 7453TIP3   OH222322   3.218   5.272   4.519
 7453TIP3    H122323   3.306   5.309   4.511
 7453TIP3    H222324   3.190   5.257   4.429
 7454TIP3   OH222325   1.202   3.890   5.223
 7454TIP3    H122326   1.134   3.868   5.159
 7454TIP3    H222327   1.165   3.965   5.271
 7455TIP3   OH222328   1.767   5.800   0.230
 7455TIP3    H122329   1.813   5.850   0.298
 7455TIP3    H222330   1.836   5.751   0.185
 7456TIP3   OH222331   2.444   2.005   4.582
 7456TIP3    H122332   2.439   2.046   4.668
 7456TIP3    H222333   2.370   1.945   4.580
 7457TIP3   OH222334   0.249   1.461   1.195
 7457TIP3    H122335   0.312   1.405   1.148
 7457TIP3    H222336   0.197   1.400   1.247
 7458TIP3   OH222337   5.590   5.055   2.577
 7458TIP3    H122338   5.612   5.128   2.519
 7458TIP3    H222339   5.584   4.979   2.519
 7459TIP3   OH222340   5.166   1.351   3.211
 7459TIP3    H122341   5.250   1.394   3.227
 7459TIP3    H222342   5.103   1.423   3.202
 7460TIP3   OH222343   0.107   5.281   1.380
 7460TIP3    H122344   0.052   5.274   1.458
 7460TIP3    H222345   0.133   5.373   1.376
 7461TIP3   OH222346   4.646   2.077   4.804
 7461TIP3    H122347   4.718   2.017   4.784
 7461TIP3    H222348   4.573   2.019   4.829
 7462TIP3   OH222349   5.819   6.062   1.523
 7462TIP3    H122350   5.856   6.150   1.518
 7462TIP3    H222351   5.733   6.070   1.480
 7463TIP3   OH222352   3.289   1.658   5.514
 7463TIP3    H122353   3.316   1.628   5.600
 7463TIP3    H222354   3.273   1.578   5.464
 7464TIP3   OH222355   4.839   5.510   3.363
 7464TIP3    H122356   4.922   5.463   3.356
 7464TIP3    H222357   4.864   5.602   3.365
 7465TIP3   OH222358   4.238   6.125   0.972
 7465TIP3    H122359   4.243   6.192   0.904
 7465TIP3    H222360   4.302   6.059   0.945
 7466TIP3   OH222361   2.883   4.254   1.250
 7466TIP3    H122362   2.814   4.317   1.227
 7466TIP3    H222363   2.926   4.293   1.326
 7467TIP3   OH222364   4.074   0.230   2.281
 7467TIP3    H122365   4.129   0.308   2.282
 7467TIP3    H222366   4.109   0.175   2.352
 7468TIP3   OH222367   3.402   2.304   1.595
 7468TIP3    H122368   3.494   2.329   1.595
 7468TIP3    H222369   3.395   2.234   1.530
 7469TIP3   OH222370   6.377   5.395   3.476
 7469TIP3    H122371   6.349   5.367   3.389
 7469TIP3    H222372   6.327   5.475   3.494
 7470TIP3   OH222373   0.889   3.078   2.264
 7470TIP3    H122374   0.871   2.988   2.291
 7470TIP3    H222375   0.935   3.070   2.181
 7471TIP3   OH222376   6.904   4.102   5.031
 7471TIP3    H122377   6.978   4.163   5.038
 7471TIP3    H222378   6.865   4.121   4.946
 7472TIP3   OH222379   5.848   0.971   2.410
 7472TIP3    H122380   5.903   0.917   2.352
 7472TIP3    H222381   5.789   0.908   2.452
 7473TIP3   OH222382   4.563   1.762   4.259
 7473TIP3    H122383   4.476   1.799   4.272
 7473TIP3    H222384   4.588   1.727   4.345
 7474TIP3   OH222385   6.382   4.099   3.922
 7474TIP3    H122386   6.359   4.009   3.948
 7474TIP3    H222387   6.422   4.137   4.000
 7475TIP3   OH222388   5.280   0.567   2.245
 7475TIP3    H122389   5.281   0.494   2.182
 7475TIP3    H222390   5.356   0.551   2.301
 7476TIP3   OH222391   5.692   1.460   5.312
 7476TIP3    H122392   5.702   1.435   5.403
 7476TIP3    H222393   5.781   1.477   5.281
 7477TIP3   OH222394   3.964   0.536   4.106
 7477TIP3    H122395   4.036   0.582   4.149
 7477TIP3    H222396   3.885   0.572   4.147
 7478TIP3   OH222397   0.876   5.374   5.364
 7478TIP3    H122398   0.812   5.314   5.326
 7478TIP3    H222399   0.899   5.334   5.448
 7479TIP3   OH222400   2.041   5.183   0.321
 7479TIP3    H122401   2.037   5.146   0.232
 7479TIP3    H222402   2.069   5.110   0.376
 7480TIP3   OH222403   1.470   1.290   1.604
 7480TIP3    H122404   1.557   1.326   1.620
 7480TIP3    H222405   1.432   1.280   1.692
 7481TIP3   OH222406   3.295   1.048   4.028
 7481TIP3    H122407   3.216   1.034   3.976
 7481TIP3    H222408   3.265   1.102   4.102
 7482TIP3   OH222409   2.591   0.797   3.411
 7482TIP3    H122410   2.670   0.840   3.380
 7482TIP3    H222411   2.591   0.813   3.506
 7483TIP3   OH222412   1.021   0.576   0.716
 7483TIP3    H122413   1.094   0.607   0.663
 7483TIP3    H222414   0.958   0.648   0.714
 7484TIP3   OH222415   5.856   0.644   4.471
 7484TIP3    H122416   5.920   0.574   4.453
 7484TIP3    H222417   5.843   0.686   4.386
 7485TIP3   OH222418   5.897   2.016   0.784
 7485TIP3    H122419   5.917   1.997   0.693
 7485TIP3    H222420   5.971   1.981   0.834
 7486TIP3   OH222421   5.682   0.846   5.349
 7486TIP3    H122422   5.641   0.906   5.411
 7486TIP3    H222423   5.662   0.759   5.383
 7487TIP3   OH222424   3.761   1.013   0.312
 7487TIP3    H122425   3.700   0.954   0.356
 7487TIP3    H222426   3.717   1.099   0.315
 7488TIP3   OH222427   0.183   0.985   0.762
 7488TIP3    H122428   0.108   0.939   0.725
 7488TIP3    H222429   0.146   1.039   0.832
 7489TIP3   OH222430   2.354   3.380   3.740
 7489TIP3    H122431   2.336   3.341   3.655
 7489TIP3    H222432   2.450   3.385   3.745
 7490TIP3   OH222433   4.220   4.594   1.466
 7490TIP3    H122434   4.142   4.586   1.411
 7490TIP3    H222435   4.231   4.508   1.505
 7491TIP3   OH222436   5.875   1.294   0.736
 7491TIP3    H122437   5.931   1.261   0.666
 7491TIP3    H222438   5.789   1.303   0.696
 7492TIP3   OH222439   7.058   5.174   4.093
 7492TIP3    H122440   7.117   5.171   4.018
 7492TIP3    H222441   7.012   5.090   4.090
 7493TIP3   OH222442   2.367   3.751   1.234
 7493TIP3    H122443   2.450   3.799   1.226
 7493TIP3    H222444   2.372   3.709   1.321
 7494TIP3   OH222445   3.026   3.315   4.715
 7494TIP3    H122446   3.002   3.262   4.639
 7494TIP3    H222447   2.943   3.352   4.745
 7495TIP3   OH222448   5.870   4.484   5.072
 7495TIP3    H122449   5.780   4.459   5.096
 7495TIP3    H222450   5.883   4.444   4.986
 7496TIP3   OH222451   4.847   5.662   3.992
 7496TIP3    H122452   4.845   5.637   3.900
 7496TIP3    H222453   4.840   5.758   3.991
 7497TIP3   OH222454   4.418   0.555   3.389
 7497TIP3    H122455   4.386   0.485   3.447
 7497TIP3    H222456   4.510   0.566   3.414
 7498TIP3   OH222457   4.370   0.060   4.379
 7498TIP3    H122458   4.431   0.099   4.442
 7498TIP3    H222459   4.351  -0.026   4.414
 7499TIP3   OH222460   1.592   3.877   3.094
 7499TIP3    H122461   1.568   3.865   3.002
 7499TIP3    H222462   1.579   3.971   3.109
 7500TIP3   OH222463   5.438   5.643   2.847
 7500TIP3    H122464   5.436   5.639   2.943
 7500TIP3    H222465   5.519   5.689   2.827
 7501TIP3   OH222466   1.750   6.119   0.954
 7501TIP3    H122467   1.734   6.032   0.990
 7501TIP3    H222468   1.843   6.118   0.929
 7502TIP3   OH222469   6.139   0.318   3.307
 7502TIP3    H122470   6.066   0.262   3.279
 7502TIP3    H222471   6.170   0.278   3.389
 7503TIP3   OH222472   6.011   3.780   3.059
 7503TIP3    H122473   6.000   3.818   2.972
 7503TIP3    H222474   5.926   3.741   3.079
 7504TIP3   OH222475   2.801   1.896   3.634
 7504TIP3    H122476   2.794   1.804   3.661
 7504TIP3    H222477   2.882   1.927   3.675
 7505TIP3   OH222478   5.377   5.264   3.939
 7505TIP3    H122479   5.356   5.200   3.871
 7505TIP3    H222480   5.306   5.329   3.933
 7506TIP3   OH222481   0.411   4.671   2.676
 7506TIP3    H122482   0.370   4.728   2.741
 7506TIP3    H222483   0.395   4.716   2.592
 7507TIP3   OH222484   5.215   6.317   4.487
 7507TIP3    H122485   5.180   6.236   4.451
 7507TIP3    H222486   5.158   6.386   4.452
 7508TIP3   OH222487   1.519   0.234   0.609
 7508TIP3    H122488   1.527   0.171   0.681
 7508TIP3    H222489   1.430   0.224   0.578
 7509TIP3   OH222490   4.585   2.709   2.305
 7509TIP3    H122491   4.562   2.800   2.320
 7509TIP3    H222492   4.680   2.706   2.315
 7510TIP3   OH222493   3.504   1.294   5.204
 7510TIP3    H122494   3.596   1.312   5.224
 7510TIP3    H222495   3.462   1.379   5.204
 7511TIP3   OH222496   1.359   6.042   5.085
 7511TIP3    H122497   1.412   6.112   5.049
 7511TIP3    H222498   1.350   5.979   5.013
 7512TIP3   OH222499   3.479   2.076   1.083
 7512TIP3    H122500   3.426   2.095   1.005
 7512TIP3    H222501   3.538   2.151   1.091
 7513TIP3   OH222502   5.934   2.461   2.588
 7513TIP3    H122503   5.860   2.421   2.543
 7513TIP3    H222504   5.896   2.500   2.667
 7514TIP3   OH222505   6.342   5.932   4.994
 7514TIP3    H122506   6.419   5.986   4.980
 7514TIP3    H222507   6.319   5.900   4.907
 7515TIP3   OH222508   5.804   6.255   3.585
 7515TIP3    H122509   5.895   6.280   3.574
 7515TIP3    H222510   5.798   6.223   3.675
 7516TIP3   OH222511   2.767   5.628   2.298
 7516TIP3    H122512   2.701   5.561   2.281
 7516TIP3    H222513   2.834   5.582   2.349
 7517TIP3   OH222514   7.205   5.062   2.852
 7517TIP3    H122515   7.188   4.980   2.898
 7517TIP3    H222516   7.131   5.072   2.792
 7518TIP3   OH222517   5.609   1.709   5.030
 7518TIP3    H122518   5.535   1.667   4.986
 7518TIP3    H222519   5.681   1.647   5.020
 7519TIP3   OH222520   5.389   3.553   3.254
 7519TIP3    H122521   5.311   3.498   3.258
 7519TIP3    H222522   5.392   3.584   3.164
 7520TIP3   OH222523   3.563  -0.029   4.831
 7520TIP3    H122524   3.611   0.019   4.764
 7520TIP3    H222525   3.589   0.011   4.913
 7521TIP3   OH222526   5.080   1.855   5.685
 7521TIP3    H122527   5.104   1.771   5.724
 7521TIP3    H222528   4.993   1.873   5.719
 7522TIP3   OH222529   5.322   5.482   1.249
 7522TIP3    H122530   5.333   5.494   1.155
 7522TIP3    H222531   5.379   5.408   1.271
 7523TIP3   OH222532   2.210   5.639   3.870
 7523TIP3    H122533   2.164   5.713   3.909
 7523TIP3    H222534   2.144   5.571   3.861
 7524TIP3   OH222535   4.853   6.525   4.754
 7524TIP3    H122536   4.840   6.619   4.742
 7524TIP3    H222537   4.864   6.490   4.666
 7525TIP3   OH222538   0.464   2.845   4.449
 7525TIP3    H122539   0.558   2.831   4.461
 7525TIP3    H222540   0.423   2.782   4.509
 7526TIP3   OH222541   1.295   0.234   1.357
 7526TIP3    H122542   1.325   0.288   1.283
 7526TIP3    H222543   1.375   0.195   1.392
 7527TIP3   OH222544   0.177   1.255   5.796
 7527TIP3    H122545   0.114   1.269   5.867
 7527TIP3    H222546   0.127   1.212   5.727
 7528TIP3   OH222547   2.896   5.939   5.169
 7528TIP3    H122548   2.929   5.856   5.134
 7528TIP3    H222549   2.975   5.992   5.183
 7529TIP3   OH222550   6.271   4.872   5.283
 7529TIP3    H122551   6.194   4.912   5.242
 7529TIP3    H222552   6.343   4.889   5.222
 7530TIP3   OH222553   2.365   3.171   2.712
 7530TIP3    H122554   2.295   3.184   2.648
 7530TIP3    H222555   2.402   3.259   2.725
 7531TIP3   OH222556   0.149   1.697   4.616
 7531TIP3    H122557   0.177   1.788   4.621
 7531TIP3    H222558   0.054   1.700   4.629
 7532TIP3   OH222559   3.762   3.600   4.714
 7532TIP3    H122560   3.708   3.627   4.639
 7532TIP3    H222561   3.852   3.617   4.687
 7533TIP3   OH222562   4.234   0.066   2.417
 7533TIP3    H122563   4.206   0.035   2.503
 7533TIP3    H222564   4.317   0.111   2.432
 7534TIP3   OH222565   3.404   3.556   1.370
 7534TIP3    H122566   3.334   3.549   1.435
 7534TIP3    H222567   3.430   3.466   1.352
 7535TIP3   OH222568   1.315   3.502   5.325
 7535TIP3    H122569   1.358   3.419   5.305
 7535TIP3    H222570   1.377   3.569   5.296
 7536TIP3   OH222571   4.868   1.144   1.982
 7536TIP3    H122572   4.820   1.061   1.981
 7536TIP3    H222573   4.939   1.131   1.919
 7537TIP3   OH222574   1.572   3.656   1.792
 7537TIP3    H122575   1.505   3.648   1.859
 7537TIP3    H222576   1.557   3.742   1.754
 7538TIP3   OH222577   1.865   6.004   1.798
 7538TIP3    H122578   1.881   5.936   1.863
 7538TIP3    H222579   1.927   6.073   1.819
 7539TIP3   OH222580   3.399   3.409   4.390
 7539TIP3    H122581   3.461   3.365   4.449
 7539TIP3    H222582   3.396   3.500   4.422
 7540TIP3   OH222583   5.554   5.572   3.418
 7540TIP3    H122584   5.601   5.490   3.435
 7540TIP3    H222585   5.481   5.547   3.362
 7541TIP3   OH222586   0.213   6.046   2.117
 7541TIP3    H122587   0.274   6.118   2.135
 7541TIP3    H222588   0.217   5.991   2.195
 7542TIP3   OH222589   3.041   0.991   1.957
 7542TIP3    H122590   3.042   1.057   2.026
 7542TIP3    H222591   2.972   1.021   1.897
 7543TIP3   OH222592   6.042   5.261   4.823
 7543TIP3    H122593   6.018   5.281   4.913
 7543TIP3    H222594   6.074   5.171   4.826
 7544TIP3   OH222595   6.730   3.805   4.513
 7544TIP3    H122596   6.706   3.831   4.602
 7544TIP3    H222597   6.652   3.824   4.460
 7545TIP3   OH222598   0.930   2.829   0.306
 7545TIP3    H122599   0.855   2.787   0.262
 7545TIP3    H222600   0.892   2.868   0.384
 7546TIP3   OH222601   4.199   1.571   1.298
 7546TIP3    H122602   4.285   1.532   1.308
 7546TIP3    H222603   4.214   1.665   1.305
 7547TIP3   OH222604   0.416   4.643   3.200
 7547TIP3    H122605   0.410   4.555   3.238
 7547TIP3    H222606   0.438   4.700   3.273
 7548TIP3   OH222607   2.214   1.670   2.061
 7548TIP3    H122608   2.252   1.668   2.149
 7548TIP3    H222609   2.133   1.719   2.071
 7549TIP3   OH222610   0.151   2.766   1.928
 7549TIP3    H122611   0.196   2.829   1.983
 7549TIP3    H222612   0.078   2.814   1.890
 7550TIP3   OH222613   1.455   3.998   0.464
 7550TIP3    H122614   1.360   3.981   0.460
 7550TIP3    H222615   1.482   3.997   0.372
 7551TIP3   OH222616   1.859   5.022   2.726
 7551TIP3    H122617   1.781   5.049   2.679
 7551TIP3    H222618   1.837   4.937   2.764
 7552TIP3   OH222619   0.108   6.255   5.333
 7552TIP3    H122620   0.183   6.246   5.274
 7552TIP3    H222621   0.040   6.198   5.296
 7553TIP3   OH222622   0.566   3.026   2.252
 7553TIP3    H122623   0.634   2.967   2.284
 7553TIP3    H222624   0.604   3.069   2.175
 7554TIP3   OH222625   2.776   4.551   3.386
 7554TIP3    H122626   2.714   4.608   3.341
 7554TIP3    H222627   2.824   4.507   3.316
 7555TIP3   OH222628   5.610   2.054   4.131
 7555TIP3    H122629   5.548   2.064   4.203
 7555TIP3    H222630   5.578   2.112   4.062
 7556TIP3   OH222631   6.084   0.573   4.331
 7556TIP3    H122632   6.109   0.509   4.264
 7556TIP3    H222633   6.083   0.657   4.284
 7557TIP3   OH222634   1.858   5.780   4.007
 7557TIP3    H122635   1.786   5.774   4.070
 7557TIP3    H222636   1.817   5.766   3.922
 7558TIP3   OH222637   4.268   3.736   5.826
 7558TIP3    H122638   4.249   3.660   5.771
 7558TIP3    H222639   4.217   3.722   5.905
 7559TIP3   OH222640   6.002   2.784   1.148
 7559TIP3    H122641   6.071   2.851   1.156
 7559TIP3    H222642   6.049   2.701   1.153
 7560TIP3   OH222643   5.953   0.941   0.509
 7560TIP3    H122644   5.996   0.856   0.513
 7560TIP3    H222645   6.017   1.002   0.547
 7561TIP3   OH222646   4.521   0.636   2.641
 7561TIP3    H122647   4.592   0.653   2.703
 7561TIP3    H222648   4.466   0.570   2.684
 7562TIP3   OH222649   2.148   4.191   0.941
 7562TIP3    H122650   2.112   4.192   0.852
 7562TIP3    H222651   2.228   4.138   0.933
 7563TIP3   OH222652   1.171   2.524   0.235
 7563TIP3    H122653   1.089   2.529   0.186
 7563TIP3    H222654   1.224   2.595   0.199
 7564TIP3   OH222655   3.168   1.442   1.732
 7564TIP3    H122656   3.197   1.387   1.805
 7564TIP3    H222657   3.242   1.440   1.671
 7565TIP3   OH222658   6.265   5.765   5.856
 7565TIP3    H122659   6.253   5.752   5.761
 7565TIP3    H222660   6.187   5.724   5.895
 7566TIP3   OH222661   1.292   4.168   1.246
 7566TIP3    H122662   1.268   4.245   1.193
 7566TIP3    H222663   1.321   4.104   1.181
 7567TIP3   OH222664   0.594   4.175   0.825
 7567TIP3    H122665   0.684   4.163   0.794
 7567TIP3    H222666   0.557   4.086   0.828
 7568TIP3   OH222667   3.748   6.501   3.993
 7568TIP3    H122668   3.680   6.435   4.000
 7568TIP3    H222669   3.740   6.552   4.074
 7569TIP3   OH222670   4.951   4.668   3.245
 7569TIP3    H122671   4.979   4.649   3.334
 7569TIP3    H222672   4.963   4.586   3.198
 7570TIP3   OH222673   4.199   0.257   4.707
 7570TIP3    H122674   4.148   0.268   4.787
 7570TIP3    H222675   4.287   0.236   4.737
 7571TIP3   OH222676   5.330   0.789   1.365
 7571TIP3    H122677   5.360   0.779   1.455
 7571TIP3    H222678   5.306   0.701   1.337
 7572TIP3   OH222679   3.843   2.427   3.050
 7572TIP3    H122680   3.765   2.449   3.101
 7572TIP3    H222681   3.911   2.414   3.116
 7573TIP3   OH222682   7.099   5.010   2.397
 7573TIP3    H122683   7.171   5.069   2.375
 7573TIP3    H222684   7.054   5.052   2.470
 7574TIP3   OH222685   4.379   5.419   5.793
 7574TIP3    H122686   4.396   5.377   5.708
 7574TIP3    H222687   4.348   5.348   5.849
 7575TIP3   OH222688   6.572   0.336   4.395
 7575TIP3    H122689   6.618   0.254   4.377
 7575TIP3    H222690   6.491   0.329   4.344
 7576TIP3   OH222691   5.428   5.126   0.112
 7576TIP3    H122692   5.498   5.067   0.140
 7576TIP3    H222693   5.407   5.098   0.023
 7577TIP3   OH222694   1.895   4.955   0.572
 7577TIP3    H122695   1.902   5.044   0.607
 7577TIP3    H222696   1.976   4.941   0.523
 7578TIP3   OH222697   5.546   5.384   5.109
 7578TIP3    H122698   5.611   5.400   5.040
 7578TIP3    H222699   5.532   5.289   5.106
 7579TIP3   OH222700   0.644   3.626   3.434
 7579TIP3    H122701   0.706   3.560   3.466
 7579TIP3    H222702   0.638   3.690   3.505
 7580TIP3   OH222703   3.707   0.046   2.389
 7580TIP3    H122704   3.759   0.006   2.320
 7580TIP3    H222705   3.745   0.133   2.401
 7581TIP3   OH222706   2.025   5.418   3.724
 7581TIP3    H122707   2.034   5.468   3.643
 7581TIP3    H222708   1.943   5.449   3.762
 7582TIP3   OH222709   5.291   4.250   3.052
 7582TIP3    H122710   5.246   4.331   3.029
 7582TIP3    H222711   5.291   4.248   3.147
 7583TIP3   OH222712   2.049   5.170   0.722
 7583TIP3    H122713   2.109   5.145   0.651
 7583TIP3    H222714   2.096   5.237   0.770
 7584TIP3   OH222715   4.475   6.021   2.563
 7584TIP3    H122716   4.485   6.100   2.616
 7584TIP3    H222717   4.426   6.051   2.486
 7585TIP3   OH222718   4.710   4.497   5.734
 7585TIP3    H122719   4.689   4.406   5.715
 7585TIP3    H222720   4.681   4.510   5.824
 7586TIP3   OH222721   0.477   4.005   4.341
 7586TIP3    H122722   0.417   3.931   4.332
 7586TIP3    H222723   0.560   3.973   4.306
 7587TIP3   OH222724   2.160   1.717   1.397
 7587TIP3    H122725   2.229   1.650   1.392
 7587TIP3    H222726   2.116   1.698   1.480
 7588TIP3   OH222727   3.644   0.208   4.111
 7588TIP3    H122728   3.667   0.278   4.050
 7588TIP3    H222729   3.609   0.253   4.188
 7589TIP3   OH222730   3.298   1.650   1.485
 7589TIP3    H122731   3.322   1.557   1.483
 7589TIP3    H222732   3.381   1.697   1.484
 7590TIP3   OH222733   3.032   0.087   2.362
 7590TIP3    H122734   3.008   0.065   2.272
 7590TIP3    H222735   3.079   0.170   2.355
 7591TIP3   OH222736   5.619   3.376   0.060
 7591TIP3    H122737   5.699   3.323   0.061
 7591TIP3    H222738   5.548   3.313   0.071
 7592TIP3   OH222739   5.744   1.856   5.633
 7592TIP3    H122740   5.739   1.896   5.546
 7592TIP3    H222741   5.838   1.845   5.648
 7593TIP3   OH222742   3.772   5.249   0.280
 7593TIP3    H122743   3.775   5.344   0.281
 7593TIP3    H222744   3.847   5.222   0.333
 7594TIP3   OH222745   3.644   1.862   0.482
 7594TIP3    H122746   3.729   1.906   0.477
 7594TIP3    H222747   3.593   1.899   0.409
 7595TIP3   OH222748   2.515   2.301   3.154
 7595TIP3    H122749   2.470   2.385   3.143
 7595TIP3    H222750   2.597   2.323   3.197
 7596TIP3   OH222751   4.900   0.728   0.125
 7596TIP3    H122752   4.843   0.678   0.066
 7596TIP3    H222753   4.947   0.788   0.067
 7597TIP3   OH222754   5.519   5.018   0.614
 7597TIP3    H122755   5.496   5.015   0.707
 7597TIP3    H222756   5.483   5.102   0.583
 7598TIP3   OH222757   0.577   0.142   0.220
 7598TIP3    H122758   0.655   0.126   0.167
 7598TIP3    H222759   0.610   0.155   0.309
 7599TIP3   OH222760   1.045   5.471   1.163
 7599TIP3    H122761   1.070   5.497   1.252
 7599TIP3    H222762   1.003   5.385   1.175
 7600TIP3   OH222763   3.440   6.595   0.966
 7600TIP3    H122764   3.509   6.614   0.902
 7600TIP3    H222765   3.483   6.603   1.051
 7601TIP3   OH222766   6.494   6.369   2.607
 7601TIP3    H122767   6.502   6.277   2.630
 7601TIP3    H222768   6.405   6.377   2.572
 7602TIP3   OH222769   2.229   0.863   2.821
 7602TIP3    H122770   2.218   0.769   2.835
 7602TIP3    H222771   2.303   0.887   2.878
 7603TIP3   OH222772   1.245   6.216   4.269
 7603TIP3    H122773   1.260   6.287   4.331
 7603TIP3    H222774   1.264   6.253   4.183
 7604TIP3   OH222775   6.614   3.967   5.516
 7604TIP3    H122776   6.539   4.022   5.538
 7604TIP3    H222777   6.688   4.007   5.561
 7605TIP3   OH222778   3.543   0.653   5.500
 7605TIP3    H122779   3.610   0.617   5.442
 7605TIP3    H222780   3.559   0.610   5.584
 7606TIP3   OH222781   3.457   5.296   3.950
 7606TIP3    H122782   3.439   5.204   3.934
 7606TIP3    H222783   3.534   5.316   3.897
 7607TIP3   OH222784   4.113   5.883   0.552
 7607TIP3    H122785   4.072   5.962   0.517
 7607TIP3    H222786   4.203   5.886   0.519
 7608TIP3   OH222787   4.017   5.344   3.415
 7608TIP3    H122788   4.043   5.413   3.355
 7608TIP3    H222789   4.004   5.389   3.499
 7609TIP3   OH222790   4.845   1.231   4.015
 7609TIP3    H122791   4.786   1.157   4.031
 7609TIP3    H222792   4.840   1.245   3.920
 7610TIP3   OH222793   6.957   6.538   1.602
 7610TIP3    H122794   7.032   6.576   1.647
 7610TIP3    H222795   6.948   6.589   1.521
 7611TIP3   OH222796   5.275   5.399   2.060
 7611TIP3    H122797   5.339   5.345   2.105
 7611TIP3    H222798   5.218   5.431   2.129
 7612TIP3   OH222799   5.367   6.227   5.102
 7612TIP3    H122800   5.459   6.237   5.126
 7612TIP3    H222801   5.325   6.308   5.130
 7613TIP3   OH222802   5.758   0.362   5.318
 7613TIP3    H122803   5.741   0.367   5.412
 7613TIP3    H222804   5.831   0.301   5.309
 7614TIP3   OH222805   1.298   5.392   3.037
 7614TIP3    H122806   1.217   5.378   3.086
 7614TIP3    H222807   1.273   5.448   2.964
 7615TIP3   OH222808   4.986   0.534   1.633
 7615TIP3    H122809   4.961   0.611   1.683
 7615TIP3    H222810   4.968   0.558   1.542
 7616TIP3   OH222811   6.343   3.222   5.576
 7616TIP3    H122812   6.308   3.133   5.569
 7616TIP3    H222813   6.298   3.271   5.507
 7617TIP3   OH222814   1.122   0.282   3.147
 7617TIP3    H122815   1.097   0.296   3.056
 7617TIP3    H222816   1.076   0.351   3.195
 7618TIP3   OH222817   4.112   0.495   0.081
 7618TIP3    H122818   4.141   0.444   0.005
 7618TIP3    H222819   4.131   0.586   0.058
 7619TIP3   OH222820   6.395   6.211   0.850
 7619TIP3    H122821   6.473   6.159   0.867
 7619TIP3    H222822   6.411   6.251   0.764
 7620TIP3   OH222823   0.299   5.134   1.212
 7620TIP3    H122824   0.226   5.185   1.247
 7620TIP3    H222825   0.355   5.117   1.288
 7621TIP3   OH222826   6.175   3.255   3.335
 7621TIP3    H122827   6.159   3.184   3.272
 7621TIP3    H222828   6.130   3.331   3.297
 7622TIP3   OH222829   2.632   4.644   1.496
 7622TIP3    H122830   2.609   4.719   1.552
 7622TIP3    H222831   2.704   4.601   1.542
 7623TIP3   OH222832   5.340   2.906   4.607
 7623TIP3    H122833   5.363   2.852   4.532
 7623TIP3    H222834   5.420   2.955   4.627
 7624TIP3   OH222835   2.889   2.350   0.731
 7624TIP3    H122836   2.963   2.370   0.673
 7624TIP3    H222837   2.815   2.339   0.673
 7625TIP3   OH222838   1.936   3.430   5.091
 7625TIP3    H122839   2.019   3.476   5.083
 7625TIP3    H222840   1.870   3.499   5.099
 7626TIP3   OH222841   6.613   0.188   2.989
 7626TIP3    H122842   6.656   0.171   3.072
 7626TIP3    H222843   6.519   0.187   3.010
 7627TIP3   OH222844   5.015   4.494   2.822
 7627TIP3    H122845   5.068   4.487   2.743
 7627TIP3    H222846   4.946   4.429   2.811
 7628TIP3   OH222847   5.511   4.845   5.538
 7628TIP3    H122848   5.498   4.901   5.461
 7628TIP3    H222849   5.509   4.905   5.612
 7629TIP3   OH222850   6.903   5.279   0.746
 7629TIP3    H122851   6.846   5.348   0.781
 7629TIP3    H222852   6.906   5.213   0.815
 7630TIP3   OH222853   1.602   4.862   5.742
 7630TIP3    H122854   1.614   4.908   5.825
 7630TIP3    H222855   1.671   4.795   5.741
 7631TIP3   OH222856   1.561   5.916   5.240
 7631TIP3    H122857   1.492   5.898   5.304
 7631TIP3    H222858   1.516   5.954   5.165
 7632TIP3   OH222859   2.712   2.319   1.790
 7632TIP3    H122860   2.670   2.301   1.706
 7632TIP3    H222861   2.688   2.410   1.810
 7633TIP3   OH222862   5.131   6.292   3.840
 7633TIP3    H122863   5.052   6.339   3.869
 7633TIP3    H222864   5.132   6.303   3.745
 7634TIP3   OH222865   0.314   1.517   4.477
 7634TIP3    H122866   0.322   1.574   4.400
 7634TIP3    H222867   0.237   1.549   4.523
 7635TIP3   OH222868   5.284   1.547   2.474
 7635TIP3    H122869   5.193   1.566   2.452
 7635TIP3    H222870   5.319   1.502   2.397
 7636TIP3   OH222871   7.076   2.930   1.617
 7636TIP3    H122872   7.062   2.935   1.711
 7636TIP3    H222873   7.149   2.989   1.600
 7637TIP3   OH222874   2.812   6.046   1.312
 7637TIP3    H122875   2.742   6.101   1.278
 7637TIP3    H222876   2.814   5.970   1.253
 7638TIP3   OH222877   6.984   6.092   3.616
 7638TIP3    H122878   6.983   6.188   3.619
 7638TIP3    H222879   7.065   6.071   3.568
 7639TIP3   OH222880   1.857   0.162   4.853
 7639TIP3    H122881   1.858   0.251   4.887
 7639TIP3    H222882   1.802   0.167   4.775
 7640TIP3   OH222883   0.941   2.593   0.072
 7640TIP3    H122884   0.847   2.609   0.080
 7640TIP3    H222885   0.951   2.547  -0.011
 7641TIP3   OH222886   6.989   3.527   0.707
 7641TIP3    H122887   7.030   3.612   0.727
 7641TIP3    H222888   7.014   3.509   0.617
 7642TIP3   OH222889   6.854   6.554   0.512
 7642TIP3    H122890   6.814   6.484   0.461
 7642TIP3    H222891   6.923   6.589   0.455
 7643TIP3   OH222892   5.644   3.202   1.187
 7643TIP3    H122893   5.622   3.220   1.096
 7643TIP3    H222894   5.730   3.160   1.183
 7644TIP3   OH222895   6.995   2.707   1.184
 7644TIP3    H122896   7.037   2.740   1.105
 7644TIP3    H222897   6.901   2.711   1.165
 7645TIP3   OH222898   6.118   5.676   5.088
 7645TIP3    H122899   6.087   5.766   5.101
 7645TIP3    H222900   6.040   5.629   5.059
 7646TIP3   OH222901   2.118   2.405   4.245
 7646TIP3    H122902   2.058   2.479   4.238
 7646TIP3    H222903   2.077   2.336   4.193
 7647TIP3   OH222904   4.401   4.204   1.810
 7647TIP3    H122905   4.336   4.141   1.840
 7647TIP3    H222906   4.423   4.175   1.721
 7648TIP3   OH222907   2.350   0.980   1.360
 7648TIP3    H122908   2.281   0.918   1.384
 7648TIP3    H222909   2.306   1.044   1.304
 7649TIP3   OH222910   7.103   1.626   1.750
 7649TIP3    H122911   7.107   1.647   1.843
 7649TIP3    H222912   7.178   1.673   1.711
 7650TIP3   OH222913   0.876   1.936   5.548
 7650TIP3    H122914   0.811   1.965   5.485
 7650TIP3    H222915   0.883   2.007   5.611
 7651TIP3   OH222916   7.152   4.172   3.534
 7651TIP3    H122917   7.088   4.240   3.514
 7651TIP3    H222918   7.126   4.139   3.620
 7652TIP3   OH222919   3.103   1.349   2.747
 7652TIP3    H122920   3.136   1.426   2.702
 7652TIP3    H222921   3.180   1.312   2.790
 7653TIP3   OH222922   4.666   1.382   5.341
 7653TIP3    H122923   4.712   1.342   5.267
 7653TIP3    H222924   4.689   1.326   5.416
 7654TIP3   OH222925   4.418   4.403   5.866
 7654TIP3    H122926   4.394   4.396   5.774
 7654TIP3    H222927   4.341   4.372   5.914
 7655TIP3   OH222928   1.955   0.899   3.116
 7655TIP3    H122929   1.886   0.965   3.117
 7655TIP3    H222930   1.923   0.832   3.056
 7656TIP3   OH222931   1.075   5.914   0.952
 7656TIP3    H122932   1.067   6.008   0.932
 7656TIP3    H222933   1.117   5.912   1.038
 7657TIP3   OH222934   3.603   1.564   4.484
 7657TIP3    H122935   3.605   1.476   4.521
 7657TIP3    H222936   3.695   1.586   4.467
 7658TIP3   OH222937   2.359   4.902   3.415
 7658TIP3    H122938   2.342   4.945   3.331
 7658TIP3    H222939   2.319   4.815   3.407
 7659TIP3   OH222940   4.223   2.777   4.472
 7659TIP3    H122941   4.172   2.732   4.405
 7659TIP3    H222942   4.310   2.787   4.433
 7660TIP3   OH222943   1.351   0.021   0.955
 7660TIP3    H122944   1.422   0.041   0.894
 7660TIP3    H222945   1.378  -0.061   0.997
 7661TIP3   OH222946   6.124   5.314   5.302
 7661TIP3    H122947   6.053   5.319   5.238
 7661TIP3    H222948   6.177   5.392   5.286
 7662TIP3   OH222949   6.995   5.520   5.477
 7662TIP3    H122950   6.944   5.446   5.445
 7662TIP3    H222951   6.947   5.597   5.448
 7663TIP3   OH222952   1.865   1.646   0.930
 7663TIP3    H122953   1.780   1.606   0.945
 7663TIP3    H222954   1.848   1.718   0.869
 7664TIP3   OH222955   3.655   3.813   5.789
 7664TIP3    H122956   3.713   3.819   5.714
 7664TIP3    H222957   3.570   3.841   5.756
 7665TIP3   OH222958   0.404   5.081   5.856
 7665TIP3    H122959   0.442   5.166   5.838
 7665TIP3    H222960   0.346   5.064   5.781
 7666TIP3   OH222961   4.753   3.326   3.930
 7666TIP3    H122962   4.759   3.412   3.972
 7666TIP3    H222963   4.684   3.281   3.978
 7667TIP3   OH222964   4.211   0.299   4.258
 7667TIP3    H122965   4.248   0.216   4.289
 7667TIP3    H222966   4.137   0.273   4.203
 7668TIP3   OH222967   2.693   6.274   2.354
 7668TIP3    H122968   2.709   6.367   2.371
 7668TIP3    H222969   2.678   6.269   2.260
 7669TIP3   OH222970   1.543   2.327   3.343
 7669TIP3    H122971   1.572   2.244   3.305
 7669TIP3    H222972   1.546   2.389   3.270
 7670TIP3   OH222973   0.477   3.705   1.495
 7670TIP3    H122974   0.559   3.666   1.526
 7670TIP3    H222975   0.500   3.741   1.409
 7671TIP3   OH222976   2.244   3.689   2.391
 7671TIP3    H122977   2.219   3.601   2.421
 7671TIP3    H222978   2.284   3.674   2.305
 7672TIP3   OH222979   0.496   4.137   1.952
 7672TIP3    H122980   0.571   4.168   1.900
 7672TIP3    H222981   0.423   4.192   1.924
 7673TIP3   OH222982   5.657   1.676   1.335
 7673TIP3    H122983   5.605   1.741   1.382
 7673TIP3    H222984   5.594   1.633   1.277
 7674TIP3   OH222985   2.644   5.511   5.579
 7674TIP3    H122986   2.550   5.514   5.597
 7674TIP3    H222987   2.652   5.534   5.486
 7675TIP3   OH222988   3.016   3.439   0.840
 7675TIP3    H122989   3.057   3.439   0.926
 7675TIP3    H222990   2.951   3.369   0.844
 7676TIP3   OH222991   4.420   5.158   1.991
 7676TIP3    H122992   4.383   5.167   2.079
 7676TIP3    H222993   4.370   5.086   1.951
 7677TIP3   OH222994   5.822   2.832   5.610
 7677TIP3    H122995   5.740   2.879   5.594
 7677TIP3    H222996   5.887   2.901   5.625
 7678TIP3   OH222997   4.481   1.864   3.495
 7678TIP3    H122998   4.387   1.866   3.474
 7678TIP3    H222999   4.487   1.909   3.579
 7679TIP3   OH223000   7.083   0.256   5.496
 7679TIP3    H123001   7.109   0.327   5.555
 7679TIP3    H223002   7.109   0.176   5.543
 7680TIP3   OH223003   0.458   3.624   4.778
 7680TIP3    H123004   0.529   3.670   4.732
 7680TIP3    H223005   0.416   3.692   4.831
 7681TIP3   OH223006   5.707   3.037   2.737
 7681TIP3    H123007   5.686   3.048   2.830
 7681TIP3    H223008   5.622   3.036   2.693
 7682TIP3   OH223009   2.722   1.935   4.250
 7682TIP3    H123010   2.726   1.903   4.340
 7682TIP3    H223011   2.782   2.010   4.248
 7683TIP3   OH223012   6.571   6.685   1.717
 7683TIP3    H123013   6.533   6.701   1.803
 7683TIP3    H223014   6.548   6.594   1.698
 7684TIP3   OH223015   5.811   3.948   4.493
 7684TIP3    H123016   5.823   3.947   4.588
 7684TIP3    H223017   5.756   4.025   4.477
 7685TIP3   OH223018   0.705   1.627   5.612
 7685TIP3    H123019   0.785   1.665   5.576
 7685TIP3    H223020   0.641   1.634   5.542
 7686TIP3   OH223021   4.988   4.902   3.102
 7686TIP3    H123022   4.991   4.830   3.165
 7686TIP3    H223023   4.961   4.860   3.020
 7687TIP3   OH223024   2.623   4.832   2.088
 7687TIP3    H123025   2.561   4.839   2.016
 7687TIP3    H223026   2.640   4.923   2.114
 7688TIP3   OH223027   1.263   5.894   1.162
 7688TIP3    H123028   1.333   5.936   1.112
 7688TIP3    H223029   1.252   5.950   1.239
 7689TIP3   OH223030   3.286   2.807   1.426
 7689TIP3    H123031   3.211   2.862   1.400
 7689TIP3    H223032   3.296   2.746   1.353
 7690TIP3   OH223033   5.311   1.395   5.333
 7690TIP3    H123034   5.299   1.397   5.428
 7690TIP3    H223035   5.359   1.475   5.312
 7691TIP3   OH223036   3.430   1.356   0.925
 7691TIP3    H123037   3.373   1.407   0.869
 7691TIP3    H223038   3.398   1.373   1.014
 7692TIP3   OH223039   4.741   3.978   3.057
 7692TIP3    H123040   4.800   3.919   3.009
 7692TIP3    H223041   4.658   3.973   3.010
 7693TIP3   OH223042   3.767   5.066   4.220
 7693TIP3    H123043   3.685   5.092   4.177
 7693TIP3    H223044   3.835   5.085   4.155
 7694TIP3   OH223045   2.582   5.789   3.303
 7694TIP3    H123046   2.609   5.776   3.212
 7694TIP3    H223047   2.496   5.749   3.309
 7695TIP3   OH223048   2.324   0.066   2.118
 7695TIP3    H123049   2.286   0.144   2.156
 7695TIP3    H223050   2.273   0.051   2.038
 7696TIP3   OH223051   4.118   6.628   0.275
 7696TIP3    H123052   4.135   6.568   0.202
 7696TIP3    H223053   4.121   6.715   0.235
 7697TIP3   OH223054   7.214   3.284   5.161
 7697TIP3    H123055   7.157   3.361   5.171
 7697TIP3    H223056   7.190   3.227   5.234
 7698TIP3   OH223057   4.116   1.448   2.155
 7698TIP3    H123058   4.151   1.474   2.070
 7698TIP3    H223059   4.189   1.459   2.216
 7699TIP3   OH223060   2.033   3.316   2.249
 7699TIP3    H123061   1.983   3.380   2.299
 7699TIP3    H223062   1.983   3.235   2.257
 7700TIP3   OH223063   6.958   3.421   0.028
 7700TIP3    H123064   6.996   3.411  -0.059
 7700TIP3    H223065   6.983   3.341   0.074
 7701TIP3   OH223066   3.145   4.542   3.335
 7701TIP3    H123067   3.083   4.500   3.275
 7701TIP3    H223068   3.217   4.479   3.341
 7702TIP3   OH223069   6.478   1.281   0.194
 7702TIP3    H123070   6.406   1.221   0.174
 7702TIP3    H223071   6.437   1.368   0.192
 7703TIP3   OH223072   3.643   3.754   3.838
 7703TIP3    H123073   3.588   3.679   3.815
 7703TIP3    H223074   3.586   3.830   3.822
 7704TIP3   OH223075   3.165   5.194   2.950
 7704TIP3    H123076   3.221   5.121   2.974
 7704TIP3    H223077   3.179   5.259   3.019
 7705TIP3   OH223078   1.103   6.589   4.627
 7705TIP3    H123079   1.163   6.515   4.638
 7705TIP3    H223080   1.131   6.652   4.694
 7706TIP3   OH223081   0.966   0.465   3.332
 7706TIP3    H123082   0.881   0.425   3.315
 7706TIP3    H223083   0.948   0.535   3.394
 7707TIP3   OH223084   6.870   5.047   5.580
 7707TIP3    H123085   6.883   4.990   5.655
 7707TIP3    H223086   6.880   5.135   5.615
 7708TIP3   OH223087   2.903   2.437   0.983
 7708TIP3    H123088   2.954   2.517   0.972
 7708TIP3    H223089   2.886   2.408   0.893
 7709TIP3   OH223090   2.263   6.794   5.664
 7709TIP3    H123091   2.340   6.762   5.712
 7709TIP3    H223092   2.292   6.795   5.573
 7710TIP3   OH223093   3.157   2.616   5.885
 7710TIP3    H123094   3.185   2.675   5.815
 7710TIP3    H223095   3.224   2.548   5.887
 7711TIP3   OH223096   6.538   4.409   1.499
 7711TIP3    H123097   6.524   4.369   1.413
 7711TIP3    H223098   6.478   4.484   1.500
 7712TIP3   OH223099   3.493   2.789   2.961
 7712TIP3    H123100   3.466   2.767   3.050
 7712TIP3    H223101   3.492   2.706   2.914
 7713TIP3   OH223102   7.187   3.092   0.417
 7713TIP3    H123103   7.259   3.041   0.381
 7713TIP3    H223104   7.112   3.071   0.362
 7714TIP3   OH223105   3.086   6.417   3.767
 7714TIP3    H123106   3.088   6.365   3.848
 7714TIP3    H223107   3.064   6.505   3.796
 7715TIP3   OH223108   2.035   2.294   5.426
 7715TIP3    H123109   1.979   2.370   5.411
 7715TIP3    H223110   2.002   2.254   5.506
 7716TIP3   OH223111   6.935   2.823   4.304
 7716TIP3    H123112   6.948   2.868   4.221
 7716TIP3    H223113   6.974   2.736   4.291
 7717TIP3   OH223114   4.105   0.915   5.887
 7717TIP3    H123115   4.018   0.948   5.910
 7717TIP3    H223116   4.143   0.982   5.831
 7718TIP3   OH223117   4.972   2.949   1.015
 7718TIP3    H123118   4.902   2.930   0.953
 7718TIP3    H223119   4.996   3.040   0.996
 7719TIP3   OH223120   0.400   3.889   1.672
 7719TIP3    H123121   0.328   3.854   1.724
 7719TIP3    H223122   0.428   3.815   1.617
 7720TIP3   OH223123   0.744   5.812   1.141
 7720TIP3    H123124   0.782   5.764   1.067
 7720TIP3    H223125   0.730   5.745   1.208
 7721TIP3   OH223126   4.481   1.903   0.069
 7721TIP3    H123127   4.444   1.928   0.154
 7721TIP3    H223128   4.406   1.905   0.010
 7722TIP3   OH223129   6.414   4.206   5.565
 7722TIP3    H123130   6.427   4.191   5.471
 7722TIP3    H223131   6.448   4.294   5.580
 7723TIP3   OH223132   5.669   3.605   1.867
 7723TIP3    H123133   5.575   3.593   1.851
 7723TIP3    H223134   5.692   3.682   1.815
 7724TIP3   OH223135   5.440   6.078   2.679
 7724TIP3    H123136   5.499   6.025   2.732
 7724TIP3    H223137   5.457   6.168   2.706
 7725TIP3   OH223138   1.383   3.309   0.745
 7725TIP3    H123139   1.406   3.402   0.743
 7725TIP3    H223140   1.344   3.295   0.832
 7726TIP3   OH223141   6.821   4.484   2.364
 7726TIP3    H123142   6.894   4.465   2.423
 7726TIP3    H223143   6.786   4.568   2.395
 7727TIP3   OH223144   3.014   0.182   4.187
 7727TIP3    H123145   3.108   0.170   4.177
 7727TIP3    H223146   2.989   0.240   4.115
 7728TIP3   OH223147   6.885   6.344   1.354
 7728TIP3    H123148   6.903   6.435   1.375
 7728TIP3    H223149   6.925   6.330   1.268
 7729TIP3   OH223150   3.749   5.452   3.385
 7729TIP3    H123151   3.816   5.397   3.426
 7729TIP3    H223152   3.701   5.392   3.327
 7730TIP3   OH223153   5.429   4.698   1.648
 7730TIP3    H123154   5.435   4.746   1.565
 7730TIP3    H223155   5.361   4.633   1.633
 7731TIP3   OH223156   3.643   3.670   4.487
 7731TIP3    H123157   3.550   3.664   4.464
 7731TIP3    H223158   3.679   3.733   4.424
 7732TIP3   OH223159   7.078   4.725   4.004
 7732TIP3    H123160   7.042   4.636   4.000
 7732TIP3    H223161   7.102   4.745   3.913
 7733TIP3   OH223162   5.757   2.863   1.338
 7733TIP3    H123163   5.797   2.881   1.423
 7733TIP3    H223164   5.667   2.838   1.359
 7734TIP3   OH223165   6.608   6.499   0.789
 7734TIP3    H123166   6.585   6.572   0.731
 7734TIP3    H223167   6.615   6.424   0.730
 7735TIP3   OH223168   0.882   5.625   3.120
 7735TIP3    H123169   0.918   5.684   3.054
 7735TIP3    H223170   0.844   5.553   3.069
 7736TIP3   OH223171   0.288   0.954   5.496
 7736TIP3    H123172   0.267   1.033   5.545
 7736TIP3    H223173   0.380   0.936   5.517
 7737TIP3   OH223174   6.441   5.181   2.844
 7737TIP3    H123175   6.510   5.189   2.779
 7737TIP3    H223176   6.360   5.182   2.793
 7738TIP3   OH223177   1.329   4.902   0.443
 7738TIP3    H123178   1.380   4.983   0.434
 7738TIP3    H223179   1.304   4.879   0.353
 7739TIP3   OH223180   4.891   5.169   3.168
 7739TIP3    H123181   4.909   5.075   3.169
 7739TIP3    H223182   4.962   5.208   3.118
 7740TIP3   OH223183   4.623   5.374   3.472
 7740TIP3    H123184   4.635   5.281   3.453
 7740TIP3    H223185   4.708   5.413   3.456
 7741TIP3   OH223186   5.865   5.399   0.522
 7741TIP3    H123187   5.890   5.369   0.435
 7741TIP3    H223188   5.791   5.458   0.507
 7742TIP3   OH223189   3.235   1.445   3.335
 7742TIP3    H123190   3.163   1.505   3.356
 7742TIP3    H223191   3.274   1.482   3.256
 7743TIP3   OH223192   5.111   4.316   2.516
 7743TIP3    H123193   5.128   4.409   2.531
 7743TIP3    H223194   5.193   4.273   2.541
 7744TIP3   OH223195   6.418   3.715   3.290
 7744TIP3    H123196   6.413   3.793   3.235
 7744TIP3    H223197   6.338   3.718   3.343
 7745TIP3   OH223198   2.642   4.044   3.183
 7745TIP3    H123199   2.737   4.038   3.196
 7745TIP3    H223200   2.606   3.983   3.248
 7746TIP3   OH223201   0.084   4.298   0.507
 7746TIP3    H123202   0.031   4.318   0.584
 7746TIP3    H223203   0.093   4.382   0.461
 7747TIP3   OH223204   6.463   0.101   1.944
 7747TIP3    H123205   6.524   0.065   1.879
 7747TIP3    H223206   6.386   0.124   1.893
 7748TIP3   OH223207   4.363   2.972   3.102
 7748TIP3    H123208   4.312   2.916   3.161
 7748TIP3    H223209   4.317   3.055   3.102
 7749TIP3   OH223210   0.859   4.284   5.534
 7749TIP3    H123211   0.852   4.267   5.628
 7749TIP3    H223212   0.929   4.226   5.504
 7750TIP3   OH223213   3.865   1.515   2.128
 7750TIP3    H123214   3.955   1.496   2.155
 7750TIP3    H223215   3.865   1.608   2.107
 7751TIP3   OH223216   1.493   2.862   2.089
 7751TIP3    H123217   1.405   2.834   2.116
 7751TIP3    H223218   1.500   2.952   2.120
 7752TIP3   OH223219   5.052   5.434   3.654
 7752TIP3    H123220   5.091   5.420   3.567
 7752TIP3    H223221   4.971   5.384   3.652
 7753TIP3   OH223222   0.504   6.437   1.458
 7753TIP3    H123223   0.434   6.416   1.396
 7753TIP3    H223224   0.560   6.500   1.412
 7754TIP3   OH223225   2.783   6.544   2.437
 7754TIP3    H123226   2.855   6.592   2.395
 7754TIP3    H223227   2.824   6.498   2.510
 7755TIP3   OH223228   6.241   1.761   5.273
 7755TIP3    H123229   6.149   1.783   5.255
 7755TIP3    H223230   6.285   1.846   5.274
 7756TIP3   OH223231   2.125   6.280   0.498
 7756TIP3    H123232   2.208   6.232   0.495
 7756TIP3    H223233   2.150   6.372   0.493
 7757TIP3   OH223234   0.529   2.267   1.154
 7757TIP3    H123235   0.557   2.176   1.164
 7757TIP3    H223236   0.514   2.297   1.243
 7758TIP3   OH223237   5.155   6.134   2.451
 7758TIP3    H123238   5.195   6.208   2.406
 7758TIP3    H223239   5.148   6.066   2.384
 7759TIP3   OH223240   2.144   1.256   4.330
 7759TIP3    H123241   2.189   1.182   4.372
 7759TIP3    H223242   2.209   1.326   4.328
 7760TIP3   OH223243   3.849   5.296   1.276
 7760TIP3    H123244   3.927   5.303   1.331
 7760TIP3    H223245   3.800   5.222   1.313
 7761TIP3   OH223246   7.097   5.501   1.009
 7761TIP3    H123247   7.044   5.425   1.035
 7761TIP3    H223248   7.133   5.534   1.091
 7762TIP3   OH223249   2.050   6.361   1.775
 7762TIP3    H123250   2.106   6.294   1.816
 7762TIP3    H223251   2.043   6.430   1.841
 7763TIP3   OH223252   3.047   3.936   5.771
 7763TIP3    H123253   3.111   3.886   5.720
 7763TIP3    H223254   2.980   3.872   5.795
 7764TIP3   OH223255   6.753   2.459   1.252
 7764TIP3    H123256   6.705   2.377   1.261
 7764TIP3    H223257   6.840   2.434   1.222
 7765TIP3   OH223258   2.718   5.944   1.556
 7765TIP3    H123259   2.639   5.997   1.548
 7765TIP3    H223260   2.758   5.948   1.469
 7766TIP3   OH223261   4.177   1.300   1.779
 7766TIP3    H123262   4.252   1.358   1.791
 7766TIP3    H223263   4.104   1.346   1.820
 7767TIP3   OH223264   4.435   4.929   2.800
 7767TIP3    H123265   4.395   4.870   2.864
 7767TIP3    H223266   4.405   5.016   2.825
 7768TIP3   OH223267   7.011   1.699   2.003
 7768TIP3    H123268   7.066   1.701   2.082
 7768TIP3    H223269   6.949   1.771   2.015
 7769TIP3   OH223270   5.118   3.907   0.543
 7769TIP3    H123271   5.166   3.829   0.572
 7769TIP3    H223272   5.140   3.915   0.450
 7770TIP3   OH223273   3.664   4.555   0.476
 7770TIP3    H123274   3.676   4.463   0.497
 7770TIP3    H223275   3.655   4.557   0.381
 7771TIP3   OH223276   1.174   0.036   3.055
 7771TIP3    H123277   1.248   0.035   2.995
 7771TIP3    H223278   1.160   0.129   3.075
 7772TIP3   OH223279   1.142   3.157   5.774
 7772TIP3    H123280   1.157   3.064   5.758
 7772TIP3    H223281   1.153   3.168   5.868
 7773TIP3   OH223282   1.806   6.506   3.030
 7773TIP3    H123283   1.820   6.443   3.101
 7773TIP3    H223284   1.743   6.463   2.972
 7774TIP3   OH223285   0.601   3.632   4.103
 7774TIP3    H123286   0.686   3.592   4.083
 7774TIP3    H223287   0.583   3.690   4.029
 7775TIP3   OH223288   1.063   4.734   5.009
 7775TIP3    H123289   1.112   4.652   5.008
 7775TIP3    H223290   1.028   4.741   5.098
 7776TIP3   OH223291   4.744   4.894   5.641
 7776TIP3    H123292   4.772   4.809   5.676
 7776TIP3    H223293   4.649   4.892   5.646
 7777TIP3   OH223294   6.145   5.377   3.743
 7777TIP3    H123295   6.135   5.416   3.656
 7777TIP3    H223296   6.236   5.346   3.744
 7778TIP3   OH223297   1.444   3.760   5.234
 7778TIP3    H123298   1.356   3.798   5.233
 7778TIP3    H223299   1.482   3.784   5.150
 7779TIP3   OH223300   2.071   4.420   4.093
 7779TIP3    H123301   2.119   4.352   4.140
 7779TIP3    H223302   2.139   4.480   4.062
 7780TIP3   OH223303   3.196   0.868   0.473
 7780TIP3    H123304   3.271   0.870   0.414
 7780TIP3    H223305   3.177   0.775   0.485
 7781TIP3   OH223306   5.176   2.670   5.631
 7781TIP3    H123307   5.253   2.726   5.640
 7781TIP3    H223308   5.125   2.687   5.709
 7782TIP3   OH223309   2.566   2.255   2.362
 7782TIP3    H123310   2.634   2.215   2.308
 7782TIP3    H223311   2.512   2.304   2.300
 7783TIP3   OH223312   1.881   2.035   1.950
 7783TIP3    H123313   1.790   2.055   1.929
 7783TIP3    H223314   1.932   2.095   1.895
 7784TIP3   OH223315   1.591   3.551   4.602
 7784TIP3    H123316   1.683   3.570   4.620
 7784TIP3    H223317   1.558   3.516   4.685
 7785TIP3   OH223318   3.340   0.621   4.239
 7785TIP3    H123319   3.311   0.703   4.279
 7785TIP3    H223320   3.391   0.649   4.162
 7786TIP3   OH223321   2.349   1.947   4.874
 7786TIP3    H123322   2.359   1.867   4.823
 7786TIP3    H223323   2.326   1.916   4.962
 7787TIP3   OH223324   1.563   4.947   2.955
 7787TIP3    H123325   1.599   4.860   2.937
 7787TIP3    H223326   1.640   5.005   2.954
 7788TIP3   OH223327   6.341   3.161   2.459
 7788TIP3    H123328   6.295   3.126   2.383
 7788TIP3    H223329   6.314   3.253   2.464
 7789TIP3   OH223330   0.742   2.817   2.311
 7789TIP3    H123331   0.803   2.757   2.354
 7789TIP3    H223332   0.759   2.805   2.218
 7790TIP3   OH223333   5.148   2.207   2.129
 7790TIP3    H123334   5.206   2.142   2.090
 7790TIP3    H223335   5.129   2.268   2.058
 7791TIP3   OH223336   4.689   1.784   1.322
 7791TIP3    H123337   4.668   1.698   1.360
 7791TIP3    H223338   4.784   1.782   1.310
 7792TIP3   OH223339   0.100   3.313   0.509
 7792TIP3    H123340   0.030   3.248   0.504
 7792TIP3    H223341   0.078   3.365   0.586
 7793TIP3   OH223342   1.405   6.251   1.011
 7793TIP3    H123343   1.397   6.267   1.105
 7793TIP3    H223344   1.433   6.159   1.005
 7794TIP3   OH223345   5.741   2.774   3.630
 7794TIP3    H123346   5.737   2.792   3.723
 7794TIP3    H223347   5.725   2.858   3.588
 7795TIP3   OH223348   0.027   0.860   1.564
 7795TIP3    H123349   0.122   0.848   1.559
 7795TIP3    H223350  -0.004   0.838   1.476
 7796TIP3   OH223351   5.640   1.776   4.406
 7796TIP3    H123352   5.576   1.744   4.470
 7796TIP3    H223353   5.691   1.841   4.454
 7797TIP3   OH223354   1.292   0.719   1.264
 7797TIP3    H123355   1.268   0.722   1.171
 7797TIP3    H223356   1.261   0.803   1.299
 7798TIP3   OH223357   3.582   6.739   2.001
 7798TIP3    H123358   3.595   6.818   1.948
 7798TIP3    H223359   3.562   6.772   2.089
 7799TIP3   OH223360   0.604   3.281   2.565
 7799TIP3    H123361   0.548   3.354   2.592
 7799TIP3    H223362   0.648   3.314   2.486
 7800TIP3   OH223363   2.324   2.589   1.096
 7800TIP3    H123364   2.250   2.529   1.083
 7800TIP3    H223365   2.400   2.539   1.068
 7801TIP3   OH223366   3.523   6.079   2.876
 7801TIP3    H123367   3.611   6.085   2.913
 7801TIP3    H223368   3.529   6.125   2.792
 7802TIP3   OH223369   6.308   0.841   0.255
 7802TIP3    H123370   6.349   0.915   0.299
 7802TIP3    H223371   6.382   0.792   0.217
 7803TIP3   OH223372   3.165   2.956   2.522
 7803TIP3    H123373   3.174   3.046   2.553
 7803TIP3    H223374   3.209   2.956   2.437
 7804TIP3   OH223375   4.056   2.190   5.081
 7804TIP3    H123376   4.112   2.263   5.056
 7804TIP3    H223377   4.085   2.167   5.170
 7805TIP3   OH223378   1.224   2.523   3.167
 7805TIP3    H123379   1.142   2.482   3.195
 7805TIP3    H223380   1.284   2.507   3.240
 7806TIP3   OH223381   1.307   1.343   3.095
 7806TIP3    H123382   1.225   1.321   3.138
 7806TIP3    H223383   1.280   1.381   3.011
 7807TIP3   OH223384   3.094   5.049   4.299
 7807TIP3    H123385   3.064   5.034   4.388
 7807TIP3    H223386   3.021   5.022   4.243
 7808TIP3   OH223387   3.550   1.765   1.460
 7808TIP3    H123388   3.592   1.679   1.461
 7808TIP3    H223389   3.579   1.805   1.378
 7809TIP3   OH223390   6.635   4.807   4.816
 7809TIP3    H123391   6.577   4.881   4.836
 7809TIP3    H223392   6.686   4.836   4.741
 7810TIP3   OH223393   1.169   0.134   4.939
 7810TIP3    H123394   1.167   0.060   4.999
 7810TIP3    H223395   1.245   0.118   4.883
 7811TIP3   OH223396   6.604   1.304   4.624
 7811TIP3    H123397   6.557   1.279   4.544
 7811TIP3    H223398   6.648   1.223   4.651
 7812TIP3   OH223399   0.120   5.619   4.921
 7812TIP3    H123400   0.024   5.622   4.927
 7812TIP3    H223401   0.137   5.579   4.836
 7813TIP3   OH223402   3.874   4.277   0.281
 7813TIP3    H123403   3.927   4.199   0.264
 7813TIP3    H223404   3.789   4.259   0.241
 7814TIP3   OH223405   2.909   2.859   5.438
 7814TIP3    H123406   2.835   2.866   5.377
 7814TIP3    H223407   2.918   2.765   5.453
 7815TIP3   OH223408   4.637   3.090   1.068
 7815TIP3    H123409   4.602   3.017   1.119
 7815TIP3    H223410   4.730   3.092   1.091
 7816TIP3   OH223411   1.113   2.243   1.704
 7816TIP3    H123412   1.077   2.281   1.784
 7816TIP3    H223413   1.204   2.272   1.702
 7817TIP3   OH223414   4.624   1.544   2.901
 7817TIP3    H123415   4.578   1.466   2.932
 7817TIP3    H223416   4.717   1.524   2.916
 7818TIP3   OH223417   0.348   1.971   1.734
 7818TIP3    H123418   0.421   2.029   1.757
 7818TIP3    H223419   0.312   2.010   1.654
 7819TIP3   OH223420   0.886   5.882   3.266
 7819TIP3    H123421   0.839   5.803   3.238
 7819TIP3    H223422   0.855   5.951   3.207
 7820TIP3   OH223423   6.142   5.415   0.170
 7820TIP3    H123424   6.077   5.356   0.131
 7820TIP3    H223425   6.206   5.357   0.210
 7821TIP3   OH223426   2.373   3.064   4.638
 7821TIP3    H123427   2.390   3.097   4.726
 7821TIP3    H223428   2.362   2.969   4.650
 7822TIP3   OH223429   0.562   6.747   4.045
 7822TIP3    H123430   0.473   6.771   4.073
 7822TIP3    H223431   0.613   6.747   4.126
 7823TIP3   OH223432   4.048   6.576   4.621
 7823TIP3    H123433   4.133   6.604   4.654
 7823TIP3    H223434   4.027   6.639   4.551
 7824TIP3   OH223435   3.915   4.626   0.846
 7824TIP3    H123436   3.971   4.552   0.868
 7824TIP3    H223437   3.964   4.703   0.875
 7825TIP3   OH223438   3.034   2.512   1.290
 7825TIP3    H123439   2.969   2.485   1.356
 7825TIP3    H223440   3.103   2.555   1.341
 7826TIP3   OH223441   4.044   5.023   5.281
 7826TIP3    H123442   4.120   4.972   5.308
 7826TIP3    H223443   3.969   4.975   5.317
 7827TIP3   OH223444   3.757   2.987   1.569
 7827TIP3    H123445   3.661   2.982   1.573
 7827TIP3    H223446   3.775   3.074   1.535
 7828TIP3   OH223447   3.713   1.337   3.646
 7828TIP3    H123448   3.804   1.313   3.628
 7828TIP3    H223449   3.716   1.386   3.728
 7829TIP3   OH223450   4.377   2.135   1.202
 7829TIP3    H123451   4.471   2.124   1.195
 7829TIP3    H223452   4.364   2.190   1.279
 7830TIP3   OH223453   6.966   3.106   3.369
 7830TIP3    H123454   6.892   3.161   3.344
 7830TIP3    H223455   6.926   3.032   3.416
 7831TIP3   OH223456   4.740   4.686   4.039
 7831TIP3    H123457   4.809   4.660   4.100
 7831TIP3    H223458   4.668   4.626   4.058
 7832TIP3   OH223459   3.399   0.232   0.186
 7832TIP3    H123460   3.482   0.241   0.232
 7832TIP3    H223461   3.378   0.320   0.157
 7833TIP3   OH223462   0.381   5.937   4.090
 7833TIP3    H123463   0.408   5.995   4.161
 7833TIP3    H223464   0.322   5.991   4.037
 7834TIP3   OH223465   5.035   3.305   1.878
 7834TIP3    H123466   4.989   3.324   1.960
 7834TIP3    H223467   5.112   3.361   1.879
 7835TIP3   OH223468   6.122   0.526   1.091
 7835TIP3    H123469   6.134   0.522   1.186
 7835TIP3    H223470   6.032   0.497   1.077
 7836TIP3   OH223471   6.040   4.927   5.524
 7836TIP3    H123472   6.052   4.857   5.459
 7836TIP3    H223473   5.947   4.923   5.547
 7837TIP3   OH223474   1.353   2.078   3.551
 7837TIP3    H123475   1.341   2.142   3.620
 7837TIP3    H223476   1.267   2.038   3.539
 7838TIP3   OH223477   2.132   5.931   1.772
 7838TIP3    H123478   2.165   6.008   1.725
 7838TIP3    H223479   2.153   5.948   1.864
 7839TIP3   OH223480   2.637   3.570   5.525
 7839TIP3    H123481   2.729   3.547   5.540
 7839TIP3    H223482   2.595   3.557   5.610
 7840TIP3   OH223483   6.389   1.452   5.720
 7840TIP3    H123484   6.437   1.399   5.656
 7840TIP3    H223485   6.457   1.488   5.777
 7841TIP3   OH223486   4.252   1.734   4.506
 7841TIP3    H123487   4.271   1.820   4.543
 7841TIP3    H223488   4.279   1.741   4.414
 7842TIP3   OH223489   3.755   5.457   4.490
 7842TIP3    H123490   3.819   5.397   4.528
 7842TIP3    H223491   3.768   5.450   4.396
 7843TIP3   OH223492   4.155   4.963   1.318
 7843TIP3    H123493   4.169   4.991   1.408
 7843TIP3    H223494   4.230   4.907   1.299
 7844TIP3   OH223495   6.204   2.961   0.590
 7844TIP3    H123496   6.228   3.041   0.545
 7844TIP3    H223497   6.200   2.894   0.522
 7845TIP3   OH223498   2.975   3.419   1.238
 7845TIP3    H123499   2.948   3.434   1.329
 7845TIP3    H223500   2.921   3.480   1.187
 7846TIP3   OH223501   6.076   0.689   0.683
 7846TIP3    H123502   6.164   0.685   0.719
 7846TIP3    H223503   6.028   0.620   0.729
 7847TIP3   OH223504   4.474   5.263   4.816
 7847TIP3    H123505   4.388   5.302   4.809
 7847TIP3    H223506   4.469   5.183   4.764
 7848TIP3   OH223507   6.169   0.540   1.973
 7848TIP3    H123508   6.191   0.535   1.880
 7848TIP3    H223509   6.253   0.545   2.018
 7849TIP3   OH223510   5.831   5.638   5.578
 7849TIP3    H123511   5.742   5.615   5.601
 7849TIP3    H223512   5.866   5.560   5.534
 7850TIP3   OH223513   1.522   0.294   3.651
 7850TIP3    H123514   1.426   0.286   3.653
 7850TIP3    H223515   1.541   0.317   3.560
 7851TIP3   OH223516   5.317   3.775   3.490
 7851TIP3    H123517   5.295   3.863   3.460
 7851TIP3    H223518   5.391   3.750   3.435
 7852TIP3   OH223519   5.034   3.178   0.439
 7852TIP3    H123520   5.082   3.234   0.500
 7852TIP3    H223521   4.945   3.212   0.440
 7853TIP3   OH223522   3.467   5.432   5.459
 7853TIP3    H123523   3.377   5.441   5.427
 7853TIP3    H223524   3.481   5.337   5.460
 7854TIP3   OH223525   2.748   6.522   1.442
 7854TIP3    H123526   2.792   6.441   1.469
 7854TIP3    H223527   2.746   6.575   1.521
 7855TIP3   OH223528   7.215   1.597   4.381
 7855TIP3    H123529   7.123   1.615   4.361
 7855TIP3    H223530   7.214   1.561   4.470
 7856TIP3   OH223531   3.323   1.138   5.369
 7856TIP3    H123532   3.379   1.071   5.408
 7856TIP3    H223533   3.371   1.166   5.290
 7857TIP3   OH223534   0.958   4.142   1.107
 7857TIP3    H123535   0.911   4.221   1.079
 7857TIP3    H223536   1.050   4.169   1.108
 7858TIP3   OH223537   4.990   3.922   5.847
 7858TIP3    H123538   4.919   3.986   5.839
 7858TIP3    H223539   4.961   3.848   5.794
 7859TIP3   OH223540   3.760   0.889   3.080
 7859TIP3    H123541   3.777   0.825   3.011
 7859TIP3    H223542   3.785   0.845   3.161
 7860TIP3   OH223543   2.436   4.052   5.791
 7860TIP3    H123544   2.373   4.037   5.862
 7860TIP3    H223545   2.389   4.106   5.728
 7861TIP3   OH223546   6.133   5.969   4.437
 7861TIP3    H123547   6.078   6.036   4.397
 7861TIP3    H223548   6.190   5.939   4.367
 7862TIP3   OH223549   4.379   0.331   0.800
 7862TIP3    H123550   4.464   0.299   0.769
 7862TIP3    H223551   4.370   0.418   0.760
 7863TIP3   OH223552   0.174   3.206   2.883
 7863TIP3    H123553   0.243   3.141   2.870
 7863TIP3    H223554   0.209   3.287   2.847
 7864TIP3   OH223555   0.566   0.775   2.541
 7864TIP3    H123556   0.574   0.682   2.518
 7864TIP3    H223557   0.657   0.805   2.549
 7865TIP3   OH223558   4.407   5.626   3.230
 7865TIP3    H123559   4.474   5.569   3.193
 7865TIP3    H223560   4.442   5.714   3.219
 7866TIP3   OH223561   6.105   4.294   2.220
 7866TIP3    H123562   6.075   4.210   2.185
 7866TIP3    H223563   6.103   4.353   2.145
 7867TIP3   OH223564   6.293   6.715   5.495
 7867TIP3    H123565   6.358   6.680   5.556
 7867TIP3    H223566   6.343   6.737   5.416
 7868TIP3   OH223567   3.617   4.943   2.963
 7868TIP3    H123568   3.530   4.978   2.949
 7868TIP3    H223569   3.665   4.965   2.884
 7869TIP3   OH223570   6.187   1.947   5.027
 7869TIP3    H123571   6.220   1.933   4.938
 7869TIP3    H223572   6.095   1.973   5.014
 7870TIP3   OH223573   6.644   1.755   5.822
 7870TIP3    H123574   6.680   1.730   5.737
 7870TIP3    H223575   6.567   1.808   5.801
 7871TIP3   OH223576   4.939   1.274   2.720
 7871TIP3    H123577   4.917   1.259   2.628
 7871TIP3    H223578   4.918   1.191   2.763
 7872TIP3   OH223579   0.309   3.748   3.308
 7872TIP3    H123580   0.222   3.711   3.296
 7872TIP3    H223581   0.353   3.733   3.224
 7873TIP3   OH223582   2.121   1.946   2.067
 7873TIP3    H123583   2.035   1.982   2.045
 7873TIP3    H223584   2.169   1.950   1.984
 7874TIP3   OH223585   3.276   5.139   5.225
 7874TIP3    H123586   3.203   5.201   5.221
 7874TIP3    H223587   3.312   5.140   5.136
 7875TIP3   OH223588   1.121   6.285   3.939
 7875TIP3    H123589   1.051   6.345   3.912
 7875TIP3    H223590   1.202   6.332   3.919
 7876TIP3   OH223591   2.862   4.330   0.553
 7876TIP3    H123592   2.776   4.341   0.593
 7876TIP3    H223593   2.851   4.254   0.495
 7877TIP3   OH223594   5.637   0.723   0.751
 7877TIP3    H123595   5.690   0.704   0.828
 7877TIP3    H223596   5.678   0.673   0.681
 7878TIP3   OH223597   2.458   3.997   1.925
 7878TIP3    H123598   2.428   4.049   1.851
 7878TIP3    H223599   2.554   3.999   1.919
 7879TIP3   OH223600   4.429   2.995   1.665
 7879TIP3    H123601   4.509   3.036   1.632
 7879TIP3    H223602   4.359   3.056   1.639
 7880TIP3   OH223603   0.532   5.189   3.697
 7880TIP3    H123604   0.557   5.277   3.726
 7880TIP3    H223605   0.439   5.197   3.677
 7881TIP3   OH223606   3.794   1.979   1.818
 7881TIP3    H123607   3.711   1.966   1.773
 7881TIP3    H223608   3.859   1.934   1.763
 7882TIP3   OH223609   0.014   4.187   3.022
 7882TIP3    H123610   0.102   4.222   3.038
 7882TIP3    H223611   0.012   4.104   3.069
 7883TIP3   OH223612   4.099   6.406   1.001
 7883TIP3    H123613   4.116   6.371   0.914
 7883TIP3    H223614   4.166   6.474   1.013
 7884TIP3   OH223615   0.555   0.536   1.781
 7884TIP3    H123616   0.465   0.567   1.797
 7884TIP3    H223617   0.545   0.468   1.714
 7885TIP3   OH223618   0.650   4.586   2.837
 7885TIP3    H123619   0.567   4.588   2.789
 7885TIP3    H223620   0.714   4.623   2.776
 7886TIP3   OH223621   6.728   4.236   1.965
 7886TIP3    H123622   6.750   4.298   1.895
 7886TIP3    H223623   6.782   4.263   2.039
 7887TIP3   OH223624   4.205   3.601   0.314
 7887TIP3    H123625   4.145   3.579   0.243
 7887TIP3    H223626   4.148   3.611   0.391
 7888TIP3   OH223627   0.706   1.614   0.965
 7888TIP3    H123628   0.786   1.562   0.971
 7888TIP3    H223629   0.636   1.551   0.983
 7889TIP3   OH223630   1.064   4.411   1.156
 7889TIP3    H123631   1.058   4.499   1.119
 7889TIP3    H223632   1.111   4.423   1.238
 7890TIP3   OH223633   6.350   1.533   5.390
 7890TIP3    H123634   6.339   1.473   5.316
 7890TIP3    H223635   6.340   1.620   5.351
 7891TIP3   OH223636   1.322   1.200  -0.001
 7891TIP3    H123637   1.410   1.208   0.035
 7891TIP3    H223638   1.281   1.132   0.052
 7892TIP3   OH223639   7.129   0.416   3.300
 7892TIP3    H123640   7.098   0.411   3.391
 7892TIP3    H223641   7.209   0.468   3.304
 7893TIP3   OH223642   6.548   2.902   2.109
 7893TIP3    H123643   6.498   2.837   2.158
 7893TIP3    H223644   6.486   2.972   2.091
 7894TIP3   OH223645   1.205   1.078   0.667
 7894TIP3    H123646   1.159   1.117   0.742
 7894TIP3    H223647   1.135   1.043   0.612
 7895TIP3   OH223648   3.751   6.492   3.300
 7895TIP3    H123649   3.691   6.454   3.365
 7895TIP3    H223650   3.695   6.513   3.225
 7896TIP3   OH223651   5.022   3.434   0.586
 7896TIP3    H123652   4.959   3.480   0.643
 7896TIP3    H223653   5.089   3.401   0.646
 7897TIP3   OH223654   1.890   6.345   5.404
 7897TIP3    H123655   1.843   6.285   5.345
 7897TIP3    H223656   1.820   6.395   5.447
 7898TIP3   OH223657   2.944   4.859   5.870
 7898TIP3    H123658   2.970   4.868   5.962
 7898TIP3    H223659   2.989   4.930   5.825
 7899TIP3   OH223660   6.858   4.303   1.290
 7899TIP3    H123661   6.835   4.210   1.296
 7899TIP3    H223662   6.898   4.322   1.375
 7900TIP3   OH223663   2.908   5.235   4.126
 7900TIP3    H123664   2.839   5.172   4.150
 7900TIP3    H223665   2.860   5.311   4.092
 7901TIP3   OH223666   0.654   2.679   3.241
 7901TIP3    H123667   0.734   2.669   3.190
 7901TIP3    H223668   0.588   2.707   3.178
 7902TIP3   OH223669   4.205   5.582   3.644
 7902TIP3    H123670   4.268   5.513   3.623
 7902TIP3    H223671   4.215   5.645   3.573
 7903TIP3   OH223672   4.420   1.105   0.472
 7903TIP3    H123673   4.346   1.148   0.429
 7903TIP3    H223674   4.477   1.079   0.400
 7904TIP3   OH223675   3.405   6.315   5.443
 7904TIP3    H123676   3.330   6.281   5.493
 7904TIP3    H223677   3.391   6.282   5.354
 7905TIP3   OH223678   4.354   6.285   1.764
 7905TIP3    H123679   4.355   6.219   1.695
 7905TIP3    H223680   4.378   6.367   1.720
 7906TIP3   OH223681   1.960   4.038   0.385
 7906TIP3    H123682   1.871   4.066   0.369
 7906TIP3    H223683   1.954   3.986   0.466
 7907TIP3   OH223684   1.818   6.200   2.631
 7907TIP3    H123685   1.876   6.144   2.579
 7907TIP3    H223686   1.761   6.139   2.678
 7908TIP3   OH223687   5.903   1.833   0.235
 7908TIP3    H123688   5.870   1.922   0.235
 7908TIP3    H223689   5.943   1.821   0.149
 7909TIP3   OH223690   4.268   3.240   0.862
 7909TIP3    H123691   4.261   3.304   0.791
 7909TIP3    H223692   4.186   3.251   0.911
 7910TIP3   OH223693   5.642   0.219   4.888
 7910TIP3    H123694   5.655   0.276   4.964
 7910TIP3    H223695   5.548   0.223   4.871
 7911TIP3   OH223696   6.456   2.119   1.669
 7911TIP3    H123697   6.381   2.061   1.653
 7911TIP3    H223698   6.525   2.060   1.699
 7912TIP3   OH223699   3.955   1.390   4.419
 7912TIP3    H123700   3.896   1.342   4.362
 7912TIP3    H223701   4.040   1.347   4.409
 7913TIP3   OH223702   6.034   5.029   1.740
 7913TIP3    H123703   6.064   5.119   1.734
 7913TIP3    H223704   6.107   4.981   1.779
 7914TIP3   OH223705   7.228   2.339   2.351
 7914TIP3    H123706   7.137   2.317   2.333
 7914TIP3    H223707   7.266   2.258   2.388
 7915TIP3   OH223708   3.430   0.785   4.049
 7915TIP3    H123709   3.423   0.787   3.954
 7915TIP3    H223710   3.413   0.875   4.077
 7916TIP3   OH223711   1.933   1.121   5.303
 7916TIP3    H123712   1.971   1.198   5.262
 7916TIP3    H223713   2.006   1.080   5.349
 7917TIP3   OH223714   4.644   3.516   4.520
 7917TIP3    H123715   4.721   3.493   4.572
 7917TIP3    H223716   4.569   3.491   4.574
 7918TIP3   OH223717   4.622   5.675   4.607
 7918TIP3    H123718   4.559   5.714   4.547
 7918TIP3    H223719   4.671   5.612   4.554
 7919TIP3   OH223720   0.959   0.400   3.998
 7919TIP3    H123721   0.880   0.353   4.026
 7919TIP3    H223722   0.959   0.479   4.052
 7920TIP3   OH223723   0.116   4.246   3.930
 7920TIP3    H123724   0.131   4.156   3.901
 7920TIP3    H223725   0.035   4.241   3.982
 7921TIP3   OH223726   2.001   3.009   4.622
 7921TIP3    H123727   2.013   2.949   4.695
 7921TIP3    H223728   1.957   3.085   4.660
 7922TIP3   OH223729   1.855   0.878   2.377
 7922TIP3    H123730   1.806   0.835   2.447
 7922TIP3    H223731   1.937   0.829   2.371
 7923TIP3   OH223732   1.358   3.274   0.251
 7923TIP3    H123733   1.295   3.342   0.274
 7923TIP3    H223734   1.325   3.196   0.294
 7924TIP3   OH223735   4.418   0.181   0.248
 7924TIP3    H123736   4.374   0.199   0.166
 7924TIP3    H223737   4.510   0.202   0.231
 7925TIP3   OH223738   1.113   0.722   5.509
 7925TIP3    H123739   1.044   0.661   5.483
 7925TIP3    H223740   1.192   0.668   5.516
 7926TIP3   OH223741   6.032   4.103   0.879
 7926TIP3    H123742   5.954   4.123   0.930
 7926TIP3    H223743   6.099   4.163   0.912
 7927TIP3   OH223744   2.138   1.668   0.156
 7927TIP3    H123745   2.069   1.711   0.104
 7927TIP3    H223746   2.155   1.586   0.110
 7928TIP3   OH223747   2.518   3.028   0.386
 7928TIP3    H123748   2.443   2.978   0.355
 7928TIP3    H223749   2.532   2.997   0.476
 7929TIP3   OH223750   3.288   4.258   0.474
 7929TIP3    H123751   3.326   4.325   0.530
 7929TIP3    H223752   3.237   4.203   0.533
 7930TIP3   OH223753   4.850   2.608   2.299
 7930TIP3    H123754   4.891   2.523   2.318
 7930TIP3    H223755   4.918   2.672   2.320
 7931TIP3   OH223756   5.609   5.969   3.067
 7931TIP3    H123757   5.520   5.992   3.041
 7931TIP3    H223758   5.598   5.899   3.131
 7932TIP3   OH223759   0.374   2.238   1.545
 7932TIP3    H123760   0.441   2.173   1.525
 7932TIP3    H223761   0.393   2.311   1.487
 7933TIP3   OH223762   2.278   0.288   2.505
 7933TIP3    H123763   2.219   0.308   2.433
 7933TIP3    H223764   2.357   0.340   2.487
 7934TIP3   OH223765   2.095   0.522   1.187
 7934TIP3    H123766   2.109   0.448   1.127
 7934TIP3    H223767   2.001   0.523   1.202
 7935TIP3   OH223768   6.588   6.370   5.114
 7935TIP3    H123769   6.584   6.445   5.174
 7935TIP3    H223770   6.682   6.360   5.096
 7936TIP3   OH223771   1.354   6.102   3.401
 7936TIP3    H123772   1.400   6.185   3.411
 7936TIP3    H223773   1.264   6.120   3.428
 7937TIP3   OH223774   1.134   6.818   0.790
 7937TIP3    H123775   1.215   6.829   0.839
 7937TIP3    H223776   1.096   6.736   0.823
 7938TIP3   OH223777   4.580   1.302   0.258
 7938TIP3    H123778   4.561   1.358   0.333
 7938TIP3    H223779   4.637   1.354   0.202
 7939TIP3   OH223780   6.277   3.162   4.492
 7939TIP3    H123781   6.358   3.114   4.510
 7939TIP3    H223782   6.214   3.126   4.555
 7940TIP3   OH223783   2.139   3.391   2.988
 7940TIP3    H123784   2.111   3.470   3.034
 7940TIP3    H223785   2.085   3.389   2.909
 7941TIP3   OH223786   6.738   2.685   3.586
 7941TIP3    H123787   6.688   2.721   3.660
 7941TIP3    H223788   6.786   2.760   3.551
 7942TIP3   OH223789   1.223   4.648   4.358
 7942TIP3    H123790   1.210   4.557   4.331
 7942TIP3    H223791   1.135   4.678   4.382
 7943TIP3   OH223792   1.291   3.733   5.692
 7943TIP3    H123793   1.220   3.731   5.628
 7943TIP3    H223794   1.362   3.683   5.651
 7944TIP3   OH223795   6.856   5.324   5.354
 7944TIP3    H123796   6.826   5.338   5.265
 7944TIP3    H223797   6.777   5.303   5.404
 7945TIP3   OH223798   6.351   4.491   4.737
 7945TIP3    H123799   6.288   4.449   4.677
 7945TIP3    H223800   6.334   4.450   4.822
 7946TIP3   OH223801   0.178   3.964   5.349
 7946TIP3    H123802   0.167   3.884   5.400
 7946TIP3    H223803   0.121   3.953   5.273
 7947TIP3   OH223804   0.321   2.957   3.582
 7947TIP3    H123805   0.338   2.886   3.520
 7947TIP3    H223806   0.365   3.033   3.543
 7948TIP3   OH223807   3.577   3.508   5.617
 7948TIP3    H123808   3.586   3.488   5.710
 7948TIP3    H223809   3.571   3.603   5.613
 7949TIP3   OH223810   1.440   6.008   2.022
 7949TIP3    H123811   1.494   6.086   2.035
 7949TIP3    H223812   1.363   6.023   2.077
 7950TIP3   OH223813   4.551   3.025   1.989
 7950TIP3    H123814   4.608   2.975   2.047
 7950TIP3    H223815   4.463   3.010   2.022
 7951TIP3   OH223816   3.524   1.408   1.860
 7951TIP3    H123817   3.521   1.493   1.816
 7951TIP3    H223818   3.588   1.357   1.810
 7952TIP3   OH223819   1.608   2.706   1.180
 7952TIP3    H123820   1.551   2.741   1.112
 7952TIP3    H223821   1.672   2.776   1.197
 7953TIP3   OH223822   1.889   1.093   0.515
 7953TIP3    H123823   1.885   1.183   0.548
 7953TIP3    H223824   1.966   1.055   0.558
 7954TIP3   OH223825   4.268   5.011   0.917
 7954TIP3    H123826   4.317   5.075   0.968
 7954TIP3    H223827   4.182   5.050   0.904
 7955TIP3   OH223828   2.958   3.465   0.382
 7955TIP3    H123829   2.957   3.529   0.311
 7955TIP3    H223830   2.882   3.487   0.435
 7956TIP3   OH223831   1.515   0.912   1.594
 7956TIP3    H123832   1.567   0.950   1.665
 7956TIP3    H223833   1.471   0.987   1.554
 7957TIP3   OH223834   2.967   2.768   0.497
 7957TIP3    H123835   2.877   2.773   0.466
 7957TIP3    H223836   3.020   2.801   0.425
 7958TIP3   OH223837   6.222   3.442   1.513
 7958TIP3    H123838   6.193   3.440   1.604
 7958TIP3    H223839   6.186   3.363   1.474
 7959TIP3   OH223840   3.968   4.426   0.506
 7959TIP3    H123841   3.905   4.384   0.564
 7959TIP3    H223842   3.957   4.380   0.422
 7960TIP3   OH223843   0.845   4.470   5.185
 7960TIP3    H123844   0.932   4.432   5.202
 7960TIP3    H223845   0.824   4.442   5.096
 7961TIP3   OH223846   0.071   4.208   5.584
 7961TIP3    H123847   0.156   4.225   5.545
 7961TIP3    H223848   0.018   4.174   5.512
 7962TIP3   OH223849   4.514   5.742   0.242
 7962TIP3    H123850   4.545   5.653   0.256
 7962TIP3    H223851   4.485   5.772   0.328
 7963TIP3   OH223852   5.954   6.288   1.462
 7963TIP3    H123853   6.045   6.318   1.467
 7963TIP3    H223854   5.915   6.343   1.394
 7964TIP3   OH223855   6.280   5.682   2.984
 7964TIP3    H123856   6.341   5.612   2.961
 7964TIP3    H223857   6.245   5.711   2.900
 7965TIP3   OH223858   7.124   5.303   0.381
 7965TIP3    H123859   7.201   5.320   0.435
 7965TIP3    H223860   7.160   5.283   0.294
 7966TIP3   OH223861   3.677   6.574   3.007
 7966TIP3    H123862   3.645   6.664   3.021
 7966TIP3    H223863   3.598   6.524   2.986
 7967TIP3   OH223864   3.725   2.070   4.431
 7967TIP3    H123865   3.761   2.048   4.346
 7967TIP3    H223866   3.802   2.084   4.487
 7968TIP3   OH223867   6.402   4.650   1.100
 7968TIP3    H123868   6.470   4.673   1.037
 7968TIP3    H223869   6.451   4.619   1.177
 7969TIP3   OH223870   0.787   2.180   5.126
 7969TIP3    H123871   0.745   2.160   5.209
 7969TIP3    H223872   0.853   2.111   5.115
 7970TIP3   OH223873   3.504   6.170   2.294
 7970TIP3    H123874   3.571   6.237   2.310
 7970TIP3    H223875   3.423   6.208   2.330
 7971TIP3   OH223876   5.382   1.693   3.693
 7971TIP3    H123877   5.432   1.754   3.747
 7971TIP3    H223878   5.405   1.715   3.603
 7972TIP3   OH223879   1.157   1.602   3.180
 7972TIP3    H123880   1.092   1.538   3.150
 7972TIP3    H223881   1.130   1.624   3.269
 7973TIP3   OH223882   5.979   3.387   4.158
 7973TIP3    H123883   5.954   3.306   4.202
 7973TIP3    H223884   5.915   3.452   4.187
 7974TIP3   OH223885   5.390   1.366   1.897
 7974TIP3    H123886   5.433   1.438   1.943
 7974TIP3    H223887   5.297   1.390   1.898
 7975TIP3   OH223888   5.877   4.147   3.212
 7975TIP3    H123889   5.922   4.082   3.265
 7975TIP3    H223890   5.880   4.227   3.264
 7976TIP3   OH223891   5.162   1.140   4.982
 7976TIP3    H123892   5.104   1.064   4.973
 7976TIP3    H223893   5.201   1.129   5.069
 7977TIP3   OH223894   1.339   1.078   1.769
 7977TIP3    H123895   1.370   1.060   1.858
 7977TIP3    H223896   1.343   0.993   1.725
 7978TIP3   OH223897   2.427   6.666   1.281
 7978TIP3    H123898   2.356   6.610   1.250
 7978TIP3    H223899   2.388   6.718   1.351
 7979TIP3   OH223900   5.009   6.314   3.073
 7979TIP3    H123901   4.963   6.357   3.145
 7979TIP3    H223902   5.088   6.367   3.060
 7980TIP3   OH223903   1.478   5.421   1.240
 7980TIP3    H123904   1.428   5.502   1.242
 7980TIP3    H223905   1.417   5.356   1.206
 7981TIP3   OH223906   1.727   1.868   0.213
 7981TIP3    H123907   1.723   1.951   0.261
 7981TIP3    H223908   1.641   1.829   0.225
 7982TIP3   OH223909   6.372   0.445   3.454
 7982TIP3    H123910   6.398   0.374   3.396
 7982TIP3    H223911   6.451   0.466   3.504
 7983TIP3   OH223912   3.631   5.943   2.642
 7983TIP3    H123913   3.657   5.891   2.567
 7983TIP3    H223914   3.656   5.890   2.718
 7984TIP3   OH223915   3.075   4.764   4.965
 7984TIP3    H123916   3.120   4.848   4.963
 7984TIP3    H223917   3.062   4.741   4.873
 7985TIP3   OH223918   2.644   2.587   2.609
 7985TIP3    H123919   2.630   2.593   2.703
 7985TIP3    H223920   2.559   2.610   2.571
 7986TIP3   OH223921   7.185   0.776   3.620
 7986TIP3    H123922   7.169   0.753   3.712
 7986TIP3    H223923   7.219   0.865   3.623
 7987TIP3   OH223924   4.717   0.894   1.855
 7987TIP3    H123925   4.642   0.916   1.911
 7987TIP3    H223926   4.728   0.970   1.799
 7988TIP3   OH223927   7.163   0.275   1.299
 7988TIP3    H123928   7.117   0.297   1.218
 7988TIP3    H223929   7.252   0.254   1.271
 7989TIP3   OH223930   3.815   1.583   1.721
 7989TIP3    H123931   3.829   1.599   1.628
 7989TIP3    H223932   3.724   1.608   1.737
 7990TIP3   OH223933   3.106   2.160   0.357
 7990TIP3    H123934   3.115   2.250   0.386
 7990TIP3    H223935   3.161   2.154   0.278
 7991TIP3   OH223936   3.197   1.316   5.772
 7991TIP3    H123937   3.253   1.239   5.760
 7991TIP3    H223938   3.157   1.330   5.686
 7992TIP3   OH223939   5.384   4.538   0.794
 7992TIP3    H123940   5.372   4.484   0.872
 7992TIP3    H223941   5.469   4.579   0.805
 7993TIP3   OH223942   5.254   5.967   5.300
 7993TIP3    H123943   5.266   6.038   5.238
 7993TIP3    H223944   5.167   5.980   5.336
 7994TIP3   OH223945   4.668   6.603   4.339
 7994TIP3    H123946   4.627   6.677   4.385
 7994TIP3    H223947   4.617   6.527   4.367
 7995TIP3   OH223948   1.080   2.096   3.453
 7995TIP3    H123949   1.027   2.147   3.515
 7995TIP3    H223950   1.018   2.034   3.415
 7996TIP3   OH223951   5.203   2.481   2.014
 7996TIP3    H123952   5.298   2.478   2.008
 7996TIP3    H223953   5.184   2.464   2.107
 7997TIP3   OH223954   1.198   3.179   2.157
 7997TIP3    H123955   1.229   3.268   2.172
 7997TIP3    H223956   1.177   3.146   2.244
 7998TIP3   OH223957   1.401   5.654   1.940
 7998TIP3    H123958   1.438   5.581   1.889
 7998TIP3    H223959   1.328   5.615   1.988
 7999TIP3   OH223960   3.599   3.265   0.770
 7999TIP3    H123961   3.505   3.255   0.786
 7999TIP3    H223962   3.614   3.359   0.775
 8000TIP3   OH223963   3.726   1.195   0.792
 8000TIP3    H123964   3.772   1.144   0.858
 8000TIP3    H223965   3.784   1.193   0.715
 8001TIP3   OH223966   4.605   2.693   1.469
 8001TIP3    H123967   4.637   2.761   1.529
 8001TIP3    H223968   4.569   2.625   1.526
 8002TIP3   OH223969   5.442   0.743   2.830
 8002TIP3    H123970   5.359   0.746   2.878
 8002TIP3    H223971   5.429   0.674   2.765
 8003TIP3   OH223972   1.654   5.238   1.275
 8003TIP3    H123973   1.729   5.279   1.232
 8003TIP3    H223974   1.587   5.305   1.277
 8004TIP3   OH223975   5.415   6.643   4.014
 8004TIP3    H123976   5.504   6.616   3.991
 8004TIP3    H223977   5.370   6.649   3.930
 8005TIP3   OH223978   1.568   2.131   3.165
 8005TIP3    H123979   1.538   2.157   3.078
 8005TIP3    H223980   1.632   2.062   3.149
 8006TIP3   OH223981   2.324   5.012   4.232
 8006TIP3    H123982   2.352   4.976   4.315
 8006TIP3    H223983   2.250   4.957   4.205
 8007TIP3   OH223984   5.989   2.003   5.377
 8007TIP3    H123985   6.014   1.940   5.309
 8007TIP3    H223986   6.059   1.996   5.442
 8008TIP3   OH223987   0.751   3.176   5.370
 8008TIP3    H123988   0.822   3.199   5.310
 8008TIP3    H223989   0.723   3.089   5.341
 8009TIP3   OH223990   0.498   5.729   0.740
 8009TIP3    H123991   0.528   5.783   0.813
 8009TIP3    H223992   0.475   5.645   0.780
 8010TIP3   OH223993   4.274   3.077   4.167
 8010TIP3    H123994   4.273   3.047   4.076
 8010TIP3    H223995   4.183   3.068   4.196
 8011TIP3   OH223996   7.154   1.786   3.004
 8011TIP3    H123997   7.203   1.705   3.014
 8011TIP3    H223998   7.067   1.757   2.974
 8012TIP3   OH223999   4.710   0.018   0.591
 8012TIP3    H124000   4.683   0.026   0.682
 8012TIP3    H224001   4.654   0.079   0.544
 8013TIP3   OH224002   4.794   4.550   4.782
 8013TIP3    H124003   4.798   4.459   4.810
 8013TIP3    H224004   4.801   4.546   4.687
 8014TIP3   OH224005   4.875   2.132   2.434
 8014TIP3    H124006   4.880   2.084   2.352
 8014TIP3    H224007   4.821   2.077   2.491
 8015TIP3   OH224008   4.832   3.502   2.226
 8015TIP3    H124009   4.822   3.454   2.309
 8015TIP3    H224010   4.798   3.590   2.245
 8016TIP3   OH224011   6.504   4.198   4.126
 8016TIP3    H124012   6.555   4.137   4.180
 8016TIP3    H224013   6.504   4.280   4.176
 8017TIP3   OH224014   3.794   2.551   1.054
 8017TIP3    H124015   3.872   2.496   1.061
 8017TIP3    H224016   3.827   2.640   1.064
 8018TIP3   OH224017   5.294   1.310   1.626
 8018TIP3    H124018   5.327   1.333   1.713
 8018TIP3    H224019   5.259   1.221   1.637
 8019TIP3   OH224020   0.038   4.136   1.275
 8019TIP3    H124021   0.052   4.178   1.359
 8019TIP3    H224022   0.125   4.124   1.238
 8020TIP3   OH224023   6.710   3.566   4.290
 8020TIP3    H124024   6.775   3.518   4.239
 8020TIP3    H224025   6.710   3.654   4.252
 8021TIP3   OH224026   6.175   5.158   2.989
 8021TIP3    H124027   6.175   5.206   2.906
 8021TIP3    H224028   6.226   5.212   3.048
 8022TIP3   OH224029   2.961   5.184   3.311
 8022TIP3    H124030   3.024   5.255   3.297
 8022TIP3    H224031   2.886   5.227   3.354
 8023TIP3   OH224032   5.143   0.300   1.222
 8023TIP3    H124033   5.188   0.251   1.153
 8023TIP3    H224034   5.058   0.321   1.184
 8024TIP3   OH224035   3.882   3.857   4.838
 8024TIP3    H124036   3.878   3.932   4.898
 8024TIP3    H224037   3.890   3.781   4.895
 8025TIP3   OH224038   1.742   3.615   5.113
 8025TIP3    H124039   1.686   3.568   5.052
 8025TIP3    H224040   1.706   3.595   5.200
 8026TIP3   OH224041   3.001   2.914   4.826
 8026TIP3    H124042   2.989   2.838   4.768
 8026TIP3    H224043   3.096   2.925   4.831
 8027TIP3   OH224044   2.508   1.710   5.862
 8027TIP3    H124045   2.503   1.629   5.812
 8027TIP3    H224046   2.599   1.738   5.853
 8028TIP3   OH224047   2.487   3.047   2.424
 8028TIP3    H124048   2.485   3.129   2.474
 8028TIP3    H224049   2.580   3.031   2.408
 8029TIP3   OH224050   4.738   1.451   1.035
 8029TIP3    H124051   4.655   1.490   1.011
 8029TIP3    H224052   4.741   1.459   1.131
 8030TIP3   OH224053   7.056   0.239   5.134
 8030TIP3    H124054   7.106   0.184   5.194
 8030TIP3    H224055   6.996   0.287   5.190
 8031TIP3   OH224056   1.252   4.846   1.098
 8031TIP3    H124057   1.290   4.914   1.043
 8031TIP3    H224058   1.210   4.786   1.037
 8032TIP3   OH224059   2.225   5.957   0.762
 8032TIP3    H124060   2.158   6.025   0.763
 8032TIP3    H224061   2.273   5.970   0.844
 8033TIP3   OH224062   3.443   0.214   5.439
 8033TIP3    H124063   3.468   0.123   5.427
 8033TIP3    H224064   3.484   0.261   5.366
 8034TIP3   OH224065   4.042   2.896   4.010
 8034TIP3    H124066   4.127   2.922   3.974
 8034TIP3    H224067   4.014   2.823   3.956
 8035TIP3   OH224068   1.491   6.506   3.243
 8035TIP3    H124069   1.470   6.518   3.150
 8035TIP3    H224070   1.470   6.590   3.283
 8036TIP3   OH224071   0.883   5.607   5.908
 8036TIP3    H124072   0.791   5.612   5.933
 8036TIP3    H224073   0.884   5.635   5.816
 8037TIP3   OH224074   6.889   5.163   3.708
 8037TIP3    H124075   6.809   5.190   3.753
 8037TIP3    H224076   6.913   5.080   3.751
 8038TIP3   OH224077   0.852   2.826   2.070
 8038TIP3    H124078   0.926   2.884   2.048
 8038TIP3    H224079   0.888   2.738   2.062
 8039TIP3   OH224080   1.383   2.562   3.839
 8039TIP3    H124081   1.403   2.607   3.921
 8039TIP3    H224082   1.296   2.594   3.816
 8040TIP3   OH224083   5.082   0.908   1.380
 8040TIP3    H124084   5.050   0.905   1.290
 8040TIP3    H224085   5.166   0.861   1.378
 8041TIP3   OH224086   5.068   2.098   1.415
 8041TIP3    H124087   5.030   2.121   1.331
 8041TIP3    H224088   5.042   2.168   1.474
 8042TIP3   OH224089   0.279   0.235   2.536
 8042TIP3    H124090   0.351   0.185   2.497
 8042TIP3    H224091   0.300   0.238   2.629
 8043TIP3   OH224092   3.773   4.442   1.637
 8043TIP3    H124093   3.792   4.400   1.722
 8043TIP3    H224094   3.847   4.418   1.582
 8044TIP3   OH224095   4.858   0.964   0.721
 8044TIP3    H124096   4.880   0.877   0.755
 8044TIP3    H224097   4.790   0.948   0.655
 8045TIP3   OH224098   1.581   4.219   3.934
 8045TIP3    H124099   1.641   4.170   3.878
 8045TIP3    H224100   1.636   4.250   4.006
 8046TIP3   OH224101   1.192   6.451   1.197
 8046TIP3    H124102   1.182   6.357   1.186
 8046TIP3    H224103   1.220   6.462   1.287
 8047TIP3   OH224104   3.344   3.656   4.476
 8047TIP3    H124105   3.251   3.632   4.477
 8047TIP3    H224106   3.350   3.731   4.535
 8048TIP3   OH224107   1.056   2.994   5.373
 8048TIP3    H124108   0.968   2.956   5.368
 8048TIP3    H224109   1.041   3.088   5.375
 8049TIP3   OH224110   7.066   1.371   0.450
 8049TIP3    H124111   7.140   1.331   0.406
 8049TIP3    H224112   7.105   1.427   0.518
 8050TIP3   OH224113   3.065   6.487   4.714
 8050TIP3    H124114   3.023   6.557   4.665
 8050TIP3    H224115   3.152   6.479   4.675
 8051TIP3   OH224116   0.331   0.833   2.405
 8051TIP3    H124117   0.415   0.810   2.446
 8051TIP3    H224118   0.267   0.819   2.475
 8052TIP3   OH224119   2.055   0.776   0.996
 8052TIP3    H124120   2.146   0.788   0.970
 8052TIP3    H224121   2.026   0.863   1.024
 8053TIP3   OH224122   5.505   0.915   0.539
 8053TIP3    H124123   5.587   0.899   0.492
 8053TIP3    H224124   5.446   0.952   0.474
 8054TIP3   OH224125   2.074   5.364   4.848
 8054TIP3    H124126   2.015   5.350   4.922
 8054TIP3    H224127   2.017   5.356   4.771
 8055TIP3   OH224128   2.267   2.358   5.350
 8055TIP3    H124129   2.183   2.323   5.379
 8055TIP3    H224130   2.248   2.449   5.325
 8056TIP3   OH224131   0.912   0.524   5.349
 8056TIP3    H124132   0.832   0.472   5.346
 8056TIP3    H224133   0.975   0.474   5.297
 8057TIP3   OH224134   1.150   4.985   4.631
 8057TIP3    H124135   1.216   4.920   4.608
 8057TIP3    H224136   1.096   4.942   4.697
 8058TIP3   OH224137   4.799   6.773   2.953
 8058TIP3    H124138   4.751   6.760   3.035
 8058TIP3    H224139   4.852   6.694   2.943
 8059TIP3   OH224140   6.757   2.983   0.616
 8059TIP3    H124141   6.731   2.968   0.707
 8059TIP3    H224142   6.800   3.068   0.616
 8060TIP3   OH224143   4.248   2.668   1.975
 8060TIP3    H124144   4.224   2.631   2.060
 8060TIP3    H224145   4.270   2.592   1.921
 8061TIP3   OH224146   6.947   0.438   4.617
 8061TIP3    H124147   6.852   0.423   4.609
 8061TIP3    H224148   6.957   0.532   4.606
 8062TIP3   OH224149   2.246   1.414   2.255
 8062TIP3    H124150   2.259   1.507   2.273
 8062TIP3    H224151   2.152   1.406   2.238
 8063TIP3   OH224152   3.450   6.781   3.968
 8063TIP3    H124153   3.539   6.759   3.942
 8063TIP3    H224154   3.434   6.730   4.047
 8064TIP3   OH224155   6.613   6.261   3.225
 8064TIP3    H124156   6.565   6.215   3.294
 8064TIP3    H224157   6.689   6.299   3.270
 8065TIP3   OH224158   1.804   4.567   3.106
 8065TIP3    H124159   1.896   4.566   3.079
 8065TIP3    H224160   1.786   4.476   3.130
 8066TIP3   OH224161   6.501   5.205   1.707
 8066TIP3    H124162   6.589   5.175   1.726
 8066TIP3    H224163   6.506   5.300   1.713
 8067TIP3   OH224164   2.618   5.452   0.798
 8067TIP3    H124165   2.652   5.494   0.719
 8067TIP3    H224166   2.564   5.379   0.767
 8068TIP3   OH224167   4.796   5.566   1.750
 8068TIP3    H124168   4.844   5.580   1.668
 8068TIP3    H224169   4.704   5.565   1.724
 8069TIP3   OH224170   0.311   1.662   5.016
 8069TIP3    H124171   0.369   1.642   4.942
 8069TIP3    H224172   0.233   1.700   4.975
 8070TIP3   OH224173   4.092   2.385   1.726
 8070TIP3    H124174   4.171   2.433   1.752
 8070TIP3    H224175   4.085   2.314   1.790
 8071TIP3   OH224176   5.160   6.261   1.109
 8071TIP3    H124177   5.084   6.255   1.166
 8071TIP3    H224178   5.124   6.274   1.021
 8072TIP3   OH224179   4.551   2.836   2.927
 8072TIP3    H124180   4.481   2.880   2.975
 8072TIP3    H224181   4.620   2.823   2.991
 8073TIP3   OH224182   3.332   1.640   4.517
 8073TIP3    H124183   3.333   1.730   4.483
 8073TIP3    H224184   3.425   1.616   4.523
 8074TIP3   OH224185   4.929   2.176   1.187
 8074TIP3    H124186   4.860   2.219   1.238
 8074TIP3    H224187   4.957   2.242   1.124
 8075TIP3   OH224188   3.942   3.956   5.787
 8075TIP3    H124189   3.995   3.894   5.737
 8075TIP3    H224190   3.854   3.918   5.787
 8076TIP3   OH224191   5.033   0.181   3.436
 8076TIP3    H124192   5.124   0.185   3.406
 8076TIP3    H224193   5.017   0.089   3.455
 8077TIP3   OH224194   4.760   6.520   4.044
 8077TIP3    H124195   4.730   6.439   4.086
 8077TIP3    H224196   4.719   6.590   4.095
 8078TIP3   OH224197   0.636   3.121   3.719
 8078TIP3    H124198   0.571   3.058   3.750
 8078TIP3    H224199   0.648   3.181   3.792
 8079TIP3   OH224200   2.809   4.114   4.637
 8079TIP3    H124201   2.878   4.072   4.584
 8079TIP3    H224202   2.776   4.185   4.582
 8080TIP3   OH224203   3.000   1.898   1.356
 8080TIP3    H124204   3.067   1.960   1.328
 8080TIP3    H224205   2.933   1.952   1.398
 8081TIP3   OH224206   1.965   4.065   2.068
 8081TIP3    H124207   1.901   3.996   2.053
 8081TIP3    H224208   2.039   4.043   2.011
 8082TIP3   OH224209   1.470   3.131   2.118
 8082TIP3    H124210   1.375   3.129   2.131
 8082TIP3    H224211   1.482   3.192   2.045
 8083TIP3   OH224212   5.437   5.386   5.539
 8083TIP3    H124213   5.408   5.474   5.518
 8083TIP3    H224214   5.482   5.395   5.624
 8084TIP3   OH224215   0.632   1.853   4.188
 8084TIP3    H124216   0.726   1.836   4.185
 8084TIP3    H224217   0.621   1.939   4.150
 8085TIP3   OH224218   0.010   5.835   0.735
 8085TIP3    H124219   0.027   5.746   0.702
 8085TIP3    H224220   0.095   5.879   0.730
 8086TIP3   OH224221   6.184   6.199   4.202
 8086TIP3    H124222   6.213   6.152   4.124
 8086TIP3    H224223   6.098   6.162   4.223
 8087TIP3   OH224224   0.694   4.624   5.852
 8087TIP3    H124225   0.611   4.588   5.821
 8087TIP3    H224226   0.734   4.552   5.901
 8088TIP3   OH224227   6.996   3.236   2.606
 8088TIP3    H124228   7.015   3.224   2.513
 8088TIP3    H224229   7.010   3.329   2.622
 8089TIP3   OH224230   0.971   0.052   4.772
 8089TIP3    H124231   0.946   0.142   4.751
 8089TIP3    H224232   1.042   0.061   4.837
 8090TIP3   OH224233   4.172   0.828   3.993
 8090TIP3    H124234   4.155   0.861   4.081
 8090TIP3    H224235   4.259   0.789   3.999
 8091TIP3   OH224236   2.013   2.723   0.976
 8091TIP3    H124237   2.030   2.647   1.030
 8091TIP3    H224238   2.093   2.735   0.924
 8092TIP3   OH224239   2.479   4.755   4.644
 8092TIP3    H124240   2.466   4.709   4.727
 8092TIP3    H224241   2.402   4.731   4.591
 8093TIP3   OH224242   1.778   4.655   5.782
 8093TIP3    H124243   1.772   4.610   5.866
 8093TIP3    H224244   1.836   4.600   5.729
 8094TIP3   OH224245   6.077   1.670   0.559
 8094TIP3    H124246   6.037   1.702   0.640
 8094TIP3    H224247   6.008   1.620   0.516
 8095TIP3   OH224248   6.898   5.475   0.509
 8095TIP3    H124249   6.956   5.411   0.468
 8095TIP3    H224250   6.868   5.432   0.589
 8096TIP3   OH224251   2.395   0.428   5.520
 8096TIP3    H124252   2.324   0.415   5.457
 8096TIP3    H224253   2.454   0.354   5.505
 8097TIP3   OH224254   5.874   2.500   4.749
 8097TIP3    H124255   5.815   2.542   4.812
 8097TIP3    H224256   5.876   2.561   4.675
 8098TIP3   OH224257   0.735   0.918   0.642
 8098TIP3    H124258   0.717   1.010   0.657
 8098TIP3    H224259   0.649   0.875   0.648
 8099TIP3   OH224260   5.992   1.800   5.191
 8099TIP3    H124261   5.983   1.734   5.122
 8099TIP3    H224262   5.949   1.761   5.267
 8100TIP3   OH224263   1.965   2.364   0.878
 8100TIP3    H124264   1.929   2.444   0.839
 8100TIP3    H224265   1.992   2.391   0.966
 8101TIP3   OH224266   4.652   5.468   5.859
 8101TIP3    H124267   4.682   5.377   5.864
 8101TIP3    H224268   4.559   5.462   5.834
 8102TIP3   OH224269   4.266   2.934   2.030
 8102TIP3    H124270   4.262   2.840   2.012
 8102TIP3    H224271   4.223   2.975   1.955
 8103TIP3   OH224272   5.869   0.668   2.781
 8103TIP3    H124273   5.949   0.711   2.750
 8103TIP3    H224274   5.900   0.600   2.841
 8104TIP3   OH224275   4.877   4.349   2.090
 8104TIP3    H124276   4.871   4.379   2.181
 8104TIP3    H224277   4.787   4.355   2.057
 8105TIP3   OH224278   2.644   2.297   3.756
 8105TIP3    H124279   2.700   2.286   3.679
 8105TIP3    H224280   2.584   2.368   3.732
 8106TIP3   OH224281   1.441   6.745   5.521
 8106TIP3    H124282   1.432   6.836   5.551
 8106TIP3    H224283   1.534   6.727   5.529
 8107TIP3   OH224284   2.790   6.416   0.508
 8107TIP3    H124285   2.697   6.395   0.508
 8107TIP3    H224286   2.798   6.491   0.450
 8108TIP3   OH224287   1.115   0.802   0.365
 8108TIP3    H124288   1.151   0.782   0.279
 8108TIP3    H224289   1.084   0.717   0.398
 8109TIP3   OH224290   6.014   5.751   0.692
 8109TIP3    H124291   6.035   5.768   0.600
 8109TIP3    H224292   6.096   5.766   0.738
 8110TIP3   OH224293   2.885   4.168   5.753
 8110TIP3    H124294   2.800   4.176   5.708
 8110TIP3    H224295   2.929   4.096   5.708
 8111TIP3   OH224296   3.501   1.107   1.456
 8111TIP3    H124297   3.424   1.101   1.399
 8111TIP3    H224298   3.499   1.027   1.508
 8112TIP3   OH224299   3.844   0.729   2.515
 8112TIP3    H124300   3.817   0.663   2.579
 8112TIP3    H224301   3.938   0.714   2.503
 8113TIP3   OH224302   0.810   4.794   2.989
 8113TIP3    H124303   0.741   4.791   3.055
 8113TIP3    H224304   0.837   4.703   2.978
 8114TIP3   OH224305   1.756   2.828   0.555
 8114TIP3    H124306   1.701   2.878   0.615
 8114TIP3    H224307   1.768   2.886   0.479
 8115TIP3   OH224308   6.628   0.230   5.833
 8115TIP3    H124309   6.601   0.145   5.798
 8115TIP3    H224310   6.550   0.261   5.879
 8116TIP3   OH224311   2.497   3.447   1.501
 8116TIP3    H124312   2.561   3.459   1.431
 8116TIP3    H224313   2.486   3.352   1.507
 8117TIP3   OH224314   2.921   0.577   5.480
 8117TIP3    H124315   3.002   0.557   5.433
 8117TIP3    H224316   2.936   0.546   5.569
 8118TIP3   OH224317   7.047   3.830   1.920
 8118TIP3    H124318   7.018   3.919   1.899
 8118TIP3    H224319   7.043   3.783   1.837
 8119TIP3   OH224320   5.632   4.924   0.129
 8119TIP3    H124321   5.667   4.961   0.209
 8119TIP3    H224322   5.634   4.829   0.144
 8120TIP3   OH224323   1.927   5.637   4.923
 8120TIP3    H124324   1.832   5.625   4.931
 8120TIP3    H224325   1.944   5.635   4.829
 8121TIP3   OH224326   1.233   1.392   0.899
 8121TIP3    H124327   1.176   1.316   0.904
 8121TIP3    H224328   1.283   1.378   0.818
 8122TIP3   OH224329   5.012   2.658   1.417
 8122TIP3    H124330   4.974   2.673   1.503
 8122TIP3    H224331   4.991   2.567   1.396
 8123TIP3   OH224332   0.721   6.556   2.205
 8123TIP3    H124333   0.762   6.563   2.292
 8123TIP3    H224334   0.718   6.647   2.174
 8124TIP3   OH224335   5.016   5.484   0.915
 8124TIP3    H124336   5.016   5.567   0.962
 8124TIP3    H224337   4.932   5.444   0.937
 8125TIP3   OH224338   6.300   1.082   3.919
 8125TIP3    H124339   6.381   1.055   3.963
 8125TIP3    H224340   6.255   1.136   3.984
 8126TIP3   OH224341   0.127   4.015   3.765
 8126TIP3    H124342   0.163   3.972   3.688
 8126TIP3    H224343   0.048   3.965   3.785
 8127TIP3   OH224344   3.211   3.285   2.509
 8127TIP3    H124345   3.148   3.286   2.436
 8127TIP3    H224346   3.164   3.243   2.581
 8128TIP3   OH224347   4.714   4.097   2.338
 8128TIP3    H124348   4.783   4.140   2.389
 8128TIP3    H224349   4.648   4.074   2.402
 8129TIP3   OH224350   1.560   2.324   3.623
 8129TIP3    H124351   1.479   2.281   3.651
 8129TIP3    H224352   1.551   2.332   3.528
 8130TIP3   OH224353   2.090   2.360   2.231
 8130TIP3    H124354   2.043   2.295   2.283
 8130TIP3    H224355   2.071   2.336   2.140
 8131TIP3   OH224356   6.139   4.348   3.946
 8131TIP3    H124357   6.106   4.268   3.906
 8131TIP3    H224358   6.061   4.397   3.971
 8132TIP3   OH224359   1.568   4.665   3.223
 8132TIP3    H124360   1.649   4.650   3.174
 8132TIP3    H224361   1.593   4.727   3.292
 8133TIP3   OH224362   4.852   1.792   4.999
 8133TIP3    H124363   4.818   1.703   5.002
 8133TIP3    H224364   4.800   1.841   5.063
 8134TIP3   OH224365   5.712   4.959   3.217
 8134TIP3    H124366   5.742   4.871   3.240
 8134TIP3    H224367   5.617   4.954   3.221
 8135TIP3   OH224368   0.143   1.959   2.261
 8135TIP3    H124369   0.203   2.015   2.311
 8135TIP3    H224370   0.086   1.919   2.326
 8136TIP3   OH224371   2.695   1.241   0.273
 8136TIP3    H124372   2.671   1.333   0.261
 8136TIP3    H224373   2.639   1.193   0.212
 8137TIP3   OH224374   1.285   5.232   5.871
 8137TIP3    H124375   1.268   5.327   5.867
 8137TIP3    H224376   1.265   5.200   5.784
 8138TIP3   OH224377   5.644   6.325   2.922
 8138TIP3    H124378   5.740   6.323   2.917
 8138TIP3    H224379   5.626   6.364   3.008
 8139TIP3   OH224380   4.507   0.225   1.629
 8139TIP3    H124381   4.544   0.160   1.689
 8139TIP3    H224382   4.491   0.176   1.548
 8140TIP3   OH224383   2.473   3.211   4.117
 8140TIP3    H124384   2.403   3.160   4.076
 8140TIP3    H224385   2.552   3.187   4.069
 8141TIP3   OH224386   2.521   0.817   2.746
 8141TIP3    H124387   2.549   0.733   2.710
 8141TIP3    H224388   2.452   0.847   2.686
 8142TIP3   OH224389   1.788   0.302   1.629
 8142TIP3    H124390   1.768   0.227   1.574
 8142TIP3    H224391   1.706   0.352   1.631
 8143TIP3   OH224392   0.199   5.854   2.375
 8143TIP3    H124393   0.249   5.904   2.441
 8143TIP3    H224394   0.110   5.851   2.410
 8144TIP3   OH224395   2.667   0.938   1.205
 8144TIP3    H124396   2.622   0.980   1.279
 8144TIP3    H224397   2.760   0.951   1.223
 8145TIP3   OH224398   4.443   5.849   5.088
 8145TIP3    H124399   4.382   5.796   5.140
 8145TIP3    H224400   4.456   5.928   5.141
 8146TIP3   OH224401   2.640   1.445   1.640
 8146TIP3    H124402   2.569   1.489   1.595
 8146TIP3    H224403   2.686   1.514   1.688
 8147TIP3   OH224404   2.204   0.072   0.314
 8147TIP3    H124405   2.239   0.063   0.402
 8147TIP3    H224406   2.119   0.113   0.326
 8148TIP3   OH224407   6.432   6.479   4.105
 8148TIP3    H124408   6.458   6.526   4.026
 8148TIP3    H224409   6.509   6.427   4.129
 8149TIP3   OH224410   4.800   2.691   4.353
 8149TIP3    H124411   4.748   2.720   4.428
 8149TIP3    H224412   4.847   2.770   4.326
 8150TIP3   OH224413   2.056   5.576   2.042
 8150TIP3    H124414   2.011   5.644   1.993
 8150TIP3    H224415   2.149   5.592   2.027
 8151TIP3   OH224416   2.986   4.535   2.249
 8151TIP3    H124417   3.080   4.517   2.241
 8151TIP3    H224418   2.980   4.597   2.322
 8152TIP3   OH224419   5.905   5.066   4.534
 8152TIP3    H124420   5.881   4.978   4.565
 8152TIP3    H224421   5.865   5.125   4.598
 8153TIP3   OH224422   3.488   2.869   4.083
 8153TIP3    H124423   3.394   2.868   4.066
 8153TIP3    H224424   3.499   2.933   4.153
 8154TIP3   OH224425   4.445   0.760   4.959
 8154TIP3    H124426   4.525   0.812   4.947
 8154TIP3    H224427   4.419   0.776   5.049
 8155TIP3   OH224428   3.835   3.848   2.472
 8155TIP3    H124429   3.786   3.770   2.448
 8155TIP3    H224430   3.918   3.816   2.506
 8156TIP3   OH224431   1.519   0.683   0.588
 8156TIP3    H124432   1.609   0.679   0.555
 8156TIP3    H224433   1.508   0.775   0.614
 8157TIP3   OH224434   3.080   2.915   1.287
 8157TIP3    H124435   2.986   2.934   1.286
 8157TIP3    H224436   3.120   2.988   1.241
 8158TIP3   OH224437   2.744   0.983   2.613
 8158TIP3    H124438   2.825   1.034   2.623
 8158TIP3    H224439   2.703   1.019   2.535
 8159TIP3   OH224440   1.706   0.790   4.142
 8159TIP3    H124441   1.646   0.810   4.069
 8159TIP3    H224442   1.712   0.695   4.143
 8160TIP3   OH224443   1.903   4.481   3.810
 8160TIP3    H124444   1.910   4.469   3.715
 8160TIP3    H224445   1.951   4.407   3.847
 8161TIP3   OH224446   6.419   5.595   3.772
 8161TIP3    H124447   6.513   5.589   3.755
 8161TIP3    H224448   6.408   5.558   3.860
 8162TIP3   OH224449   4.280   3.196   1.179
 8162TIP3    H124450   4.353   3.235   1.131
 8162TIP3    H224451   4.300   3.102   1.182
 8163TIP3   OH224452   1.794   5.422   2.383
 8163TIP3    H124453   1.732   5.461   2.321
 8163TIP3    H224454   1.852   5.369   2.328
 8164TIP3   OH224455   5.904   1.071   2.053
 8164TIP3    H124456   5.959   1.115   2.118
 8164TIP3    H224457   5.964   1.050   1.982
 8165TIP3   OH224458   5.808   1.006   4.801
 8165TIP3    H124459   5.879   1.063   4.772
 8165TIP3    H224460   5.814   0.929   4.745
 8166TIP3   OH224461   4.492   0.998   2.778
 8166TIP3    H124462   4.512   0.911   2.745
 8166TIP3    H224463   4.500   0.989   2.873
 8167TIP3   OH224464   4.549   6.537   2.838
 8167TIP3    H124465   4.606   6.506   2.908
 8167TIP3    H224466   4.589   6.505   2.758
 8168TIP3   OH224467   2.783   6.585   0.284
 8168TIP3    H124468   2.698   6.557   0.248
 8168TIP3    H224469   2.840   6.592   0.208
 8169TIP3   OH224470   2.742   1.777   0.809
 8169TIP3    H124471   2.757   1.717   0.882
 8169TIP3    H224472   2.682   1.843   0.843
 8170TIP3   OH224473   1.565   3.475   4.930
 8170TIP3    H124474   1.490   3.440   4.979
 8170TIP3    H224475   1.596   3.401   4.877
 8171TIP3   OH224476   7.075   3.891   4.842
 8171TIP3    H124477   7.046   3.919   4.929
 8171TIP3    H224478   7.120   3.808   4.858
 8172TIP3   OH224479   7.020   5.558   3.684
 8172TIP3    H124480   7.006   5.635   3.629
 8172TIP3    H224481   7.107   5.573   3.723
 8173TIP3   OH224482   1.892   5.759   1.935
 8173TIP3    H124483   1.869   5.716   1.853
 8173TIP3    H224484   1.813   5.754   1.988
 8174TIP3   OH224485   3.438   2.964   5.379
 8174TIP3    H124486   3.509   2.900   5.382
 8174TIP3    H224487   3.370   2.922   5.326
 8175TIP3   OH224488   5.469   4.337   0.636
 8175TIP3    H124489   5.415   4.308   0.562
 8175TIP3    H224490   5.421   4.410   0.674
 8176TIP3   OH224491   5.497   5.350   3.665
 8176TIP3    H124492   5.504   5.301   3.584
 8176TIP3    H224493   5.482   5.283   3.732
 8177TIP3   OH224494   0.190   4.971   4.736
 8177TIP3    H124495   0.167   4.908   4.668
 8177TIP3    H224496   0.264   4.931   4.781
 8178TIP3   OH224497   2.338   3.955   4.093
 8178TIP3    H124498   2.400   3.888   4.122
 8178TIP3    H224499   2.258   3.938   4.144
 8179TIP3   OH224500   1.777   6.441   4.800
 8179TIP3    H124501   1.855   6.455   4.853
 8179TIP3    H224502   1.705   6.439   4.863
 8180TIP3   OH224503   4.112   6.226   2.478
 8180TIP3    H124504   4.064   6.153   2.517
 8180TIP3    H224505   4.093   6.301   2.535
 8181TIP3   OH224506   5.066   5.905   4.480
 8181TIP3    H124507   5.112   5.981   4.443
 8181TIP3    H224508   5.114   5.885   4.560
 8182TIP3   OH224509   1.022   4.543   4.088
 8182TIP3    H124510   0.969   4.531   4.009
 8182TIP3    H224511   1.112   4.532   4.057
 8183TIP3   OH224512   4.493   2.545   5.520
 8183TIP3    H124513   4.525   2.468   5.567
 8183TIP3    H224514   4.427   2.511   5.460
 8184TIP3   OH224515   4.700   5.968   3.692
 8184TIP3    H124516   4.669   6.047   3.736
 8184TIP3    H224517   4.763   5.929   3.753
 8185TIP3   OH224518   1.642   5.589  -0.005
 8185TIP3    H124519   1.583   5.664  -0.002
 8185TIP3    H224520   1.724   5.621   0.033
 8186TIP3   OH224521   6.345   3.792   4.715
 8186TIP3    H124522   6.423   3.743   4.742
 8186TIP3    H224523   6.372   3.836   4.634
 8187TIP3   OH224524   1.990   5.583   3.241
 8187TIP3    H124525   1.991   5.503   3.294
 8187TIP3    H224526   2.049   5.643   3.287
 8188TIP3   OH224527   0.429   4.027   0.333
 8188TIP3    H124528   0.347   4.056   0.294
 8188TIP3    H224529   0.443   3.939   0.297
 8189TIP3   OH224530   2.574   1.594   0.633
 8189TIP3    H124531   2.629   1.629   0.703
 8189TIP3    H224532   2.494   1.565   0.677
 8190TIP3   OH224533   4.263   5.918   1.840
 8190TIP3    H124534   4.266   5.893   1.748
 8190TIP3    H224535   4.170   5.908   1.864
 8191TIP3   OH224536   6.596   4.234   3.786
 8191TIP3    H124537   6.561   4.311   3.741
 8191TIP3    H224538   6.522   4.201   3.837
 8192TIP3   OH224539   2.250   6.137   0.183
 8192TIP3    H124540   2.304   6.061   0.159
 8192TIP3    H224541   2.193   6.105   0.253
 8193TIP3   OH224542   3.356   1.369   1.448
 8193TIP3    H124543   3.425   1.305   1.462
 8193TIP3    H224544   3.277   1.327   1.481
 8194TIP3   OH224545   5.344   3.249   2.160
 8194TIP3    H124546   5.328   3.327   2.213
 8194TIP3    H224547   5.265   3.196   2.172
 8195TIP3   OH224548   0.878   6.384   1.213
 8195TIP3    H124549   0.956   6.432   1.186
 8195TIP3    H224550   0.905   6.339   1.293
 8196TIP3   OH224551   4.168   2.540   5.607
 8196TIP3    H124552   4.237   2.516   5.669
 8196TIP3    H224553   4.197   2.502   5.523
 8197TIP3   OH224554   0.362   1.647   0.579
 8197TIP3    H124555   0.410   1.645   0.662
 8197TIP3    H224556   0.320   1.561   0.575
 8198TIP3   OH224557   1.033   3.141   4.209
 8198TIP3    H124558   1.001   3.132   4.120
 8198TIP3    H224559   1.013   3.057   4.250
 8199TIP3   OH224560   6.508   2.308   4.437
 8199TIP3    H124561   6.446   2.381   4.448
 8199TIP3    H224562   6.565   2.313   4.514
 8200TIP3   OH224563   6.024   0.159   1.117
 8200TIP3    H124564   6.012   0.143   1.024
 8200TIP3    H224565   6.117   0.144   1.132
 8201TIP3   OH224566   1.793   0.948   0.956
 8201TIP3    H124567   1.750   0.945   0.870
 8201TIP3    H224568   1.723   0.927   1.018
 8202TIP3   OH224569   1.328   5.947   4.285
 8202TIP3    H124570   1.408   5.950   4.337
 8202TIP3    H224571   1.303   6.039   4.276
 8203TIP3   OH224572   2.235   6.463   5.883
 8203TIP3    H124573   2.302   6.455   5.815
 8203TIP3    H224574   2.213   6.373   5.906
 8204TIP3   OH224575   3.687   0.302   3.503
 8204TIP3    H124576   3.729   0.228   3.459
 8204TIP3    H224577   3.734   0.379   3.471
 8205TIP3   OH224578   5.309   4.155   5.374
 8205TIP3    H124579   5.376   4.201   5.426
 8205TIP3    H224580   5.269   4.223   5.320
 8206TIP3   OH224581   4.517   2.537   2.485
 8206TIP3    H124582   4.591   2.556   2.542
 8206TIP3    H224583   4.521   2.604   2.417
 8207TIP3   OH224584   4.109   3.447   5.699
 8207TIP3    H124585   4.188   3.411   5.658
 8207TIP3    H224586   4.134   3.458   5.791
 8208TIP3   OH224587   5.132   5.384   3.923
 8208TIP3    H124588   5.108   5.421   3.838
 8208TIP3    H224589   5.067   5.315   3.938
 8209TIP3   OH224590   5.577   4.685   4.171
 8209TIP3    H124591   5.493   4.722   4.198
 8209TIP3    H224592   5.555   4.596   4.141
 8210TIP3   OH224593   1.570   0.066   1.196
 8210TIP3    H124594   1.641   0.004   1.177
 8210TIP3    H224595   1.609   0.152   1.184
 8211TIP3   OH224596   5.133   6.620   3.345
 8211TIP3    H124597   5.138   6.695   3.286
 8211TIP3    H224598   5.205   6.634   3.408
 8212TIP3   OH224599   0.989   3.806   4.447
 8212TIP3    H124600   0.937   3.881   4.418
 8212TIP3    H224601   0.992   3.748   4.370
 8213TIP3   OH224602   5.620   1.920   0.860
 8213TIP3    H124603   5.711   1.951   0.851
 8213TIP3    H224604   5.571   1.999   0.885
 8214TIP3   OH224605   1.106   4.660   3.710
 8214TIP3    H124606   1.017   4.687   3.686
 8214TIP3    H224607   1.105   4.654   3.805
 8215TIP3   OH224608   6.068   3.185   1.494
 8215TIP3    H124609   6.058   3.213   1.403
 8215TIP3    H224610   5.994   3.127   1.510
 8216TIP3   OH224611   4.889   6.070   0.951
 8216TIP3    H124612   4.849   6.156   0.963
 8216TIP3    H224613   4.834   6.011   1.003
 8217TIP3   OH224614   2.133   1.104   2.214
 8217TIP3    H124615   2.151   1.020   2.258
 8217TIP3    H224616   2.211   1.121   2.161
 8218TIP3   OH224617   4.797   1.882   0.335
 8218TIP3    H124618   4.751   1.839   0.263
 8218TIP3    H224619   4.728   1.907   0.397
 8219TIP3   OH224620   2.956   6.041   3.529
 8219TIP3    H124621   2.895   6.027   3.601
 8219TIP3    H224622   2.975   5.953   3.496
 8220TIP3   OH224623   0.113   3.549   2.265
 8220TIP3    H124624   0.207   3.542   2.249
 8220TIP3    H224625   0.090   3.637   2.237
 8221TIP3   OH224626   2.190   3.057   3.576
 8221TIP3    H124627   2.155   2.968   3.569
 8221TIP3    H224628   2.269   3.047   3.630
 8222TIP3   OH224629   0.687   1.217   5.547
 8222TIP3    H124630   0.613   1.203   5.606
 8222TIP3    H224631   0.710   1.129   5.516
 8223TIP3   OH224632   6.544   2.916   0.475
 8223TIP3    H124633   6.502   2.970   0.408
 8223TIP3    H224634   6.615   2.971   0.509
 8224TIP3   OH224635   5.633   1.951   2.962
 8224TIP3    H124636   5.658   1.945   3.054
 8224TIP3    H224637   5.700   1.902   2.915
 8225TIP3   OH224638   2.352   0.832   3.593
 8225TIP3    H124639   2.286   0.875   3.648
 8225TIP3    H224640   2.430   0.888   3.601
 8226TIP3   OH224641   2.944   5.713   5.021
 8226TIP3    H124642   2.931   5.646   5.088
 8226TIP3    H224643   2.908   5.675   4.941
 8227TIP3   OH224644   2.972   0.408   1.065
 8227TIP3    H124645   3.042   0.467   1.092
 8227TIP3    H224646   2.891   0.454   1.085
 8228TIP3   OH224647   3.159   5.306   4.017
 8228TIP3    H124648   3.175   5.302   3.923
 8228TIP3    H224649   3.095   5.236   4.034
 8229TIP3   OH224650   1.694   0.985   2.092
 8229TIP3    H124651   1.787   0.975   2.074
 8229TIP3    H224652   1.664   1.048   2.027
 8230TIP3   OH224653   6.371   2.330   0.312
 8230TIP3    H124654   6.414   2.246   0.324
 8230TIP3    H224655   6.398   2.359   0.225
 8231TIP3   OH224656   2.745   2.010   1.036
 8231TIP3    H124657   2.803   1.935   1.047
 8231TIP3    H224658   2.689   2.008   1.114
 8232TIP3   OH224659   3.778   5.842   1.226
 8232TIP3    H124660   3.856   5.823   1.173
 8232TIP3    H224661   3.725   5.900   1.171
 8233TIP3   OH224662   1.382   5.326   1.703
 8233TIP3    H124663   1.407   5.342   1.794
 8233TIP3    H224664   1.373   5.231   1.697
 8234TIP3   OH224665   7.011   4.773   4.383
 8234TIP3    H124666   7.080   4.706   4.378
 8234TIP3    H224667   6.932   4.724   4.407
 8235TIP3   OH224668   4.829   0.321   4.743
 8235TIP3    H124669   4.832   0.330   4.647
 8235TIP3    H224670   4.896   0.383   4.774
 8236TIP3   OH224671   1.226   2.921   5.637
 8236TIP3    H124672   1.144   2.922   5.587
 8236TIP3    H224673   1.293   2.900   5.571
 8237TIP3   OH224674   4.798   2.266   1.423
 8237TIP3    H124675   4.738   2.194   1.444
 8237TIP3    H224676   4.831   2.296   1.508
 8238TIP3   OH224677   3.925   0.554   5.766
 8238TIP3    H124678   3.867   0.624   5.736
 8238TIP3    H224679   3.980   0.533   5.690
 8239TIP3   OH224680   4.456   3.778   3.225
 8239TIP3    H124681   4.377   3.747   3.180
 8239TIP3    H224682   4.429   3.862   3.264
 8240TIP3   OH224683   6.782   4.068   4.299
 8240TIP3    H124684   6.850   4.095   4.361
 8240TIP3    H224685   6.757   4.149   4.254
 8241TIP3   OH224686   4.654   4.799   2.715
 8241TIP3    H124687   4.654   4.741   2.792
 8241TIP3    H224688   4.575   4.851   2.725
 8242TIP3   OH224689   4.449   5.517   4.186
 8242TIP3    H124690   4.441   5.598   4.136
 8242TIP3    H224691   4.360   5.498   4.216
 8243TIP3   OH224692   3.528   1.045   0.921
 8243TIP3    H124693   3.576   1.107   0.866
 8243TIP3    H224694   3.472   0.997   0.860
 8244TIP3   OH224695   3.073   0.660   2.561
 8244TIP3    H124696   3.066   0.564   2.554
 8244TIP3    H224697   2.985   0.689   2.585
 8245TIP3   OH224698   4.005   1.904   2.674
 8245TIP3    H124699   4.050   1.932   2.594
 8245TIP3    H224700   3.971   1.817   2.652
 8246TIP3   OH224701   2.263   4.823   1.532
 8246TIP3    H124702   2.261   4.739   1.487
 8246TIP3    H224703   2.206   4.811   1.608
 8247TIP3   OH224704   6.480   3.710   1.098
 8247TIP3    H124705   6.411   3.739   1.038
 8247TIP3    H224706   6.512   3.791   1.137
 8248TIP3   OH224707   2.756   3.018   2.092
 8248TIP3    H124708   2.737   3.019   2.186
 8248TIP3    H224709   2.781   3.108   2.072
 8249TIP3   OH224710   4.524   1.120   5.127
 8249TIP3    H124711   4.540   1.067   5.048
 8249TIP3    H224712   4.611   1.139   5.160
 8250TIP3   OH224713   4.239   3.428   3.246
 8250TIP3    H124714   4.308   3.421   3.312
 8250TIP3    H224715   4.205   3.339   3.238
 8251TIP3   OH224716   4.777   5.334   2.573
 8251TIP3    H124717   4.725   5.255   2.586
 8251TIP3    H224718   4.818   5.350   2.658
 8252TIP3   OH224719   6.610   2.485   1.742
 8252TIP3    H124720   6.607   2.569   1.787
 8252TIP3    H224721   6.641   2.505   1.654
 8253TIP3   OH224722   7.123   6.331   1.639
 8253TIP3    H124723   7.054   6.390   1.608
 8253TIP3    H224724   7.192   6.341   1.573
 8254TIP3   OH224725   0.129   3.367   4.226
 8254TIP3    H124726   0.060   3.345   4.289
 8254TIP3    H224727   0.208   3.374   4.279
 8255TIP3   OH224728   4.863   2.307   4.503
 8255TIP3    H124729   4.874   2.374   4.435
 8255TIP3    H224730   4.816   2.351   4.574
 8256TIP3   OH224731   4.422   6.547   2.187
 8256TIP3    H124732   4.468   6.613   2.240
 8256TIP3    H224733   4.357   6.597   2.138
 8257TIP3   OH224734   2.802   1.564   3.145
 8257TIP3    H124735   2.832   1.575   3.236
 8257TIP3    H224736   2.874   1.518   3.102
 8258TIP3   OH224737   3.600   1.980   1.633
 8258TIP3    H124738   3.638   2.057   1.589
 8258TIP3    H224739   3.600   1.912   1.566
 8259TIP3   OH224740   4.558   4.038   3.519
 8259TIP3    H124741   4.590   4.126   3.536
 8259TIP3    H224742   4.636   3.989   3.492
 8260TIP3   OH224743   1.578   0.461   0.765
 8260TIP3    H124744   1.578   0.538   0.708
 8260TIP3    H224745   1.545   0.390   0.709
 8261TIP3   OH224746   4.666   4.936   0.245
 8261TIP3    H124747   4.745   4.987   0.266
 8261TIP3    H224748   4.641   4.967   0.158
 8262TIP3   OH224749   5.099   1.386   1.412
 8262TIP3    H124750   5.148   1.373   1.493
 8262TIP3    H224751   5.165   1.415   1.349
 8263TIP3   OH224752   6.214   3.821   1.008
 8263TIP3    H124753   6.121   3.840   1.013
 8263TIP3    H224754   6.255   3.906   0.990
 8264TIP3   OH224755   2.722   4.316   4.486
 8264TIP3    H124756   2.637   4.358   4.474
 8264TIP3    H224757   2.755   4.303   4.397
 8265TIP3   OH224758   0.298   2.398   2.213
 8265TIP3    H124759   0.294   2.420   2.120
 8265TIP3    H224760   0.208   2.411   2.245
 8266TIP3   OH224761   0.008   6.231   2.078
 8266TIP3    H124762   0.047   6.316   2.099
 8266TIP3    H224763   0.081   6.169   2.086
 8267TIP3   OH224764   0.615   4.644   4.129
 8267TIP3    H124765   0.693   4.636   4.184
 8267TIP3    H224766   0.621   4.732   4.091
 8268TIP3   OH224767   2.884   1.262   1.232
 8268TIP3    H124768   2.796   1.227   1.218
 8268TIP3    H224769   2.872   1.355   1.247
 8269TIP3   OH224770   2.518   4.833   1.653
 8269TIP3    H124771   2.530   4.909   1.711
 8269TIP3    H224772   2.437   4.851   1.605
 8270TIP3   OH224773   3.623   6.303   4.205
 8270TIP3    H124774   3.633   6.209   4.191
 8270TIP3    H224775   3.685   6.324   4.275
 8271TIP3   OH224776   0.531   0.604   2.104
 8271TIP3    H124777   0.500   0.550   2.032
 8271TIP3    H224778   0.624   0.617   2.087
 8272TIP3   OH224779   2.491   0.853   4.005
 8272TIP3    H124780   2.406   0.897   4.004
 8272TIP3    H224781   2.541   0.896   4.074
 8273TIP3   OH224782   5.233   4.660   1.406
 8273TIP3    H124783   5.269   4.749   1.400
 8273TIP3    H224784   5.138   4.673   1.400
 8274TIP3   OH224785   4.986   6.503   1.458
 8274TIP3    H124786   4.913   6.449   1.489
 8274TIP3    H224787   4.964   6.522   1.367
 8275TIP3   OH224788   5.543   0.627   4.946
 8275TIP3    H124789   5.590   0.674   5.014
 8275TIP3    H224790   5.609   0.605   4.881
 8276TIP3   OH224791   1.984   4.215   0.728
 8276TIP3    H124792   1.945   4.295   0.764
 8276TIP3    H224793   1.989   4.231   0.634
 8277TIP3   OH224794   4.062   4.233   5.755
 8277TIP3    H124795   4.083   4.147   5.793
 8277TIP3    H224796   4.003   4.274   5.819
 8278TIP3   OH224797   1.594   0.334   2.494
 8278TIP3    H124798   1.613   0.280   2.417
 8278TIP3    H224799   1.642   0.292   2.565
 8279TIP3   OH224800   0.757   3.315   2.332
 8279TIP3    H124801   0.770   3.222   2.314
 8279TIP3    H224802   0.721   3.350   2.251
 8280TIP3   OH224803   3.733   4.097   5.487
 8280TIP3    H124804   3.731   4.013   5.442
 8280TIP3    H224805   3.696   4.159   5.425
 8281TIP3   OH224806   1.966   0.530   4.270
 8281TIP3    H124807   1.989   0.610   4.222
 8281TIP3    H224808   1.873   0.519   4.253
 8282TIP3   OH224809   0.167   1.731   3.676
 8282TIP3    H124810   0.150   1.752   3.768
 8282TIP3    H224811   0.203   1.811   3.639
 8283TIP3   OH224812   5.128   3.444   3.284
 8283TIP3    H124813   5.048   3.482   3.248
 8283TIP3    H224814   5.120   3.350   3.267
 8284TIP3   OH224815   3.189   3.786   5.598
 8284TIP3    H124816   3.184   3.702   5.643
 8284TIP3    H224817   3.109   3.790   5.546
 8285TIP3   OH224818   3.838   0.710   2.136
 8285TIP3    H124819   3.897   0.785   2.136
 8285TIP3    H224820   3.762   0.740   2.085
 8286TIP3   OH224821   6.209   6.583   4.431
 8286TIP3    H124822   6.140   6.567   4.496
 8286TIP3    H224823   6.265   6.506   4.436
 8287TIP3   OH224824   2.184   5.114   5.005
 8287TIP3    H124825   2.183   5.197   5.052
 8287TIP3    H224826   2.258   5.066   5.042
 8288TIP3   OH224827   3.409   0.453   2.011
 8288TIP3    H124828   3.408   0.371   1.961
 8288TIP3    H224829   3.447   0.429   2.096
 8289TIP3   OH224830   2.388   4.667   5.406
 8289TIP3    H124831   2.414   4.757   5.426
 8289TIP3    H224832   2.435   4.614   5.469
 8290TIP3   OH224833   2.338   0.772   4.877
 8290TIP3    H124834   2.393   0.786   4.954
 8290TIP3    H224835   2.361   0.685   4.846
 8291TIP3   OH224836   1.921   3.892   2.814
 8291TIP3    H124837   1.869   3.832   2.868
 8291TIP3    H224838   2.011   3.860   2.824
 8292TIP3   OH224839   3.548   2.985   0.658
 8292TIP3    H124840   3.556   3.057   0.595
 8292TIP3    H224841   3.630   2.936   0.648
 8293TIP3   OH224842   2.431   1.002   2.263
 8293TIP3    H124843   2.445   1.061   2.189
 8293TIP3    H224844   2.354   0.950   2.238
 8294TIP3   OH224845   4.842   3.979   0.034
 8294TIP3    H124846   4.838   3.949   0.125
 8294TIP3    H224847   4.859   4.073   0.041
 8295TIP3   OH224848   0.887   2.198   0.092
 8295TIP3    H124849   0.919   2.226   0.178
 8295TIP3    H224850   0.964   2.197   0.036
 8296TIP3   OH224851   5.867   3.820   4.995
 8296TIP3    H124852   5.849   3.726   4.996
 8296TIP3    H224853   5.963   3.825   4.998
 8297TIP3   OH224854   3.874   2.144   0.510
 8297TIP3    H124855   3.909   2.069   0.557
 8297TIP3    H224856   3.945   2.172   0.452
 8298TIP3   OH224857   6.875   1.035   1.827
 8298TIP3    H124858   6.855   0.986   1.907
 8298TIP3    H224859   6.933   1.105   1.855
 8299TIP3   OH224860   2.754   6.255   5.797
 8299TIP3    H124861   2.756   6.341   5.841
 8299TIP3    H224862   2.687   6.265   5.729
 8300TIP3   OH224863   3.315   5.959   3.042
 8300TIP3    H124864   3.399   5.979   3.000
 8300TIP3    H224865   3.265   6.040   3.037
 8301TIP3   OH224866   2.009   5.164   3.824
 8301TIP3    H124867   2.102   5.142   3.833
 8301TIP3    H224868   2.009   5.249   3.781
 8302TIP3   OH224869   2.144   5.775   1.549
 8302TIP3    H124870   2.133   5.811   1.637
 8302TIP3    H224871   2.187   5.691   1.563
 8303TIP3   OH224872   6.380   4.665   3.638
 8303TIP3    H124873   6.345   4.754   3.646
 8303TIP3    H224874   6.353   4.621   3.718
 8304TIP3   OH224875   0.648   4.897   4.053
 8304TIP3    H124876   0.609   4.978   4.019
 8304TIP3    H224877   0.719   4.927   4.109
 8305TIP3   OH224878   5.869   0.079   0.412
 8305TIP3    H124879   5.848  -0.013   0.394
 8305TIP3    H224880   5.963   0.079   0.429
 8306TIP3   OH224881   2.804   3.150   5.538
 8306TIP3    H124882   2.715   3.149   5.574
 8306TIP3    H224883   2.822   3.059   5.515
 8307TIP3   OH224884   0.194   0.697   3.908
 8307TIP3    H124885   0.127   0.761   3.881
 8307TIP3    H224886   0.160   0.659   3.989
 8308TIP3   OH224887   3.168   0.142   1.618
 8308TIP3    H124888   3.099   0.086   1.582
 8308TIP3    H224889   3.204   0.188   1.543
 8309TIP3   OH224890   6.352   6.345   4.329
 8309TIP3    H124891   6.317   6.264   4.291
 8309TIP3    H224892   6.383   6.395   4.254
 8310TIP3   OH224893   0.609   6.487   3.941
 8310TIP3    H124894   0.637   6.426   4.008
 8310TIP3    H224895   0.575   6.563   3.989
 8311TIP3   OH224896   2.355   0.687   2.088
 8311TIP3    H124897   2.394   0.669   2.003
 8311TIP3    H224898   2.349   0.601   2.130
 8312TIP3   OH224899   2.035   4.316   1.638
 8312TIP3    H124900   2.054   4.403   1.604
 8312TIP3    H224901   2.019   4.263   1.560
 8313TIP3   OH224902   3.838   3.535   1.099
 8313TIP3    H124903   3.900   3.600   1.067
 8313TIP3    H224904   3.768   3.586   1.139
 8314TIP3   OH224905   6.557   5.225   4.941
 8314TIP3    H124906   6.479   5.281   4.946
 8314TIP3    H224907   6.550   5.182   4.856
 8315TIP3   OH224908   4.479   1.285   4.410
 8315TIP3    H124909   4.533   1.267   4.333
 8315TIP3    H224910   4.538   1.272   4.484
 8316TIP3   OH224911   5.745   0.661   3.573
 8316TIP3    H124912   5.738   0.742   3.523
 8316TIP3    H224913   5.672   0.666   3.635
 8317TIP3   OH224914   6.952   4.830   3.326
 8317TIP3    H124915   6.936   4.785   3.409
 8317TIP3    H224916   6.955   4.923   3.350
 8318TIP3   OH224917   4.099   5.368   2.385
 8318TIP3    H124918   4.035   5.340   2.451
 8318TIP3    H224919   4.178   5.388   2.436
 8319TIP3   OH224920   2.638   0.589   1.940
 8319TIP3    H124921   2.732   0.574   1.950
 8319TIP3    H224922   2.627   0.683   1.956
 8320TIP3   OH224923   0.267   0.233   4.505
 8320TIP3    H124924   0.302   0.144   4.513
 8320TIP3    H224925   0.174   0.224   4.523
 8321TIP3   OH224926   4.160   0.506   3.063
 8321TIP3    H124927   4.077   0.497   3.109
 8321TIP3    H224928   4.182   0.417   3.035
 8322TIP3   OH224929   1.910   4.088   4.266
 8322TIP3    H124930   1.992   4.135   4.277
 8322TIP3    H224931   1.882   4.067   4.355
 8323TIP3   OH224932   3.383   5.440   3.107
 8323TIP3    H124933   3.465   5.400   3.138
 8323TIP3    H224934   3.405   5.531   3.091
 8324TIP3   OH224935   3.006   3.007   3.838
 8324TIP3    H124936   2.928   3.053   3.869
 8324TIP3    H224937   3.020   2.937   3.902
 8325TIP3   OH224938   4.265   2.390   3.931
 8325TIP3    H124939   4.311   2.324   3.983
 8325TIP3    H224940   4.192   2.418   3.986
 8326TIP3   OH224941   6.069   4.495   0.232
 8326TIP3    H124942   6.019   4.490   0.314
 8326TIP3    H224943   6.138   4.559   0.250
 8327TIP3   OH224944   3.356   3.621   3.320
 8327TIP3    H124945   3.446   3.634   3.348
 8327TIP3    H224946   3.359   3.547   3.260
 8328TIP3   OH224947   0.124   0.102   3.444
 8328TIP3    H124948   0.137   0.117   3.351
 8328TIP3    H224949   0.042   0.052   3.449
 8329TIP3   OH224950   4.855   6.708   0.964
 8329TIP3    H124951   4.946   6.727   0.940
 8329TIP3    H224952   4.861   6.643   1.033
 8330TIP3   OH224953   1.175   5.273   4.423
 8330TIP3    H124954   1.196   5.183   4.398
 8330TIP3    H224955   1.199   5.277   4.516
 8331TIP3   OH224956   0.893   5.984   1.281
 8331TIP3    H124957   0.894   5.945   1.368
 8331TIP3    H224958   0.845   5.922   1.226
 8332TIP3   OH224959   2.801   4.646   3.802
 8332TIP3    H124960   2.856   4.710   3.758
 8332TIP3    H224961   2.712   4.681   3.792
 8333TIP3   OH224962   3.117   3.731   0.248
 8333TIP3    H124963   3.040   3.767   0.293
 8333TIP3    H224964   3.133   3.793   0.176
 8334TIP3   OH224965   1.938   4.524   2.114
 8334TIP3    H124966   1.911   4.471   2.040
 8334TIP3    H224967   1.957   4.610   2.077
 8335TIP3   OH224968   0.773   4.641   4.729
 8335TIP3    H124969   0.866   4.666   4.724
 8335TIP3    H224970   0.737   4.694   4.799
 8336TIP3   OH224971   4.631   6.171   3.875
 8336TIP3    H124972   4.703   6.193   3.934
 8336TIP3    H224973   4.620   6.249   3.821
 8337TIP3   OH224974   6.922   2.942   3.052
 8337TIP3    H124975   6.878   2.881   2.993
 8337TIP3    H224976   6.951   2.888   3.125
 8338TIP3   OH224977   5.333   1.829   1.685
 8338TIP3    H124978   5.264   1.788   1.736
 8338TIP3    H224979   5.414   1.791   1.719
 8339TIP3   OH224980   4.498   3.761   3.803
 8339TIP3    H124981   4.488   3.666   3.812
 8339TIP3    H224982   4.583   3.772   3.760
 8340TIP3   OH224983   7.074   0.670   5.547
 8340TIP3    H124984   6.992   0.668   5.497
 8340TIP3    H224985   7.066   0.600   5.611
 8341TIP3   OH224986   2.634   1.520   4.032
 8341TIP3    H124987   2.727   1.545   4.025
 8341TIP3    H224988   2.587   1.592   3.991
 8342TIP3   OH224989   2.596   6.447   0.158
 8342TIP3    H124990   2.538   6.419   0.228
 8342TIP3    H224991   2.569   6.397   0.081
 8343TIP3   OH224992   6.118   5.316   0.874
 8343TIP3    H124993   6.165   5.233   0.867
 8343TIP3    H224994   6.078   5.314   0.961
 8344TIP3   OH224995   5.175   5.862   0.681
 8344TIP3    H124996   5.187   5.949   0.643
 8344TIP3    H224997   5.181   5.877   0.776
 8345TIP3   OH224998   5.597   0.362   0.461
 8345TIP3    H124999   5.657   0.351   0.387
 8345TIP3    H225000   5.633   0.436   0.510
 8346TIP3   OH225001   4.193   6.763   5.196
 8346TIP3    H125002   4.099   6.780   5.185
 8346TIP3    H225003   4.236   6.841   5.163
 8347TIP3   OH225004   6.946   2.454   5.386
 8347TIP3    H125005   6.933   2.360   5.397
 8347TIP3    H225006   6.859   2.489   5.370
 8348TIP3   OH225007   3.473   4.677   2.715
 8348TIP3    H125008   3.560   4.712   2.697
 8348TIP3    H225009   3.458   4.613   2.646
 8349TIP3   OH225010   0.385   3.424   2.710
 8349TIP3    H125011   0.473   3.433   2.745
 8349TIP3    H225012   0.327   3.457   2.779
 8350TIP3   OH225013   6.224   1.561   2.683
 8350TIP3    H125014   6.263   1.534   2.767
 8350TIP3    H225015   6.300   1.582   2.628
 8351TIP3   OH225016   6.582   1.398   2.831
 8351TIP3    H125017   6.617   1.404   2.742
 8351TIP3    H225018   6.640   1.453   2.883
 8352TIP3   OH225019   6.048   0.748   5.378
 8352TIP3    H125020   5.986   0.712   5.314
 8352TIP3    H225021   6.067   0.674   5.437
 8353TIP3   OH225022   2.396   3.081   3.757
 8353TIP3    H125023   2.354   3.094   3.842
 8353TIP3    H225024   2.466   3.146   3.755
 8354TIP3   OH225025   6.153   1.050   2.895
 8354TIP3    H125026   6.156   1.063   2.800
 8354TIP3    H225027   6.065   1.018   2.912
 8355TIP3   OH225028   0.467   2.098   3.430
 8355TIP3    H125029   0.442   2.039   3.501
 8355TIP3    H225030   0.417   2.067   3.354
 8356TIP3   OH225031   3.547   3.023   4.309
 8356TIP3    H125032   3.612   3.080   4.268
 8356TIP3    H225033   3.492   3.081   4.361
 8357TIP3   OH225034   0.374  -0.002   3.153
 8357TIP3    H125035   0.311   0.069   3.153
 8357TIP3    H225036   0.456   0.039   3.179
 8358TIP3   OH225037   0.665   3.089   2.026
 8358TIP3    H125038   0.686   3.162   1.968
 8358TIP3    H225039   0.742   3.032   2.021
 8359TIP3   OH225040   1.606   5.351   0.892
 8359TIP3    H125041   1.558   5.430   0.916
 8359TIP3    H225042   1.600   5.348   0.796
 8360TIP3   OH225043   4.359   0.625   3.911
 8360TIP3    H125044   4.396   0.545   3.949
 8360TIP3    H225045   4.306   0.595   3.838
 8361TIP3   OH225046   6.268   0.033   1.163
 8361TIP3    H125047   6.274  -0.060   1.139
 8361TIP3    H225048   6.354   0.069   1.141
 8362TIP3   OH225049   0.021   2.081   0.397
 8362TIP3    H125050   0.091   2.024   0.429
 8362TIP3    H225051   0.067   2.150   0.349
 8363TIP3   OH225052   4.472   6.522   1.668
 8363TIP3    H125053   4.472   6.567   1.583
 8363TIP3    H225054   4.489   6.591   1.732
 8364TIP3   OH225055   6.970   3.272   0.306
 8364TIP3    H125056   6.994   3.298   0.395
 8364TIP3    H225057   6.896   3.329   0.285
 8365TIP3   OH225058   4.164   0.700   2.048
 8365TIP3    H125059   4.126   0.649   2.120
 8365TIP3    H225060   4.097   0.765   2.028
 8366TIP3   OH225061   2.188   3.347   1.533
 8366TIP3    H125062   2.151   3.382   1.614
 8366TIP3    H225063   2.279   3.375   1.534
 8367TIP3   OH225064   0.256   5.120   2.907
 8367TIP3    H125065   0.271   5.083   2.994
 8367TIP3    H225066   0.162   5.111   2.893
 8368TIP3   OH225067   2.725   0.700   3.022
 8368TIP3    H125068   2.786   0.628   3.005
 8368TIP3    H225069   2.641   0.656   3.036
 8369TIP3   OH225070   3.338   6.483   3.666
 8369TIP3    H125071   3.407   6.424   3.694
 8369TIP3    H225072   3.257   6.441   3.695
 8370TIP3   OH225073   2.886   5.504   5.203
 8370TIP3    H125074   2.820   5.468   5.263
 8370TIP3    H225075   2.938   5.428   5.177
 8371TIP3   OH225076   3.590   5.584   0.575
 8371TIP3    H125077   3.641   5.663   0.588
 8371TIP3    H225078   3.622   5.524   0.642
 8372TIP3   OH225079   2.037   6.363   4.450
 8372TIP3    H125080   1.981   6.346   4.374
 8372TIP3    H225081   2.023   6.455   4.471
 8373TIP3   OH225082   0.679   3.917   1.721
 8373TIP3    H125083   0.701   3.968   1.643
 8373TIP3    H225084   0.584   3.927   1.730
 8374TIP3   OH225085   3.244   3.437   2.804
 8374TIP3    H125086   3.332   3.473   2.817
 8374TIP3    H225087   3.259   3.345   2.785
 8375TIP3   OH225088   3.052   5.337   0.318
 8375TIP3    H125089   3.114   5.271   0.289
 8375TIP3    H225090   2.980   5.332   0.256
 8376TIP3   OH225091   2.986   1.944   0.513
 8376TIP3    H125092   2.940   1.924   0.431
 8376TIP3    H225093   3.051   2.010   0.488
 8377TIP3   OH225094   6.932   1.464   1.344
 8377TIP3    H125095   6.929   1.486   1.437
 8377TIP3    H225096   7.025   1.460   1.322
 8378TIP3   OH225097   5.841   5.894   5.456
 8378TIP3    H125098   5.926   5.885   5.412
 8378TIP3    H225099   5.820   5.805   5.485
 8379TIP3   OH225100   1.398   4.970   3.243
 8379TIP3    H125101   1.396   5.065   3.250
 8379TIP3    H225102   1.485   4.950   3.208
 8380TIP3   OH225103   4.179   4.472   2.081
 8380TIP3    H125104   4.131   4.389   2.083
 8380TIP3    H225105   4.129   4.527   2.021
 8381TIP3   OH225106   5.660   6.705   1.298
 8381TIP3    H125107   5.683   6.710   1.205
 8381TIP3    H225108   5.735   6.743   1.344
 8382TIP3   OH225109   5.071   2.434   0.365
 8382TIP3    H125110   5.009   2.374   0.406
 8382TIP3    H225111   5.088   2.500   0.432
 8383TIP3   OH225112   2.949   1.645   0.346
 8383TIP3    H125113   3.030   1.644   0.296
 8383TIP3    H225114   2.907   1.728   0.321
 8384TIP3   OH225115   1.116   6.077   1.943
 8384TIP3    H125116   1.103   6.151   2.001
 8384TIP3    H225117   1.166   6.113   1.869
 8385TIP3   OH225118   1.537   0.605   1.839
 8385TIP3    H125119   1.615   0.657   1.856
 8385TIP3    H225120   1.556   0.558   1.757
 8386TIP3   OH225121   3.414   3.546   2.995
 8386TIP3    H125122   3.486   3.571   3.053
 8386TIP3    H225123   3.396   3.624   2.943
 8387TIP3   OH225124   0.300   4.097   1.171
 8387TIP3    H125125   0.278   4.081   1.079
 8387TIP3    H225126   0.323   4.011   1.205
 8388TIP3   OH225127   5.216   4.811   1.103
 8388TIP3    H125128   5.254   4.842   1.021
 8388TIP3    H225129   5.126   4.787   1.081
 8389TIP3   OH225130   6.097   1.937   2.063
 8389TIP3    H125131   6.097   2.031   2.076
 8389TIP3    H225132   6.093   1.900   2.151
 8390TIP3   OH225133   3.738   2.812   2.137
 8390TIP3    H125134   3.788   2.749   2.086
 8390TIP3    H225135   3.794   2.889   2.143
 8391TIP3   OH225136   5.573   3.480   0.886
 8391TIP3    H125137   5.645   3.510   0.942
 8391TIP3    H225138   5.584   3.530   0.805
 8392TIP3   OH225139   0.025   4.868   5.272
 8392TIP3    H125140  -0.018   4.843   5.353
 8392TIP3    H225141   0.053   4.786   5.232
 8393TIP3   OH225142   4.800   5.249   2.298
 8393TIP3    H125143   4.831   5.269   2.386
 8393TIP3    H225144   4.798   5.334   2.254
 8394TIP3   OH225145   2.815   4.265   3.848
 8394TIP3    H125146   2.770   4.301   3.925
 8394TIP3    H225147   2.778   4.313   3.774
 8395TIP3   OH225148   3.890   0.303   3.776
 8395TIP3    H125149   3.918   0.394   3.772
 8395TIP3    H225150   3.803   0.305   3.815
 8396TIP3   OH225151   6.954   3.455   2.285
 8396TIP3    H125152   6.876   3.510   2.298
 8396TIP3    H225153   7.023   3.500   2.334
 8397TIP3   OH225154   2.170   6.485   4.768
 8397TIP3    H125155   2.119   6.551   4.815
 8397TIP3    H225156   2.247   6.470   4.823
 8398TIP3   OH225157   0.619   2.028   3.866
 8398TIP3    H125158   0.576   2.109   3.841
 8398TIP3    H225159   0.690   2.055   3.924
 8399TIP3   OH225160   0.894   1.143   1.717
 8399TIP3    H125161   0.978   1.183   1.697
 8399TIP3    H225162   0.904   1.052   1.689
 8400TIP3   OH225163   6.394   3.861   2.404
 8400TIP3    H125164   6.483   3.893   2.421
 8400TIP3    H225165   6.359   3.841   2.490
 8401TIP3   OH225166   3.366   4.729   2.234
 8401TIP3    H125167   3.354   4.822   2.256
 8401TIP3    H225168   3.360   4.726   2.139
 8402TIP3   OH225169   3.347   5.182   2.485
 8402TIP3    H125170   3.400   5.130   2.546
 8402TIP3    H225171   3.403   5.257   2.464
 8403TIP3   OH225172   3.285   2.530   1.429
 8403TIP3    H125173   3.317   2.458   1.484
 8403TIP3    H225174   3.292   2.608   1.484
 8404TIP3   OH225175   5.885   1.436   3.333
 8404TIP3    H125176   5.939   1.444   3.255
 8404TIP3    H225177   5.832   1.516   3.334
 8405TIP3   OH225178   6.857   1.007   5.674
 8405TIP3    H125179   6.771   1.010   5.718
 8405TIP3    H225180   6.844   1.056   5.593
 8406TIP3   OH225181   4.268   3.076   0.316
 8406TIP3    H125182   4.225   3.156   0.347
 8406TIP3    H225183   4.318   3.045   0.391
 8407TIP3   OH225184   7.001   2.725   5.237
 8407TIP3    H125185   6.961   2.799   5.283
 8407TIP3    H225186   6.976   2.648   5.288
 8408TIP3   OH225187   1.364   5.941   0.402
 8408TIP3    H125188   1.409   5.883   0.341
 8408TIP3    H225189   1.435   5.986   0.448
 8409TIP3   OH225190   6.581   1.958   3.368
 8409TIP3    H125191   6.568   1.989   3.458
 8409TIP3    H225192   6.510   1.895   3.354
 8410TIP3   OH225193   0.812   2.936   0.765
 8410TIP3    H125194   0.736   2.918   0.820
 8410TIP3    H225195   0.884   2.949   0.827
 8411TIP3   OH225196   3.040   3.314   1.859
 8411TIP3    H125197   2.946   3.326   1.876
 8411TIP3    H225198   3.074   3.277   1.940
 8412TIP3   OH225199   0.862   1.953   3.369
 8412TIP3    H125200   0.797   1.883   3.375
 8412TIP3    H225201   0.809   2.033   3.369
 8413TIP3   OH225202   5.213   2.657   4.732
 8413TIP3    H125203   5.259   2.740   4.723
 8413TIP3    H225204   5.122   2.682   4.751
 8414TIP3   OH225205   5.835   3.869   5.458
 8414TIP3    H125206   5.834   3.965   5.449
 8414TIP3    H225207   5.758   3.849   5.511
 8415TIP3   OH225208   1.799   1.027   4.782
 8415TIP3    H125209   1.841   1.028   4.868
 8415TIP3    H225210   1.869   1.002   4.722
 8416TIP3   OH225211   2.629   0.567   2.665
 8416TIP3    H125212   2.706   0.512   2.681
 8416TIP3    H225213   2.576   0.517   2.604
 8417TIP3   OH225214   2.029   4.747   3.837
 8417TIP3    H125215   1.968   4.817   3.861
 8417TIP3    H225216   1.972   4.673   3.815
 8418TIP3   OH225217   2.506   2.565   0.054
 8418TIP3    H125218   2.551   2.617  -0.012
 8418TIP3    H225219   2.525   2.474   0.031
 8419TIP3   OH225220   4.282   0.419   3.702
 8419TIP3    H125221   4.330   0.386   3.778
 8419TIP3    H225222   4.268   0.342   3.647
 8420TIP3   OH225223   4.691   3.151   2.229
 8420TIP3    H125224   4.653   3.080   2.281
 8420TIP3    H225225   4.716   3.217   2.294
 8421TIP3   OH225226   0.547   0.901   5.586
 8421TIP3    H125227   0.595   0.818   5.596
 8421TIP3    H225228   0.606   0.957   5.536
 8422TIP3   OH225229   1.792   6.798   2.091
 8422TIP3    H125230   1.799   6.714   2.136
 8422TIP3    H225231   1.723   6.845   2.138
 8423TIP3   OH225232   4.922   2.062   2.172
 8423TIP3    H125233   5.004   2.104   2.146
 8423TIP3    H225234   4.858   2.092   2.108
 8424TIP3   OH225235   6.430   2.682   3.061
 8424TIP3    H125236   6.382   2.667   2.980
 8424TIP3    H225237   6.431   2.596   3.104
 8425TIP3   OH225238   5.229   2.151   2.854
 8425TIP3    H125239   5.241   2.246   2.854
 8425TIP3    H225240   5.163   2.136   2.786
 8426TIP3   OH225241   5.731   4.942   1.294
 8426TIP3    H125242   5.802   4.913   1.352
 8426TIP3    H225243   5.737   5.037   1.295
 8427TIP3   OH225244   6.097   1.876   1.115
 8427TIP3    H125245   6.025   1.889   1.177
 8427TIP3    H225246   6.165   1.936   1.144
 8428TIP3   OH225247   2.088   5.984   5.752
 8428TIP3    H125248   2.129   5.942   5.828
 8428TIP3    H225249   2.102   5.922   5.681
 8429TIP3   OH225250   7.141   3.659   4.233
 8429TIP3    H125251   7.083   3.665   4.309
 8429TIP3    H225252   7.221   3.702   4.261
 8430TIP3   OH225253   4.598   6.074   4.231
 8430TIP3    H125254   4.629   5.996   4.185
 8430TIP3    H225255   4.543   6.040   4.301
 8431TIP3   OH225256   6.437   2.731   5.170
 8431TIP3    H125257   6.506   2.773   5.221
 8431TIP3    H225258   6.421   2.791   5.097
 8432TIP3   OH225259   0.690   4.170   4.148
 8432TIP3    H125260   0.708   4.083   4.111
 8432TIP3    H225261   0.611   4.199   4.102
 8433TIP3   OH225262   1.605   6.050   0.491
 8433TIP3    H125263   1.648   6.091   0.416
 8433TIP3    H225264   1.632   6.103   0.566
 8434TIP3   OH225265   3.175   6.032   3.701
 8434TIP3    H125266   3.100   6.007   3.646
 8434TIP3    H225267   3.138   6.043   3.789
 8435TIP3   OH225268   6.758   3.061   0.197
 8435TIP3    H125269   6.839   3.112   0.201
 8435TIP3    H225270   6.722   3.066   0.285
 8436TIP3   OH225271   4.047   4.225   2.032
 8436TIP3    H125272   4.057   4.136   1.999
 8436TIP3    H225273   3.992   4.216   2.110
 8437TIP3   OH225274   3.158   6.276   0.479
 8437TIP3    H125275   3.249   6.264   0.454
 8437TIP3    H225276   3.149   6.370   0.496
 8438TIP3   OH225277   5.366   3.312   0.882
 8438TIP3    H125278   5.382   3.240   0.943
 8438TIP3    H225279   5.450   3.358   0.877
 8439TIP3   OH225280   0.724   6.630   5.128
 8439TIP3    H125281   0.780   6.565   5.171
 8439TIP3    H225282   0.783   6.676   5.068
 8440TIP3   OH225283   7.028   5.744   0.919
 8440TIP3    H125284   7.096   5.751   0.852
 8440TIP3    H225285   7.036   5.654   0.951
 8441TIP3   OH225286   7.137   4.029   3.285
 8441TIP3    H125287   7.136   4.061   3.375
 8441TIP3    H225288   7.228   4.035   3.258
 8442TIP3   OH225289   1.363   3.123   4.409
 8442TIP3    H125290   1.459   3.125   4.403
 8442TIP3    H225291   1.344   3.043   4.457
 8443TIP3   OH225292   4.497   1.613   5.549
 8443TIP3    H125293   4.444   1.676   5.501
 8443TIP3    H225294   4.587   1.629   5.521
 8444TIP3   OH225295   0.878   1.107   1.386
 8444TIP3    H125296   0.872   1.036   1.450
 8444TIP3    H225297   0.906   1.064   1.306
 8445TIP3   OH225298   2.796   0.657   1.303
 8445TIP3    H125299   2.703   0.672   1.320
 8445TIP3    H225300   2.822   0.726   1.243
 8446TIP3   OH225301   2.626   3.545   1.729
 8446TIP3    H125302   2.709   3.574   1.692
 8446TIP3    H225303   2.587   3.490   1.660
 8447TIP3   OH225304   6.877   3.888   5.181
 8447TIP3    H125305   6.885   3.965   5.125
 8447TIP3    H225306   6.864   3.815   5.120
 8448TIP3   OH225307   1.156   5.090   0.891
 8448TIP3    H125308   1.139   4.996   0.884
 8448TIP3    H225309   1.215   5.099   0.966
 8449TIP3   OH225310   6.586   3.643   2.061
 8449TIP3    H125311   6.658   3.589   2.028
 8449TIP3    H225312   6.565   3.702   1.989
 8450TIP3   OH225313   3.679   0.833   3.391
 8450TIP3    H125314   3.677   0.846   3.486
 8450TIP3    H225315   3.594   0.862   3.361
 8451TIP3   OH225316   4.966   1.834   2.563
 8451TIP3    H125317   4.970   1.773   2.490
 8451TIP3    H225318   4.895   1.801   2.618
 8452TIP3   OH225319   0.719   3.286   4.786
 8452TIP3    H125320   0.730   3.208   4.731
 8452TIP3    H225321   0.800   3.336   4.772
 8453TIP3   OH225322   3.807   0.660   2.916
 8453TIP3    H125323   3.894   0.658   2.875
 8453TIP3    H225324   3.800   0.576   2.960
 8454TIP3   OH225325   3.356   2.809   5.790
 8454TIP3    H125326   3.296   2.862   5.843
 8454TIP3    H225327   3.428   2.789   5.849
 8455TIP3   OH225328   4.205   4.014   5.389
 8455TIP3    H125329   4.179   3.922   5.377
 8455TIP3    H225330   4.135   4.051   5.443
 8456TIP3   OH225331   2.100   5.565   5.132
 8456TIP3    H125332   2.084   5.470   5.127
 8456TIP3    H225333   2.066   5.600   5.050
 8457TIP3   OH225334   1.539   0.879   0.122
 8457TIP3    H125335   1.449   0.903   0.103
 8457TIP3    H225336   1.534   0.792   0.161
 8458TIP3   OH225337   5.059   4.384   1.912
 8458TIP3    H125338   4.980   4.392   1.965
 8458TIP3    H225339   5.115   4.456   1.942
 8459TIP3   OH225340   4.744   5.140   0.728
 8459TIP3    H125341   4.768   5.231   0.711
 8459TIP3    H225342   4.650   5.136   0.713
 8460TIP3   OH225343   5.612   0.032   4.274
 8460TIP3    H125344   5.668   0.070   4.341
 8460TIP3    H225345   5.572   0.108   4.231
 8461TIP3   OH225346   4.896   1.659   0.142
 8461TIP3    H125347   4.941   1.708   0.073
 8461TIP3    H225348   4.967   1.618   0.192
 8462TIP3   OH225349   3.285   4.935   5.694
 8462TIP3    H125350   3.273   4.904   5.605
 8462TIP3    H225351   3.379   4.946   5.704
 8463TIP3   OH225352   6.518   3.990   1.578
 8463TIP3    H125353   6.463   3.987   1.499
 8463TIP3    H225354   6.602   4.024   1.547
 8464TIP3   OH225355   4.017   6.217   5.739
 8464TIP3    H125356   3.984   6.131   5.712
 8464TIP3    H225357   4.056   6.202   5.825
 8465TIP3   OH225358   6.015   3.315   1.245
 8465TIP3    H125359   6.083   3.303   1.180
 8465TIP3    H225360   5.962   3.387   1.212
 8466TIP3   OH225361   6.895   5.322   1.070
 8466TIP3    H125362   6.947   5.294   1.146
 8466TIP3    H225363   6.804   5.307   1.096
 8467TIP3   OH225364   1.554   4.867   5.094
 8467TIP3    H125365   1.548   4.777   5.127
 8467TIP3    H225366   1.470   4.907   5.118
 8468TIP3   OH225367   1.400   6.418   0.798
 8468TIP3    H125368   1.397   6.361   0.875
 8468TIP3    H225369   1.389   6.359   0.724
 8469TIP3   OH225370   2.673   2.399   4.106
 8469TIP3    H125371   2.584   2.412   4.137
 8469TIP3    H225372   2.670   2.421   4.013
 8470TIP3   OH225373   1.797   3.995   1.709
 8470TIP3    H125374   1.753   4.054   1.771
 8470TIP3    H225375   1.728   3.969   1.648
 8471TIP3   OH225376   5.586   5.714   5.778
 8471TIP3    H125377   5.525   5.723   5.851
 8471TIP3    H225378   5.546   5.765   5.707
 8472TIP3   OH225379   2.560   1.433   2.257
 8472TIP3    H125380   2.592   1.479   2.334
 8472TIP3    H225381   2.478   1.477   2.235
 8473TIP3   OH225382   0.745   3.722   5.055
 8473TIP3    H125383   0.782   3.767   5.130
 8473TIP3    H225384   0.672   3.777   5.027
 8474TIP3   OH225385   6.541   1.064   1.878
 8474TIP3    H125386   6.590   1.062   1.960
 8474TIP3    H225387   6.545   0.975   1.845
 8475TIP3   OH225388   3.607   2.609   4.164
 8475TIP3    H125389   3.567   2.688   4.129
 8475TIP3    H225390   3.542   2.573   4.224
 8476TIP3   OH225391   3.710   5.596   5.117
 8476TIP3    H125392   3.651   5.558   5.052
 8476TIP3    H225393   3.653   5.614   5.193
 8477TIP3   OH225394   3.183   2.030   1.196
 8477TIP3    H125395   3.244   2.011   1.125
 8477TIP3    H225396   3.130   2.103   1.163
 8478TIP3   OH225397   0.974   5.758   0.272
 8478TIP3    H125398   0.938   5.700   0.339
 8478TIP3    H225399   0.994   5.839   0.318
 8479TIP3   OH225400   3.864   3.089   3.905
 8479TIP3    H125401   3.771   3.073   3.922
 8479TIP3    H225402   3.910   3.027   3.961
 8480TIP3   OH225403   5.086   1.737   4.504
 8480TIP3    H125404   5.178   1.741   4.527
 8480TIP3    H225405   5.048   1.676   4.567
 8481TIP3   OH225406   3.341   3.150   2.783
 8481TIP3    H125407   3.391   3.145   2.864
 8481TIP3    H225408   3.281   3.076   2.787
 8482TIP3   OH225409   0.783   2.382   0.956
 8482TIP3    H125410   0.746   2.310   0.905
 8482TIP3    H225411   0.838   2.339   1.021
 8483TIP3   OH225412   5.886   6.148   5.017
 8483TIP3    H125413   5.916   6.058   5.003
 8483TIP3    H225414   5.867   6.153   5.110
 8484TIP3   OH225415   6.791   0.778   3.603
 8484TIP3    H125416   6.806   0.708   3.666
 8484TIP3    H225417   6.862   0.769   3.539
 8485TIP3   OH225418   0.588   5.230   3.299
 8485TIP3    H125419   0.495   5.212   3.311
 8485TIP3    H225420   0.630   5.196   3.378
 8486TIP3   OH225421   6.325   2.675   1.059
 8486TIP3    H125422   6.352   2.717   1.140
 8486TIP3    H225423   6.376   2.594   1.056
 8487TIP3   OH225424   3.406   0.667   1.826
 8487TIP3    H125425   3.434   0.599   1.888
 8487TIP3    H225426   3.311   0.669   1.834
 8488TIP3   OH225427   1.457   4.920   3.509
 8488TIP3    H125428   1.363   4.918   3.529
 8488TIP3    H225429   1.461   4.915   3.414
 8489TIP3   OH225430   6.690   6.622   3.228
 8489TIP3    H125431   6.755   6.669   3.175
 8489TIP3    H225432   6.720   6.531   3.228
 8490TIP3   OH225433   6.641   2.276   4.699
 8490TIP3    H125434   6.645   2.191   4.655
 8490TIP3    H225435   6.572   2.265   4.765
 8491TIP3   OH225436   4.248   1.253   3.263
 8491TIP3    H125437   4.333   1.219   3.290
 8491TIP3    H225438   4.187   1.182   3.281
 8492TIP3   OH225439   5.085   6.408   5.505
 8492TIP3    H125440   5.088   6.396   5.410
 8492TIP3    H225441   4.992   6.415   5.525
 8493TIP3   OH225442   1.601   2.584   1.450
 8493TIP3    H125443   1.632   2.649   1.387
 8493TIP3    H225444   1.639   2.611   1.533
 8494TIP3   OH225445   4.340   4.435   2.555
 8494TIP3    H125446   4.405   4.502   2.535
 8494TIP3    H225447   4.384   4.374   2.615
 8495TIP3   OH225448   3.516   6.787   3.637
 8495TIP3    H125449   3.450   6.842   3.679
 8495TIP3    H225450   3.571   6.756   3.709
 8496TIP3   OH225451   2.458   4.590   3.768
 8496TIP3    H125452   2.474   4.592   3.673
 8496TIP3    H225453   2.492   4.505   3.796
 8497TIP3   OH225454   4.790   0.320   2.313
 8497TIP3    H125455   4.860   0.382   2.293
 8497TIP3    H225456   4.810   0.287   2.400
 8498TIP3   OH225457   4.358   4.018   0.931
 8498TIP3    H125458   4.285   4.043   0.874
 8498TIP3    H225459   4.415   3.965   0.875
 8499TIP3   OH225460   5.510   5.293   1.203
 8499TIP3    H125461   5.539   5.328   1.119
 8499TIP3    H225462   5.460   5.214   1.181
 8500TIP3   OH225463   6.396   3.610   2.958
 8500TIP3    H125464   6.454   3.605   2.881
 8500TIP3    H225465   6.441   3.670   3.018
 8501TIP3   OH225466   0.511   2.899   0.540
 8501TIP3    H125467   0.465   2.891   0.623
 8501TIP3    H225468   0.490   2.987   0.509
 8502TIP3   OH225469   3.682   5.832   0.686
 8502TIP3    H125470   3.656   5.764   0.748
 8502TIP3    H225471   3.647   5.913   0.722
 8503TIP3   OH225472   1.670   4.475   2.375
 8503TIP3    H125473   1.760   4.446   2.364
 8503TIP3    H225474   1.674   4.570   2.364
 8504TIP3   OH225475   0.990   1.264   3.554
 8504TIP3    H125476   1.019   1.306   3.472
 8504TIP3    H225477   0.922   1.202   3.526
 8505TIP3   OH225478   0.943   3.413   5.863
 8505TIP3    H125479   0.957   3.504   5.890
 8505TIP3    H225480   1.005   3.399   5.791
 8506TIP3   OH225481   6.925   4.583   4.995
 8506TIP3    H125482   6.948   4.668   5.032
 8506TIP3    H225483   6.829   4.587   4.986
 8507TIP3   OH225484   0.293   0.158   5.333
 8507TIP3    H125485   0.201   0.136   5.318
 8507TIP3    H225486   0.298   0.252   5.314
 8508TIP3   OH225487   4.371   0.789   2.465
 8508TIP3    H125488   4.280   0.776   2.490
 8508TIP3    H225489   4.421   0.735   2.527
 8509TIP3   OH225490   1.357   2.013   4.721
 8509TIP3    H125491   1.318   2.101   4.725
 8509TIP3    H225492   1.296   1.958   4.769
 8510TIP3   OH225493   1.222   4.166   2.371
 8510TIP3    H125494   1.137   4.206   2.392
 8510TIP3    H225495   1.285   4.237   2.380
 8511TIP3   OH225496   1.241   1.392   2.823
 8511TIP3    H125497   1.248   1.352   2.736
 8511TIP3    H225498   1.283   1.478   2.813
 8512TIP3   OH225499   6.571   6.045   5.303
 8512TIP3    H125500   6.528   5.961   5.285
 8512TIP3    H225501   6.506   6.095   5.353
 8513TIP3   OH225502   1.641   2.577   0.477
 8513TIP3    H125503   1.671   2.664   0.505
 8513TIP3    H225504   1.699   2.516   0.522
 8514TIP3   OH225505   6.045   4.281   1.746
 8514TIP3    H125506   6.034   4.334   1.667
 8514TIP3    H225507   6.105   4.211   1.719
 8515TIP3   OH225508   5.451   1.759   2.154
 8515TIP3    H125509   5.496   1.833   2.113
 8515TIP3    H225510   5.468   1.770   2.248
 8516TIP3   OH225511   4.610   2.252   3.451
 8516TIP3    H125512   4.625   2.266   3.544
 8516TIP3    H225513   4.684   2.199   3.422
 8517TIP3   OH225514   5.056   5.794   1.482
 8517TIP3    H125515   5.083   5.758   1.398
 8517TIP3    H225516   5.095   5.881   1.485
 8518TIP3   OH225517   2.401   0.605   1.801
 8518TIP3    H125518   2.481   0.570   1.841
 8518TIP3    H225519   2.421   0.608   1.707
 8519TIP3   OH225520   5.727   5.185   4.030
 8519TIP3    H125521   5.644   5.192   4.077
 8519TIP3    H225522   5.769   5.107   4.066
 8520TIP3   OH225523   1.547   1.060   5.339
 8520TIP3    H125524   1.521   0.977   5.379
 8520TIP3    H225525   1.527   1.126   5.405
 8521TIP3   OH225526   5.758   6.724   2.505
 8521TIP3    H125527   5.761   6.631   2.528
 8521TIP3    H225528   5.674   6.735   2.461
 8522TIP3   OH225529   1.303   2.288   3.754
 8522TIP3    H125530   1.234   2.281   3.820
 8522TIP3    H225531   1.348   2.370   3.775
 8523TIP3   OH225532   0.507   2.206   4.602
 8523TIP3    H125533   0.463   2.152   4.537
 8523TIP3    H225534   0.592   2.227   4.562
 8524TIP3   OH225535   4.216   3.075   5.573
 8524TIP3    H125536   4.144   3.096   5.513
 8524TIP3    H225537   4.238   2.983   5.553
 8525TIP3   OH225538   1.279   2.820   3.670
 8525TIP3    H125539   1.360   2.855   3.708
 8525TIP3    H225540   1.219   2.816   3.744
 8526TIP3   OH225541   0.186   2.990   4.874
 8526TIP3    H125542   0.255   3.056   4.881
 8526TIP3    H225543   0.134   3.018   4.799
 8527TIP3   OH225544   1.326   4.796   4.557
 8527TIP3    H125545   1.279   4.735   4.501
 8527TIP3    H225546   1.418   4.783   4.535
 8528TIP3   OH225547   1.681   5.574   0.399
 8528TIP3    H125548   1.678   5.634   0.325
 8528TIP3    H225549   1.689   5.631   0.476
 8529TIP3   OH225550   0.749   5.617   3.997
 8529TIP3    H125551   0.762   5.707   3.968
 8529TIP3    H225552   0.832   5.573   3.980
 8530TIP3   OH225553   5.907   0.432   2.399
 8530TIP3    H125554   5.949   0.503   2.351
 8530TIP3    H225555   5.968   0.359   2.393
 8531TIP3   OH225556   1.330   1.367   4.057
 8531TIP3    H125557   1.300   1.324   4.137
 8531TIP3    H225558   1.404   1.315   4.028
 8532TIP3   OH225559   4.374   6.320   5.450
 8532TIP3    H125560   4.383   6.400   5.398
 8532TIP3    H225561   4.317   6.346   5.523
 8533TIP3   OH225562   6.030   5.654   0.166
 8533TIP3    H125563   6.038   5.672   0.072
 8533TIP3    H225564   6.065   5.566   0.177
 8534TIP3   OH225565   6.985   1.985   5.282
 8534TIP3    H125566   7.014   2.059   5.229
 8534TIP3    H225567   6.937   1.929   5.221
 8535TIP3   OH225568   1.287   4.611   3.184
 8535TIP3    H125569   1.233   4.684   3.216
 8535TIP3    H225570   1.375   4.631   3.215
 8536TIP3   OH225571   0.032   4.035   1.708
 8536TIP3    H125572   0.011   3.951   1.666
 8536TIP3    H225573   0.036   4.015   1.801
 8537TIP3   OH225574   6.256   4.003   3.545
 8537TIP3    H125575   6.248   3.915   3.508
 8537TIP3    H225576   6.350   4.019   3.549
 8538TIP3   OH225577   6.570   6.073   4.972
 8538TIP3    H125578   6.655   6.033   4.990
 8538TIP3    H225579   6.574   6.159   5.014
 8539TIP3   OH225580   3.688   5.211   4.706
 8539TIP3    H125581   3.770   5.168   4.682
 8539TIP3    H225582   3.627   5.187   4.636
 8540TIP3   OH225583   1.390   1.093   3.629
 8540TIP3    H125584   1.423   1.004   3.619
 8540TIP3    H225585   1.444   1.145   3.570
 8541TIP3   OH225586   3.832   0.742   4.692
 8541TIP3    H125587   3.780   0.757   4.613
 8541TIP3    H225588   3.824   0.824   4.742
 8542TIP3   OH225589   5.550   3.665   1.299
 8542TIP3    H125590   5.545   3.571   1.317
 8542TIP3    H225591   5.555   3.670   1.204
 8543TIP3   OH225592   2.670   6.284   3.806
 8543TIP3    H125593   2.613   6.301   3.731
 8543TIP3    H225594   2.703   6.370   3.831
 8544TIP3   OH225595   4.953   4.074   4.776
 8544TIP3    H125596   4.867   4.080   4.733
 8544TIP3    H225597   4.948   3.995   4.830
 8545TIP3   OH225598   6.684   0.808   2.029
 8545TIP3    H125599   6.681   0.814   2.125
 8545TIP3    H225600   6.776   0.790   2.009
 8546TIP3   OH225601   0.035   3.706   2.586
 8546TIP3    H125602   0.063   3.615   2.574
 8546TIP3    H225603  -0.049   3.712   2.539
 8547TIP3   OH225604   5.453   6.639   4.570
 8547TIP3    H125605   5.479   6.614   4.482
 8547TIP3    H225606   5.461   6.559   4.622
 8548TIP3   OH225607   6.223   4.025   5.348
 8548TIP3    H125608   6.170   4.038   5.427
 8548TIP3    H225609   6.174   3.961   5.296
 8549TIP3   OH225610   0.267   1.729   2.565
 8549TIP3    H125611   0.359   1.703   2.551
 8549TIP3    H225612   0.259   1.738   2.660
 8550TIP3   OH225613   6.807   6.422   4.791
 8550TIP3    H125614   6.724   6.375   4.778
 8550TIP3    H225615   6.782   6.505   4.830
 8551TIP3   OH225616   2.710   5.105   0.281
 8551TIP3    H125617   2.801   5.082   0.301
 8551TIP3    H225618   2.679   5.035   0.225
 8552TIP3   OH225619   0.359   5.646   1.761
 8552TIP3    H125620   0.374   5.735   1.794
 8552TIP3    H225621   0.437   5.625   1.711
 8553TIP3   OH225622   2.361   1.521   0.825
 8553TIP3    H125623   2.397   1.581   0.891
 8553TIP3    H225624   2.378   1.434   0.860
 8554TIP3   OH225625   2.201   3.912   3.620
 8554TIP3    H125626   2.187   3.884   3.711
 8554TIP3    H225627   2.277   3.861   3.591
 8555TIP3   OH225628   2.518   5.439   4.794
 8555TIP3    H125629   2.454   5.510   4.781
 8555TIP3    H225630   2.511   5.417   4.887
 8556TIP3   OH225631   4.540   4.270   0.293
 8556TIP3    H125632   4.635   4.257   0.300
 8556TIP3    H225633   4.524   4.277   0.199
 8557TIP3   OH225634   0.944   5.802   0.705
 8557TIP3    H125635   0.940   5.892   0.671
 8557TIP3    H225636   0.913   5.748   0.632
 8558TIP3   OH225637   4.953   4.968   0.554
 8558TIP3    H125638   5.000   5.049   0.536
 8558TIP3    H225639   5.005   4.899   0.513
 8559TIP3   OH225640   0.269   0.570   5.002
 8559TIP3    H125641   0.342   0.623   5.035
 8559TIP3    H225642   0.247   0.512   5.075
 8560TIP3   OH225643   3.548   6.302   3.754
 8560TIP3    H125644   3.500   6.250   3.689
 8560TIP3    H225645   3.494   6.296   3.833
 8561TIP3   OH225646   5.094   6.044   3.522
 8561TIP3    H125647   5.128   6.133   3.529
 8561TIP3    H225648   5.011   6.053   3.474
 8562TIP3   OH225649   3.209   4.677   0.566
 8562TIP3    H125650   3.265   4.606   0.597
 8562TIP3    H225651   3.193   4.656   0.474
 8563TIP3   OH225652   4.343   4.716   2.104
 8563TIP3    H125653   4.265   4.671   2.136
 8563TIP3    H225654   4.319   4.745   2.016
 8564TIP3   OH225655   1.642   4.753   1.665
 8564TIP3    H125656   1.641   4.808   1.586
 8564TIP3    H225657   1.553   4.756   1.699
 8565TIP3   OH225658   3.037   5.019   4.580
 8565TIP3    H125659   3.053   5.089   4.643
 8565TIP3    H225660   2.942   5.016   4.570
 8566TIP3   OH225661   5.836   5.425   5.851
 8566TIP3    H125662   5.922   5.464   5.838
 8566TIP3    H225663   5.840   5.341   5.806
 8567TIP3   OH225664   3.205   6.320   1.297
 8567TIP3    H125665   3.211   6.323   1.201
 8567TIP3    H225666   3.280   6.373   1.326
 8568TIP3   OH225667   6.233   6.280   4.722
 8568TIP3    H125668   6.251   6.303   4.813
 8568TIP3    H225669   6.268   6.191   4.713
 8569TIP3   OH225670   7.091   4.328   5.034
 8569TIP3    H125671   7.099   4.347   5.127
 8569TIP3    H225672   7.078   4.413   4.993
 8570TIP3   OH225673   2.999   3.095   5.276
 8570TIP3    H125674   3.036   3.159   5.338
 8570TIP3    H225675   2.985   3.016   5.329
 8571TIP3   OH225676   1.516   5.864   0.167
 8571TIP3    H125677   1.520   5.929   0.097
 8571TIP3    H225678   1.608   5.846   0.188
 8572TIP3   OH225679   6.779   2.105   3.887
 8572TIP3    H125680   6.772   2.048   3.810
 8572TIP3    H225681   6.838   2.058   3.945
 8573TIP3   OH225682   2.205   2.751   1.316
 8573TIP3    H125683   2.148   2.729   1.242
 8573TIP3    H225684   2.211   2.846   1.315
 8574TIP3   OH225685   5.700   2.947   4.410
 8574TIP3    H125686   5.654   3.029   4.396
 8574TIP3    H225687   5.631   2.880   4.411
 8575TIP3   OH225688   3.561   1.563   2.532
 8575TIP3    H125689   3.530   1.519   2.453
 8575TIP3    H225690   3.505   1.529   2.602
 8576TIP3   OH225691   2.035   1.832   2.681
 8576TIP3    H125692   2.006   1.922   2.669
 8576TIP3    H225693   1.987   1.781   2.616
 8577TIP3   OH225694   2.397   6.673   2.257
 8577TIP3    H125695   2.385   6.679   2.352
 8577TIP3    H225696   2.492   6.667   2.245
 8578TIP3   OH225697   5.428   4.037   2.714
 8578TIP3    H125698   5.482   3.990   2.650
 8578TIP3    H225699   5.402   4.118   2.669
 8579TIP3   OH225700   2.825   3.283   1.549
 8579TIP3    H125701   2.817   3.372   1.583
 8579TIP3    H225702   2.919   3.265   1.549
 8580TIP3   OH225703   3.424   5.929   2.225
 8580TIP3    H125704   3.452   6.020   2.230
 8580TIP3    H225705   3.416   5.901   2.316
 8581TIP3   OH225706   2.340   6.772   4.592
 8581TIP3    H125707   2.257   6.810   4.564
 8581TIP3    H225708   2.358   6.814   4.676
 8582TIP3   OH225709   3.950   3.801   4.584
 8582TIP3    H125710   3.960   3.791   4.679
 8582TIP3    H225711   3.977   3.892   4.567
 8583TIP3   OH225712   6.324   1.683   5.025
 8583TIP3    H125713   6.306   1.746   4.955
 8583TIP3    H225714   6.277   1.717   5.101
 8584TIP3   OH225715   1.931   1.208   2.994
 8584TIP3    H125716   1.885   1.291   2.985
 8584TIP3    H225717   1.987   1.219   3.071
 8585TIP3   OH225718   6.277   4.736   4.867
 8585TIP3    H125719   6.329   4.677   4.812
 8585TIP3    H225720   6.243   4.680   4.937
 8586TIP3   OH225721   4.627   1.924   1.604
 8586TIP3    H125722   4.708   1.907   1.557
 8586TIP3    H225723   4.585   1.838   1.612
 8587TIP3   OH225724   3.108   3.349   3.393
 8587TIP3    H125725   3.107   3.441   3.419
 8587TIP3    H225726   3.156   3.348   3.310
 8588TIP3   OH225727   6.153   4.085   2.060
 8588TIP3    H125728   6.191   4.163   2.018
 8588TIP3    H225729   6.213   4.014   2.038
 8589TIP3   OH225730   4.965   4.067   1.020
 8589TIP3    H125731   4.945   4.148   0.972
 8589TIP3    H225732   4.967   3.999   0.953
 8590TIP3   OH225733   2.943   1.219   3.133
 8590TIP3    H125734   2.889   1.215   3.054
 8590TIP3    H225735   3.010   1.152   3.119
 8591TIP3   OH225736   5.741   4.677   4.374
 8591TIP3    H125737   5.688   4.674   4.294
 8591TIP3    H225738   5.693   4.736   4.432
 8592TIP3   OH225739   5.193   2.906   3.351
 8592TIP3    H125740   5.267   2.893   3.411
 8592TIP3    H225741   5.153   2.819   3.343
 8593TIP3   OH225742   0.325   6.432   4.806
 8593TIP3    H125743   0.363   6.348   4.832
 8593TIP3    H225744   0.375   6.497   4.855
 8594TIP3   OH225745   3.514   1.245   0.628
 8594TIP3    H125746   3.434   1.297   0.642
 8594TIP3    H225747   3.572   1.271   0.700
 8595TIP3   OH225748   2.383   4.780   3.021
 8595TIP3    H125749   2.331   4.827   3.087
 8595TIP3    H225750   2.351   4.690   3.024
 8596TIP3   OH225751   5.087   3.952   1.966
 8596TIP3    H125752   5.152   3.985   1.904
 8596TIP3    H225753   5.058   3.869   1.928
 8597TIP3   OH225754   0.679   4.051   0.427
 8597TIP3    H125755   0.596   4.042   0.380
 8597TIP3    H225756   0.668   4.130   0.481
 8598TIP3   OH225757   5.271   4.283   3.380
 8598TIP3    H125758   5.277   4.376   3.361
 8598TIP3    H225759   5.177   4.266   3.390
 8599TIP3   OH225760   4.972   4.371   3.951
 8599TIP3    H125761   4.909   4.394   4.019
 8599TIP3    H225762   5.040   4.439   3.957
 8600TIP3   OH225763   3.681   0.602   5.249
 8600TIP3    H125764   3.775   0.597   5.268
 8600TIP3    H225765   3.654   0.511   5.238
 8601TIP3   OH225766   6.551   6.266   4.768
 8601TIP3    H125767   6.564   6.177   4.801
 8601TIP3    H225768   6.470   6.295   4.808
 8602TIP3   OH225769   0.427   6.131   1.224
 8602TIP3    H125770   0.415   6.052   1.277
 8602TIP3    H225771   0.506   6.172   1.261
 8603TIP3   OH225772   6.004   0.157   1.817
 8603TIP3    H125773   5.951   0.175   1.740
 8603TIP3    H225774   6.021   0.243   1.855
 8604TIP3   OH225775   1.549   1.194   4.036
 8604TIP3    H125776   1.576   1.137   4.107
 8604TIP3    H225777   1.630   1.214   3.988
 8605TIP3   OH225778   4.189   5.716   3.395
 8605TIP3    H125779   4.277   5.682   3.380
 8605TIP3    H225780   4.202   5.810   3.411
 8606TIP3   OH225781   3.635   5.733   4.655
 8606TIP3    H125782   3.667   5.712   4.568
 8606TIP3    H225783   3.713   5.729   4.711
 8607TIP3   OH225784   0.217   6.010   0.727
 8607TIP3    H125785   0.182   6.099   0.732
 8607TIP3    H225786   0.277   6.003   0.801
 8608TIP3   OH225787   1.807   5.208   4.001
 8608TIP3    H125788   1.855   5.197   4.083
 8608TIP3    H225789   1.873   5.197   3.933
 8609TIP3   OH225790   6.451   5.785   4.465
 8609TIP3    H125791   6.545   5.770   4.457
 8609TIP3    H225792   6.428   5.835   4.386
 8610TIP3   OH225793   6.871   0.718   5.370
 8610TIP3    H125794   6.777   0.736   5.375
 8610TIP3    H225795   6.883   0.680   5.283
 8611TIP3   OH225796   5.450   1.795   3.448
 8611TIP3    H125797   5.417   1.716   3.404
 8611TIP3    H225798   5.420   1.867   3.393
 8612TIP3   OH225799   4.623   3.622   2.468
 8612TIP3    H125800   4.538   3.597   2.503
 8612TIP3    H225801   4.682   3.619   2.543
 8613TIP3   OH225802   0.070   1.835   5.021
 8613TIP3    H125803   0.036   1.913   5.064
 8613TIP3    H225804   0.088   1.863   4.931
 8614TIP3   OH225805   5.876   0.466   3.734
 8614TIP3    H125806   5.784   0.443   3.724
 8614TIP3    H225807   5.920   0.420   3.663
 8615TIP3   OH225808   6.300   0.077   0.012
 8615TIP3    H125809   6.302   0.152  -0.047
 8615TIP3    H225810   6.344   0.107   0.091
 8616TIP3   OH225811   4.182   2.942   5.829
 8616TIP3    H125812   4.271   2.909   5.837
 8616TIP3    H225813   4.174   2.971   5.738
 8617TIP3   OH225814   1.409   3.534   4.294
 8617TIP3    H125815   1.420   3.479   4.216
 8617TIP3    H225816   1.338   3.493   4.343
 8618TIP3   OH225817   3.090   6.718   1.789
 8618TIP3    H125818   3.184   6.736   1.784
 8618TIP3    H225819   3.062   6.763   1.869
 8619TIP3   OH225820   6.488   1.203   2.388
 8619TIP3    H125821   6.410   1.159   2.421
 8619TIP3    H225822   6.556   1.182   2.451
 8620TIP3   OH225823   6.492   5.290   0.587
 8620TIP3    H125824   6.487   5.300   0.682
 8620TIP3    H225825   6.580   5.254   0.571
 8621TIP3   OH225826   2.771   2.942   3.249
 8621TIP3    H125827   2.839   3.004   3.277
 8621TIP3    H225828   2.820   2.868   3.212
 8622TIP3   OH225829   6.657   1.342   5.211
 8622TIP3    H125830   6.605   1.272   5.173
 8622TIP3    H225831   6.626   1.348   5.302
 8623TIP3   OH225832   1.768   5.578   4.311
 8623TIP3    H125833   1.844   5.636   4.299
 8623TIP3    H225834   1.697   5.620   4.263
 8624TIP3   OH225835   0.252   5.888   3.176
 8624TIP3    H125836   0.221   5.975   3.202
 8624TIP3    H225837   0.288   5.851   3.257
 8625TIP3   OH225838   4.495   4.847   0.870
 8625TIP3    H125839   4.520   4.850   0.963
 8625TIP3    H225840   4.419   4.904   0.864
 8626TIP3   OH225841   6.556   1.863   1.338
 8626TIP3    H125842   6.573   1.936   1.278
 8626TIP3    H225843   6.643   1.835   1.365
 8627TIP3   OH225844   6.147   2.919   1.390
 8627TIP3    H125845   6.119   2.828   1.394
 8627TIP3    H225846   6.092   2.965   1.453
 8628TIP3   OH225847   5.767   0.318   0.258
 8628TIP3    H125848   5.805   0.230   0.260
 8628TIP3    H225849   5.832   0.373   0.302
 8629TIP3   OH225850   1.818   2.154   3.540
 8629TIP3    H125851   1.732   2.191   3.561
 8629TIP3    H225852   1.862   2.146   3.624
 8630TIP3   OH225853   5.440   4.241   2.221
 8630TIP3    H125854   5.440   4.146   2.234
 8630TIP3    H225855   5.349   4.267   2.233
 8631TIP3   OH225856   2.243   0.377   1.351
 8631TIP3    H125857   2.179   0.360   1.421
 8631TIP3    H225858   2.199   0.441   1.294
 8632TIP3   OH225859   2.503   6.569   0.778
 8632TIP3    H125860   2.418   6.565   0.734
 8632TIP3    H225861   2.556   6.626   0.722
 8633TIP3   OH225862   1.895   3.014   2.906
 8633TIP3    H125863   1.989   3.009   2.885
 8633TIP3    H225864   1.880   3.107   2.927
 8634TIP3   OH225865   2.759   2.749   3.808
 8634TIP3    H125866   2.689   2.811   3.829
 8634TIP3    H225867   2.791   2.778   3.722
 8635TIP3   OH225868   3.507   0.464   1.638
 8635TIP3    H125869   3.527   0.551   1.672
 8635TIP3    H225870   3.471   0.480   1.551
 8636TIP3   OH225871   7.069   2.567   4.252
 8636TIP3    H125872   7.148   2.612   4.221
 8636TIP3    H225873   7.043   2.511   4.179
 8637TIP3   OH225874   1.182   0.735   2.112
 8637TIP3    H125875   1.100   0.783   2.119
 8637TIP3    H225876   1.208   0.745   2.021
 8638TIP3   OH225877   5.760   0.562   0.551
 8638TIP3    H125878   5.795   0.608   0.474
 8638TIP3    H225879   5.837   0.524   0.593
 8639TIP3   OH225880   0.567   1.005   4.069
 8639TIP3    H125881   0.537   0.929   4.018
 8639TIP3    H225882   0.570   0.973   4.159
 8640TIP3   OH225883   0.331   5.139   5.048
 8640TIP3    H125884   0.358   5.076   4.981
 8640TIP3    H225885   0.255   5.183   5.010
 8641TIP3   OH225886   0.486   3.247   5.164
 8641TIP3    H125887   0.548   3.313   5.197
 8641TIP3    H225888   0.472   3.271   5.073
 8642TIP3   OH225889   2.662   0.070   0.421
 8642TIP3    H125890   2.666  -0.011   0.472
 8642TIP3    H225891   2.570   0.095   0.423
 8643TIP3   OH225892   3.326   5.016   4.615
 8643TIP3    H125893   3.388   5.013   4.542
 8643TIP3    H225894   3.255   5.071   4.583
 8644TIP3   OH225895   2.526   4.329   4.235
 8644TIP3    H125896   2.493   4.243   4.261
 8644TIP3    H225897   2.507   4.386   4.309
 8645TIP3   OH225898   3.180   1.565   3.636
 8645TIP3    H125899   3.250   1.528   3.690
 8645TIP3    H225900   3.103   1.563   3.692
 8646TIP3   OH225901   5.540   5.775   0.611
 8646TIP3    H125902   5.495   5.842   0.559
 8646TIP3    H225903   5.617   5.819   0.646
 8647TIP3   OH225904   4.624   4.074   0.730
 8647TIP3    H125905   4.668   4.003   0.684
 8647TIP3    H225906   4.566   4.113   0.665
 8648TIP3   OH225907   3.321   3.754   0.422
 8648TIP3    H125908   3.329   3.673   0.473
 8648TIP3    H225909   3.250   3.736   0.360
 8649TIP3   OH225910   0.113   3.787   0.532
 8649TIP3    H125911   0.161   3.869   0.544
 8649TIP3    H225912   0.099   3.781   0.438
 8650TIP3   OH225913   2.005   6.707   0.351
 8650TIP3    H125914   1.954   6.672   0.279
 8650TIP3    H225915   2.027   6.796   0.324
 8651TIP3   OH225916   4.660   5.281   4.558
 8651TIP3    H125917   4.721   5.350   4.535
 8651TIP3    H225918   4.716   5.207   4.584
 8652TIP3   OH225919   4.771   2.813   4.935
 8652TIP3    H125920   4.780   2.799   5.029
 8652TIP3    H225921   4.678   2.834   4.922
 8653TIP3   OH225922   0.439   4.671   0.078
 8653TIP3    H125923   0.469   4.717   0.000
 8653TIP3    H225924   0.440   4.578   0.053
 8654TIP3   OH225925   1.634   3.497   2.940
 8654TIP3    H125926   1.597   3.569   2.889
 8654TIP3    H225927   1.558   3.446   2.969
 8655TIP3   OH225928   2.113   5.787   5.539
 8655TIP3    H125929   2.116   5.716   5.604
 8655TIP3    H225930   2.038   5.766   5.484
 8656TIP3   OH225931   1.164   1.861   4.813
 8656TIP3    H125932   1.074   1.893   4.813
 8656TIP3    H225933   1.156   1.766   4.824
 8657TIP3   OH225934   7.064   6.459   5.702
 8657TIP3    H125935   7.098   6.535   5.749
 8657TIP3    H225936   7.129   6.390   5.717
 8658TIP3   OH225937   0.464   0.115   4.879
 8658TIP3    H125938   0.551   0.152   4.861
 8658TIP3    H225939   0.407   0.191   4.888
 8659TIP3   OH225940   4.078   6.793   1.498
 8659TIP3    H125941   4.021   6.716   1.507
 8659TIP3    H225942   4.020   6.863   1.471
 8660TIP3   OH225943   1.911   4.761   3.296
 8660TIP3    H125944   1.910   4.665   3.293
 8660TIP3    H225945   1.962   4.782   3.374
 8661TIP3   OH225946   5.541   3.335   3.187
 8661TIP3    H125947   5.624   3.289   3.202
 8661TIP3    H225948   5.545   3.411   3.244
 8662TIP3   OH225949   1.747   6.186   1.497
 8662TIP3    H125950   1.822   6.127   1.501
 8662TIP3    H225951   1.785   6.273   1.509
 8663TIP3   OH225952   4.898   0.340   2.582
 8663TIP3    H125953   4.839   0.414   2.572
 8663TIP3    H225954   4.962   0.369   2.648
 8664TIP3   OH225955   3.530   5.904   1.397
 8664TIP3    H125956   3.613   5.945   1.373
 8664TIP3    H225957   3.486   5.971   1.450
 8665TIP3   OH225958   4.259   1.012   1.868
 8665TIP3    H125959   4.212   0.936   1.901
 8665TIP3    H225960   4.196   1.057   1.812
 8666TIP3   OH225961   4.119   1.102   1.563
 8666TIP3    H125962   4.052   1.162   1.595
 8666TIP3    H225963   4.122   1.116   1.468
 8667TIP3   OH225964   4.403   0.508   4.871
 8667TIP3    H125965   4.317   0.487   4.908
 8667TIP3    H225966   4.416   0.601   4.893
 8668TIP3   OH225967   5.425   3.074   1.001
 8668TIP3    H125968   5.510   3.067   0.956
 8668TIP3    H225969   5.375   2.999   0.970
 8669TIP3   OH225970   6.159   6.586   4.150
 8669TIP3    H125971   6.209   6.504   4.146
 8669TIP3    H225972   6.138   6.597   4.243
 8670TIP3   OH225973   1.833   4.259   4.842
 8670TIP3    H125974   1.892   4.194   4.803
 8670TIP3    H225975   1.760   4.207   4.876
 8671TIP3   OH225976   0.552   5.426   3.093
 8671TIP3    H125977   0.614   5.388   3.031
 8671TIP3    H225978   0.537   5.358   3.158
 8672TIP3   OH225979   1.797   1.957   5.310
 8672TIP3    H125980   1.749   1.908   5.377
 8672TIP3    H225981   1.879   1.909   5.299
 8673TIP3   OH225982   5.954   4.749   3.581
 8673TIP3    H125983   5.944   4.838   3.548
 8673TIP3    H225984   5.972   4.759   3.674
 8674TIP3   OH225985   4.502   2.157   0.650
 8674TIP3    H125986   4.413   2.191   0.646
 8674TIP3    H225987   4.558   2.229   0.621
 8675TIP3   OH225988   1.377   1.216   4.641
 8675TIP3    H125989   1.469   1.215   4.667
 8675TIP3    H225990   1.334   1.271   4.707
 8676TIP3   OH225991   1.362   2.732   0.186
 8676TIP3    H125992   1.316   2.749   0.268
 8676TIP3    H225993   1.422   2.806   0.176
 8677TIP3   OH225994   6.694   1.239   1.545
 8677TIP3    H125995   6.746   1.179   1.597
 8677TIP3    H225996   6.635   1.281   1.608
 8678TIP3   OH225997   1.286   5.712   3.147
 8678TIP3    H125998   1.292   5.616   3.146
 8678TIP3    H225999   1.318   5.736   3.234
 8679TIP3   OH226000   7.187   0.617   5.284
 8679TIP3    H126001   7.170   0.624   5.377
 8679TIP3    H226002   7.269   0.665   5.271
 8680TIP3   OH226003   4.338   0.842   0.861
 8680TIP3    H126004   4.349   0.859   0.955
 8680TIP3    H226005   4.406   0.894   0.819
 8681TIP3   OH226006   6.504   3.860   3.052
 8681TIP3    H126007   6.502   3.875   2.957
 8681TIP3    H226008   6.447   3.928   3.088
 8682TIP3   OH226009   6.394   4.897   2.853
 8682TIP3    H126010   6.303   4.912   2.829
 8682TIP3    H226011   6.430   4.985   2.868
 8683TIP3   OH226012   7.032   4.439   5.444
 8683TIP3    H126013   7.021   4.425   5.538
 8683TIP3    H226014   6.943   4.435   5.409
 8684TIP3   OH226015   1.808   3.623   1.904
 8684TIP3    H126016   1.790   3.712   1.936
 8684TIP3    H226017   1.750   3.611   1.830
 8685TIP3   OH226018   6.025   6.403   4.572
 8685TIP3    H126019   5.952   6.357   4.613
 8685TIP3    H226020   6.101   6.350   4.591
 8686TIP3   OH226021   6.301   0.344   4.662
 8686TIP3    H126022   6.342   0.411   4.716
 8686TIP3    H226023   6.327   0.261   4.701
 8687TIP3   OH226024   3.986   3.465   1.844
 8687TIP3    H126025   4.024   3.399   1.903
 8687TIP3    H226026   3.943   3.527   1.902
 8688TIP3   OH226027   0.821   6.462   2.467
 8688TIP3    H126028   0.899   6.428   2.511
 8688TIP3    H226029   0.837   6.556   2.457
 8689TIP3   OH226030   4.374   0.608   0.725
 8689TIP3    H126031   4.375   0.678   0.789
 8689TIP3    H226032   4.397   0.651   0.642
 8690TIP3   OH226033   0.858   0.591   3.585
 8690TIP3    H126034   0.929   0.531   3.609
 8690TIP3    H226035   0.823   0.622   3.668
 8691TIP3   OH226036   2.479   2.816   1.143
 8691TIP3    H126037   2.503   2.794   1.053
 8691TIP3    H226038   2.415   2.749   1.167
 8692TIP3   OH226039   4.415   4.778   1.441
 8692TIP3    H126040   4.329   4.736   1.445
 8692TIP3    H226041   4.472   4.712   1.402
 8693TIP3   OH226042   2.266   5.199   1.585
 8693TIP3    H126043   2.256   5.162   1.497
 8693TIP3    H226044   2.180   5.186   1.626
 8694TIP3   OH226045   4.026   2.967   0.435
 8694TIP3    H126046   3.949   2.987   0.382
 8694TIP3    H226047   4.100   2.991   0.380
 8695TIP3   OH226048   0.341   6.202   5.513
 8695TIP3    H126049   0.340   6.174   5.604
 8695TIP3    H226050   0.253   6.184   5.481
 8696TIP3   OH226051   4.226   2.140   1.664
 8696TIP3    H126052   4.248   2.214   1.609
 8696TIP3    H226053   4.288   2.144   1.737
 8697TIP3   OH226054   0.432   0.713   5.160
 8697TIP3    H126055   0.457   0.803   5.138
 8697TIP3    H226056   0.467   0.700   5.249
 8698TIP3   OH226057   4.306   0.210   5.611
 8698TIP3    H126058   4.258   0.226   5.529
 8698TIP3    H226059   4.386   0.262   5.603
 8699TIP3   OH226060   5.628   4.682   3.595
 8699TIP3    H126061   5.585   4.646   3.517
 8699TIP3    H226062   5.698   4.738   3.561
 8700TIP3   OH226063   3.359   5.667   2.964
 8700TIP3    H126064   3.268   5.695   2.972
 8700TIP3    H226065   3.409   5.731   3.014
 8701TIP3   OH226066   2.273   5.137   0.543
 8701TIP3    H126067   2.360   5.141   0.504
 8701TIP3    H226068   2.231   5.063   0.499
 8702TIP3   OH226069   5.281   2.200   5.246
 8702TIP3    H126070   5.221   2.199   5.171
 8702TIP3    H226071   5.297   2.108   5.265
 8703TIP3   OH226072   6.021   5.585   1.971
 8703TIP3    H126073   5.987   5.497   1.988
 8703TIP3    H226074   5.950   5.644   1.998
 8704TIP3   OH226075   5.673   5.905   3.758
 8704TIP3    H126076   5.615   5.981   3.749
 8704TIP3    H226077   5.613   5.830   3.761
 8705TIP3   OH226078   0.296   2.384   2.851
 8705TIP3    H126079   0.289   2.356   2.942
 8705TIP3    H226080   0.273   2.477   2.852
 8706TIP3   OH226081   6.202   3.229   3.786
 8706TIP3    H126082   6.189   3.151   3.840
 8706TIP3    H226083   6.199   3.302   3.848
 8707TIP3   OH226084   4.599   5.634   0.746
 8707TIP3    H126085   4.681   5.684   0.751
 8707TIP3    H226086   4.550   5.677   0.676
 8708TIP3   OH226087   6.635   5.485   2.476
 8708TIP3    H126088   6.719   5.530   2.488
 8708TIP3    H226089   6.571   5.543   2.517
 8709TIP3   OH226090   2.696   5.255   3.337
 8709TIP3    H126091   2.673   5.268   3.245
 8709TIP3    H226092   2.662   5.168   3.358
 8710TIP3   OH226093   6.557   1.646   5.547
 8710TIP3    H126094   6.470   1.613   5.525
 8710TIP3    H226095   6.617   1.589   5.497
 8711TIP3   OH226096   1.069   4.704   2.742
 8711TIP3    H126097   1.163   4.711   2.725
 8711TIP3    H226098   1.057   4.743   2.829
 8712TIP3   OH226099   2.159   3.138   0.995
 8712TIP3    H126100   2.130   3.080   0.925
 8712TIP3    H226101   2.255   3.130   0.994
 8713TIP3   OH226102   5.506   5.024   5.758
 8713TIP3    H126103   5.419   5.063   5.752
 8713TIP3    H226104   5.532   5.037   5.849
 8714TIP3   OH226105   1.376   2.660   1.754
 8714TIP3    H126106   1.444   2.724   1.733
 8714TIP3    H226107   1.321   2.704   1.819
 8715TIP3   OH226108   0.867   3.203   2.756
 8715TIP3    H126109   0.959   3.182   2.772
 8715TIP3    H226110   0.859   3.207   2.661
 8716TIP3   OH226111   2.767   2.123   2.969
 8716TIP3    H126112   2.733   2.193   3.025
 8716TIP3    H226113   2.862   2.133   2.972
 8717TIP3   OH226114   1.474   6.331   3.495
 8717TIP3    H126115   1.473   6.318   3.590
 8717TIP3    H226116   1.561   6.302   3.467
 8718TIP3   OH226117   5.944   1.560   1.085
 8718TIP3    H126118   5.871   1.622   1.084
 8718TIP3    H226119   5.936   1.513   1.168
 8719TIP3   OH226120   5.880   2.132   2.827
 8719TIP3    H126121   5.806   2.071   2.835
 8719TIP3    H226122   5.895   2.164   2.916
 8720TIP3   OH226123   3.980   5.863   0.792
 8720TIP3    H126124   4.030   5.808   0.853
 8720TIP3    H226125   4.036   5.871   0.715
 8721TIP3   OH226126   1.832   0.934   0.199
 8721TIP3    H126127   1.816   1.012   0.252
 8721TIP3    H226128   1.746   0.894   0.188
 8722TIP3   OH226129   6.998   6.210   3.197
 8722TIP3    H126130   6.942   6.274   3.242
 8722TIP3    H226131   7.066   6.189   3.262
 8723TIP3   OH226132   3.641   6.227   2.653
 8723TIP3    H126133   3.708   6.280   2.610
 8723TIP3    H226134   3.664   6.137   2.630
 8724TIP3   OH226135   2.721   4.015   3.783
 8724TIP3    H126136   2.745   4.106   3.800
 8724TIP3    H226137   2.638   4.021   3.735
 8725TIP3   OH226138   0.329   2.580   5.577
 8725TIP3    H126139   0.282   2.661   5.595
 8725TIP3    H226140   0.330   2.574   5.481
 8726TIP3   OH226141   7.152   2.571   0.081
 8726TIP3    H126142   7.238   2.567   0.122
 8726TIP3    H226143   7.153   2.501   0.015
 8727TIP3   OH226144   3.116   5.570   0.402
 8727TIP3    H126145   3.055   5.627   0.355
 8727TIP3    H226146   3.091   5.481   0.375
 8728TIP3   OH226147   5.456   5.881   3.973
 8728TIP3    H126148   5.390   5.815   3.954
 8728TIP3    H226149   5.428   5.957   3.922
 8729TIP3   OH226150   5.079   2.416   0.090
 8729TIP3    H126151   5.006   2.360   0.064
 8729TIP3    H226152   5.065   2.433   0.183
 8730TIP3   OH226153   4.165   0.639   3.611
 8730TIP3    H126154   4.107   0.659   3.685
 8730TIP3    H226155   4.185   0.546   3.620
 8731TIP3   OH226156   2.952   1.517   4.105
 8731TIP3    H126157   2.919   1.553   4.187
 8731TIP3    H226158   3.043   1.546   4.100
 8732TIP3   OH226159   2.912   5.054   0.626
 8732TIP3    H126160   2.824   5.032   0.656
 8732TIP3    H226161   2.918   5.149   0.637
 8733TIP3   OH226162   0.269   6.768   4.043
 8733TIP3    H126163   0.179   6.802   4.034
 8733TIP3    H226164   0.272   6.694   3.983
 8734TIP3   OH226165   5.758   3.178   2.070
 8734TIP3    H126166   5.668   3.154   2.044
 8734TIP3    H226167   5.747   3.234   2.147
 8735TIP3   OH226168   0.108   6.794   4.732
 8735TIP3    H126169   0.189   6.759   4.695
 8735TIP3    H226170   0.041   6.730   4.707
 8736TIP3   OH226171   4.764   0.940   4.515
 8736TIP3    H126172   4.758   0.845   4.503
 8736TIP3    H226173   4.673   0.970   4.514
 8737TIP3   OH226174   1.373   5.007   2.780
 8737TIP3    H126175   1.423   5.085   2.757
 8737TIP3    H226176   1.430   4.958   2.840
 8738TIP3   OH226177   2.407   6.304   4.288
 8738TIP3    H126178   2.452   6.382   4.321
 8738TIP3    H226179   2.367   6.333   4.206
 8739TIP3   OH226180   3.136   2.247   1.368
 8739TIP3    H126181   3.116   2.321   1.426
 8739TIP3    H226182   3.086   2.265   1.289
 8740TIP3   OH226183   5.882   2.852   2.139
 8740TIP3    H126184   5.825   2.848   2.062
 8740TIP3    H226185   5.903   2.945   2.147
 8741TIP3   OH226186   1.290   4.520   4.025
 8741TIP3    H126187   1.326   4.498   3.939
 8741TIP3    H226188   1.333   4.602   4.048
 8742TIP3   OH226189   5.815   1.926   4.543
 8742TIP3    H126190   5.764   2.006   4.557
 8742TIP3    H226191   5.841   1.898   4.631
 8743TIP3   OH226192   4.823   1.538   5.092
 8743TIP3    H126193   4.901   1.526   5.037
 8743TIP3    H226194   4.856   1.534   5.181
 8744TIP3   OH226195   2.351   3.683   4.788
 8744TIP3    H126196   2.365   3.596   4.750
 8744TIP3    H226197   2.411   3.686   4.863
 8745TIP3   OH226198   5.049   3.963   3.163
 8745TIP3    H126199   5.033   4.037   3.220
 8745TIP3    H226200   5.140   3.938   3.181
 8746TIP3   OH226201   0.071   6.475   3.792
 8746TIP3    H126202   0.002   6.539   3.776
 8746TIP3    H226203   0.151   6.515   3.756
 8747TIP3   OH226204   5.912   1.880   3.138
 8747TIP3    H126205   5.900   1.836   3.054
 8747TIP3    H226206   5.976   1.949   3.119
 8748TIP3   OH226207   5.789   4.955   5.622
 8748TIP3    H126208   5.809   4.879   5.678
 8748TIP3    H226209   5.716   4.926   5.568
 8749TIP3   OH226210   7.022   0.566   1.331
 8749TIP3    H126211   7.084   0.628   1.368
 8749TIP3    H226212   7.016   0.496   1.397
 8750TIP3   OH226213   4.689   3.027   4.239
 8750TIP3    H126214   4.762   2.965   4.233
 8750TIP3    H226215   4.729   3.110   4.264
 8751TIP3   OH226216   6.127   6.681   3.336
 8751TIP3    H126217   6.125   6.650   3.245
 8751TIP3    H226218   6.216   6.713   3.348
 8752TIP3   OH226219   5.313   1.542   4.254
 8752TIP3    H126220   5.230   1.513   4.293
 8752TIP3    H226221   5.380   1.503   4.310
 8753TIP3   OH226222   5.464   1.183   2.185
 8753TIP3    H126223   5.470   1.089   2.203
 8753TIP3    H226224   5.555   1.211   2.173
 8754TIP3   OH226225   2.633   6.568   5.127
 8754TIP3    H126226   2.718   6.606   5.106
 8754TIP3    H226227   2.620   6.501   5.059
 8755TIP3   OH226228   2.235   2.475   2.655
 8755TIP3    H126229   2.321   2.442   2.628
 8755TIP3    H226230   2.246   2.502   2.746
 8756TIP3   OH226231   2.095   3.847   4.174
 8756TIP3    H126232   2.040   3.877   4.246
 8756TIP3    H226233   2.078   3.753   4.168
 8757TIP3   OH226234   2.050   2.199   5.142
 8757TIP3    H126235   2.019   2.205   5.232
 8757TIP3    H226236   2.129   2.254   5.141
 8758TIP3   OH226237   6.926   1.644   0.614
 8758TIP3    H126238   6.866   1.626   0.686
 8758TIP3    H226239   6.896   1.587   0.543
 8759TIP3   OH226240   3.455   2.135   0.669
 8759TIP3    H126241   3.529   2.171   0.620
 8759TIP3    H226242   3.458   2.182   0.753
 8760TIP3   OH226243   4.428   5.204   2.888
 8760TIP3    H126244   4.493   5.225   2.956
 8760TIP3    H226245   4.433   5.278   2.827
 8761TIP3   OH226246   2.999   0.567   4.422
 8761TIP3    H126247   3.005   0.472   4.425
 8761TIP3    H226248   2.920   0.588   4.471
 8762TIP3   OH226249   6.436   0.302   2.167
 8762TIP3    H126250   6.430   0.249   2.087
 8762TIP3    H226251   6.501   0.369   2.146
 8763TIP3   OH226252   4.167   1.124   5.697
 8763TIP3    H126253   4.169   1.218   5.715
 8763TIP3    H226254   4.257   1.101   5.675
 8764TIP3   OH226255   3.786   2.772   4.317
 8764TIP3    H126256   3.706   2.790   4.365
 8764TIP3    H226257   3.757   2.748   4.228
 8765TIP3   OH226258   0.737   2.339   4.247
 8765TIP3    H126259   0.691   2.414   4.285
 8765TIP3    H226260   0.807   2.319   4.309
 8766TIP3   OH226261   4.091   0.841   5.330
 8766TIP3    H126262   4.167   0.863   5.384
 8766TIP3    H226263   4.088   0.910   5.264
 8767TIP3   OH226264   4.634   0.660   0.293
 8767TIP3    H126265   4.668   0.667   0.204
 8767TIP3    H226266   4.541   0.642   0.283
 8768TIP3   OH226267   0.405   5.207   4.437
 8768TIP3    H126268   0.346   5.254   4.378
 8768TIP3    H226269   0.415   5.265   4.513
 8769TIP3   OH226270   5.356   4.000   4.862
 8769TIP3    H126271   5.305   3.945   4.802
 8769TIP3    H226272   5.396   3.939   4.923
 8770TIP3   OH226273   3.874   4.272   3.254
 8770TIP3    H126274   3.898   4.288   3.346
 8770TIP3    H226275   3.803   4.334   3.237
 8771TIP3   OH226276   6.999   1.409   3.567
 8771TIP3    H126277   6.983   1.477   3.502
 8771TIP3    H226278   6.932   1.343   3.551
 8772TIP3   OH226279   1.260   6.322   2.557
 8772TIP3    H126280   1.249   6.375   2.478
 8772TIP3    H226281   1.295   6.383   2.622
 8773TIP3   OH226282   2.510   0.074   4.998
 8773TIP3    H126283   2.491   0.032   4.914
 8773TIP3    H226284   2.425   0.094   5.035
 8774TIP3   OH226285   3.308   4.980   3.034
 8774TIP3    H126286   3.236   4.932   3.075
 8774TIP3    H226287   3.309   4.947   2.944
 8775TIP3   OH226288   6.348   4.651   1.504
 8775TIP3    H126289   6.383   4.635   1.592
 8775TIP3    H226290   6.261   4.688   1.518
 8776TIP3   OH226291   3.291   2.971   1.860
 8776TIP3    H126292   3.316   2.890   1.904
 8776TIP3    H226293   3.197   2.962   1.845
 8777TIP3   OH226294   0.357   4.013   3.901
 8777TIP3    H126295   0.275   4.020   3.852
 8777TIP3    H226296   0.348   3.934   3.954
 8778TIP3   OH226297   3.083   4.099   2.016
 8778TIP3    H126298   3.030   4.158   2.068
 8778TIP3    H226299   3.033   4.085   1.936
 8779TIP3   OH226300   3.802   1.598   2.712
 8779TIP3    H126301   3.773   1.579   2.801
 8779TIP3    H226302   3.728   1.573   2.657
 8780TIP3   OH226303   4.819   0.859   1.425
 8780TIP3    H126304   4.863   0.830   1.505
 8780TIP3    H226305   4.882   0.916   1.382
 8781TIP3   OH226306   2.868   3.836   0.540
 8781TIP3    H126307   2.896   3.760   0.591
 8781TIP3    H226308   2.849   3.800   0.453
 8782TIP3   OH226309   2.381   5.592   2.983
 8782TIP3    H126310   2.381   5.687   2.994
 8782TIP3    H226311   2.434   5.560   3.057
 8783TIP3   OH226312   7.074   3.778   3.578
 8783TIP3    H126313   7.149   3.825   3.541
 8783TIP3    H226314   6.998   3.828   3.548
 8784TIP3   OH226315   0.041   2.656   4.472
 8784TIP3    H126316   0.078   2.568   4.472
 8784TIP3    H226317   0.028   2.677   4.380
 8785TIP3   OH226318   7.137  -0.024   4.779
 8785TIP3    H126319   7.190   0.055   4.789
 8785TIP3    H226320   7.048   0.008   4.767
 8786TIP3   OH226321   0.694   6.369   4.177
 8786TIP3    H126322   0.644   6.422   4.239
 8786TIP3    H226323   0.782   6.406   4.179
 8787TIP3   OH226324   2.918   6.579   1.204
 8787TIP3    H126325   2.880   6.563   1.291
 8787TIP3    H226326   3.010   6.559   1.214
 8788TIP3   OH226327   7.213   1.123   4.822
 8788TIP3    H126328   7.210   1.035   4.785
 8788TIP3    H226329   7.160   1.176   4.763
 8789TIP3   OH226330   3.390   6.123   1.506
 8789TIP3    H126331   3.315   6.167   1.465
 8789TIP3    H226332   3.433   6.191   1.557
 8790TIP3   OH226333   0.119   1.256   3.952
 8790TIP3    H126334   0.206   1.250   3.992
 8790TIP3    H226335   0.112   1.346   3.921
 8791TIP3   OH226336   3.053   2.708   2.821
 8791TIP3    H126337   2.972   2.747   2.788
 8791TIP3    H226338   3.030   2.617   2.839
 8792TIP3   OH226339   6.714   2.589   4.427
 8792TIP3    H126340   6.632   2.607   4.382
 8792TIP3    H226341   6.744   2.505   4.391
 8793TIP3   OH226342   6.109   2.455   4.263
 8793TIP3    H126343   6.104   2.474   4.356
 8793TIP3    H226344   6.168   2.381   4.256
 8794TIP3   OH226345   7.042   3.228   4.907
 8794TIP3    H126346   6.975   3.194   4.966
 8794TIP3    H226347   7.109   3.265   4.965
 8795TIP3   OH226348   2.169   0.967   4.081
 8795TIP3    H126349   2.192   1.058   4.063
 8795TIP3    H226350   2.161   0.963   4.177
 8796TIP3   OH226351   4.815   5.416   2.840
 8796TIP3    H126352   4.888   5.366   2.877
 8796TIP3    H226353   4.743   5.402   2.902
 8797TIP3   OH226354   3.521   4.064   3.390
 8797TIP3    H126355   3.490   3.986   3.437
 8797TIP3    H226356   3.616   4.063   3.403
 8798TIP3   OH226357   4.743   3.468   0.242
 8798TIP3    H126358   4.821   3.517   0.267
 8798TIP3    H226359   4.742   3.393   0.301
 8799TIP3   OH226360   1.538   2.874   1.405
 8799TIP3    H126361   1.495   2.914   1.480
 8799TIP3    H226362   1.471   2.821   1.363
 8800TIP3   OH226363   1.102   6.779   1.423
 8800TIP3    H126364   1.044   6.748   1.354
 8800TIP3    H226365   1.058   6.857   1.458
 8801TIP3   OH226366   7.082   4.206   4.040
 8801TIP3    H126367   6.999   4.235   4.003
 8801TIP3    H226368   7.061   4.125   4.087
 8802TIP3   OH226369   1.805   6.466   4.278
 8802TIP3    H126370   1.814   6.556   4.310
 8802TIP3    H226371   1.712   6.458   4.256
 8803TIP3   OH226372   0.233   0.231   5.769
 8803TIP3    H126373   0.157   0.191   5.725
 8803TIP3    H226374   0.309   0.195   5.724
 8804TIP3   OH226375   3.297   3.883   1.535
 8804TIP3    H126376   3.286   3.889   1.630
 8804TIP3    H226377   3.231   3.943   1.500
 8805TIP3   OH226378   2.017   5.538   2.824
 8805TIP3    H126379   1.937   5.487   2.838
 8805TIP3    H226380   2.067   5.527   2.905
 8806TIP3   OH226381   3.438   6.597   2.473
 8806TIP3    H126382   3.472   6.642   2.550
 8806TIP3    H226383   3.440   6.504   2.497
 8807TIP3   OH226384   0.770   3.937   1.081
 8807TIP3    H126385   0.776   3.913   0.988
 8807TIP3    H226386   0.833   4.008   1.092
 8808TIP3   OH226387   4.136   2.325   3.723
 8808TIP3    H126388   4.049   2.337   3.759
 8808TIP3    H226389   4.195   2.344   3.795
 8809TIP3   OH226390   2.111   2.932   5.535
 8809TIP3    H126391   2.044   2.969   5.592
 8809TIP3    H226392   2.062   2.885   5.467
 8810TIP3   OH226393   0.508   5.692   5.470
 8810TIP3    H126394   0.576   5.654   5.416
 8810TIP3    H226395   0.446   5.620   5.485
 8811TIP3   OH226396   4.394   0.705   1.930
 8811TIP3    H126397   4.457   0.771   1.956
 8811TIP3    H226398   4.322   0.714   1.991
 8812TIP3   OH226399   3.302   3.486   3.548
 8812TIP3    H126400   3.383   3.495   3.597
 8812TIP3    H226401   3.326   3.512   3.458
 8813TIP3   OH226402   0.611   0.614   0.910
 8813TIP3    H126403   0.579   0.683   0.852
 8813TIP3    H226404   0.681   0.655   0.961
 8814TIP3   OH226405   5.077   2.863   3.790
 8814TIP3    H126406   5.088   2.951   3.753
 8814TIP3    H226407   5.010   2.822   3.735
 8815TIP3   OH226408   1.455   4.273   0.301
 8815TIP3    H126409   1.362   4.273   0.326
 8815TIP3    H226410   1.479   4.365   0.298
 8816TIP3   OH226411   2.829   0.955   2.234
 8816TIP3    H126412   2.750   0.930   2.281
 8816TIP3    H226413   2.850   0.879   2.180
 8817TIP3   OH226414   3.074   6.130   0.719
 8817TIP3    H126415   2.988   6.161   0.749
 8817TIP3    H226416   3.085   6.172   0.633
 8818TIP3   OH226417   5.904   3.125   2.982
 8818TIP3    H126418   5.911   3.214   2.947
 8818TIP3    H226419   5.904   3.069   2.905
 8819TIP3   OH226420   5.402   5.062   2.785
 8819TIP3    H126421   5.447   5.062   2.700
 8819TIP3    H226422   5.358   4.977   2.789
 8820TIP3   OH226423   0.266   5.756   5.130
 8820TIP3    H126424   0.229   5.721   5.049
 8820TIP3    H226425   0.254   5.851   5.122
 8821TIP3   OH226426   1.955   0.487   4.519
 8821TIP3    H126427   1.964   0.486   4.424
 8821TIP3    H226428   1.862   0.471   4.534
 8822TIP3   OH226429   2.967   6.612   2.247
 8822TIP3    H126430   3.014   6.693   2.227
 8822TIP3    H226431   3.036   6.548   2.265
 8823TIP3   OH226432   1.549   3.454   2.509
 8823TIP3    H126433   1.486   3.470   2.579
 8823TIP3    H226434   1.555   3.538   2.463
 8824TIP3   OH226435   3.024   5.760   4.663
 8824TIP3    H126436   3.037   5.718   4.578
 8824TIP3    H226437   2.954   5.709   4.704
 8825TIP3   OH226438   0.521   5.720   4.353
 8825TIP3    H126439   0.578   5.645   4.374
 8825TIP3    H226440   0.542   5.786   4.419
 8826TIP3   OH226441   5.010   6.501   0.787
 8826TIP3    H126442   5.071   6.552   0.840
 8826TIP3    H226443   4.923   6.522   0.822
 8827TIP3   OH226444   1.384   1.335   1.883
 8827TIP3    H126445   1.470   1.316   1.920
 8827TIP3    H226446   1.329   1.354   1.959
 8828TIP3   OH226447   1.505   2.020   5.606
 8828TIP3    H126448   1.557   2.067   5.671
 8828TIP3    H226449   1.466   2.089   5.552
 8829TIP3   OH226450   5.830   4.820   4.617
 8829TIP3    H126451   5.741   4.792   4.640
 8829TIP3    H226452   5.883   4.741   4.625
 8830TIP3   OH226453   0.166   4.887   2.268
 8830TIP3    H126454   0.234   4.863   2.204
 8830TIP3    H226455   0.137   4.974   2.241
 8831TIP3   OH226456   3.295   5.221   4.238
 8831TIP3    H126457   3.279   5.275   4.161
 8831TIP3    H226458   3.212   5.177   4.255
 8832TIP3   OH226459   4.906   1.220   1.148
 8832TIP3    H126460   4.826   1.179   1.115
 8832TIP3    H226461   4.888   1.314   1.147
 8833TIP3   OH226462   5.461   3.584   4.978
 8833TIP3    H126463   5.500   3.508   5.022
 8833TIP3    H226464   5.535   3.642   4.961
 8834TIP3   OH226465   2.605   5.286   4.606
 8834TIP3    H126466   2.580   5.327   4.689
 8834TIP3    H226467   2.523   5.262   4.565
 8835TIP3   OH226468   3.010   6.596   0.111
 8835TIP3    H126469   3.098   6.627   0.132
 8835TIP3    H226470   2.980   6.654   0.041
 8836TIP3   OH226471   2.315   1.338   0.600
 8836TIP3    H126472   2.265   1.404   0.648
 8836TIP3    H226473   2.317   1.262   0.659
 8837TIP3   OH226474   1.259   2.626   5.214
 8837TIP3    H126475   1.192   2.648   5.279
 8837TIP3    H226476   1.219   2.650   5.130
 8838TIP3   OH226477   2.194   5.016   5.366
 8838TIP3    H126478   2.202   4.964   5.446
 8838TIP3    H226479   2.283   5.049   5.350
 8839TIP3   OH226480   4.277   1.983   3.912
 8839TIP3    H126481   4.284   2.060   3.969
 8839TIP3    H226482   4.327   2.007   3.833
 8840TIP3   OH226483   3.096   0.728   5.793
 8840TIP3    H126484   3.137   0.794   5.849
 8840TIP3    H226485   3.145   0.734   5.710
 8841TIP3   OH226486   2.664   5.919   1.820
 8841TIP3    H126487   2.668   6.011   1.849
 8841TIP3    H226488   2.688   5.923   1.727
 8842TIP3   OH226489   5.450   4.472   4.048
 8842TIP3    H126490   5.495   4.390   4.065
 8842TIP3    H226491   5.449   4.480   3.953
 8843TIP3   OH226492   5.202   6.627   5.640
 8843TIP3    H126493   5.181   6.556   5.580
 8843TIP3    H226494   5.229   6.584   5.721
 8844TIP3   OH226495   5.391   2.090   1.715
 8844TIP3    H126496   5.477   2.092   1.756
 8844TIP3    H226497   5.370   1.997   1.707
 8845TIP3   OH226498   4.680   4.290   3.531
 8845TIP3    H126499   4.764   4.263   3.493
 8845TIP3    H226500   4.643   4.351   3.467
 8846TIP3   OH226501   6.800   3.725   2.252
 8846TIP3    H126502   6.708   3.713   2.276
 8846TIP3    H226503   6.797   3.772   2.169
 8847TIP3   OH226504   2.743   5.470   2.740
 8847TIP3    H126505   2.785   5.416   2.807
 8847TIP3    H226506   2.651   5.472   2.764
 8848TIP3   OH226507   2.419   2.655   2.489
 8848TIP3    H126508   2.333   2.684   2.521
 8848TIP3    H226509   2.399   2.581   2.432
 8849TIP3   OH226510   4.564   0.980   3.588
 8849TIP3    H126511   4.543   1.014   3.675
 8849TIP3    H226512   4.557   0.885   3.598
 8850TIP3   OH226513   5.380   3.946   1.869
 8850TIP3    H126514   5.470   3.976   1.882
 8850TIP3    H226515   5.371   3.872   1.928
 8851TIP3   OH226516   2.037   2.979   5.148
 8851TIP3    H126517   2.058   3.052   5.090
 8851TIP3    H226518   1.963   3.012   5.201
 8852TIP3   OH226519   0.961   3.385   4.744
 8852TIP3    H126520   0.990   3.407   4.832
 8852TIP3    H226521   1.017   3.312   4.717
 8853TIP3   OH226522   1.883   0.593   0.266
 8853TIP3    H126523   1.976   0.613   0.254
 8853TIP3    H226524   1.881   0.500   0.289
 8854TIP3   OH226525   1.096   3.550   2.609
 8854TIP3    H126526   1.058   3.620   2.556
 8854TIP3    H226527   1.103   3.475   2.549
 8855TIP3   OH226528   5.715   1.065   5.601
 8855TIP3    H126529   5.717   1.160   5.586
 8855TIP3    H226530   5.802   1.035   5.573
 8856TIP3   OH226531   0.602   4.296   5.001
 8856TIP3    H126532   0.690   4.309   4.965
 8856TIP3    H226533   0.554   4.375   4.977
 8857TIP3   OH226534   6.734   3.638   1.600
 8857TIP3    H126535   6.732   3.676   1.688
 8857TIP3    H226536   6.823   3.656   1.569
 8858TIP3   OH226537   1.215   5.287   0.447
 8858TIP3    H126538   1.271   5.240   0.509
 8858TIP3    H226539   1.277   5.327   0.386
 8859TIP3   OH226540   1.594   1.199   3.441
 8859TIP3    H126541   1.608   1.241   3.356
 8859TIP3    H226542   1.680   1.163   3.464
 8860TIP3   OH226543   3.699   1.673   4.845
 8860TIP3    H126544   3.780   1.623   4.837
 8860TIP3    H226545   3.630   1.613   4.816
 8861TIP3   OH226546   2.017   1.813   4.422
 8861TIP3    H126547   1.954   1.742   4.410
 8861TIP3    H226548   1.976   1.888   4.380
 8862TIP3   OH226549   3.526   2.703   3.218
 8862TIP3    H126550   3.572   2.628   3.256
 8862TIP3    H226551   3.442   2.705   3.263
 8863TIP3   OH226552   0.529   2.560   3.893
 8863TIP3    H126553   0.462   2.623   3.866
 8863TIP3    H226554   0.578   2.605   3.961
 8864TIP3   OH226555   4.750   2.157   0.221
 8864TIP3    H126556   4.788   2.187   0.304
 8864TIP3    H226557   4.771   2.064   0.218
 8865TIP3   OH226558   0.661   6.560   1.237
 8865TIP3    H126559   0.722   6.489   1.218
 8865TIP3    H226560   0.663   6.615   1.158
 8866TIP3   OH226561   0.663   5.117   5.306
 8866TIP3    H126562   0.687   5.066   5.384
 8866TIP3    H226563   0.697   5.066   5.233
 8867TIP3   OH226564   4.028   1.294   5.353
 8867TIP3    H126565   3.981   1.218   5.387
 8867TIP3    H226566   4.113   1.259   5.325
 8868TIP3   OH226567   1.018   3.995   2.796
 8868TIP3    H126568   1.030   4.087   2.771
 8868TIP3    H226569   0.929   3.973   2.766
 8869TIP3   OH226570   5.679   0.820   4.293
 8869TIP3    H126571   5.587   0.844   4.299
 8869TIP3    H226572   5.722   0.898   4.256
 8870TIP3   OH226573   4.975   3.581   3.898
 8870TIP3    H126574   4.990   3.674   3.913
 8870TIP3    H226575   5.060   3.547   3.870
 8871TIP3   OH226576   3.476   1.952   2.839
 8871TIP3    H126577   3.435   1.874   2.874
 8871TIP3    H226578   3.567   1.925   2.821
 8872TIP3   OH226579   6.274   4.905   3.803
 8872TIP3    H126580   6.212   4.967   3.765
 8872TIP3    H226581   6.308   4.950   3.880
 8873TIP3   OH226582   0.721   4.334   4.363
 8873TIP3    H126583   0.803   4.328   4.414
 8873TIP3    H226584   0.728   4.263   4.299
 8874TIP3   OH226585   2.091   2.082   3.690
 8874TIP3    H126586   2.175   2.124   3.712
 8874TIP3    H226587   2.101   2.056   3.598
 8875TIP3   OH226588   1.201   1.857   4.059
 8875TIP3    H126589   1.249   1.782   4.093
 8875TIP3    H226590   1.162   1.826   3.977
 8876TIP3   OH226591   3.572   4.355   4.543
 8876TIP3    H126592   3.656   4.310   4.529
 8876TIP3    H226593   3.555   4.344   4.637
 8877TIP3   OH226594   6.922   5.547   5.103
 8877TIP3    H126595   6.970   5.465   5.111
 8877TIP3    H226596   6.986   5.608   5.066
 8878TIP3   OH226597   3.661   4.677   1.080
 8878TIP3    H126598   3.672   4.755   1.027
 8878TIP3    H226599   3.623   4.708   1.162
 8879TIP3   OH226600   5.364   4.946   1.435
 8879TIP3    H126601   5.440   4.891   1.418
 8879TIP3    H226602   5.394   5.008   1.502
 8880TIP3   OH226603   0.638   5.517   0.563
 8880TIP3    H126604   0.592   5.495   0.644
 8880TIP3    H226605   0.615   5.608   0.546
 8881TIP3   OH226606   2.717   4.003   2.748
 8881TIP3    H126607   2.765   4.028   2.670
 8881TIP3    H226608   2.784   3.994   2.816
 8882TIP3   OH226609   2.234   4.403   0.147
 8882TIP3    H126610   2.170   4.337   0.119
 8882TIP3    H226611   2.317   4.372   0.112
 8883TIP3   OH226612   4.743   1.729   5.850
 8883TIP3    H126613   4.779   1.755   5.934
 8883TIP3    H226614   4.648   1.735   5.862
 8884TIP3   OH226615   4.566   5.181   5.720
 8884TIP3    H126616   4.645   5.158   5.769
 8884TIP3    H226617   4.501   5.116   5.746
 8885TIP3   OH226618   0.264   0.289   1.406
 8885TIP3    H126619   0.336   0.238   1.367
 8885TIP3    H226620   0.209   0.224   1.448
 8886TIP3   OH226621   6.771   2.414   0.515
 8886TIP3    H126622   6.834   2.486   0.513
 8886TIP3    H226623   6.732   2.413   0.428
 8887TIP3   OH226624   0.665   6.317   0.450
 8887TIP3    H126625   0.745   6.325   0.399
 8887TIP3    H226626   0.647   6.223   0.453
 8888TIP3   OH226627   6.199   2.964   3.559
 8888TIP3    H126628   6.143   3.036   3.528
 8888TIP3    H226629   6.147   2.885   3.546
 8889TIP3   OH226630   1.138   5.468   5.833
 8889TIP3    H126631   1.181   5.547   5.865
 8889TIP3    H226632   1.045   5.483   5.851
 8890TIP3   OH226633   1.498   5.321   2.203
 8890TIP3    H126634   1.439   5.257   2.243
 8890TIP3    H226635   1.504   5.392   2.267
 8891TIP3   OH226636   4.567   5.995   1.279
 8891TIP3    H126637   4.562   6.090   1.294
 8891TIP3    H226638   4.476   5.966   1.283
 8892TIP3   OH226639   3.788   3.789   5.547
 8892TIP3    H126640   3.878   3.759   5.558
 8892TIP3    H226641   3.767   3.771   5.456
 8893TIP3   OH226642   2.693   2.774   0.464
 8893TIP3    H126643   2.633   2.794   0.536
 8893TIP3    H226644   2.637   2.776   0.386
 8894TIP3   OH226645   2.647   3.775   3.938
 8894TIP3    H126646   2.734   3.745   3.965
 8894TIP3    H226647   2.662   3.859   3.896
 8895TIP3   OH226648   3.296   5.946   0.504
 8895TIP3    H126649   3.327   5.973   0.418
 8895TIP3    H226650   3.241   6.018   0.534
 8896TIP3   OH226651   1.321   1.098   3.887
 8896TIP3    H126652   1.395   1.143   3.930
 8896TIP3    H226653   1.341   1.104   3.793
 8897TIP3   OH226654   7.056   0.179   4.106
 8897TIP3    H126655   7.021   0.247   4.163
 8897TIP3    H226656   7.115   0.129   4.162
 8898TIP3   OH226657   3.791   4.105   4.282
 8898TIP3    H126658   3.772   4.157   4.360
 8898TIP3    H226659   3.723   4.129   4.219
 8899TIP3   OH226660   3.281   0.994   4.977
 8899TIP3    H126661   3.352   0.975   5.039
 8899TIP3    H226662   3.219   0.922   4.987
 8900TIP3   OH226663   3.410   4.233   4.326
 8900TIP3    H126664   3.490   4.202   4.284
 8900TIP3    H226665   3.432   4.321   4.357
 8901TIP3   OH226666   4.505   5.888   1.943
 8901TIP3    H126667   4.544   5.973   1.963
 8901TIP3    H226668   4.417   5.909   1.912
 8902TIP3   OH226669   5.176   6.166   2.748
 8902TIP3    H126670   5.254   6.111   2.756
 8902TIP3    H226671   5.139   6.143   2.662
 8903TIP3   OH226672   6.691   3.187   2.359
 8903TIP3    H126673   6.674   3.103   2.402
 8903TIP3    H226674   6.763   3.168   2.299
 8904TIP3   OH226675   4.276   1.425   5.056
 8904TIP3    H126676   4.218   1.501   5.058
 8904TIP3    H226677   4.355   1.454   5.102
 8905TIP3   OH226678   3.484   5.426   0.363
 8905TIP3    H126679   3.499   5.490   0.433
 8905TIP3    H226680   3.484   5.479   0.283
 8906TIP3   OH226681   6.102   3.668   2.337
 8906TIP3    H126682   6.020   3.653   2.384
 8906TIP3    H226683   6.131   3.754   2.365
 8907TIP3   OH226684   1.834   1.804   4.059
 8907TIP3    H126685   1.918   1.762   4.075
 8907TIP3    H226686   1.840   1.888   4.105
 8908TIP3   OH226687   6.765   5.040   0.961
 8908TIP3    H126688   6.707   5.022   1.035
 8908TIP3    H226689   6.851   5.053   1.001
 8909TIP3   OH226690   2.891   6.553   4.322
 8909TIP3    H126691   2.872   6.638   4.282
 8909TIP3    H226692   2.829   6.546   4.395
 8910TIP3   OH226693   0.914   5.644   4.278
 8910TIP3    H126694   0.910   5.706   4.351
 8910TIP3    H226695   0.912   5.699   4.199
 8911TIP3   OH226696   0.113   0.181   3.780
 8911TIP3    H126697   0.176   0.154   3.713
 8911TIP3    H226698   0.036   0.126   3.764
 8912TIP3   OH226699   2.053   5.850   1.017
 8912TIP3    H126700   2.032   5.910   1.089
 8912TIP3    H226701   2.148   5.848   1.015
 8913TIP3   OH226702   1.961   5.807   5.272
 8913TIP3    H126703   1.987   5.715   5.266
 8913TIP3    H226704   2.003   5.849   5.197
 8914TIP3   OH226705   5.595   1.497   4.100
 8914TIP3    H126706   5.514   1.499   4.049
 8914TIP3    H226707   5.567   1.473   4.189
 8915TIP3   OH226708   0.984   5.795   4.541
 8915TIP3    H126709   1.064   5.784   4.489
 8915TIP3    H226710   0.971   5.890   4.546
 8916TIP3   OH226711   0.260   4.012   2.704
 8916TIP3    H126712   0.225   4.086   2.755
 8916TIP3    H226713   0.191   3.993   2.640
 8917TIP3   OH226714   0.953   4.111   2.464
 8917TIP3    H126715   0.931   4.186   2.408
 8917TIP3    H226716   0.876   4.054   2.460
 8918TIP3   OH226717   0.630   0.414   2.701
 8918TIP3    H126718   0.662   0.325   2.682
 8918TIP3    H226719   0.535   0.406   2.697
 8919TIP3   OH226720   5.017   5.763   1.020
 8919TIP3    H126721   5.068   5.842   1.005
 8919TIP3    H226722   4.956   5.787   1.091
 8920TIP3   OH226723   0.434   5.080   1.488
 8920TIP3    H126724   0.375   5.016   1.528
 8920TIP3    H226725   0.478   5.121   1.562
 8921TIP3   OH226726   0.072   6.418   1.447
 8921TIP3    H126727   0.003   6.455   1.392
 8921TIP3    H226728   0.140   6.390   1.385
 8922TIP3   OH226729   3.768   6.176   5.074
 8922TIP3    H126730   3.777   6.114   5.002
 8922TIP3    H226731   3.737   6.257   5.033
 8923TIP3   OH226732   1.122   4.367   0.780
 8923TIP3    H126733   1.052   4.429   0.757
 8923TIP3    H226734   1.154   4.334   0.696
 8924TIP3   OH226735   6.835   0.089   5.498
 8924TIP3    H126736   6.867   0.146   5.569
 8924TIP3    H226737   6.909   0.033   5.477
 8925TIP3   OH226738   2.298   1.827   0.313
 8925TIP3    H126739   2.233   1.764   0.283
 8925TIP3    H226740   2.349   1.780   0.378
 8926TIP3   OH226741   5.708   3.816   2.184
 8926TIP3    H126742   5.672   3.879   2.121
 8926TIP3    H226743   5.735   3.870   2.259
 8927TIP3   OH226744   4.113   2.470   2.767
 8927TIP3    H126745   4.138   2.461   2.675
 8927TIP3    H226746   4.124   2.383   2.804
 8928TIP3   OH226747   4.119   5.661   4.962
 8928TIP3    H126748   4.160   5.647   4.877
 8928TIP3    H226749   4.060   5.585   4.973
 8929TIP3   OH226750   0.933   5.625   4.901
 8929TIP3    H126751   0.954   5.560   4.968
 8929TIP3    H226752   0.962   5.586   4.819
 8930TIP3   OH226753   0.785   0.843   4.780
 8930TIP3    H126754   0.742   0.768   4.820
 8930TIP3    H226755   0.876   0.814   4.769
 8931TIP3   OH226756   6.521   3.992   1.216
 8931TIP3    H126757   6.434   4.000   1.256
 8931TIP3    H226758   6.515   4.043   1.135
 8932TIP3   OH226759   1.658   0.727   2.211
 8932TIP3    H126760   1.637   0.805   2.160
 8932TIP3    H226761   1.696   0.760   2.293
 8933TIP3   OH226762   5.143   5.345   5.535
 8933TIP3    H126763   5.061   5.305   5.508
 8933TIP3    H226764   5.168   5.402   5.462
 8934TIP3   OH226765   6.115   3.568   2.071
 8934TIP3    H126766   6.136   3.549   2.163
 8934TIP3    H226767   6.057   3.643   2.075
 8935TIP3   OH226768   6.012   3.060   5.684
 8935TIP3    H126769   6.103   3.050   5.657
 8935TIP3    H226770   5.986   3.145   5.647
 8936TIP3   OH226771   1.008   4.169   4.707
 8936TIP3    H126772   0.964   4.248   4.676
 8936TIP3    H226773   1.099   4.178   4.678
 8937TIP3   OH226774   1.695   0.368   0.438
 8937TIP3    H126775   1.631   0.324   0.495
 8937TIP3    H226776   1.735   0.434   0.494
 8938TIP3   OH226777   1.769   5.073   1.650
 8938TIP3    H126778   1.755   5.140   1.716
 8938TIP3    H226779   1.682   5.033   1.638
 8939TIP3   OH226780   5.327   3.525   1.119
 8939TIP3    H126781   5.278   3.608   1.119
 8939TIP3    H226782   5.383   3.531   1.041
 8940TIP3   OH226783   4.715   0.006   1.505
 8940TIP3    H126784   4.754   0.055   1.577
 8940TIP3    H226785   4.649   0.065   1.469
 8941TIP3   OH226786   3.732   2.436   2.766
 8941TIP3    H126787   3.644   2.461   2.794
 8941TIP3    H226788   3.787   2.459   2.841
 8942TIP3   OH226789   5.688   1.344   5.559
 8942TIP3    H126790   5.606   1.372   5.600
 8942TIP3    H226791   5.756   1.377   5.618
 8943TIP3   OH226792   2.073   1.515   5.309
 8943TIP3    H126793   2.159   1.550   5.286
 8943TIP3    H226794   2.023   1.591   5.339
 8944TIP3   OH226795   4.932   2.423   1.058
 8944TIP3    H126796   5.027   2.423   1.071
 8944TIP3    H226797   4.913   2.511   1.024
 8945TIP3   OH226798   5.394   5.215   3.002
 8945TIP3    H126799   5.385   5.171   2.918
 8945TIP3    H226800   5.315   5.191   3.051
 8946TIP3   OH226801   2.839   2.209   3.531
 8946TIP3    H126802   2.912   2.188   3.590
 8946TIP3    H226803   2.817   2.126   3.489
 8947TIP3   OH226804   2.536   3.006   5.361
 8947TIP3    H126805   2.519   3.100   5.356
 8947TIP3    H226806   2.452   2.965   5.343
 8948TIP3   OH226807   4.064   4.954   1.747
 8948TIP3    H126808   4.011   4.960   1.826
 8948TIP3    H226809   4.018   4.888   1.693
 8949TIP3   OH226810   5.364   0.183   4.518
 8949TIP3    H126811   5.392   0.132   4.594
 8949TIP3    H226812   5.439   0.237   4.496
 8950TIP3   OH226813   0.553   0.270   5.783
 8950TIP3    H126814   0.501   0.234   5.855
 8950TIP3    H226815   0.529   0.216   5.708
 8951TIP3   OH226816   1.334   2.089   0.609
 8951TIP3    H126817   1.412   2.033   0.607
 8951TIP3    H226818   1.305   2.086   0.701
 8952TIP3   OH226819   5.430   5.932   5.712
 8952TIP3    H126820   5.377   5.966   5.785
 8952TIP3    H226821   5.486   6.006   5.687
 8953TIP3   OH226822   4.904   2.225   0.476
 8953TIP3    H126823   4.834   2.246   0.539
 8953TIP3    H226824   4.957   2.160   0.521
 8954TIP3   OH226825   4.034   5.071   3.464
 8954TIP3    H126826   3.945   5.041   3.481
 8954TIP3    H226827   4.028   5.166   3.464
 8955TIP3   OH226828   3.726   3.034   1.849
 8955TIP3    H126829   3.723   3.008   1.757
 8955TIP3    H226830   3.748   2.954   1.896
 8956TIP3   OH226831   0.042   0.506   4.061
 8956TIP3    H126832  -0.049   0.533   4.045
 8956TIP3    H226833   0.036   0.414   4.087
 8957TIP3   OH226834   5.453   1.931   3.868
 8957TIP3    H126835   5.497   1.926   3.952
 8957TIP3    H226836   5.361   1.946   3.890
 8958TIP3   OH226837   3.810   5.385   5.891
 8958TIP3    H126838   3.763   5.355   5.814
 8958TIP3    H226839   3.742   5.395   5.958
 8959TIP3   OH226840   3.095   5.938   3.228
 8959TIP3    H126841   3.154   5.946   3.153
 8959TIP3    H226842   3.150   5.960   3.303
 8960TIP3   OH226843   6.681   2.356   3.867
 8960TIP3    H126844   6.719   2.275   3.901
 8960TIP3    H226845   6.597   2.364   3.912
 8961TIP3   OH226846   1.775   5.032   5.033
 8961TIP3    H126847   1.710   4.980   5.081
 8961TIP3    H226848   1.829   5.072   5.101
 8962TIP3   OH226849   4.040   3.459   4.245
 8962TIP3    H126850   4.085   3.543   4.248
 8962TIP3    H226851   3.955   3.476   4.285
 8963TIP3   OH226852   3.251   1.213   0.291
 8963TIP3    H126853   3.191   1.286   0.276
 8963TIP3    H226854   3.223   1.175   0.374
 8964TIP3   OH226855   3.238   0.530   2.844
 8964TIP3    H126856   3.313   0.589   2.849
 8964TIP3    H226857   3.269   0.456   2.792
 8965TIP3   OH226858   3.423   0.561   3.795
 8965TIP3    H126859   3.328   0.551   3.805
 8965TIP3    H226860   3.436   0.656   3.790
 8966TIP3   OH226861   1.614   5.061   0.683
 8966TIP3    H126862   1.661   5.015   0.614
 8966TIP3    H226863   1.630   5.154   0.665
 8967TIP3   OH226864   3.182   6.317   2.772
 8967TIP3    H126865   3.230   6.396   2.747
 8967TIP3    H226866   3.212   6.250   2.711
 8968TIP3   OH226867   6.568   3.535   5.632
 8968TIP3    H126868   6.511   3.601   5.672
 8968TIP3    H226869   6.544   3.536   5.539
 8969TIP3   OH226870   4.056   5.608   1.178
 8969TIP3    H126871   4.054   5.698   1.210
 8969TIP3    H226872   4.026   5.613   1.087
 8970TIP3   OH226873   3.343   2.978   2.310
 8970TIP3    H126874   3.391   3.056   2.282
 8970TIP3    H226875   3.404   2.933   2.368
 8971TIP3   OH226876   4.554   6.317   2.215
 8971TIP3    H126877   4.508   6.399   2.197
 8971TIP3    H226878   4.486   6.259   2.250
 8972TIP3   OH226879   4.608   0.028   4.975
 8972TIP3    H126880   4.652   0.021   5.060
 8972TIP3    H226881   4.679   0.044   4.913
 8973TIP3   OH226882   5.005   3.441   5.119
 8973TIP3    H126883   4.962   3.514   5.164
 8973TIP3    H226884   5.006   3.371   5.185
 8974TIP3   OH226885   2.397   2.547   3.107
 8974TIP3    H126886   2.313   2.590   3.122
 8974TIP3    H226887   2.443   2.604   3.046
 8975TIP3   OH226888   1.387   5.653   5.678
 8975TIP3    H126889   1.429   5.597   5.743
 8975TIP3    H226890   1.324   5.705   5.727
 8976TIP3   OH226891   1.783   3.838   1.353
 8976TIP3    H126892   1.791   3.757   1.403
 8976TIP3    H226893   1.856   3.892   1.383
 8977TIP3   OH226894   3.636   2.607   3.492
 8977TIP3    H126895   3.581   2.649   3.558
 8977TIP3    H226896   3.725   2.616   3.525
 8978TIP3   OH226897   4.839   5.147   4.201
 8978TIP3    H126898   4.786   5.224   4.181
 8978TIP3    H226899   4.785   5.072   4.175
 8979TIP3   OH226900   1.847   1.454   4.071
 8979TIP3    H126901   1.798   1.451   3.990
 8979TIP3    H226902   1.782   1.441   4.140
 8980TIP3   OH226903   0.982   2.929   3.589
 8980TIP3    H126904   0.932   2.869   3.644
 8980TIP3    H226905   1.022   2.990   3.651
 8981TIP3   OH226906   0.291   3.783   4.349
 8981TIP3    H126907   0.213   3.808   4.399
 8981TIP3    H226908   0.327   3.709   4.398
 8982TIP3   OH226909   1.207   4.395   0.335
 8982TIP3    H126910   1.200   4.434   0.248
 8982TIP3    H226911   1.238   4.467   0.390
 8983TIP3   OH226912   7.090   6.711   3.580
 8983TIP3    H126913   7.156   6.741   3.643
 8983TIP3    H226914   7.063   6.790   3.534
 8984TIP3   OH226915   1.305   1.844   0.803
 8984TIP3    H126916   1.323   1.817   0.893
 8984TIP3    H226917   1.247   1.775   0.769
 8985TIP3   OH226918   1.993   2.832   2.446
 8985TIP3    H126919   2.021   2.859   2.534
 8985TIP3    H226920   2.040   2.750   2.431
 8986TIP3   OH226921   0.239   2.661   2.903
 8986TIP3    H126922   0.157   2.684   2.946
 8986TIP3    H226923   0.242   2.716   2.825
 8987TIP3   OH226924   5.900   6.700   5.654
 8987TIP3    H126925   5.875   6.714   5.746
 8987TIP3    H226926   5.893   6.606   5.641
 8988TIP3   OH226927   7.001   3.944   4.096
 8988TIP3    H126928   7.018   3.895   4.177
 8988TIP3    H226929   6.905   3.947   4.090
 8989TIP3   OH226930   5.810   2.635   4.211
 8989TIP3    H126931   5.839   2.713   4.164
 8989TIP3    H226932   5.890   2.583   4.223
 8990TIP3   OH226933   4.760   5.199   5.202
 8990TIP3    H126934   4.852   5.178   5.190
 8990TIP3    H226935   4.736   5.251   5.124
 8991TIP3   OH226936   1.993   0.564   5.505
 8991TIP3    H126937   2.025   0.633   5.447
 8991TIP3    H226938   2.035   0.485   5.472
 8992TIP3   OH226939   4.197   5.270   3.079
 8992TIP3    H126940   4.256   5.238   3.011
 8992TIP3    H226941   4.209   5.365   3.078
 8993TIP3   OH226942   2.464   0.246   1.273
 8993TIP3    H126943   2.434   0.245   1.182
 8993TIP3    H226944   2.404   0.307   1.317
 8994TIP3   OH226945   1.967   0.173   2.910
 8994TIP3    H126946   2.027   0.188   2.836
 8994TIP3    H226947   1.982   0.081   2.933
 8995TIP3   OH226948   2.015   2.979   1.664
 8995TIP3    H126949   1.935   3.024   1.692
 8995TIP3    H226950   2.008   2.892   1.703
 8996TIP3   OH226951   3.853   4.450   3.888
 8996TIP3    H126952   3.770   4.473   3.929
 8996TIP3    H226953   3.882   4.531   3.846
 8997TIP3   OH226954   1.431   3.082   1.042
 8997TIP3    H126955   1.504   3.139   1.019
 8997TIP3    H226956   1.360   3.142   1.066
 8998TIP3   OH226957   0.029   0.559   2.165
 8998TIP3    H126958   0.040   0.650   2.137
 8998TIP3    H226959  -0.056   0.534   2.127
 8999TIP3   OH226960   1.277   0.557   0.571
 8999TIP3    H126961   1.348   0.622   0.571
 8999TIP3    H226962   1.284   0.514   0.486
 9000TIP3   OH226963   2.675   1.079   4.557
 9000TIP3    H126964   2.761   1.042   4.576
 9000TIP3    H226965   2.616   1.004   4.558
 9001TIP3   OH226966   5.795   5.251   3.753
 9001TIP3    H126967   5.802   5.239   3.847
 9001TIP3    H226968   5.746   5.332   3.743
 9002TIP3   OH226969   7.018   4.236   0.468
 9002TIP3    H126970   6.984   4.319   0.434
 9002TIP3    H226971   7.110   4.235   0.442
 9003TIP3   OH226972   5.259   2.027   4.761
 9003TIP3    H126973   5.197   1.966   4.802
 9003TIP3    H226974   5.327   2.039   4.827
 9004TIP3   OH226975   1.731   4.230   5.371
 9004TIP3    H126976   1.788   4.183   5.311
 9004TIP3    H226977   1.683   4.161   5.418
 9005TIP3   OH226978   5.603   2.501   5.369
 9005TIP3    H126979   5.665   2.574   5.369
 9005TIP3    H226980   5.556   2.510   5.286
 9006TIP3   OH226981   1.262   0.860   0.046
 9006TIP3    H126982   1.263   0.858  -0.049
 9006TIP3    H226983   1.169   0.861   0.069
 9007TIP3   OH226984   1.842   3.217   4.751
 9007TIP3    H126985   1.811   3.201   4.840
 9007TIP3    H226986   1.774   3.272   4.712
 9008TIP3   OH226987   2.224   0.304   1.924
 9008TIP3    H126988   2.309   0.291   1.967
 9008TIP3    H226989   2.176   0.363   1.983
 9009TIP3   OH226990   2.336   5.930   5.304
 9009TIP3    H126991   2.364   5.844   5.271
 9009TIP3    H226992   2.406   5.989   5.280
 9010TIP3   OH226993   7.212   3.990   5.160
 9010TIP3    H126994   7.238   4.046   5.086
 9010TIP3    H226995   7.154   4.045   5.212
 9011TIP3   OH226996   6.587   3.232   5.691
 9011TIP3    H126997   6.594   3.324   5.718
 9011TIP3    H226998   6.505   3.227   5.643
 9012TIP3   OH226999   4.602   6.437   3.794
 9012TIP3    H127000   4.650   6.424   3.712
 9012TIP3    H227001   4.660   6.488   3.850
 9013TIP3   OH227002   0.348   3.171   5.398
 9013TIP3    H127003   0.296   3.092   5.381
 9013TIP3    H227004   0.390   3.190   5.314
 9014TIP3   OH227005   6.875   0.971   3.815
 9014TIP3    H127006   6.825   0.923   3.748
 9014TIP3    H227007   6.947   1.011   3.767
 9015TIP3   OH227008   1.370   1.063   2.045
 9015TIP3    H127009   1.414   1.140   2.080
 9015TIP3    H227010   1.407   0.990   2.094
 9016TIP3   OH227011   3.479   2.170   1.815
 9016TIP3    H127012   3.439   2.212   1.739
 9016TIP3    H227013   3.516   2.088   1.781
 9017TIP3   OH227014   6.835   1.229   4.214
 9017TIP3    H127015   6.847   1.143   4.256
 9017TIP3    H227016   6.799   1.208   4.128
 9018TIP3   OH227017   2.405   2.586   4.367
 9018TIP3    H127018   2.358   2.663   4.398
 9018TIP3    H227019   2.457   2.557   4.443
 9019TIP3   OH227020   4.747   3.899   4.000
 9019TIP3    H127021   4.664   3.895   4.049
 9019TIP3    H227022   4.811   3.860   4.059
 9020TIP3   OH227023   1.521   1.561   5.184
 9020TIP3    H127024   1.494   1.591   5.098
 9020TIP3    H227025   1.482   1.625   5.245
 9021TIP3   OH227026   0.932   3.196   0.252
 9021TIP3    H127027   0.953   3.127   0.190
 9021TIP3    H227028   0.909   3.271   0.197
 9022TIP3   OH227029   1.758   4.420   1.545
 9022TIP3    H127030   1.794   4.359   1.481
 9022TIP3    H227031   1.732   4.496   1.494
 9023TIP3   OH227032   2.748   6.763   3.171
 9023TIP3    H127033   2.744   6.782   3.077
 9023TIP3    H227034   2.793   6.837   3.209
 9024TIP3   OH227035   3.594   1.357   4.105
 9024TIP3    H127036   3.537   1.425   4.142
 9024TIP3    H227037   3.536   1.304   4.050
 9025TIP3   OH227038   6.720   6.679   4.887
 9025TIP3    H127039   6.707   6.770   4.859
 9025TIP3    H227040   6.640   6.657   4.935
 9026TIP3   OH227041   4.730   4.855   4.429
 9026TIP3    H127042   4.716   4.857   4.335
 9026TIP3    H227043   4.648   4.821   4.465
 9027TIP3   OH227044   6.279   4.949   1.808
 9027TIP3    H127045   6.305   5.032   1.846
 9027TIP3    H227046   6.354   4.923   1.754
 9028TIP3   OH227047   3.716   4.130   1.461
 9028TIP3    H127048   3.743   4.062   1.522
 9028TIP3    H227049   3.685   4.202   1.517
 9029TIP3   OH227050   5.818   4.958   4.198
 9029TIP3    H127051   5.875   4.940   4.272
 9029TIP3    H227052   5.730   4.964   4.236
 9030TIP3   OH227053   6.115   5.309   1.747
 9030TIP3    H127054   6.079   5.339   1.831
 9030TIP3    H227055   6.173   5.380   1.720
 9031TIP3   OH227056   7.168   4.200   0.214
 9031TIP3    H127057   7.255   4.196   0.175
 9031TIP3    H227058   7.140   4.109   0.219
 9032TIP3   OH227059   0.719   6.332   3.742
 9032TIP3    H127060   0.722   6.404   3.805
 9032TIP3    H227061   0.794   6.347   3.685
 9033TIP3   OH227062   3.641   4.517   3.478
 9033TIP3    H127063   3.687   4.442   3.517
 9033TIP3    H227064   3.651   4.503   3.383
 9034TIP3   OH227065   0.204   4.141   0.119
 9034TIP3    H127066   0.277   4.093   0.081
 9034TIP3    H227067   0.216   4.231   0.089
 9035TIP3   OH227068   3.605   3.664   1.172
 9035TIP3    H127069   3.564   3.578   1.160
 9035TIP3    H227070   3.560   3.702   1.247
 9036TIP3   OH227071   2.624   4.395   3.986
 9036TIP3    H127072   2.644   4.488   3.997
 9036TIP3    H227073   2.598   4.366   4.074
 9037TIP3   OH227074   4.189   1.609   1.934
 9037TIP3    H127075   4.152   1.676   1.878
 9037TIP3    H227076   4.260   1.571   1.882
 9038TIP3   OH227077   3.279   4.206   1.544
 9038TIP3    H127078   3.351   4.201   1.607
 9038TIP3    H227079   3.204   4.234   1.597
 9039TIP3   OH227080   4.469   0.171   0.511
 9039TIP3    H127081   4.445   0.205   0.425
 9039TIP3    H227082   4.500   0.247   0.560
 9040TIP3   OH227083   4.744   2.805   5.352
 9040TIP3    H127084   4.836   2.830   5.343
 9040TIP3    H227085   4.714   2.851   5.431
 9041TIP3   OH227086   5.695   1.194   3.708
 9041TIP3    H127087   5.731   1.219   3.623
 9041TIP3    H227088   5.603   1.221   3.704
 9042TIP3   OH227089   0.942   3.163   1.313
 9042TIP3    H127090   0.987   3.099   1.367
 9042TIP3    H227091   0.901   3.223   1.376
 9043TIP3   OH227092   1.777   6.461   0.730
 9043TIP3    H127093   1.701   6.475   0.786
 9043TIP3    H227094   1.847   6.512   0.771
 9044TIP3   OH227095   1.939   3.767   0.518
 9044TIP3    H127096   1.928   3.813   0.601
 9044TIP3    H227097   1.853   3.770   0.477
 9045TIP3   OH227098   4.952   6.236   1.256
 9045TIP3    H127099   4.867   6.272   1.232
 9045TIP3    H227100   4.944   6.218   1.350
 9046TIP3   OH227101   3.235   1.374   4.658
 9046TIP3    H127102   3.236   1.346   4.749
 9046TIP3    H227103   3.250   1.469   4.662
 9047TIP3   OH227104   7.148   0.801   1.094
 9047TIP3    H127105   7.194   0.721   1.069
 9047TIP3    H227106   7.097   0.824   1.016
 9048TIP3   OH227107   3.274   2.600   3.021
 9048TIP3    H127108   3.197   2.640   2.982
 9048TIP3    H227109   3.249   2.581   3.111
 9049TIP3   OH227110   2.767   4.367   2.698
 9049TIP3    H127111   2.754   4.275   2.677
 9049TIP3    H227112   2.751   4.414   2.616
 9050TIP3   OH227113   5.476   4.057   3.007
 9050TIP3    H127114   5.399   4.114   3.007
 9050TIP3    H227115   5.485   4.029   2.916
 9051TIP3   OH227116   0.012   3.255   0.109
 9051TIP3    H127117  -0.053   3.192   0.078
 9051TIP3    H227118   0.058   3.209   0.179
 9052TIP3   OH227119   7.203   4.854  -0.026
 9052TIP3    H127120   7.198   4.948  -0.042
 9052TIP3    H227121   7.214   4.845   0.068
 9053TIP3   OH227122   0.890   4.359   2.376
 9053TIP3    H127123   0.930   4.417   2.441
 9053TIP3    H227124   0.796   4.364   2.393
 9054TIP3   OH227125   3.824   1.411   2.392
 9054TIP3    H127126   3.815   1.420   2.297
 9054TIP3    H227127   3.798   1.497   2.426
 9055TIP3   OH227128   2.345   1.181   4.978
 9055TIP3    H127129   2.285   1.253   4.955
 9055TIP3    H227130   2.407   1.179   4.905
 9056TIP3   OH227131   1.034   0.443   3.719
 9056TIP3    H127132   1.105   0.380   3.729
 9056TIP3    H227133   0.995   0.448   3.807
 9057TIP3   OH227134   2.773   0.778   1.617
 9057TIP3    H127135   2.774   0.698   1.566
 9057TIP3    H227136   2.785   0.749   1.708
 9058TIP3   OH227137   6.329   5.115   4.630
 9058TIP3    H127138   6.284   5.073   4.704
 9058TIP3    H227139   6.274   5.191   4.609
 9059TIP3   OH227140   5.076   1.416   2.126
 9059TIP3    H127141   5.112   1.503   2.144
 9059TIP3    H227142   4.983   1.423   2.151
 9060TIP3   OH227143   1.628   1.080   4.274
 9060TIP3    H127144   1.571   1.147   4.308
 9060TIP3    H227145   1.716   1.104   4.305
 9061TIP3   OH227146   2.434   2.139   5.375
 9061TIP3    H127147   2.377   2.216   5.375
 9061TIP3    H227148   2.379   2.069   5.339
 9062TIP3   OH227149   1.647   2.085   1.439
 9062TIP3    H127150   1.724   2.140   1.424
 9062TIP3    H227151   1.683   1.997   1.452
 9063TIP3   OH227152   0.148   3.585   3.989
 9063TIP3    H127153   0.105   3.602   3.906
 9063TIP3    H227154   0.094   3.518   4.031
 9064TIP3   OH227155   5.177   1.284   5.559
 9064TIP3    H127156   5.116   1.346   5.599
 9064TIP3    H227157   5.257   1.292   5.613
 9065TIP3   OH227158   2.577   3.059   5.689
 9065TIP3    H127159   2.609   2.975   5.722
 9065TIP3    H227160   2.485   3.043   5.668
 9066TIP3   OH227161   1.393   0.485   0.297
 9066TIP3    H127162   1.477   0.532   0.295
 9066TIP3    H227163   1.338   0.533   0.236
 9067TIP3   OH227164   2.933   5.345   1.209
 9067TIP3    H127165   2.839   5.327   1.201
 9067TIP3    H227166   2.969   5.323   1.124
 9068TIP3   OH227167   4.731   6.773   1.362
 9068TIP3    H127168   4.737   6.859   1.319
 9068TIP3    H227169   4.642   6.743   1.344
 9069TIP3   OH227170   1.717   3.028   2.698
 9069TIP3    H127171   1.778   3.035   2.772
 9069TIP3    H227172   1.712   3.117   2.662
 9070TIP3   OH227173   1.202   1.706   2.651
 9070TIP3    H127174   1.203   1.796   2.618
 9070TIP3    H227175   1.264   1.707   2.724
 9071TIP3   OH227176   6.254   3.654   1.360
 9071TIP3    H127177   6.253   3.598   1.437
 9071TIP3    H227178   6.164   3.684   1.351
 9072TIP3   OH227179   1.525   4.723   1.193
 9072TIP3    H127180   1.556   4.814   1.190
 9072TIP3    H227181   1.464   4.716   1.120
 9073TIP3   OH227182   6.544   0.344   5.066
 9073TIP3    H127183   6.449   0.353   5.076
 9073TIP3    H227184   6.576   0.321   5.153
 9074TIP3   OH227185   3.289   6.345   1.023
 9074TIP3    H127186   3.317   6.273   0.967
 9074TIP3    H227187   3.347   6.418   1.002
 9075TIP3   OH227188   4.341   2.987   0.813
 9075TIP3    H127189   4.334   3.083   0.816
 9075TIP3    H227190   4.280   2.956   0.879
 9076TIP3   OH227191   6.125   4.476   2.945
 9076TIP3    H127192   6.093   4.387   2.961
 9076TIP3    H227193   6.219   4.465   2.931
 9077TIP3   OH227194   6.842   4.907   3.882
 9077TIP3    H127195   6.838   4.919   3.977
 9077TIP3    H227196   6.904   4.836   3.868
 9078TIP3   OH227197   5.070   5.112   2.080
 9078TIP3    H127198   5.092   5.191   2.128
 9078TIP3    H227199   5.153   5.068   2.065
 9079TIP3   OH227200   3.000   5.657   0.166
 9079TIP3    H127201   3.046   5.629   0.087
 9079TIP3    H227202   2.935   5.588   0.182
 9080TIP3   OH227203   4.615   4.929   5.076
 9080TIP3    H127204   4.672   4.854   5.061
 9080TIP3    H227205   4.601   4.967   4.989
 9081TIP3   OH227206   5.543   2.246   3.918
 9081TIP3    H127207   5.530   2.258   3.824
 9081TIP3    H227208   5.492   2.316   3.959
 9082TIP3   OH227209   3.566   2.576   1.250
 9082TIP3    H127210   3.532   2.487   1.240
 9082TIP3    H227211   3.623   2.588   1.174
 9083TIP3   OH227212   7.057   1.768   3.955
 9083TIP3    H127213   6.988   1.813   4.003
 9083TIP3    H227214   7.137   1.817   3.976
 9084TIP3   OH227215   5.627   6.069   4.616
 9084TIP3    H127216   5.715   6.047   4.644
 9084TIP3    H227217   5.595   5.989   4.574
 9085TIP3   OH227218   1.976   1.126   2.470
 9085TIP3    H127219   1.947   1.106   2.559
 9085TIP3    H227220   1.959   1.045   2.421
 9086TIP3   OH227221   5.034   0.652   3.622
 9086TIP3    H127222   4.976   0.594   3.573
 9086TIP3    H227223   4.976   0.699   3.682
 9087TIP3   OH227224   2.132   4.728   4.854
 9087TIP3    H127225   2.106   4.819   4.836
 9087TIP3    H227226   2.060   4.675   4.820
 9088TIP3   OH227227   5.885   1.862   2.356
 9088TIP3    H127228   5.814   1.908   2.401
 9088TIP3    H227229   5.934   1.819   2.426
 9089TIP3   OH227230   4.270   3.123   2.596
 9089TIP3    H127231   4.211   3.147   2.668
 9089TIP3    H227232   4.212   3.104   2.522
 9090TIP3   OH227233   3.003   4.228   0.013
 9090TIP3    H127234   3.058   4.160  -0.027
 9090TIP3    H227235   3.061   4.305   0.019
 9091TIP3   OH227236   4.027   1.621   4.982
 9091TIP3    H127237   3.992   1.587   4.900
 9091TIP3    H227238   3.977   1.701   4.998
 9092TIP3   OH227239   7.216   5.433   2.519
 9092TIP3    H127240   7.192   5.426   2.427
 9092TIP3    H227241   7.215   5.527   2.537
 9093TIP3   OH227242   0.946   2.249   1.140
 9093TIP3    H127243   0.951   2.296   1.223
 9093TIP3    H227244   0.953   2.157   1.164
 9094TIP3   OH227245   3.554   5.679   0.281
 9094TIP3    H127246   3.638   5.724   0.278
 9094TIP3    H227247   3.490   5.748   0.294
 9095TIP3   OH227248   6.572   5.871   4.177
 9095TIP3    H127249   6.641   5.915   4.228
 9095TIP3    H227250   6.616   5.794   4.141
 9096TIP3   OH227251   4.435   2.791   5.579
 9096TIP3    H127252   4.418   2.798   5.673
 9096TIP3    H227253   4.448   2.697   5.564
 9097TIP3   OH227254   7.103   2.797   0.948
 9097TIP3    H127255   7.055   2.732   0.896
 9097TIP3    H227256   7.096   2.878   0.897
 9098TIP3   OH227257   1.767   1.203   0.306
 9098TIP3    H127258   1.822   1.185   0.382
 9098TIP3    H227259   1.820   1.261   0.251
 9099TIP3   OH227260   5.235   5.722   1.734
 9099TIP3    H127261   5.217   5.628   1.736
 9099TIP3    H227262   5.187   5.755   1.658
 9100TIP3   OH227263   4.684   0.697   2.876
 9100TIP3    H127264   4.764   0.730   2.835
 9100TIP3    H227265   4.706   0.607   2.902
 9101TIP3   OH227266   4.160   6.214   1.425
 9101TIP3    H127267   4.156   6.309   1.409
 9101TIP3    H227268   4.077   6.194   1.470
 9102TIP3   OH227269   3.710   2.673   2.420
 9102TIP3    H127270   3.778   2.699   2.482
 9102TIP3    H227271   3.738   2.712   2.337
 9103TIP3   OH227272   5.491   6.190   0.271
 9103TIP3    H127273   5.551   6.142   0.214
 9103TIP3    H227274   5.487   6.137   0.351
 9104TIP3   OH227275   0.404   3.484   3.423
 9104TIP3    H127276   0.351   3.483   3.344
 9104TIP3    H227277   0.471   3.551   3.406
 9105TIP3   OH227278   3.887   3.771   2.778
 9105TIP3    H127279   3.830   3.696   2.795
 9105TIP3    H227280   3.931   3.750   2.696
 9106TIP3   OH227281   6.329   0.395   2.407
 9106TIP3    H127282   6.300   0.315   2.452
 9106TIP3    H227283   6.398   0.365   2.347
 9107TIP3   OH227284   2.753   6.117   0.128
 9107TIP3    H127285   2.795   6.032   0.113
 9107TIP3    H227286   2.819   6.169   0.173
 9108TIP3   OH227287   1.726   1.793   4.988
 9108TIP3    H127288   1.741   1.822   5.078
 9108TIP3    H227289   1.673   1.863   4.949
 9109TIP3   OH227290   0.377   1.693   1.123
 9109TIP3    H127291   0.315   1.627   1.152
 9109TIP3    H227292   0.384   1.753   1.197
 9110TIP3   OH227293   5.968   2.011   5.793
 9110TIP3    H127294   5.985   2.069   5.867
 9110TIP3    H227295   5.875   2.023   5.774
 9111TIP3   OH227296   3.299   1.035   3.097
 9111TIP3    H127297   3.370   1.042   3.161
 9111TIP3    H227298   3.233   0.981   3.140
 9112TIP3   OH227299   4.408   4.203   2.698
 9112TIP3    H127300   4.484   4.165   2.654
 9112TIP3    H227301   4.335   4.146   2.674
 9113TIP3   OH227302   3.564   5.620   1.727
 9113TIP3    H127303   3.505   5.557   1.767
 9113TIP3    H227304   3.544   5.615   1.633
 9114TIP3   OH227305   0.176   1.789   0.830
 9114TIP3    H127306   0.119   1.822   0.761
 9114TIP3    H227307   0.131   1.711   0.863
 9115TIP3   OH227308   5.998   0.191   5.412
 9115TIP3    H127309   6.083   0.157   5.440
 9115TIP3    H227310   5.960   0.230   5.491
 9116TIP3   OH227311   0.682   1.097   4.926
 9116TIP3    H127312   0.718   1.067   5.009
 9116TIP3    H227313   0.639   1.019   4.890
 9117TIP3   OH227314   2.263   0.703   3.865
 9117TIP3    H127315   2.222   0.764   3.926
 9117TIP3    H227316   2.356   0.727   3.866
 9118TIP3   OH227317   6.358   4.891   2.200
 9118TIP3    H127318   6.447   4.921   2.179
 9118TIP3    H227319   6.370   4.828   2.271
 9119TIP3   OH227320   0.898   1.781   4.182
 9119TIP3    H127321   0.985   1.784   4.142
 9119TIP3    H227322   0.914   1.786   4.276
 9120TIP3   OH227323   2.514   1.769   3.374
 9120TIP3    H127324   2.520   1.854   3.331
 9120TIP3    H227325   2.536   1.706   3.305
 9121TIP3   OH227326   3.967   0.420   2.847
 9121TIP3    H127327   4.038   0.483   2.860
 9121TIP3    H227328   4.000   0.339   2.885
 9122TIP3   OH227329   0.228   4.648   5.572
 9122TIP3    H127330   0.265   4.618   5.489
 9122TIP3    H227331   0.304   4.663   5.628
 9123TIP3   OH227332   7.220   1.913   4.749
 9123TIP3    H127333   7.164   1.986   4.775
 9123TIP3    H227334   7.167   1.863   4.687
 9124TIP3   OH227335   1.120   5.114   3.157
 9124TIP3    H127336   1.084   5.089   3.242
 9124TIP3    H227337   1.210   5.140   3.175
 9125TIP3   OH227338   2.821   6.124   2.704
 9125TIP3    H127339   2.760   6.117   2.777
 9125TIP3    H227340   2.860   6.037   2.696
 9126TIP3   OH227341   5.946   5.878   4.038
 9126TIP3    H127342   5.938   5.918   3.951
 9126TIP3    H227343   6.039   5.858   4.047
 9127TIP3   OH227344   5.192   2.446   2.548
 9127TIP3    H127345   5.183   2.355   2.518
 9127TIP3    H227346   5.253   2.440   2.622
 9128TIP3   OH227347   1.441   1.590   3.285
 9128TIP3    H127348   1.386   1.569   3.360
 9128TIP3    H227349   1.389   1.565   3.209
 9129TIP3   OH227350   5.411   0.910   2.231
 9129TIP3    H127351   5.481   0.845   2.229
 9129TIP3    H227352   5.357   0.889   2.155
 9130TIP3   OH227353   3.934   4.703   3.831
 9130TIP3    H127354   3.893   4.751   3.902
 9130TIP3    H227355   3.950   4.769   3.763
 9131TIP3   OH227356   5.974   1.481   5.257
 9131TIP3    H127357   6.009   1.568   5.237
 9131TIP3    H227358   6.051   1.427   5.274
 9132TIP3   OH227359   6.333   1.266   3.380
 9132TIP3    H127360   6.424   1.298   3.385
 9132TIP3    H227361   6.331   1.192   3.442
 9133TIP3   OH227362   0.771   3.227   1.770
 9133TIP3    H127363   0.826   3.283   1.824
 9133TIP3    H227364   0.683   3.263   1.779
 9134TIP3   OH227365   6.040   1.889   1.613
 9134TIP3    H127366   6.118   1.890   1.557
 9134TIP3    H227367   6.001   1.803   1.599
 9135TIP3   OH227368   5.444   6.626   5.444
 9135TIP3    H127369   5.429   6.627   5.538
 9135TIP3    H227370   5.536   6.601   5.434
 9136TIP3   OH227371   6.507   4.463   0.293
 9136TIP3    H127372   6.429   4.474   0.347
 9136TIP3    H227373   6.545   4.551   0.288
 9137TIP3   OH227374   3.271   5.235   3.518
 9137TIP3    H127375   3.242   5.285   3.441
 9137TIP3    H227376   3.365   5.228   3.507
 9138TIP3   OH227377   0.288   6.768   5.818
 9138TIP3    H127378   0.346   6.802   5.886
 9138TIP3    H227379   0.274   6.677   5.842
 9139TIP3   OH227380   3.550   4.770   1.323
 9139TIP3    H127381   3.597   4.845   1.287
 9139TIP3    H227382   3.569   4.772   1.416
 9140TIP3   OH227383   6.839   0.354   5.658
 9140TIP3    H127384   6.776   0.309   5.714
 9140TIP3    H227385   6.786   0.412   5.603
 9141TIP3   OH227386   4.782   2.992   0.754
 9141TIP3    H127387   4.853   2.976   0.692
 9141TIP3    H227388   4.786   3.086   0.771
 9142TIP3   OH227389   3.967   4.970   0.695
 9142TIP3    H127390   3.902   4.902   0.679
 9142TIP3    H227391   4.050   4.930   0.669
 9143TIP3   OH227392   2.872   3.661   3.949
 9143TIP3    H127393   2.817   3.583   3.945
 9143TIP3    H227394   2.954   3.629   3.989
 9144TIP3   OH227395   5.192   6.270   0.824
 9144TIP3    H127396   5.113   6.320   0.800
 9144TIP3    H227397   5.254   6.291   0.754
 9145TIP3   OH227398   1.670   4.518   5.453
 9145TIP3    H127399   1.638   4.429   5.437
 9145TIP3    H227400   1.724   4.538   5.376
 9146TIP3   OH227401   2.834   6.385   4.832
 9146TIP3    H127402   2.913   6.425   4.795
 9146TIP3    H227403   2.762   6.441   4.803
 9147TIP3   OH227404   2.338   0.336   3.081
 9147TIP3    H127405   2.349   0.395   3.156
 9147TIP3    H227406   2.422   0.340   3.036
 9148TIP3   OH227407   4.028   3.498   4.836
 9148TIP3    H127408   4.073   3.421   4.872
 9148TIP3    H227409   3.949   3.463   4.796
 9149TIP3   OH227410   6.831   5.898   2.219
 9149TIP3    H127411   6.871   5.956   2.154
 9149TIP3    H227412   6.816   5.816   2.172
 9150TIP3   OH227413   1.836   6.626   2.280
 9150TIP3    H127414   1.872   6.561   2.341
 9150TIP3    H227415   1.817   6.702   2.335
 9151TIP3   OH227416   4.114   0.215   1.882
 9151TIP3    H127417   4.130   0.136   1.934
 9151TIP3    H227418   4.027   0.244   1.910
 9152TIP3   OH227419   6.592   6.504   2.355
 9152TIP3    H127420   6.618   6.421   2.393
 9152TIP3    H227421   6.671   6.557   2.354
 9153TIP3   OH227422   0.694   1.577   1.739
 9153TIP3    H127423   0.661   1.631   1.668
 9153TIP3    H227424   0.645   1.606   1.816
 9154TIP3   OH227425   2.143   2.338   4.812
 9154TIP3    H127426   2.200   2.295   4.875
 9154TIP3    H227427   2.116   2.269   4.752
 9155TIP3   OH227428   4.018   4.173   5.216
 9155TIP3    H127429   4.010   4.261   5.179
 9155TIP3    H227430   4.032   4.188   5.310
 9156TIP3   OH227431   0.197   4.202   4.218
 9156TIP3    H127432   0.156   4.120   4.189
 9156TIP3    H227433   0.190   4.260   4.142
 9157TIP3   OH227434   3.269   0.696   4.687
 9157TIP3    H127435   3.313   0.612   4.677
 9157TIP3    H227436   3.201   0.679   4.752
 9158TIP3   OH227437   1.472   3.669   0.346
 9158TIP3    H127438   1.389   3.647   0.389
 9158TIP3    H227439   1.539   3.643   0.409
 9159TIP3   OH227440   4.556   1.517   0.462
 9159TIP3    H127441   4.650   1.531   0.449
 9159TIP3    H227442   4.542   1.528   0.556
 9160TIP3   OH227443   6.578   1.858   2.390
 9160TIP3    H127444   6.551   1.897   2.473
 9160TIP3    H227445   6.671   1.838   2.402
 9161TIP3   OH227446   5.391   2.068   4.328
 9161TIP3    H127447   5.378   1.975   4.343
 9161TIP3    H227448   5.338   2.111   4.395
 9162TIP3   OH227449   1.080   2.906   3.062
 9162TIP3    H127450   1.058   2.917   3.154
 9162TIP3    H227451   0.999   2.925   3.015
 9163TIP3   OH227452   0.123   5.518   4.392
 9163TIP3    H127453   0.042   5.477   4.361
 9163TIP3    H227454   0.189   5.450   4.382
 9164TIP3   OH227455   6.084   2.214   2.020
 9164TIP3    H127456   6.180   2.219   2.016
 9164TIP3    H227457   6.058   2.293   2.068
 9165TIP3   OH227458   2.046   0.689   2.415
 9165TIP3    H127459   2.043   0.715   2.507
 9165TIP3    H227460   2.012   0.600   2.414
 9166TIP3   OH227461   4.579   1.917   0.555
 9166TIP3    H127462   4.613   1.855   0.619
 9166TIP3    H227463   4.549   1.991   0.608
 9167TIP3   OH227464   5.310   6.374   2.087
 9167TIP3    H127465   5.299   6.407   2.176
 9167TIP3    H227466   5.303   6.279   2.096
 9168TIP3   OH227467   3.753   6.587   4.688
 9168TIP3    H127468   3.726   6.613   4.600
 9168TIP3    H227469   3.848   6.575   4.682
 9169TIP3   OH227470   3.660   3.586   2.822
 9169TIP3    H127471   3.662   3.539   2.905
 9169TIP3    H227472   3.567   3.603   2.806
 9170TIP3   OH227473   3.475   1.601   3.572
 9170TIP3    H127474   3.473   1.527   3.511
 9170TIP3    H227475   3.431   1.672   3.526
 9171TIP3   OH227476   0.971   3.184   5.555
 9171TIP3    H127477   1.038   3.184   5.623
 9171TIP3    H227478   0.888   3.180   5.603
 9172TIP3   OH227479   0.998   2.662   0.749
 9172TIP3    H127480   0.950   2.682   0.829
 9172TIP3    H227481   1.022   2.747   0.713
 9173TIP3   OH227482   7.063   1.311   5.635
 9173TIP3    H127483   7.122   1.245   5.599
 9173TIP3    H227484   7.093   1.393   5.596
 9174TIP3   OH227485   3.562   5.264   2.201
 9174TIP3    H127486   3.643   5.315   2.204
 9174TIP3    H227487   3.496   5.322   2.238
 9175TIP3   OH227488   3.279   0.776   5.308
 9175TIP3    H127489   3.368   0.752   5.336
 9175TIP3    H227490   3.247   0.698   5.261
 9176TIP3   OH227491   5.253   4.950   2.466
 9176TIP3    H127492   5.183   4.950   2.531
 9176TIP3    H227493   5.330   4.917   2.512
 9177TIP3   OH227494   6.967   5.827   3.126
 9177TIP3    H127495   7.040   5.768   3.143
 9177TIP3    H227496   6.916   5.827   3.207
 9178TIP3   OH227497   4.355   4.613   3.547
 9178TIP3    H127498   4.395   4.594   3.462
 9178TIP3    H227499   4.420   4.586   3.611
 9179TIP3   OH227500   1.267   0.382   0.798
 9179TIP3    H127501   1.336   0.437   0.760
 9179TIP3    H227502   1.190   0.399   0.744
 9180TIP3   OH227503   4.310   2.350   3.158
 9180TIP3    H127504   4.328   2.323   3.247
 9180TIP3    H227505   4.241   2.416   3.166
 9181TIP3   OH227506   0.807   2.536   3.068
 9181TIP3    H127507   0.782   2.448   3.039
 9181TIP3    H227508   0.846   2.576   2.991
 9182TIP3   OH227509   3.312   3.218   0.292
 9182TIP3    H127510   3.318   3.197   0.199
 9182TIP3    H227511   3.218   3.221   0.309
 9183TIP3   OH227512   4.438   3.547   4.986
 9183TIP3    H127513   4.389   3.598   4.921
 9183TIP3    H227514   4.496   3.492   4.933
 9184TIP3   OH227515   1.540   4.296   1.352
 9184TIP3    H127516   1.544   4.268   1.444
 9184TIP3    H227517   1.452   4.272   1.323
 9185TIP3   OH227518   5.812   3.547   2.136
 9185TIP3    H127519   5.809   3.643   2.141
 9185TIP3    H227520   5.769   3.526   2.053
 9186TIP3   OH227521   3.634   3.482   4.050
 9186TIP3    H127522   3.570   3.553   4.064
 9186TIP3    H227523   3.590   3.422   3.990
 9187TIP3   OH227524   2.131   0.328   2.740
 9187TIP3    H127525   2.175   0.302   2.660
 9187TIP3    H227526   2.061   0.387   2.711
 9188TIP3   OH227527   5.907   6.532   4.368
 9188TIP3    H127528   5.943   6.478   4.438
 9188TIP3    H227529   5.873   6.610   4.412
 9189TIP3   OH227530   2.089   3.766   4.604
 9189TIP3    H127531   2.145   3.722   4.541
 9189TIP3    H227532   2.147   3.827   4.650
 9190TIP3   OH227533   5.751   1.465   4.685
 9190TIP3    H127534   5.729   1.558   4.694
 9190TIP3    H227535   5.729   1.444   4.594
 9191TIP3   OH227536   7.029   4.076   1.142
 9191TIP3    H127537   7.102   4.095   1.202
 9191TIP3    H227538   6.962   4.038   1.198
 9192TIP3   OH227539   3.882   6.517   4.284
 9192TIP3    H127540   3.826   6.550   4.355
 9192TIP3    H227541   3.890   6.424   4.302
 9193TIP3   OH227542   3.975   6.077   2.670
 9193TIP3    H127543   3.942   6.128   2.744
 9193TIP3    H227544   3.977   5.987   2.701
 9194TIP3   OH227545   0.860   6.736   2.414
 9194TIP3    H127546   0.788   6.799   2.417
 9194TIP3    H227547   0.938   6.787   2.435
 9195TIP3   OH227548   3.639   6.328   0.200
 9195TIP3    H127549   3.680   6.413   0.188
 9195TIP3    H227550   3.667   6.300   0.288
 9196TIP3   OH227551   3.627   2.332   0.168
 9196TIP3    H127552   3.554   2.355   0.111
 9196TIP3    H227553   3.643   2.410   0.220
 9197TIP3   OH227554   5.082   0.983   1.916
 9197TIP3    H127555   5.155   1.045   1.923
 9197TIP3    H227556   5.115   0.903   1.958
 9198TIP3   OH227557   1.171   4.084   4.116
 9198TIP3    H127558   1.213   4.144   4.178
 9198TIP3    H227559   1.240   4.060   4.055
 9199TIP3   OH227560   7.030   6.386   0.107
 9199TIP3    H127561   7.062   6.414   0.193
 9199TIP3    H227562   7.109   6.378   0.053
 9200TIP3   OH227563   0.374   5.923   1.404
 9200TIP3    H127564   0.353   5.835   1.373
 9200TIP3    H227565   0.458   5.913   1.450
 9201TIP3   OH227566   3.626   2.425   2.468
 9201TIP3    H127567   3.576   2.415   2.388
 9201TIP3    H227568   3.651   2.518   2.469
 9202TIP3   OH227569   5.375   5.698   0.828
 9202TIP3    H127570   5.378   5.750   0.748
 9202TIP3    H227571   5.428   5.747   0.891
 9203TIP3   OH227572   3.528   2.771   4.441
 9203TIP3    H127573   3.494   2.857   4.421
 9203TIP3    H227574   3.457   2.710   4.418
 9204TIP3   OH227575   5.677   1.954   2.045
 9204TIP3    H127576   5.698   2.022   2.110
 9204TIP3    H227577   5.757   1.902   2.038
 9205TIP3   OH227578   2.227   0.843   2.267
 9205TIP3    H127579   2.291   0.788   2.222
 9205TIP3    H227580   2.177   0.782   2.322
 9206TIP3   OH227581   2.498   2.029   3.200
 9206TIP3    H127582   2.519   2.107   3.149
 9206TIP3    H227583   2.579   1.979   3.201
 9207TIP3   OH227584   1.898   4.490   5.219
 9207TIP3    H127585   1.973   4.446   5.260
 9207TIP3    H227586   1.901   4.579   5.252
 9208TIP3   OH227587   5.931   5.961   3.756
 9208TIP3    H127588   5.841   5.929   3.744
 9208TIP3    H227589   5.984   5.903   3.701
 9209TIP3   OH227590   2.897   4.412   5.496
 9209TIP3    H127591   2.955   4.427   5.422
 9209TIP3    H227592   2.880   4.318   5.495
 9210TIP3   OH227593   2.248   1.226   2.447
 9210TIP3    H127594   2.166   1.186   2.418
 9210TIP3    H227595   2.275   1.281   2.374
 9211TIP3   OH227596   2.316   3.403   5.334
 9211TIP3    H127597   2.395   3.363   5.368
 9211TIP3    H227598   2.330   3.497   5.343
 9212TIP3   OH227599   5.303   5.107   4.610
 9212TIP3    H127600   5.244   5.173   4.647
 9212TIP3    H227601   5.349   5.153   4.539
 9213TIP3   OH227602   1.183   2.432   2.365
 9213TIP3    H127603   1.146   2.419   2.453
 9213TIP3    H227604   1.120   2.392   2.306
 9214TIP3   OH227605   2.099   2.443   3.269
 9214TIP3    H127606   2.020   2.440   3.215
 9214TIP3    H227607   2.084   2.515   3.330
 9215TIP3   OH227608   1.976   2.377   2.709
 9215TIP3    H127609   2.004   2.430   2.783
 9215TIP3    H227610   2.046   2.387   2.644
 9216TIP3   OH227611   6.458   4.466   2.958
 9216TIP3    H127612   6.520   4.412   3.008
 9216TIP3    H227613   6.482   4.556   2.978
 9217TIP3   OH227614   4.862   6.339   2.804
 9217TIP3    H127615   4.900   6.352   2.718
 9217TIP3    H227616   4.936   6.314   2.860
 9218TIP3   OH227617   5.818   2.316   1.110
 9218TIP3    H127618   5.836   2.380   1.041
 9218TIP3    H227619   5.905   2.292   1.144
 9219TIP3   OH227620   1.719   4.749   2.315
 9219TIP3    H127621   1.685   4.817   2.257
 9219TIP3    H227622   1.784   4.793   2.370
 9220TIP3   OH227623   3.526   2.141   5.348
 9220TIP3    H127624   3.433   2.147   5.328
 9220TIP3    H227625   3.535   2.062   5.401
 9221TIP3   OH227626   1.832   3.547   2.221
 9221TIP3    H127627   1.741   3.561   2.244
 9221TIP3    H227628   1.868   3.635   2.210
 9222TIP3   OH227629   3.862   1.807   5.496
 9222TIP3    H127630   3.930   1.874   5.482
 9222TIP3    H227631   3.895   1.754   5.568
 9223TIP3   OH227632   4.779   3.366   1.399
 9223TIP3    H127633   4.790   3.350   1.492
 9223TIP3    H227634   4.820   3.451   1.383
 9224TIP3   OH227635   2.785   6.471   5.513
 9224TIP3    H127636   2.829   6.518   5.443
 9224TIP3    H227637   2.717   6.531   5.544
 9225TIP3   OH227638   0.213   1.626   1.653
 9225TIP3    H127639   0.189   1.670   1.735
 9225TIP3    H227640   0.280   1.682   1.615
 9226TIP3   OH227641   3.320   1.025   4.439
 9226TIP3    H127642   3.249   0.964   4.422
 9226TIP3    H227643   3.342   1.012   4.531
 9227TIP3   OH227644   3.560   4.202   0.411
 9227TIP3    H127645   3.529   4.201   0.321
 9227TIP3    H227646   3.481   4.212   0.464
 9228TIP3   OH227647   6.815   1.199   1.082
 9228TIP3    H127648   6.765   1.252   1.143
 9228TIP3    H227649   6.861   1.135   1.138
 9229TIP3   OH227650   1.393   6.426   2.160
 9229TIP3    H127651   1.434   6.466   2.237
 9229TIP3    H227652   1.460   6.368   2.125
 9230TIP3   OH227653   2.620   5.394   2.198
 9230TIP3    H127654   2.527   5.381   2.182
 9230TIP3    H227655   2.659   5.307   2.187
 9231TIP3   OH227656   4.969   4.858   3.959
 9231TIP3    H127657   5.013   4.844   4.043
 9231TIP3    H227658   4.892   4.800   3.963
 9232TIP3   OH227659   6.951   5.398   2.884
 9232TIP3    H127660   6.976   5.490   2.887
 9232TIP3    H227661   7.021   5.356   2.835
 9233TIP3   OH227662   3.738   3.825   4.299
 9233TIP3    H127663   3.775   3.801   4.214
 9233TIP3    H227664   3.779   3.909   4.320
 9234TIP3   OH227665   4.541   6.017   5.294
 9234TIP3    H127666   4.460   6.064   5.309
 9234TIP3    H227667   4.533   5.937   5.347
 9235TIP3   OH227668   4.005   4.974   1.057
 9235TIP3    H127669   4.024   4.882   1.039
 9235TIP3    H227670   4.049   4.992   1.140
 9236TIP3   OH227671   4.127   4.742   0.985
 9236TIP3    H127672   4.109   4.655   1.020
 9236TIP3    H227673   4.205   4.772   1.032
 9237TIP3   OH227674   2.501   3.884   4.632
 9237TIP3    H127675   2.473   3.802   4.672
 9237TIP3    H227676   2.592   3.895   4.661
 9238TIP3   OH227677   4.936   6.510   3.815
 9238TIP3    H127678   4.926   6.591   3.765
 9238TIP3    H227679   4.882   6.523   3.893
 9239TIP3   OH227680   5.126   2.539   3.626
 9239TIP3    H127681   5.141   2.542   3.532
 9239TIP3    H227682   5.056   2.602   3.641
 9240TIP3   OH227683   0.713   3.873   4.323
 9240TIP3    H127684   0.696   3.816   4.248
 9240TIP3    H227685   0.799   3.913   4.303
 9241TIP3   OH227686   3.498   2.267   3.553
 9241TIP3    H127687   3.592   2.278   3.539
 9241TIP3    H227688   3.478   2.180   3.519
 9242TIP3   OH227689   0.353   0.917   5.813
 9242TIP3    H127690   0.386   0.957   5.732
 9242TIP3    H227691   0.430   0.874   5.851
 9243TIP3   OH227692   3.243   3.103   1.092
 9243TIP3    H127693   3.274   3.078   1.004
 9243TIP3    H227694   3.307   3.066   1.152
 9244TIP3   OH227695   1.500   1.953   4.501
 9244TIP3    H127696   1.437   1.947   4.429
 9244TIP3    H227697   1.452   2.000   4.570
 9245TIP3   OH227698   3.004   2.308   0.122
 9245TIP3    H127699   2.935   2.365   0.157
 9245TIP3    H227700   3.075   2.314   0.186
 9246TIP3   OH227701   5.380   2.879   5.421
 9246TIP3    H127702   5.340   2.793   5.406
 9246TIP3    H227703   5.327   2.939   5.367
 9247TIP3   OH227704   6.191   4.053   1.665
 9247TIP3    H127705   6.195   3.961   1.689
 9247TIP3    H227706   6.144   4.055   1.582
 9248TIP3   OH227707   2.943   6.816   5.564
 9248TIP3    H127708   2.959   6.757   5.638
 9248TIP3    H227709   2.908   6.759   5.496
 9249TIP3   OH227710   1.080   3.617   3.612
 9249TIP3    H127711   1.144   3.576   3.553
 9249TIP3    H227712   1.127   3.690   3.652
 9250TIP3   OH227713   1.543   6.558   4.119
 9250TIP3    H127714   1.599   6.636   4.121
 9250TIP3    H227715   1.457   6.591   4.092
 9251TIP3   OH227716   2.894   1.618   3.733
 9251TIP3    H127717   2.939   1.669   3.801
 9251TIP3    H227718   2.806   1.606   3.768
 9252TIP3   OH227719   2.445   2.608   0.771
 9252TIP3    H127720   2.409   2.521   0.754
 9252TIP3    H227721   2.496   2.598   0.851
 9253TIP3   OH227722   6.269   2.117   1.350
 9253TIP3    H127723   6.176   2.109   1.372
 9253TIP3    H227724   6.309   2.036   1.383
 9254TIP3   OH227725   1.435   2.570   0.000
 9254TIP3    H127726   1.429   2.621   0.081
 9254TIP3    H227727   1.347   2.572  -0.036
 9255TIP3   OH227728   0.865   5.112   0.613
 9255TIP3    H127729   0.828   5.108   0.701
 9255TIP3    H227730   0.953   5.075   0.622
 9256TIP3   OH227731   2.983   3.266   2.350
 9256TIP3    H127732   2.939   3.209   2.413
 9256TIP3    H227733   2.913   3.306   2.299
 9257TIP3   OH227734   3.666   3.670   3.107
 9257TIP3    H127735   3.729   3.601   3.127
 9257TIP3    H227736   3.692   3.743   3.163
 9258TIP3   OH227737   5.825   3.080   3.714
 9258TIP3    H127738   5.880   3.076   3.792
 9258TIP3    H227739   5.865   3.149   3.660
 9259TIP3   OH227740   1.697   1.960   1.034
 9259TIP3    H127741   1.742   1.931   0.954
 9259TIP3    H227742   1.604   1.949   1.013
 9260TIP3   OH227743   2.645   5.108   2.227
 9260TIP3    H127744   2.684   5.139   2.308
 9260TIP3    H227745   2.551   5.126   2.237
 9261TIP3   OH227746   1.337   1.609   4.691
 9261TIP3    H127747   1.307   1.542   4.752
 9261TIP3    H227748   1.291   1.590   4.609
 9262TIP3   OH227749   6.019   6.229   0.584
 9262TIP3    H127750   5.995   6.138   0.600
 9262TIP3    H227751   5.961   6.257   0.514
 9263TIP3   OH227752   0.049   5.598   5.626
 9263TIP3    H127753  -0.020   5.573   5.565
 9263TIP3    H227754   0.129   5.560   5.590
 9264TIP3   OH227755   3.296   4.603   5.553
 9264TIP3    H127756   3.209   4.609   5.591
 9264TIP3    H227757   3.352   4.569   5.623
 9265TIP3   OH227758   1.350   6.260   0.568
 9265TIP3    H127759   1.345   6.176   0.612
 9265TIP3    H227760   1.264   6.274   0.530
 9266TIP3   OH227761   0.422   6.403   2.229
 9266TIP3    H127762   0.340   6.430   2.188
 9266TIP3    H227763   0.475   6.483   2.230
 9267TIP3   OH227764   0.380   4.746   3.957
 9267TIP3    H127765   0.432   4.666   3.965
 9267TIP3    H227766   0.443   4.817   3.971
 9268TIP3   OH227767   1.914   1.653   2.321
 9268TIP3    H127768   1.895   1.720   2.387
 9268TIP3    H227769   1.918   1.571   2.371
 9269TIP3   OH227770   6.023   3.842   5.271
 9269TIP3    H127771   6.071   3.763   5.296
 9269TIP3    H227772   5.943   3.839   5.323
 9270TIP3   OH227773   6.731   2.371   2.868
 9270TIP3    H127774   6.691   2.416   2.794
 9270TIP3    H227775   6.824   2.366   2.845
 9271TIP3   OH227776   3.571   2.198   2.688
 9271TIP3    H127777   3.487   2.190   2.643
 9271TIP3    H227778   3.560   2.147   2.768
 9272TIP3   OH227779   5.510   2.504   1.096
 9272TIP3    H127780   5.480   2.436   1.156
 9272TIP3    H227781   5.606   2.501   1.103
 9273TIP3   OH227782   6.652   0.529   5.553
 9273TIP3    H127783   6.633   0.580   5.474
 9273TIP3    H227784   6.570   0.482   5.571
 9274TIP3   OH227785   6.712   5.453   2.208
 9274TIP3    H127786   6.784   5.394   2.184
 9274TIP3    H227787   6.722   5.466   2.302
 9275TIP3   OH227788   0.459   3.185   3.454
 9275TIP3    H127789   0.547   3.164   3.486
 9275TIP3    H227790   0.461   3.159   3.362
 9276TIP3   OH227791   2.636   5.676   3.650
 9276TIP3    H127792   2.593   5.613   3.592
 9276TIP3    H227793   2.602   5.654   3.737
 9277TIP3   OH227794   3.102   2.532   3.627
 9277TIP3    H127795   3.147   2.463   3.578
 9277TIP3    H227796   3.010   2.520   3.606
 9278TIP3   OH227797   2.969   5.401   4.918
 9278TIP3    H127798   2.906   5.458   4.875
 9278TIP3    H227799   2.922   5.318   4.929
 9279TIP3   OH227800   5.029   5.112   3.875
 9279TIP3    H127801   5.012   5.030   3.921
 9279TIP3    H227802   5.117   5.102   3.840
 9280TIP3   OH227803   2.572   3.792   2.164
 9280TIP3    H127804   2.547   3.713   2.116
 9280TIP3    H227805   2.583   3.859   2.096
 9281TIP3   OH227806   6.236   0.782   1.085
 9281TIP3    H127807   6.207   0.834   1.160
 9281TIP3    H227808   6.186   0.701   1.091
 9282TIP3   OH227809   0.462   3.334   5.805
 9282TIP3    H127810   0.488   3.304   5.718
 9282TIP3    H227811   0.425   3.421   5.791
 9283TIP3   OH227812   6.049   2.561   5.013
 9283TIP3    H127813   6.010   2.503   5.079
 9283TIP3    H227814   6.023   2.524   4.929
 9284TIP3   OH227815   2.967   4.804   4.213
 9284TIP3    H127816   3.011   4.772   4.135
 9284TIP3    H227817   3.006   4.756   4.285
 9285TIP3   OH227818   0.273   1.941   4.673
 9285TIP3    H127819   0.190   1.958   4.718
 9285TIP3    H227820   0.304   2.027   4.646
 9286TIP3   OH227821   1.711   4.855   0.888
 9286TIP3    H127822   1.661   4.918   0.837
 9286TIP3    H227823   1.688   4.770   0.851
 9287TIP3   OH227824   1.050   6.769   5.747
 9287TIP3    H127825   1.110   6.843   5.754
 9287TIP3    H227826   1.074   6.712   5.821
 9288TIP3   OH227827   6.203   2.787   1.869
 9288TIP3    H127828   6.134   2.788   1.804
 9288TIP3    H227829   6.219   2.694   1.887
 9289TIP3   OH227830   6.572   3.830   5.024
 9289TIP3    H127831   6.523   3.911   5.011
 9289TIP3    H227832   6.599   3.832   5.115
 9290TIP3   OH227833   0.133   4.453   4.890
 9290TIP3    H127834   0.119   4.390   4.819
 9290TIP3    H227835   0.155   4.398   4.966
 9291TIP3   OH227836   3.570   2.151   4.930
 9291TIP3    H127837   3.498   2.164   4.868
 9291TIP3    H227838   3.536   2.090   4.995
 9292TIP3   OH227839   6.876   3.424   2.858
 9292TIP3    H127840   6.878   3.329   2.859
 9292TIP3    H227841   6.806   3.448   2.919
 9293TIP3   OH227842   3.851   0.986   3.863
 9293TIP3    H127843   3.913   0.999   3.791
 9293TIP3    H227844   3.900   1.013   3.941
 9294TIP3   OH227845   4.855   0.981   5.136
 9294TIP3    H127846   4.944   0.946   5.140
 9294TIP3    H227847   4.865   1.074   5.154
 9295TIP3   OH227848   4.235   4.355   1.635
 9295TIP3    H127849   4.306   4.341   1.698
 9295TIP3    H227850   4.172   4.286   1.653
 9296TIP3   OH227851   0.882   6.076   4.948
 9296TIP3    H127852   0.938   6.151   4.928
 9296TIP3    H227853   0.940   6.013   4.991
 9297TIP3   OH227854   0.303   1.691   5.318
 9297TIP3    H127855   0.300   1.686   5.222
 9297TIP3    H227856   0.244   1.621   5.347
 9298TIP3   OH227857   4.435   1.411   3.603
 9298TIP3    H127858   4.475   1.424   3.688
 9298TIP3    H227859   4.506   1.423   3.540
 9299TIP3   OH227860   4.784   3.680   3.444
 9299TIP3    H127861   4.849   3.688   3.514
 9299TIP3    H227862   4.762   3.771   3.421
 9300TIP3   OH227863   5.056   5.546   4.138
 9300TIP3    H127864   5.123   5.504   4.084
 9300TIP3    H227865   4.997   5.587   4.076
 9301TIP3   OH227866   0.447   1.202   0.870
 9301TIP3    H127867   0.406   1.156   0.943
 9301TIP3    H227868   0.528   1.238   0.905
 9302TIP3   OH227869   1.865   4.427   0.941
 9302TIP3    H127870   1.872   4.520   0.962
 9302TIP3    H227871   1.778   4.402   0.972
 9303TIP3   OH227872   3.352   2.734   1.175
 9303TIP3    H127873   3.366   2.750   1.082
 9303TIP3    H227874   3.430   2.686   1.203
 9304TIP3   OH227875   3.098   1.441   2.373
 9304TIP3    H127876   3.121   1.426   2.281
 9304TIP3    H227877   3.029   1.377   2.390
 9305TIP3   OH227878   1.017   5.740   3.681
 9305TIP3    H127879   0.926   5.725   3.657
 9305TIP3    H227880   1.032   5.833   3.665
 9306TIP3   OH227881   5.423   4.846   0.382
 9306TIP3    H127882   5.484   4.859   0.309
 9306TIP3    H227883   5.439   4.756   0.411
 9307TIP3   OH227884   2.912   2.530   5.186
 9307TIP3    H127885   2.897   2.470   5.259
 9307TIP3    H227886   2.917   2.473   5.109
 9308TIP3   OH227887   0.789   6.165   1.060
 9308TIP3    H127888   0.787   6.242   1.117
 9308TIP3    H227889   0.764   6.093   1.117
 9309TIP3   OH227890   3.679   6.104   1.772
 9309TIP3    H127891   3.679   6.008   1.777
 9309TIP3    H227892   3.647   6.132   1.858
 9310TIP3   OH227893   1.495   1.161   2.866
 9310TIP3    H127894   1.489   1.246   2.822
 9310TIP3    H227895   1.406   1.128   2.866
 9311TIP3   OH227896   5.735   4.121   5.704
 9311TIP3    H127897   5.725   4.216   5.705
 9311TIP3    H227898   5.654   4.088   5.743
 9312TIP3   OH227899   4.389   5.635   1.971
 9312TIP3    H127900   4.435   5.716   1.949
 9312TIP3    H227901   4.430   5.606   2.053
 9313TIP3   OH227902   2.751   2.359   4.791
 9313TIP3    H127903   2.814   2.355   4.863
 9313TIP3    H227904   2.672   2.396   4.830
 9314TIP3   OH227905   4.524   5.281   4.287
 9314TIP3    H127906   4.515   5.366   4.246
 9314TIP3    H227907   4.605   5.287   4.338
 9315TIP3   OH227908   6.381   5.251   3.829
 9315TIP3    H127909   6.390   5.321   3.894
 9315TIP3    H227910   6.454   5.265   3.769
 9316TIP3   OH227911   1.396   6.296   4.994
 9316TIP3    H127912   1.327   6.336   5.047
 9316TIP3    H227913   1.362   6.299   4.905
 9317TIP3   OH227914   4.020   4.827   4.162
 9317TIP3    H127915   4.055   4.854   4.077
 9317TIP3    H227916   4.073   4.750   4.186
 9318TIP3   OH227917   2.982   4.710   2.460
 9318TIP3    H127918   2.940   4.713   2.547
 9318TIP3    H227919   3.044   4.783   2.462
 9319TIP3   OH227920   0.379   2.059   0.667
 9319TIP3    H127921   0.425   2.142   0.672
 9319TIP3    H227922   0.357   2.037   0.757
 9320TIP3   OH227923   6.591   4.063   0.453
 9320TIP3    H127924   6.496   4.077   0.449
 9320TIP3    H227925   6.627   4.120   0.386
 9321TIP3   OH227926   0.274   2.178   3.748
 9321TIP3    H127927   0.318   2.226   3.678
 9321TIP3    H227928   0.182   2.206   3.741
 9322TIP3   OH227929   5.769   5.824   0.771
 9322TIP3    H127930   5.847   5.780   0.735
 9322TIP3    H227931   5.795   5.915   0.780
 9323TIP3   OH227932   3.933   3.393   3.491
 9323TIP3    H127933   3.990   3.469   3.501
 9323TIP3    H227934   3.947   3.342   3.571
 9324TIP3   OH227935   4.876   2.721   0.159
 9324TIP3    H127936   4.898   2.794   0.218
 9324TIP3    H227937   4.826   2.660   0.213
 9325TIP3   OH227938   5.316   0.971   3.658
 9325TIP3    H127939   5.400   0.924   3.655
 9325TIP3    H227940   5.317   1.026   3.580
 9326TIP3   OH227941   6.343   4.720   2.419
 9326TIP3    H127942   6.384   4.759   2.496
 9326TIP3    H227943   6.374   4.630   2.418
 9327TIP3   OH227944   6.591   2.565   4.822
 9327TIP3    H127945   6.538   2.633   4.782
 9327TIP3    H227946   6.555   2.483   4.788
 9328TIP3   OH227947   0.794   6.633   1.498
 9328TIP3    H127948   0.757   6.626   1.410
 9328TIP3    H227949   0.733   6.690   1.545
 9329TIP3   OH227950   2.893   5.612   1.594
 9329TIP3    H127951   2.841   5.645   1.520
 9329TIP3    H227952   2.946   5.542   1.557
 9330TIP3   OH227953   6.178   6.427   5.446
 9330TIP3    H127954   6.099   6.460   5.402
 9330TIP3    H227955   6.225   6.507   5.471
 9331TIP3   OH227956   3.535   2.479   5.345
 9331TIP3    H127957   3.609   2.455   5.401
 9331TIP3    H227958   3.512   2.568   5.372
 9332TIP3   OH227959   3.031   4.589   4.408
 9332TIP3    H127960   2.985   4.519   4.361
 9332TIP3    H227961   2.969   4.616   4.476
 9333TIP3   OH227962   2.543   1.167   5.679
 9333TIP3    H127963   2.572   1.191   5.767
 9333TIP3    H227964   2.605   1.100   5.651
 9334TIP3   OH227965   3.569   0.818   4.563
 9334TIP3    H127966   3.557   0.864   4.480
 9334TIP3    H227967   3.526   0.874   4.628
 9335TIP3   OH227968   5.625   1.911   0.060
 9335TIP3    H127969   5.580   1.995   0.061
 9335TIP3    H227970   5.586   1.862   0.133
 9336TIP3   OH227971   0.960   1.976   1.224
 9336TIP3    H127972   0.935   1.916   1.153
 9336TIP3    H227973   0.926   1.934   1.304
 9337TIP3   OH227974   1.577   0.618   4.948
 9337TIP3    H127975   1.638   0.692   4.950
 9337TIP3    H227976   1.491   0.657   4.963
 9338TIP3   OH227977   0.071   2.086   1.004
 9338TIP3    H127978   0.124   2.164   1.021
 9338TIP3    H227979   0.005   2.086   1.074
 9339TIP3   OH227980   1.145   4.258   3.665
 9339TIP3    H127981   1.084   4.245   3.737
 9339TIP3    H227982   1.230   4.272   3.708
 9340TIP3   OH227983   4.649   2.226   5.284
 9340TIP3    H127984   4.570   2.186   5.249
 9340TIP3    H227985   4.705   2.240   5.207
 9341TIP3   OH227986   2.547   5.759   2.155
 9341TIP3    H127987   2.617   5.741   2.218
 9341TIP3    H227988   2.486   5.816   2.201
 9342TIP3   OH227989   0.999   4.763   5.888
 9342TIP3    H127990   1.080   4.729   5.851
 9342TIP3    H227991   1.010   4.858   5.884
 9343TIP3   OH227992   2.116   4.356   3.589
 9343TIP3    H127993   2.107   4.334   3.682
 9343TIP3    H227994   2.210   4.346   3.571
 9344TIP3   OH227995   6.761   2.430   4.148
 9344TIP3    H127996   6.789   2.472   4.067
 9344TIP3    H227997   6.675   2.470   4.167
 9345TIP3   OH227998   7.046   0.200   3.150
 9345TIP3    H127999   7.051   0.286   3.190
 9345TIP3    H228000   7.124   0.154   3.180
 9346TIP3   OH228001   5.697   0.662   0.289
 9346TIP3    H128002   5.675   0.630   0.201
 9346TIP3    H228003   5.652   0.602   0.348
 9347TIP3   OH228004   2.287   3.596   4.455
 9347TIP3    H128005   2.280   3.523   4.394
 9347TIP3    H228006   2.381   3.613   4.461
 9348TIP3   OH228007   2.205   5.462   3.423
 9348TIP3    H128008   2.144   5.390   3.410
 9348TIP3    H228009   2.254   5.438   3.502
 9349TIP3   OH228010   6.622   0.832   4.272
 9349TIP3    H128011   6.601   0.740   4.251
 9349TIP3    H228012   6.566   0.852   4.347
 9350TIP3   OH228013   1.392   5.773   4.943
 9350TIP3    H128014   1.364   5.684   4.965
 9350TIP3    H228015   1.412   5.768   4.850
 9351TIP3   OH228016   1.482   4.404   2.852
 9351TIP3    H128017   1.481   4.323   2.802
 9351TIP3    H228018   1.525   4.380   2.935
 9352TIP3   OH228019   3.507   5.631   1.465
 9352TIP3    H128020   3.517   5.563   1.397
 9352TIP3    H228021   3.536   5.711   1.422
 9353TIP3   OH228022   2.524   5.180   3.134
 9353TIP3    H128023   2.445   5.134   3.163
 9353TIP3    H228024   2.566   5.119   3.074
 9354TIP3   OH228025   5.911   6.607   5.030
 9354TIP3    H128026   5.819   6.618   5.006
 9354TIP3    H228027   5.954   6.579   4.949
 9355TIP3   OH228028   5.179   5.607   3.160
 9355TIP3    H128029   5.256   5.560   3.128
 9355TIP3    H228030   5.147   5.656   3.084
 9356TIP3   OH228031   5.923   1.652   1.533
 9356TIP3    H128032   5.937   1.599   1.455
 9356TIP3    H228033   5.843   1.618   1.572
 9357TIP3   OH228034   2.924   1.304   3.391
 9357TIP3    H128035   2.930   1.287   3.298
 9357TIP3    H228036   2.984   1.242   3.431
 9358TIP3   OH228037   2.272   1.723   2.537
 9358TIP3    H128038   2.203   1.790   2.541
 9358TIP3    H228039   2.280   1.692   2.628
 9359TIP3   OH228040   2.255   2.822   4.449
 9359TIP3    H128041   2.321   2.883   4.417
 9359TIP3    H228042   2.178   2.840   4.395
 9360TIP3   OH228043   3.690   6.018   4.221
 9360TIP3    H128044   3.739   5.984   4.147
 9360TIP3    H228045   3.699   5.952   4.289
 9361TIP3   OH228046   1.395   0.421   3.452
 9361TIP3    H128047   1.309   0.447   3.484
 9361TIP3    H228048   1.378   0.352   3.388
 9362TIP3   OH228049   5.021   5.331   1.238
 9362TIP3    H128050   4.939   5.343   1.190
 9362TIP3    H228051   5.073   5.274   1.181
 9363TIP3   OH228052   6.015   2.410   2.169
 9363TIP3    H128053   5.932   2.457   2.158
 9363TIP3    H228054   6.077   2.478   2.196
 9364TIP3   OH228055   4.515   3.706   5.499
 9364TIP3    H128056   4.595   3.760   5.498
 9364TIP3    H228057   4.544   3.622   5.534
 9365TIP3   OH228058   3.716   5.503   2.769
 9365TIP3    H128059   3.651   5.498   2.699
 9365TIP3    H228060   3.786   5.444   2.742
 9366TIP3   OH228061   4.208   3.780   5.170
 9366TIP3    H128062   4.299   3.754   5.182
 9366TIP3    H228063   4.211   3.874   5.158
 9367TIP3   OH228064   1.051   2.357   1.976
 9367TIP3    H128065   1.048   2.439   2.025
 9367TIP3    H228066   1.143   2.332   1.975
 9368TIP3   OH228067   4.032   6.664   0.598
 9368TIP3    H128068   4.097   6.614   0.548
 9368TIP3    H228069   4.038   6.753   0.563
 9369TIP3   OH228070   5.116  -0.001   1.279
 9369TIP3    H128071   5.147   0.052   1.352
 9369TIP3    H228072   5.195  -0.016   1.226
 9370TIP3   OH228073   4.514   1.511   4.101
 9370TIP3    H128074   4.496   1.603   4.122
 9370TIP3    H228075   4.600   1.494   4.139
 9371TIP3   OH228076   5.926   3.028   1.885
 9371TIP3    H128077   5.956   3.090   1.818
 9371TIP3    H228078   5.897   3.084   1.958
 9372TIP3   OH228079   6.262   3.140   4.960
 9372TIP3    H128080   6.334   3.189   4.921
 9372TIP3    H228081   6.197   3.134   4.891
 9373TIP3   OH228082   6.044   6.219   2.653
 9373TIP3    H128083   6.091   6.163   2.591
 9373TIP3    H228084   5.963   6.172   2.671
 9374TIP3   OH228085   2.490   1.712   4.179
 9374TIP3    H128086   2.541   1.792   4.186
 9374TIP3    H228087   2.448   1.718   4.093
 9375TIP3   OH228088   6.171   5.554   3.520
 9375TIP3    H128089   6.217   5.622   3.569
 9375TIP3    H228090   6.081   5.586   3.514
 9376TIP3   OH228091   0.863   5.801   1.489
 9376TIP3    H128092   0.866   5.709   1.465
 9376TIP3    H228093   0.900   5.805   1.577
 9377TIP3   OH228094   5.460   6.803   3.250
 9377TIP3    H128095   5.546   6.802   3.293
 9377TIP3    H228096   5.418   6.722   3.279
 9378TIP3   OH228097   1.918   1.533   4.946
 9378TIP3    H128098   1.975   1.562   4.874
 9378TIP3    H228099   1.871   1.611   4.972
 9379TIP3   OH228100   1.069   5.858   4.993
 9379TIP3    H128101   1.024   5.777   4.968
 9379TIP3    H228102   1.160   5.844   4.969
 9380TIP3   OH228103   1.496   5.803   1.584
 9380TIP3    H128104   1.474   5.715   1.553
 9380TIP3    H228105   1.423   5.829   1.639
 9381TIP3   OH228106   5.206   4.880   0.173
 9381TIP3    H128107   5.275   4.891   0.239
 9381TIP3    H228108   5.153   4.959   0.180
 9382TIP3   OH228109   7.034   5.306   1.298
 9382TIP3    H128110   6.984   5.314   1.379
 9382TIP3    H228111   7.120   5.274   1.326
 9383TIP3   OH228112   0.705   4.635   0.531
 9383TIP3    H128113   0.729   4.711   0.478
 9383TIP3    H228114   0.700   4.668   0.620
 9384TIP3   OH228115   5.910   0.157   3.266
 9384TIP3    H128116   5.904   0.063   3.283
 9384TIP3    H228117   5.872   0.168   3.179
 9385TIP3   OH228118   5.292   1.752   3.193
 9385TIP3    H128119   5.343   1.789   3.121
 9385TIP3    H228120   5.233   1.822   3.220
 9386TIP3   OH228121   7.159   6.530   0.307
 9386TIP3    H128122   7.234   6.518   0.366
 9386TIP3    H228123   7.151   6.624   0.296
 9387TIP3   OH228124   4.071   3.188   4.844
 9387TIP3    H128125   4.094   3.148   4.760
 9387TIP3    H228126   4.147   3.171   4.900
 9388TIP3   OH228127   5.964   0.390   5.853
 9388TIP3    H128128   5.918   0.356   5.930
 9388TIP3    H228129   6.051   0.351   5.857
 9389TIP3   OH228130   2.190   4.463   5.478
 9389TIP3    H128131   2.247   4.534   5.447
 9389TIP3    H228132   2.140   4.502   5.549
 9390TIP3   OH228133   4.775   3.216   2.947
 9390TIP3    H128134   4.734   3.187   3.028
 9390TIP3    H228135   4.836   3.285   2.974
 9391TIP3   OH228136   4.015   5.220   5.091
 9391TIP3    H128137   4.048   5.173   5.168
 9391TIP3    H228138   3.967   5.154   5.042
 9392TIP3   OH228139   6.878   2.723   3.282
 9392TIP3    H128140   6.786   2.747   3.292
 9392TIP3    H228141   6.921   2.757   3.360
 9393TIP3   OH228142   3.267   6.640   4.958
 9393TIP3    H128143   3.249   6.575   5.025
 9393TIP3    H228144   3.182   6.662   4.921
 9394TIP3   OH228145   0.581   2.085   1.466
 9394TIP3    H128146   0.637   2.007   1.466
 9394TIP3    H228147   0.641   2.157   1.443
 9395TIP3   OH228148   2.887   2.733   2.266
 9395TIP3    H128149   2.934   2.734   2.350
 9395TIP3    H228150   2.795   2.745   2.289
 9396TIP3   OH228151   0.081   0.528   4.393
 9396TIP3    H128152   0.137   0.510   4.317
 9396TIP3    H228153   0.048   0.616   4.378
 9397TIP3   OH228154   1.728   5.689   5.416
 9397TIP3    H128155   1.733   5.771   5.465
 9397TIP3    H228156   1.672   5.710   5.341
 9398TIP3   OH228157   5.091   0.163   5.535
 9398TIP3    H128158   5.166   0.137   5.588
 9398TIP3    H228159   5.033   0.209   5.595
 9399TIP3   OH228160   3.565   0.128   4.457
 9399TIP3    H128161   3.496   0.068   4.431
 9399TIP3    H228162   3.542   0.211   4.415
 9400TIP3   OH228163   0.958   0.887   0.822
 9400TIP3    H128164   0.967   0.981   0.837
 9400TIP3    H228165   0.869   0.876   0.790
 9401TIP3   OH228166   2.692   5.922   0.471
 9401TIP3    H128167   2.766   5.872   0.503
 9401TIP3    H228168   2.657   5.870   0.399
 9402TIP3   OH228169   5.565   3.895   2.448
 9402TIP3    H128170   5.658   3.914   2.437
 9402TIP3    H228171   5.563   3.809   2.489
 9403TIP3   OH228172   1.889   4.933   2.428
 9403TIP3    H128173   1.951   5.005   2.440
 9403TIP3    H228174   1.925   4.863   2.483
 9404TIP3   OH228175   1.406   0.864   2.221
 9404TIP3    H128176   1.334   0.802   2.208
 9404TIP3    H228177   1.479   0.809   2.251
 9405TIP3   OH228178   2.630   0.408   3.019
 9405TIP3    H128179   2.632   0.391   3.113
 9405TIP3    H228180   2.703   0.357   2.984
 9406TIP3   OH228181   5.956   5.776   1.211
 9406TIP3    H128182   6.028   5.796   1.270
 9406TIP3    H228183   5.908   5.858   1.202
 9407TIP3   OH228184   3.344   6.141   4.941
 9407TIP3    H128185   3.303   6.080   4.880
 9407TIP3    H228186   3.426   6.098   4.966
 9408TIP3   OH228187   5.818   4.425   4.468
 9408TIP3    H128188   5.869   4.428   4.549
 9408TIP3    H228189   5.799   4.516   4.447
 9409TIP3   OH228190   6.130   2.488   4.516
 9409TIP3    H128191   6.043   2.526   4.523
 9409TIP3    H228192   6.126   2.410   4.572
 9410TIP3   OH228193   3.920   3.804   2.154
 9410TIP3    H128194   3.995   3.785   2.098
 9410TIP3    H228195   3.957   3.809   2.242
 9411TIP3   OH228196   6.263   1.021   5.490
 9411TIP3    H128197   6.226   0.992   5.407
 9411TIP3    H228198   6.344   1.067   5.466
 9412TIP3   OH228199   6.150   4.409   4.532
 9412TIP3    H128200   6.151   4.380   4.440
 9412TIP3    H228201   6.205   4.346   4.577
 9413TIP3   OH228202   1.664   1.275   4.676
 9413TIP3    H128203   1.669   1.349   4.738
 9413TIP3    H228204   1.683   1.198   4.730
 9414TIP3   OH228205   3.090   5.765   2.970
 9414TIP3    H128206   3.087   5.771   3.066
 9414TIP3    H228207   3.077   5.856   2.941
 9415TIP3   OH228208   4.961   4.172   3.710
 9415TIP3    H128209   4.935   4.209   3.626
 9415TIP3    H228210   4.931   4.235   3.775
 9416TIP3   OH228211   5.708   4.404   0.508
 9416TIP3    H128212   5.615   4.385   0.517
 9416TIP3    H228213   5.752   4.322   0.533
 9417TIP3   OH228214   6.662   1.439   4.263
 9417TIP3    H128215   6.700   1.351   4.271
 9417TIP3    H228216   6.693   1.470   4.178
 9418TIP3   OH228217   1.160   4.278   1.884
 9418TIP3    H128218   1.068   4.253   1.878
 9418TIP3    H228219   1.167   4.359   1.835
 9419TIP3   OH228220   0.445   4.962   4.874
 9419TIP3    H128221   0.496   4.882   4.887
 9419TIP3    H228222   0.510   5.029   4.853
 9420TIP3   OH228223   3.905   0.524   4.544
 9420TIP3    H128224   3.876   0.597   4.600
 9420TIP3    H228225   3.999   0.537   4.535
 9421TIP3   OH228226   1.212   2.736   4.967
 9421TIP3    H128227   1.212   2.826   4.935
 9421TIP3    H228228   1.244   2.684   4.893
 9422TIP3   OH228229   5.069   1.695   1.165
 9422TIP3    H128230   5.158   1.694   1.130
 9422TIP3    H228231   5.026   1.767   1.119
 9423TIP3   OH228232   6.673   2.438   2.149
 9423TIP3    H128233   6.578   2.444   2.144
 9423TIP3    H228234   6.701   2.523   2.184
 9424TIP3   OH228235   5.277   1.003   3.127
 9424TIP3    H128236   5.252   1.033   3.039
 9424TIP3    H228237   5.195   0.973   3.166
 9425TIP3   OH228238   4.187   4.071   2.604
 9425TIP3    H128239   4.104   4.112   2.629
 9425TIP3    H228240   4.182   4.061   2.509
 9426TIP3   OH228241   6.003   6.620   0.368
 9426TIP3    H128242   5.946   6.550   0.401
 9426TIP3    H228243   6.030   6.589   0.281
 9427TIP3   OH228244   2.140   1.509   5.888
 9427TIP3    H128245   2.161   1.499   5.795
 9427TIP3    H228246   2.068   1.572   5.890
 9428TIP3   OH228247   2.302   4.247   1.683
 9428TIP3    H128248   2.212   4.277   1.675
 9428TIP3    H228249   2.335   4.244   1.593
 9429TIP3   OH228250   0.844   4.708   4.253
 9429TIP3    H128251   0.902   4.665   4.189
 9429TIP3    H228252   0.890   4.701   4.336
 9430TIP3   OH228253   6.031   0.948   3.638
 9430TIP3    H128254   5.995   0.989   3.560
 9430TIP3    H228255   6.040   0.856   3.616
 9431TIP3   OH228256   3.804   4.212   2.183
 9431TIP3    H128257   3.758   4.140   2.140
 9431TIP3    H228258   3.734   4.272   2.211
 9432TIP3   OH228259   4.383   4.888   4.087
 9432TIP3    H128260   4.382   4.833   4.009
 9432TIP3    H228261   4.362   4.828   4.159
 9433TIP3   OH228262   3.563   1.684   1.773
 9433TIP3    H128263   3.521   1.696   1.858
 9433TIP3    H228264   3.529   1.755   1.719
 9434TIP3   OH228265   5.421   4.874   4.870
 9434TIP3    H128266   5.348   4.819   4.899
 9434TIP3    H228267   5.499   4.821   4.889
 9435TIP3   OH228268   1.591   1.700   4.026
 9435TIP3    H128269   1.685   1.716   4.015
 9435TIP3    H228270   1.550   1.755   3.960
 9436TIP3   OH228271   0.591   0.929   4.378
 9436TIP3    H128272   0.655   0.860   4.363
 9436TIP3    H228273   0.507   0.884   4.382
 9437TIP3   OH228274   6.439   6.381   3.630
 9437TIP3    H128275   6.452   6.297   3.674
 9437TIP3    H228276   6.519   6.395   3.580
 9438TIP3   OH228277   1.022   1.308   2.444
 9438TIP3    H128278   1.093   1.292   2.506
 9438TIP3    H228279   1.036   1.397   2.413
 9439TIP3   OH228280   2.470   5.763   3.891
 9439TIP3    H128281   2.455   5.811   3.810
 9439TIP3    H228282   2.387   5.717   3.908
 9440TIP3   OH228283   5.792   4.059   1.632
 9440TIP3    H128284   5.765   4.150   1.645
 9440TIP3    H228285   5.885   4.066   1.607
 9441TIP3   OH228286   4.219   3.146   1.592
 9441TIP3    H128287   4.137   3.133   1.544
 9441TIP3    H228288   4.262   3.218   1.547
 9442TIP3   OH228289   3.258   1.811   5.204
 9442TIP3    H128290   3.168   1.830   5.231
 9442TIP3    H228291   3.312   1.867   5.259
 9443TIP3   OH228292   2.185   6.477   1.288
 9443TIP3    H128293   2.106   6.499   1.238
 9443TIP3    H228294   2.165   6.505   1.378
 9444TIP3   OH228295   4.217   3.208   3.061
 9444TIP3    H128296   4.143   3.269   3.073
 9444TIP3    H228297   4.269   3.247   2.990
 9445TIP3   OH228298   2.241   6.375   2.993
 9445TIP3    H128299   2.229   6.470   2.987
 9445TIP3    H228300   2.197   6.340   2.915
 9446TIP3   OH228301   2.949   2.578   3.922
 9446TIP3    H128302   2.994   2.604   3.841
 9446TIP3    H228303   2.882   2.645   3.934
 9447TIP3   OH228304   6.430   5.246   4.393
 9447TIP3    H128305   6.438   5.172   4.453
 9447TIP3    H228306   6.341   5.238   4.358
 9448TIP3   OH228307   7.186   5.639   1.239
 9448TIP3    H128308   7.248   5.702   1.276
 9448TIP3    H228309   7.102   5.662   1.279
 9449TIP3   OH228310   2.431   2.827   3.909
 9449TIP3    H128311   2.348   2.874   3.914
 9449TIP3    H228312   2.437   2.780   3.993
 9450TIP3   OH228313   1.559   2.213   4.362
 9450TIP3    H128314   1.480   2.166   4.338
 9450TIP3    H228315   1.600   2.158   4.429
 9451TIP3   OH228316   3.899   2.721   2.694
 9451TIP3    H128317   3.927   2.649   2.637
 9451TIP3    H228318   3.930   2.696   2.781
 9452TIP3   OH228319   3.727   6.750   4.163
 9452TIP3    H128320   3.806   6.778   4.117
 9452TIP3    H228321   3.755   6.673   4.214
 9453TIP3   OH228322   6.253   0.124   2.811
 9453TIP3    H128323   6.165   0.161   2.812
 9453TIP3    H228324   6.289   0.143   2.898
 9454TIP3   OH228325   6.122   4.712   4.147
 9454TIP3    H128326   6.078   4.749   4.223
 9454TIP3    H228327   6.178   4.643   4.183
 9455TIP3   OH228328   1.459   0.289   2.799
 9455TIP3    H128329   1.387   0.351   2.788
 9455TIP3    H228330   1.457   0.266   2.892
 9456TIP3   OH228331   2.482   0.512   1.019
 9456TIP3    H128332   2.404   0.552   1.058
 9456TIP3    H228333   2.547   0.582   1.020
 9457TIP3   OH228334   7.059   2.122   1.171
 9457TIP3    H128335   7.067   2.205   1.219
 9457TIP3    H228336   7.024   2.060   1.235
 9458TIP3   OH228337   4.306   1.843   2.273
 9458TIP3    H128338   4.256   1.801   2.343
 9458TIP3    H228339   4.258   1.923   2.253
 9459TIP3   OH228340   2.914   5.810   3.917
 9459TIP3    H128341   2.942   5.723   3.888
 9459TIP3    H228342   2.992   5.849   3.955
 9460TIP3   OH228343   5.499   2.552   5.614
 9460TIP3    H128344   5.479   2.640   5.645
 9460TIP3    H228345   5.523   2.564   5.522
 9461TIP3   OH228346   5.773   5.823   0.041
 9461TIP3    H128347   5.760   5.772   0.121
 9461TIP3    H228348   5.852   5.786   0.002
 9462TIP3   OH228349   1.647   1.546   0.203
 9462TIP3    H128350   1.561   1.584   0.184
 9462TIP3    H228351   1.682   1.598   0.275
 9463TIP3   OH228352   1.691   0.327   0.166
 9463TIP3    H128353   1.667   0.338   0.258
 9463TIP3    H228354   1.608   0.334   0.118
 9464TIP3   OH228355   0.530   4.518   4.829
 9464TIP3    H128356   0.620   4.552   4.833
 9464TIP3    H228357   0.513   4.506   4.736
 9465TIP3   OH228358   7.049   1.761   0.929
 9465TIP3    H128359   6.967   1.714   0.942
 9465TIP3    H228360   7.110   1.694   0.897
 9466TIP3   OH228361   3.720   3.959   0.303
 9466TIP3    H128362   3.722   4.054   0.320
 9466TIP3    H228363   3.627   3.940   0.288
 9467TIP3   OH228364   2.265   3.303   4.547
 9467TIP3    H128365   2.300   3.307   4.458
 9467TIP3    H228366   2.315   3.233   4.589
 9468TIP3   OH228367   3.185   4.201   5.784
 9468TIP3    H128368   3.202   4.182   5.692
 9468TIP3    H228369   3.090   4.218   5.788
 9469TIP3   OH228370   5.521   6.410   1.435
 9469TIP3    H128371   5.447   6.468   1.419
 9469TIP3    H228372   5.492   6.324   1.402
 9470TIP3   OH228373   0.795   2.839   1.250
 9470TIP3    H128374   0.868   2.897   1.272
 9470TIP3    H228375   0.752   2.883   1.177
 9471TIP3   OH228376   5.256   3.801   0.300
 9471TIP3    H128377   5.279   3.759   0.217
 9471TIP3    H228378   5.340   3.811   0.346
 9472TIP3   OH228379   4.028   6.561   2.174
 9472TIP3    H128380   4.092   6.628   2.197
 9472TIP3    H228381   3.945   6.608   2.166
 9473TIP3   OH228382   5.494   2.128   2.598
 9473TIP3    H128383   5.487   2.062   2.667
 9473TIP3    H228384   5.406   2.131   2.559
 9474TIP3   OH228385   4.860   1.791   3.987
 9474TIP3    H128386   4.855   1.751   4.074
 9474TIP3    H228387   4.941   1.758   3.950
 9475TIP3   OH228388   3.601   2.524   4.666
 9475TIP3    H128389   3.640   2.436   4.671
 9475TIP3    H228390   3.556   2.525   4.582
 9476TIP3   OH228391   5.857   2.160   5.208
 9476TIP3    H128392   5.793   2.106   5.162
 9476TIP3    H228393   5.926   2.099   5.234
 9477TIP3   OH228394   7.028   3.783   5.686
 9477TIP3    H128395   7.038   3.690   5.707
 9477TIP3    H228396   6.996   3.784   5.596
 9478TIP3   OH228397   4.111   4.670   0.458
 9478TIP3    H128398   4.127   4.708   0.544
 9478TIP3    H228399   4.069   4.586   0.477
 9479TIP3   OH228400   6.621   6.802   3.426
 9479TIP3    H128401   6.673   6.775   3.502
 9479TIP3    H228402   6.640   6.736   3.359
 9480TIP3   OH228403   1.822   5.339   4.686
 9480TIP3    H128404   1.813   5.254   4.731
 9480TIP3    H228405   1.801   5.320   4.595
 9481TIP3   OH228406   4.987   4.718   4.430
 9481TIP3    H128407   4.908   4.772   4.423
 9481TIP3    H228408   5.016   4.707   4.339
 9482TIP3   OH228409   2.516   5.447   3.188
 9482TIP3    H128410   2.495   5.442   3.281
 9482TIP3    H228411   2.487   5.362   3.153
 9483TIP3   OH228412   3.110   6.537   0.914
 9483TIP3    H128413   3.034   6.504   0.866
 9483TIP3    H228414   3.149   6.459   0.953
 9484TIP3   OH228415   6.866   1.541   1.062
 9484TIP3    H128416   6.784   1.585   1.085
 9484TIP3    H228417   6.897   1.504   1.144
 9485TIP3   OH228418   2.947   3.604   0.647
 9485TIP3    H128419   2.998   3.540   0.696
 9485TIP3    H228420   2.864   3.560   0.630
 9486TIP3   OH228421   6.604   4.495   3.580
 9486TIP3    H128422   6.624   4.572   3.633
 9486TIP3    H228423   6.509   4.499   3.567
 9487TIP3   OH228424   6.373   2.833   1.642
 9487TIP3    H128425   6.453   2.878   1.614
 9487TIP3    H228426   6.313   2.905   1.666
 9488TIP3   OH228427   5.394   0.062   1.273
 9488TIP3    H128428   5.430   0.021   1.194
 9488TIP3    H228429   5.420   0.005   1.345
 9489TIP3   OH228430   1.186   4.056   0.352
 9489TIP3    H128431   1.200   4.069   0.258
 9489TIP3    H228432   1.093   4.036   0.360
 9490TIP3   OH228433   4.507   6.218   0.385
 9490TIP3    H128434   4.560   6.297   0.387
 9490TIP3    H228435   4.563   6.151   0.424
 9491TIP3   OH228436   6.757   0.365   3.293
 9491TIP3    H128437   6.782   0.280   3.258
 9491TIP3    H228438   6.804   0.371   3.376
 9492TIP3   OH228439   5.245   5.826   2.679
 9492TIP3    H128440   5.311   5.894   2.697
 9492TIP3    H228441   5.283   5.746   2.714
 9493TIP3   OH228442   4.135   3.424   2.637
 9493TIP3    H128443   4.227   3.400   2.625
 9493TIP3    H228444   4.086   3.349   2.603
 9494TIP3   OH228445   3.884   2.164   4.862
 9494TIP3    H128446   3.948   2.172   4.932
 9494TIP3    H228447   3.799   2.170   4.906
 9495TIP3   OH228448   7.004   0.254   0.780
 9495TIP3    H128449   6.923   0.215   0.748
 9495TIP3    H228450   6.980   0.296   0.863
 9496TIP3   OH228451   4.565   5.537   0.428
 9496TIP3    H128452   4.511   5.549   0.506
 9496TIP3    H228453   4.508   5.491   0.366
 9497TIP3   OH228454   6.193   0.816   3.875
 9497TIP3    H128455   6.238   0.768   3.805
 9497TIP3    H228456   6.128   0.754   3.908
 9498TIP3   OH228457   4.825   4.340   0.599
 9498TIP3    H128458   4.769   4.296   0.534
 9498TIP3    H228459   4.778   4.420   0.620
 9499TIP3   OH228460   3.021   0.458   5.711
 9499TIP3    H128461   3.078   0.409   5.652
 9499TIP3    H228462   3.082   0.499   5.774
 9500TIP3   OH228463   2.587   5.731   4.896
 9500TIP3    H128464   2.496   5.763   4.890
 9500TIP3    H228465   2.640   5.810   4.893
 9501TIP3   OH228466   6.537   6.233   4.494
 9501TIP3    H128467   6.452   6.265   4.461
 9501TIP3    H228468   6.539   6.263   4.585
 9502TIP3   OH228469   3.303   2.174   2.522
 9502TIP3    H128470   3.231   2.226   2.557
 9502TIP3    H228471   3.329   2.220   2.442
 9503TIP3   OH228472   6.067   4.851   5.846
 9503TIP3    H128473   6.055   4.923   5.784
 9503TIP3    H228474   6.161   4.851   5.865
 9504TIP3   OH228475   0.969   1.975   1.692
 9504TIP3    H128476   1.010   1.908   1.747
 9504TIP3    H228477   1.014   2.056   1.716
 9505TIP3   OH228478   3.480   0.102   2.543
 9505TIP3    H128479   3.492   0.189   2.581
 9505TIP3    H228480   3.569   0.072   2.524
 9506TIP3   OH228481   7.066   1.075   3.609
 9506TIP3    H128482   7.096   1.042   3.524
 9506TIP3    H228483   7.143   1.073   3.664
 9507TIP3   OH228484   1.938   0.866   4.394
 9507TIP3    H128485   1.959   0.794   4.335
 9507TIP3    H228486   1.843   0.863   4.403
 9508TIP3   OH228487   4.446   3.980   0.483
 9508TIP3    H128488   4.494   4.052   0.442
 9508TIP3    H228489   4.434   3.916   0.413
 9509TIP3   OH228490   6.871   1.008   0.721
 9509TIP3    H128491   6.790   1.057   0.736
 9509TIP3    H228492   6.866   0.980   0.630
 9510TIP3   OH228493   1.800   5.989   5.382
 9510TIP3    H128494   1.727   5.948   5.335
 9510TIP3    H228495   1.875   5.934   5.361
 9511TIP3   OH228496   4.699   5.645   5.332
 9511TIP3    H128497   4.670   5.639   5.241
 9511TIP3    H228498   4.630   5.602   5.382
 9512TIP3   OH228499   2.136   6.526   3.839
 9512TIP3    H128500   2.178   6.484   3.764
 9512TIP3    H228501   2.158   6.470   3.913
 9513TIP3   OH228502   6.298   2.645   3.443
 9513TIP3    H128503   6.346   2.690   3.512
 9513TIP3    H228504   6.223   2.701   3.424
 9514TIP3   OH228505   5.698   4.321   1.627
 9514TIP3    H128506   5.657   4.290   1.546
 9514TIP3    H228507   5.703   4.416   1.616
 9515TIP3   OH228508   4.817   1.997   0.773
 9515TIP3    H128509   4.770   1.916   0.789
 9515TIP3    H228510   4.898   1.971   0.729
 9516TIP3   OH228511   4.651   1.563   1.468
 9516TIP3    H128512   4.611   1.615   1.538
 9516TIP3    H228513   4.737   1.539   1.503
 9517TIP3   OH228514   4.122   4.537   2.860
 9517TIP3    H128515   4.084   4.549   2.947
 9517TIP3    H228516   4.213   4.512   2.876
 9518TIP3   OH228517   0.463   0.429   3.623
 9518TIP3    H128518   0.517   0.351   3.635
 9518TIP3    H228519   0.380   0.407   3.665
 9519TIP3   OH228520   5.228   0.757   5.840
 9519TIP3    H128521   5.177   0.822   5.792
 9519TIP3    H228522   5.313   0.799   5.854
 9520TIP3   OH228523   4.854   4.291   5.420
 9520TIP3    H128524   4.777   4.235   5.427
 9520TIP3    H228525   4.819   4.377   5.396
 9521TIP3   OH228526   1.951   5.918   3.029
 9521TIP3    H128527   1.879   5.970   3.066
 9521TIP3    H228528   1.921   5.827   3.037
 9522TIP3   OH228529   3.346   4.690   0.896
 9522TIP3    H128530   3.408   4.703   0.824
 9522TIP3    H228531   3.267   4.737   0.868
 9523TIP3   OH228532   1.535   0.934   1.158
 9523TIP3    H128533   1.486   0.896   1.231
 9523TIP3    H228534   1.470   0.950   1.090
 9524TIP3   OH228535   3.454   4.196   1.749
 9524TIP3    H128536   3.548   4.203   1.761
 9524TIP3    H228537   3.429   4.117   1.798
 9525TIP3   OH228538   7.123   4.445   0.105
 9525TIP3    H128539   7.156   4.423   0.018
 9525TIP3    H228540   7.121   4.361   0.151
 9526TIP3   OH228541   5.846   1.030   4.471
 9526TIP3    H128542   5.831   1.008   4.379
 9526TIP3    H228543   5.877   1.120   4.469
 9527TIP3   OH228544   5.575   3.759   5.540
 9527TIP3    H128545   5.572   3.667   5.512
 9527TIP3    H228546   5.548   3.757   5.632
 9528TIP3   OH228547   5.871   3.393   1.681
 9528TIP3    H128548   5.806   3.446   1.727
 9528TIP3    H228549   5.872   3.428   1.592
 9529TIP3   OH228550   0.704   1.782   0.758
 9529TIP3    H128551   0.693   1.705   0.813
 9529TIP3    H228552   0.652   1.850   0.801
 9530TIP3   OH228553   1.746   5.677   3.768
 9530TIP3    H128554   1.751   5.594   3.816
 9530TIP3    H228555   1.653   5.701   3.772
 9531TIP3   OH228556   2.052   5.251   3.397
 9531TIP3    H128557   2.068   5.203   3.316
 9531TIP3    H228558   2.002   5.190   3.451
 9532TIP3   OH228559   5.603   2.465   4.127
 9532TIP3    H128560   5.630   2.387   4.175
 9532TIP3    H228561   5.676   2.526   4.137
 9533TIP3   OH228562   1.746   6.576   3.607
 9533TIP3    H128563   1.656   6.602   3.622
 9533TIP3    H228564   1.741   6.484   3.580
 9534TIP3   OH228565   2.671   5.591   0.547
 9534TIP3    H128566   2.741   5.652   0.569
 9534TIP3    H228567   2.641   5.619   0.460
 9535TIP3   OH228568   3.558   1.607   3.842
 9535TIP3    H128569   3.526   1.613   3.751
 9535TIP3    H228570   3.490   1.650   3.894
 9536TIP3   OH228571   7.109   0.896   5.706
 9536TIP3    H128572   7.030   0.947   5.689
 9536TIP3    H228573   7.092   0.811   5.665
 9537TIP3   OH228574   5.310   0.435   0.565
 9537TIP3    H128575   5.382   0.382   0.532
 9537TIP3    H228576   5.259   0.457   0.487
 9538TIP3   OH228577   3.913   4.413   1.903
 9538TIP3    H128578   3.958   4.358   1.966
 9538TIP3    H228579   3.982   4.458   1.856
 9539TIP3   OH228580   6.998   5.095   2.668
 9539TIP3    H128581   6.978   5.187   2.650
 9539TIP3    H228582   6.913   5.053   2.673
 9540TIP3   OH228583   0.847   6.681   2.948
 9540TIP3    H128584   0.802   6.764   2.935
 9540TIP3    H228585   0.840   6.664   3.042
 9541TIP3   OH228586   3.254   3.765   1.267
 9541TIP3    H128587   3.253   3.821   1.344
 9541TIP3    H228588   3.297   3.684   1.296
 9542TIP3   OH228589   0.240   1.519   3.907
 9542TIP3    H128590   0.197   1.568   3.838
 9542TIP3    H228591   0.283   1.586   3.961
 9543TIP3   OH228592   2.534   2.698   4.138
 9543TIP3    H128593   2.535   2.634   4.067
 9543TIP3    H228594   2.476   2.661   4.204
 9544TIP3   OH228595   2.706   5.502   1.778
 9544TIP3    H128596   2.773   5.541   1.722
 9544TIP3    H228597   2.633   5.564   1.773
 9545TIP3   OH228598   4.270   1.762   4.235
 9545TIP3    H128599   4.254   1.741   4.143
 9545TIP3    H228600   4.230   1.849   4.246
 9546TIP3   OH228601   0.628   6.595   0.780
 9546TIP3    H128602   0.705   6.549   0.814
 9546TIP3    H228603   0.661   6.682   0.755
 9547TIP3   OH228604   5.894   6.064   1.182
 9547TIP3    H128605   5.801   6.059   1.164
 9547TIP3    H228606   5.917   6.155   1.161
 9548TIP3   OH228607   2.240   2.397   0.740
 9548TIP3    H128608   2.282   2.332   0.682
 9548TIP3    H228609   2.164   2.351   0.776
 9549TIP3   OH228610   6.437   4.432   4.296
 9549TIP3    H128611   6.364   4.374   4.318
 9549TIP3    H228612   6.403   4.520   4.313
 9550TIP3   OH228613   3.803   1.633   5.894
 9550TIP3    H128614   3.817   1.726   5.875
 9550TIP3    H228615   3.831   1.588   5.814
 9551TIP3   OH228616   2.378   1.658   2.310
 9551TIP3    H128617   2.346   1.687   2.396
 9551TIP3    H228618   2.449   1.719   2.289
 9552TIP3   OH228619   3.123   1.259   3.813
 9552TIP3    H128620   3.049   1.269   3.873
 9552TIP3    H228621   3.135   1.165   3.805
 9553TIP3   OH228622   2.126   3.734   0.857
 9553TIP3    H128623   2.170   3.695   0.932
 9553TIP3    H228624   2.076   3.807   0.893
 9554TIP3   OH228625   0.472   1.454   3.284
 9554TIP3    H128626   0.560   1.463   3.322
 9554TIP3    H228627   0.413   1.469   3.357
 9555TIP3   OH228628   2.983   2.370   2.325
 9555TIP3    H128629   2.909   2.392   2.381
 9555TIP3    H228630   2.948   2.307   2.262
 9556TIP3   OH228631   6.712   5.361   5.750
 9556TIP3    H128632   6.648   5.414   5.797
 9556TIP3    H228633   6.662   5.320   5.679
 9557TIP3   OH228634   0.070   3.612   3.236
 9557TIP3    H128635   0.000   3.615   3.170
 9557TIP3    H228636   0.067   3.522   3.270
 9558TIP3   OH228637   4.982   1.244   1.667
 9558TIP3    H128638   5.038   1.167   1.678
 9558TIP3    H228639   4.969   1.251   1.572
 9559TIP3   OH228640   2.585   5.839   2.813
 9559TIP3    H128641   2.661   5.834   2.754
 9559TIP3    H228642   2.518   5.788   2.768
 9560TIP3   OH228643   2.663   0.719   1.020
 9560TIP3    H128644   2.669   0.788   1.086
 9560TIP3    H228645   2.753   0.703   0.993
 9561TIP3   OH228646   4.055   3.765   1.729
 9561TIP3    H128647   4.053   3.688   1.672
 9561TIP3    H228648   4.059   3.840   1.669
 9562TIP3   OH228649   6.703   4.726   4.085
 9562TIP3    H128650   6.636   4.774   4.133
 9562TIP3    H228651   6.654   4.668   4.027
 9563TIP3   OH228652   4.033   2.393   3.260
 9563TIP3    H128653   3.969   2.423   3.325
 9563TIP3    H228654   4.100   2.462   3.259
 9564TIP3   OH228655   0.926   6.396   3.192
 9564TIP3    H128656   0.952   6.486   3.212
 9564TIP3    H228657   0.875   6.403   3.111
 9565TIP3   OH228658   0.480   5.608   4.072
 9565TIP3    H128659   0.442   5.659   4.143
 9565TIP3    H228660   0.575   5.621   4.081
 9566TIP3   OH228661   2.255   4.535   4.978
 9566TIP3    H128662   2.212   4.604   4.927
 9566TIP3    H228663   2.192   4.463   4.981
 9567TIP3   OH228664   0.939   1.920   5.084
 9567TIP3    H128665   0.930   1.940   4.991
 9567TIP3    H228666   0.864   1.864   5.104
 9568TIP3   OH228667   6.764   1.445   5.511
 9568TIP3    H128668   6.812   1.480   5.585
 9568TIP3    H228669   6.708   1.377   5.548
 9569TIP3   OH228670   6.602   2.888   1.267
 9569TIP3    H128671   6.524   2.835   1.280
 9569TIP3    H228672   6.629   2.913   1.355
 9570TIP3   OH228673   6.735   6.402   3.587
 9570TIP3    H128674   6.689   6.334   3.636
 9570TIP3    H228675   6.719   6.482   3.636
 9571TIP3   OH228676   4.036   6.669   5.531
 9571TIP3    H128677   3.951   6.650   5.491
 9571TIP3    H228678   4.075   6.583   5.546
 9572TIP3   OH228679   6.561   6.310   2.914
 9572TIP3    H128680   6.578   6.244   2.846
 9572TIP3    H228681   6.596   6.271   2.994
 9573TIP3   OH228682   1.281   4.084   1.763
 9573TIP3    H128683   1.356   4.062   1.818
 9573TIP3    H228684   1.240   4.159   1.806
 9574TIP3   OH228685   6.564   3.050   3.231
 9574TIP3    H128686   6.517   3.063   3.149
 9574TIP3    H228687   6.631   3.118   3.232
 9575TIP3   OH228688   2.671   6.638   4.477
 9575TIP3    H128689   2.655   6.716   4.530
 9575TIP3    H228690   2.583   6.602   4.461
 9576TIP3   OH228691   5.586   0.280   1.187
 9576TIP3    H128692   5.608   0.191   1.159
 9576TIP3    H228693   5.533   0.315   1.115
 9577TIP3   OH228694   1.750   5.402   5.220
 9577TIP3    H128695   1.664   5.359   5.223
 9577TIP3    H228696   1.734   5.482   5.170
 9578TIP3   OH228697   3.808   4.551   4.969
 9578TIP3    H128698   3.721   4.580   4.994
 9578TIP3    H228699   3.817   4.579   4.877
 9579TIP3   OH228700   1.803   3.840   3.652
 9579TIP3    H128701   1.893   3.808   3.662
 9579TIP3    H228702   1.789   3.840   3.557
 9580TIP3   OH228703   6.808   6.338   0.351
 9580TIP3    H128704   6.839   6.307   0.266
 9580TIP3    H228705   6.837   6.271   0.413
 9581TIP3   OH228706   5.113   3.655   5.390
 9581TIP3    H128707   5.042   3.626   5.333
 9581TIP3    H228708   5.175   3.697   5.331
 9582TIP3   OH228709   4.493   6.629   1.167
 9582TIP3    H128710   4.488   6.706   1.111
 9582TIP3    H228711   4.502   6.555   1.106
 9583TIP3   OH228712   3.985   1.378   2.740
 9583TIP3    H128713   3.931   1.452   2.711
 9583TIP3    H228714   3.981   1.382   2.836
 9584TIP3   OH228715   6.895   2.714   1.941
 9584TIP3    H128716   6.896   2.644   2.007
 9584TIP3    H228717   6.889   2.668   1.858
 9585TIP3   OH228718   3.803   3.846   3.634
 9585TIP3    H128719   3.893   3.815   3.646
 9585TIP3    H228720   3.754   3.803   3.704
 9586TIP3   OH228721   6.471   4.161   5.305
 9586TIP3    H128722   6.389   4.116   5.287
 9586TIP3    H228723   6.539   4.095   5.293
 9587TIP3   OH228724   6.007   2.265   0.674
 9587TIP3    H128725   6.085   2.249   0.726
 9587TIP3    H228726   5.955   2.185   0.682
 9588TIP3   OH228727   5.687   1.940   5.144
 9588TIP3    H128728   5.700   1.882   5.219
 9588TIP3    H228729   5.683   1.881   5.069
 9589TIP3   OH228730   6.619   5.278   3.685
 9589TIP3    H128731   6.616   5.363   3.639
 9589TIP3    H228732   6.599   5.214   3.617
 9590TIP3   OH228733   4.145   4.935   5.650
 9590TIP3    H128734   4.165   5.028   5.654
 9590TIP3    H228735   4.055   4.932   5.618
 9591TIP3   OH228736   6.772   4.573   1.366
 9591TIP3    H128737   6.859   4.579   1.407
 9591TIP3    H228738   6.765   4.482   1.338
 9592TIP3   OH228739   5.660   4.903   2.887
 9592TIP3    H128740   5.573   4.940   2.870
 9592TIP3    H228741   5.645   4.841   2.959
 9593TIP3   OH228742   3.903   2.898   3.268
 9593TIP3    H128743   3.929   2.933   3.183
 9593TIP3    H228744   3.914   2.803   3.259
 9594TIP3   OH228745   2.178   3.593   3.760
 9594TIP3    H128746   2.218   3.507   3.771
 9594TIP3    H228747   2.183   3.609   3.666
 9595TIP3   OH228748   1.480   5.087   0.044
 9595TIP3    H128749   1.397   5.130   0.025
 9595TIP3    H228750   1.544   5.132  -0.012
 9596TIP3   OH228751   4.301   5.387   1.905
 9596TIP3    H128752   4.353   5.468   1.906
 9596TIP3    H228753   4.355   5.323   1.952
 9597TIP3   OH228754   1.059   4.803   0.295
 9597TIP3    H128755   1.011   4.886   0.287
 9597TIP3    H228756   1.132   4.813   0.234
 9598TIP3   OH228757   6.715   0.573   2.472
 9598TIP3    H128758   6.796   0.523   2.458
 9598TIP3    H228759   6.710   0.584   2.567
 9599TIP3   OH228760   5.202   2.176   4.519
 9599TIP3    H128761   5.190   2.146   4.609
 9599TIP3    H228762   5.188   2.271   4.523
 9600TIP3   OH228763   1.468   5.963   0.978
 9600TIP3    H128764   1.552   5.963   1.024
 9600TIP3    H228765   1.484   5.914   0.898
 9601TIP3   OH228766   3.787   3.412   4.967
 9601TIP3    H128767   3.861   3.421   5.027
 9601TIP3    H228768   3.742   3.333   4.997
 9602TIP3   OH228769   4.141   0.328   4.999
 9602TIP3    H128770   4.054   0.289   5.010
 9602TIP3    H228771   4.150   0.387   5.074
 9603TIP3   OH228772   0.320   6.597   1.083
 9603TIP3    H128773   0.327   6.621   0.991
 9603TIP3    H228774   0.347   6.675   1.131
 9604TIP3   OH228775   6.295   4.450   0.494
 9604TIP3    H128776   6.303   4.363   0.457
 9604TIP3    H228777   6.201   4.468   0.495
 9605TIP3   OH228778   4.579   2.910   2.659
 9605TIP3    H128779   4.542   2.897   2.746
 9605TIP3    H228780   4.635   2.834   2.645
 9606TIP3   OH228781   3.365   6.619   0.387
 9606TIP3    H128782   3.341   6.617   0.294
 9606TIP3    H228783   3.285   6.592   0.432
 9607TIP3   OH228784   6.306   6.247   0.562
 9607TIP3    H128785   6.338   6.282   0.478
 9607TIP3    H228786   6.216   6.220   0.544
 9608TIP3   OH228787   4.113   2.880   4.919
 9608TIP3    H128788   4.088   2.875   5.011
 9608TIP3    H228789   4.185   2.943   4.917
 9609TIP3   OH228790   4.119   1.041   5.138
 9609TIP3    H128791   4.206   1.060   5.171
 9609TIP3    H228792   4.093   1.120   5.090
 9610TIP3   OH228793   5.528   5.122   4.778
 9610TIP3    H128794   5.501   5.122   4.686
 9610TIP3    H228795   5.500   5.037   4.811
 9611TIP3   OH228796   3.929   0.911   1.224
 9611TIP3    H128797   3.957   0.835   1.276
 9611TIP3    H228798   3.874   0.962   1.284
 9612TIP3   OH228799   3.961   2.677   3.885
 9612TIP3    H128800   4.008   2.602   3.922
 9612TIP3    H228801   3.869   2.653   3.891
 9613TIP3   OH228802   5.271   4.548   3.300
 9613TIP3    H128803   5.253   4.578   3.211
 9613TIP3    H228804   5.240   4.620   3.356
 9614TIP3   OH228805   6.734   1.168   3.977
 9614TIP3    H128806   6.797   1.128   3.917
 9614TIP3    H228807   6.686   1.231   3.923
 9615TIP3   OH228808   1.648   4.963   3.696
 9615TIP3    H128809   1.653   4.887   3.756
 9615TIP3    H228810   1.586   4.935   3.628
 9616TIP3   OH228811   2.775   5.793   3.029
 9616TIP3    H128812   2.699   5.783   2.972
 9616TIP3    H228813   2.811   5.704   3.037
 9617TIP3   OH228814   4.316   6.371   3.511
 9617TIP3    H128815   4.238   6.332   3.472
 9617TIP3    H228816   4.284   6.418   3.587
 9618TIP3   OH228817   1.976   5.296   5.137
 9618TIP3    H128818   1.969   5.208   5.174
 9618TIP3    H228819   1.887   5.331   5.141
 9619TIP3   OH228820   5.239   1.897   0.230
 9619TIP3    H128821   5.226   1.944   0.148
 9619TIP3    H228822   5.190   1.815   0.219
 9620TIP3   OH228823   6.344   0.615   1.657
 9620TIP3    H128824   6.386   0.678   1.716
 9620TIP3    H228825   6.365   0.646   1.569
 9621TIP3   OH228826   2.820   1.886   0.303
 9621TIP3    H128827   2.730   1.915   0.292
 9621TIP3    H228828   2.862   1.907   0.219
 9622TIP3   OH228829   1.792   1.862   1.416
 9622TIP3    H128830   1.868   1.862   1.474
 9622TIP3    H228831   1.828   1.844   1.329
 9623TIP3   OH228832   0.311   4.200   4.473
 9623TIP3    H128833   0.253   4.225   4.401
 9623TIP3    H228834   0.373   4.139   4.434
 9624TIP3   OH228835   5.079   1.793   3.498
 9624TIP3    H128836   5.060   1.880   3.533
 9624TIP3    H228837   5.018   1.782   3.426
 9625TIP3   OH228838   0.129   2.523   5.300
 9625TIP3    H128839   0.200   2.580   5.272
 9625TIP3    H228840   0.158   2.435   5.275
 9626TIP3   OH228841   4.975   0.682   5.545
 9626TIP3    H128842   4.915   0.647   5.611
 9626TIP3    H228843   5.062   0.668   5.583
 9627TIP3   OH228844   2.337   2.956   5.683
 9627TIP3    H128845   2.347   2.874   5.733
 9627TIP3    H228846   2.262   2.940   5.626
 9628TIP3   OH228847   5.724   3.969   3.075
 9628TIP3    H128848   5.784   4.030   3.117
 9628TIP3    H228849   5.638   4.012   3.082
 9629TIP3   OH228850   2.187   1.049   5.406
 9629TIP3    H128851   2.265   0.997   5.426
 9629TIP3    H228852   2.208   1.136   5.439
 9630TIP3   OH228853   5.652   4.591   0.838
 9630TIP3    H128854   5.708   4.521   0.802
 9630TIP3    H228855   5.664   4.664   0.777
 9631TIP3   OH228856   0.781   5.049   2.029
 9631TIP3    H128857   0.728   4.971   2.049
 9631TIP3    H228858   0.865   5.031   2.070
 9632TIP3   OH228859   5.222   4.611   3.020
 9632TIP3    H128860   5.140   4.576   2.983
 9632TIP3    H228861   5.270   4.643   2.944
 9633TIP3   OH228862   6.525   3.692   1.381
 9633TIP3    H128863   6.549   3.767   1.327
 9633TIP3    H228864   6.434   3.674   1.358
 9634TIP3   OH228865   6.960   5.447   1.625
 9634TIP3    H128866   6.916   5.399   1.555
 9634TIP3    H228867   7.010   5.515   1.580
 9635TIP3   OH228868   1.713   4.194   0.297
 9635TIP3    H128869   1.620   4.218   0.307
 9635TIP3    H228870   1.760   4.271   0.328
 9636TIP3   OH228871   1.338   6.453   5.716
 9636TIP3    H128872   1.248   6.425   5.702
 9636TIP3    H228873   1.375   6.386   5.774
 9637TIP3   OH228874   2.838   6.131   4.716
 9637TIP3    H128875   2.842   6.221   4.748
 9637TIP3    H228876   2.885   6.133   4.633
 9638TIP3   OH228877   0.881   4.710   5.658
 9638TIP3    H128878   0.792   4.694   5.691
 9638TIP3    H228879   0.935   4.717   5.737
 9639TIP3   OH228880   2.385   2.579   1.455
 9639TIP3    H128881   2.461   2.635   1.470
 9639TIP3    H228882   2.322   2.635   1.410
 9640TIP3   OH228883   2.696   0.630   5.302
 9640TIP3    H128884   2.672   0.679   5.381
 9640TIP3    H228885   2.784   0.596   5.320
 9641TIP3   OH228886   2.905   3.502   5.581
 9641TIP3    H128887   2.991   3.470   5.554
 9641TIP3    H228888   2.917   3.528   5.673
 9642TIP3   OH228889   2.132   4.809   3.148
 9642TIP3    H128890   2.106   4.764   3.067
 9642TIP3    H228891   2.051   4.819   3.197
 9643TIP3   OH228892   4.795   1.978   5.230
 9643TIP3    H128893   4.864   2.020   5.281
 9643TIP3    H228894   4.753   2.050   5.183
 9644TIP3   OH228895   2.928   0.305   3.008
 9644TIP3    H128896   2.919   0.314   3.103
 9644TIP3    H228897   2.945   0.394   2.977
 9645TIP3   OH228898   1.887   0.869   5.850
 9645TIP3    H128899   1.838   0.904   5.776
 9645TIP3    H228900   1.874   0.775   5.845
 9646TIP3   OH228901   4.802   6.303   5.863
 9646TIP3    H128902   4.726   6.246   5.872
 9646TIP3    H228903   4.877   6.247   5.884
 9647TIP3   OH228904   5.114   5.457   3.383
 9647TIP3    H128905   5.137   5.370   3.350
 9647TIP3    H228906   5.146   5.517   3.315
 9648TIP3   OH228907   3.436   3.401   2.416
 9648TIP3    H128908   3.490   3.382   2.492
 9648TIP3    H228909   3.354   3.354   2.430
 9649TIP3   OH228910   2.734   2.839   1.258
 9649TIP3    H128911   2.656   2.798   1.221
 9649TIP3    H228912   2.729   2.930   1.231
 9650TIP3   OH228913   0.053   1.038   3.788
 9650TIP3    H128914   0.128   0.979   3.794
 9650TIP3    H228915   0.070   1.106   3.853
 9651TIP3   OH228916   6.460   3.660   0.443
 9651TIP3    H128917   6.461   3.580   0.391
 9651TIP3    H228918   6.405   3.721   0.392
 9652TIP3   OH228919   6.461   1.074   1.235
 9652TIP3    H128920   6.431   1.065   1.326
 9652TIP3    H228921   6.521   1.148   1.237
 9653TIP3   OH228922   4.605   5.665   3.821
 9653TIP3    H128923   4.583   5.573   3.805
 9653TIP3    H228924   4.683   5.681   3.767
 9654TIP3   OH228925   2.142   4.652   4.263
 9654TIP3    H128926   2.119   4.559   4.267
 9654TIP3    H228927   2.185   4.662   4.178
 9655TIP3   OH228928   3.686   4.465   3.220
 9655TIP3    H128929   3.631   4.399   3.177
 9655TIP3    H228930   3.657   4.548   3.182
 9656TIP3   OH228931   4.629   6.630   5.008
 9656TIP3    H128932   4.681   6.672   4.939
 9656TIP3    H228933   4.639   6.536   4.990
 9657TIP3   OH228934   1.904   1.032   1.684
 9657TIP3    H128935   1.890   1.059   1.593
 9657TIP3    H228936   1.909   0.936   1.679
 9658TIP3   OH228937   5.257   5.391   0.214
 9658TIP3    H128938   5.257   5.397   0.119
 9658TIP3    H228939   5.349   5.401   0.240
 9659TIP3   OH228940   5.473   0.936   5.634
 9659TIP3    H128941   5.542   1.001   5.624
 9659TIP3    H228942   5.450   0.940   5.727
 9660TIP3   OH228943   4.700   3.356   2.424
 9660TIP3    H128944   4.679   3.293   2.494
 9660TIP3    H228945   4.638   3.427   2.436
 9661TIP3   OH228946   6.024   2.670   3.106
 9661TIP3    H128947   5.940   2.717   3.099
 9661TIP3    H228948   6.079   2.727   3.160
 9662TIP3   OH228949   5.897   0.232   2.608
 9662TIP3    H128950   5.869   0.179   2.533
 9662TIP3    H228951   5.854   0.317   2.594
 9663TIP3   OH228952   6.874   6.430   2.890
 9663TIP3    H128953   6.919   6.346   2.894
 9663TIP3    H228954   6.801   6.416   2.830
 9664TIP3   OH228955   4.682   6.607   3.163
 9664TIP3    H128956   4.682   6.530   3.106
 9664TIP3    H228957   4.597   6.605   3.205
 9665TIP3   OH228958   4.026   5.858   5.390
 9665TIP3    H128959   4.110   5.873   5.347
 9665TIP3    H228960   3.961   5.864   5.320
 9666TIP3   OH228961   6.487   3.762   0.715
 9666TIP3    H128962   6.484   3.729   0.625
 9666TIP3    H228963   6.523   3.850   0.707
 9667TIP3   OH228964   5.986   3.082   3.944
 9667TIP3    H128965   5.930   3.063   4.019
 9667TIP3    H228966   6.049   3.009   3.943
 9668TIP3   OH228967   6.791   3.103   2.107
 9668TIP3    H128968   6.732   3.032   2.081
 9668TIP3    H228969   6.748   3.183   2.075
 9669TIP3   OH228970   1.795   2.875   1.468
 9669TIP3    H128971   1.791   2.942   1.536
 9669TIP3    H228972   1.703   2.859   1.445
 9670TIP3   OH228973   4.469   0.732   3.615
 9670TIP3    H128974   4.425   0.693   3.539
 9670TIP3    H228975   4.414   0.707   3.689
 9671TIP3   OH228976   7.225   4.993   4.353
 9671TIP3    H128977   7.180   5.014   4.434
 9671TIP3    H228978   7.162   4.939   4.305
 9672TIP3   OH228979   3.886   6.254   3.302
 9672TIP3    H128980   3.928   6.229   3.220
 9672TIP3    H228981   3.855   6.343   3.287
 9673TIP3   OH228982   6.622   1.734   2.716
 9673TIP3    H128983   6.583   1.713   2.801
 9673TIP3    H228984   6.575   1.812   2.686
 9674TIP3   OH228985   1.647   3.093   4.250
 9674TIP3    H128986   1.731   3.055   4.222
 9674TIP3    H228987   1.672   3.167   4.305
 9675TIP3   OH228988   4.869   5.850   4.760
 9675TIP3    H128989   4.786   5.865   4.807
 9675TIP3    H228990   4.845   5.792   4.688
 9676TIP3   OH228991   5.809   3.193   0.074
 9676TIP3    H128992   5.770   3.121   0.024
 9676TIP3    H228993   5.901   3.168   0.084
 9677TIP3   OH228994   0.977   5.851   0.000
 9677TIP3    H128995   0.951   5.768  -0.039
 9677TIP3    H228996   0.952   5.842   0.092
 9678TIP3   OH228997   1.666   4.665   2.053
 9678TIP3    H128998   1.628   4.577   2.051
 9678TIP3    H228999   1.723   4.665   2.130
 9679TIP3   OH229000   1.252   0.161   0.578
 9679TIP3    H129001   1.249   0.133   0.669
 9679TIP3    H229002   1.160   0.170   0.553
 9680TIP3   OH229003   6.993   2.947   4.078
 9680TIP3    H129004   7.089   2.948   4.084
 9680TIP3    H229005   6.975   2.920   3.989
 9681TIP3   OH229006   5.091   1.826   4.870
 9681TIP3    H129007   5.010   1.831   4.919
 9681TIP3    H229008   5.151   1.778   4.927
 9682TIP3   OH229009   6.013   4.623   5.430
 9682TIP3    H129010   6.099   4.580   5.433
 9682TIP3    H229011   5.997   4.649   5.520
 9683TIP3   OH229012   0.286   1.615   0.071
 9683TIP3    H129013   0.328   1.560   0.137
 9683TIP3    H229014   0.273   1.699   0.115
 9684TIP3   OH229015   4.913   1.580   5.399
 9684TIP3    H129016   4.902   1.530   5.480
 9684TIP3    H229017   4.858   1.658   5.413
 9685TIP3   OH229018   2.975   1.471   0.680
 9685TIP3    H129019   2.957   1.400   0.741
 9685TIP3    H229020   2.920   1.451   0.604
 9686TIP3   OH229021   2.615   0.560   4.185
 9686TIP3    H129022   2.551   0.517   4.242
 9686TIP3    H229023   2.624   0.501   4.110
 9687TIP3   OH229024   4.820   2.485   4.794
 9687TIP3    H129025   4.739   2.445   4.761
 9687TIP3    H229026   4.851   2.424   4.861
 9688TIP3   OH229027   1.557   0.035   5.111
 9688TIP3    H129028   1.481   0.009   5.060
 9688TIP3    H229029   1.581   0.121   5.077
 9689TIP3   OH229030   2.543   6.603   3.042
 9689TIP3    H129031   2.567   6.521   3.000
 9689TIP3    H229032   2.595   6.669   2.998
 9690TIP3   OH229033   6.922   0.595   3.745
 9690TIP3    H129034   6.926   0.659   3.816
 9690TIP3    H229035   6.976   0.522   3.776
 9691TIP3   OH229036   2.608   6.663   3.474
 9691TIP3    H129037   2.582   6.644   3.384
 9691TIP3    H229038   2.703   6.653   3.474
 9692TIP3   OH229039   0.305   4.201   5.421
 9692TIP3    H129040   0.384   4.199   5.367
 9692TIP3    H229041   0.259   4.120   5.399
 9693TIP3   OH229042   3.741   5.061   0.922
 9693TIP3    H129043   3.826   5.034   0.888
 9693TIP3    H229044   3.678   5.015   0.867
 9694TIP3   OH229045   1.005   4.250   2.680
 9694TIP3    H129046   1.025   4.341   2.658
 9694TIP3    H229047   0.992   4.207   2.595
 9695TIP3   OH229048   3.233   1.147   0.820
 9695TIP3    H129049   3.314   1.169   0.865
 9695TIP3    H229050   3.165   1.196   0.865
 9696TIP3   OH229051   5.500   1.816   0.298
 9696TIP3    H129052   5.470   1.735   0.340
 9696TIP3    H229053   5.420   1.867   0.285
 9697TIP3   OH229054   6.360   6.419   2.194
 9697TIP3    H129055   6.418   6.355   2.154
 9697TIP3    H229056   6.409   6.453   2.269
 9698TIP3   OH229057   3.711   0.679   1.514
 9698TIP3    H129058   3.801   0.673   1.482
 9698TIP3    H229059   3.666   0.606   1.472
 9699TIP3   OH229060   6.222   5.870   4.767
 9699TIP3    H129061   6.248   5.918   4.688
 9699TIP3    H229062   6.235   5.778   4.744
 9700TIP3   OH229063   6.354   3.874   0.286
 9700TIP3    H129064   6.374   3.960   0.248
 9700TIP3    H229065   6.327   3.821   0.212
 9701TIP3   OH229066   3.297   2.349   5.459
 9701TIP3    H129067   3.381   2.392   5.444
 9701TIP3    H229068   3.239   2.419   5.490
 9702TIP3   OH229069   0.300   1.095   4.151
 9702TIP3    H129070   0.290   1.125   4.242
 9702TIP3    H229071   0.393   1.108   4.132
 9703TIP3   OH229072   0.890   0.739   2.287
 9703TIP3    H129073   0.813   0.687   2.310
 9703TIP3    H229074   0.964   0.683   2.312
 9704TIP3   OH229075   6.205   4.679   3.360
 9704TIP3    H129076   6.172   4.745   3.422
 9704TIP3    H229077   6.285   4.646   3.402
 9705TIP3   OH229078   0.423   2.236   1.881
 9705TIP3    H129079   0.365   2.285   1.823
 9705TIP3    H229080   0.364   2.195   1.945
 9706TIP3   OH229081   0.058   4.835   2.539
 9706TIP3    H129082  -0.012   4.797   2.593
 9706TIP3    H229083   0.013   4.901   2.486
 9707TIP3   OH229084   2.051   3.573   2.013
 9707TIP3    H129085   2.067   3.666   2.032
 9707TIP3    H229086   1.955   3.566   2.011
 9708TIP3   OH229087   5.946   5.897   4.949
 9708TIP3    H129088   5.906   5.815   4.922
 9708TIP3    H229089   6.033   5.896   4.909
 9709TIP3   OH229090   5.825   6.095   3.201
 9709TIP3    H129091   5.863   6.174   3.162
 9709TIP3    H229092   5.787   6.047   3.127
 9710TIP3   OH229093   1.648   5.219   1.861
 9710TIP3    H129094   1.623   5.131   1.891
 9710TIP3    H229095   1.720   5.244   1.919
 9711TIP3   OH229096   4.780   3.699   1.143
 9711TIP3    H129097   4.751   3.789   1.129
 9711TIP3    H229098   4.811   3.697   1.234
 9712TIP3   OH229099   6.168   4.085   4.855
 9712TIP3    H129100   6.143   4.084   4.947
 9712TIP3    H229101   6.185   3.994   4.833
 9713TIP3   OH229102   0.922   3.640   1.506
 9713TIP3    H129103   0.910   3.666   1.415
 9713TIP3    H229104   1.006   3.678   1.531
 9714TIP3   OH229105   0.054   3.358   1.521
 9714TIP3    H129106   0.025   3.297   1.453
 9714TIP3    H229107   0.018   3.443   1.493
 9715TIP3   OH229108   3.450   4.487   5.784
 9715TIP3    H129109   3.526   4.480   5.725
 9715TIP3    H229110   3.426   4.396   5.801
 9716TIP3   OH229111   4.480   1.178   3.397
 9716TIP3    H129112   4.551   1.168   3.333
 9716TIP3    H229113   4.505   1.122   3.470
 9717TIP3   OH229114   5.567   1.591   2.872
 9717TIP3    H129115   5.484   1.546   2.887
 9717TIP3    H229116   5.617   1.575   2.952
 9718TIP3   OH229117   6.024   0.896   5.703
 9718TIP3    H129118   6.039   0.946   5.622
 9718TIP3    H229119   6.038   0.805   5.678
 9719TIP3   OH229120   6.743   4.373   5.384
 9719TIP3    H129121   6.700   4.456   5.405
 9719TIP3    H229122   6.730   4.363   5.290
 9720TIP3   OH229123   4.585   6.122   4.836
 9720TIP3    H129124   4.584   6.102   4.742
 9720TIP3    H229125   4.600   6.038   4.879
 9721TIP3   OH229126   4.284   1.713   3.022
 9721TIP3    H129127   4.280   1.626   3.061
 9721TIP3    H229128   4.210   1.717   2.962
 9722TIP3   OH229129   5.259   4.931   5.668
 9722TIP3    H129130   5.286   4.881   5.590
 9722TIP3    H229131   5.185   4.983   5.639
 9723TIP3   OH229132   0.831   2.403   3.833
 9723TIP3    H129133   0.741   2.372   3.832
 9723TIP3    H229134   0.825   2.494   3.861
 9724TIP3   OH229135   2.382   4.713   0.390
 9724TIP3    H129136   2.457   4.766   0.415
 9724TIP3    H229137   2.328   4.708   0.469
 9725TIP3   OH229138   6.729   2.044   1.587
 9725TIP3    H129139   6.706   2.101   1.660
 9725TIP3    H229140   6.696   1.958   1.612
 9726TIP3   OH229141   0.557   2.381   5.674
 9726TIP3    H129142   0.507   2.448   5.627
 9726TIP3    H229143   0.491   2.332   5.722
 9727TIP3   OH229144   3.074   2.992   3.093
 9727TIP3    H129145   3.015   3.060   3.124
 9727TIP3    H229146   3.081   2.931   3.168
 9728TIP3   OH229147   0.508   6.207   4.493
 9728TIP3    H129148   0.418   6.240   4.489
 9728TIP3    H229149   0.498   6.114   4.514
 9729TIP3   OH229150   6.584   3.505   0.157
 9729TIP3    H129151   6.650   3.505   0.226
 9729TIP3    H229152   6.625   3.460   0.084
 9730TIP3   OH229153   5.287   2.756   3.100
 9730TIP3    H129154   5.334   2.675   3.081
 9730TIP3    H229155   5.259   2.747   3.191
 9731TIP3   OH229156   5.177   0.194   4.897
 9731TIP3    H129157   5.245   0.261   4.906
 9731TIP3    H229158   5.215   0.117   4.939
 9732TIP3   OH229159   1.895   0.687   4.954
 9732TIP3    H129160   1.961   0.743   4.996
 9732TIP3    H229161   1.912   0.697   4.860
 9733TIP3   OH229162   7.198   5.554   5.295
 9733TIP3    H129163   7.191   5.614   5.221
 9733TIP3    H229164   7.121   5.573   5.349
 9734TIP3   OH229165   6.231   2.629   2.880
 9734TIP3    H129166   6.170   2.651   2.950
 9734TIP3    H229167   6.194   2.551   2.840
 9735TIP3   OH229168   2.607   1.625   3.650
 9735TIP3    H129169   2.576   1.536   3.637
 9735TIP3    H229170   2.615   1.661   3.561
 9736TIP3   OH229171   1.091   2.947   3.343
 9736TIP3    H129172   1.050   2.918   3.424
 9736TIP3    H229173   1.142   3.025   3.368
 9737TIP3   OH229174   6.459   3.038   3.504
 9737TIP3    H129175   6.475   3.049   3.410
 9737TIP3    H229176   6.369   3.008   3.511
 9738TIP3   OH229177   0.087   2.960   2.113
 9738TIP3    H129178   0.096   3.014   2.191
 9738TIP3    H229179  -0.004   2.971   2.086
 9739TIP3   OH229180   7.142   5.024   4.914
 9739TIP3    H129181   7.063   4.975   4.937
 9739TIP3    H229182   7.186   4.970   4.849
 9740TIP3   OH229183   2.151   3.863   3.877
 9740TIP3    H129184   2.197   3.869   3.961
 9740TIP3    H229185   2.155   3.770   3.854
 9741TIP3   OH229186   2.872   2.087   1.825
 9741TIP3    H129187   2.820   2.167   1.825
 9741TIP3    H229188   2.824   2.027   1.767
 9742TIP3   OH229189   2.340   2.475   2.268
 9742TIP3    H129190   2.252   2.438   2.277
 9742TIP3    H229191   2.350   2.490   2.174
 9743TIP3   OH229192   0.702   6.170   1.339
 9743TIP3    H129193   0.730   6.202   1.425
 9743TIP3    H229194   0.762   6.098   1.320
 9744TIP3   OH229195   4.076   5.275   3.839
 9744TIP3    H129196   4.025   5.345   3.798
 9744TIP3    H229197   4.077   5.298   3.932
 9745TIP3   OH229198   1.346   6.515   5.381
 9745TIP3    H129199   1.336   6.564   5.463
 9745TIP3    H229200   1.410   6.447   5.401
 9746TIP3   OH229201   2.251   2.511   0.167
 9746TIP3    H129202   2.199   2.478   0.095
 9746TIP3    H229203   2.339   2.522   0.131
 9747TIP3   OH229204   2.678   6.668   2.173
 9747TIP3    H129205   2.700   6.627   2.090
 9747TIP3    H229206   2.737   6.626   2.237
 9748TIP3   OH229207   0.820   2.658   3.976
 9748TIP3    H129208   0.881   2.730   3.995
 9748TIP3    H229209   0.769   2.647   4.056
 9749TIP3   OH229210   4.494   3.485   1.285
 9749TIP3    H129211   4.521   3.547   1.354
 9749TIP3    H229212   4.564   3.419   1.283
   7.21327   6.80074   5.88960   0.00000   0.00000  -2.40443   0.00000  -2.40443  -3.40036
