Title t= 266.00000 step= 133000
29212
    1ASP      N    1   1.887   0.875   2.741
    1ASP    HT1    2   1.820   0.837   2.671
    1ASP    HT2    3   1.844   0.871   2.836
    1ASP    HT3    4   1.976   0.821   2.742
    1ASP     CA    5   1.920   1.014   2.707
    1ASP     HA    6   1.984   1.052   2.786
    1ASP     CB    7   1.999   1.037   2.570
    1ASP    HB1    8   2.011   1.145   2.545
    1ASP    HB2    9   1.952   0.984   2.485
    1ASP     CG   10   2.136   0.968   2.583
    1ASP    OD1   11   2.192   0.948   2.689
    1ASP    OD2   12   2.189   0.935   2.472
    1ASP      C   13   1.804   1.114   2.714
    1ASP      O   14   1.691   1.073   2.713
    2GLY      N   15   1.830   1.248   2.713
    2GLY     HN   16   1.927   1.271   2.704
    2GLY     CA   17   1.734   1.353   2.707
    2GLY    HA1   18   1.794   1.442   2.694
    2GLY    HA2   19   1.680   1.361   2.800
    2GLY      C   20   1.632   1.357   2.604
    2GLY      O   21   1.627   1.269   2.516
    3ASP      N   22   1.544   1.458   2.613
    3ASP     HN   23   1.528   1.524   2.686
    3ASP     CA   24   1.428   1.469   2.525
    3ASP     HA   25   1.436   1.412   2.434
    3ASP     CB   26   1.300   1.425   2.603
    3ASP    HB1   27   1.214   1.486   2.568
    3ASP    HB2   28   1.323   1.449   2.709
    3ASP     CG   29   1.272   1.276   2.594
    3ASP    OD1   30   1.182   1.235   2.668
    3ASP    OD2   31   1.330   1.201   2.504
    3ASP      C   32   1.426   1.619   2.471
    3ASP      O   33   1.493   1.702   2.522
    4GLY      N   34   1.344   1.645   2.368
    4GLY     HN   35   1.281   1.583   2.323
    4GLY     CA   36   1.324   1.777   2.315
    4GLY    HA1   37   1.273   1.765   2.220
    4GLY    HA2   38   1.422   1.820   2.301
    4GLY      C   39   1.229   1.860   2.389
    4GLY      O   40   1.209   1.845   2.510
    5PRO      N   41   1.161   1.959   2.323
    5PRO     CD   42   1.190   2.011   2.193
    5PRO    HD1   43   1.177   1.924   2.124
    5PRO    HD2   44   1.298   2.038   2.188
    5PRO     CA   45   1.079   2.039   2.405
    5PRO     HA   46   1.111   2.069   2.504
    5PRO     CB   47   1.069   2.160   2.324
    5PRO    HB1   48   1.155   2.222   2.356
    5PRO    HB2   49   0.984   2.232   2.325
    5PRO     CG   50   1.089   2.117   2.179
    5PRO    HG1   51   0.999   2.079   2.127
    5PRO    HG2   52   1.130   2.196   2.112
    5PRO      C   53   0.939   1.989   2.421
    5PRO      O   54   0.841   2.039   2.368
    6GLY      N   55   0.925   1.873   2.484
    6GLY     HN   56   1.007   1.838   2.531
    6GLY     CA   57   0.801   1.805   2.500
    6GLY    HA1   58   0.824   1.716   2.557
    6GLY    HA2   59   0.769   1.794   2.398
    6GLY      C   60   0.688   1.874   2.585
    6GLY      O   61   0.703   1.981   2.644
    7ASP      N   62   0.570   1.817   2.583
    7ASP     HN   63   0.560   1.725   2.546
    7ASP     CA   64   0.459   1.863   2.669
    7ASP     HA   65   0.455   1.968   2.642
    7ASP     CB   66   0.327   1.793   2.623
    7ASP    HB1   67   0.241   1.816   2.690
    7ASP    HB2   68   0.352   1.685   2.636
    7ASP     CG   69   0.291   1.821   2.476
    7ASP    OD1   70   0.217   1.747   2.408
    7ASP    OD2   71   0.349   1.928   2.432
    7ASP      C   72   0.486   1.842   2.821
    7ASP      O   73   0.552   1.751   2.868
    8PRO      N   74   0.442   1.932   2.901
    8PRO     CD   75   0.356   2.044   2.859
    8PRO    HD1   76   0.295   2.020   2.770
    8PRO    HD2   77   0.417   2.137   2.848
    8PRO     CA   78   0.429   1.904   3.043
    8PRO     HA   79   0.531   1.921   3.075
    8PRO     CB   80   0.335   2.016   3.100
    8PRO    HB1   81   0.398   2.096   3.145
    8PRO    HB2   82   0.280   1.966   3.183
    8PRO     CG   83   0.252   2.051   2.975
    8PRO    HG1   84   0.179   1.971   2.952
    8PRO    HG2   85   0.191   2.144   2.977
    8PRO      C   86   0.396   1.758   3.098
    8PRO      O   87   0.313   1.685   3.044
    9GLY      N   88   0.461   1.715   3.207
    9GLY     HN   89   0.532   1.772   3.249
    9GLY     CA   90   0.417   1.583   3.260
    9GLY    HA1   91   0.463   1.508   3.197
    9GLY    HA2   92   0.310   1.580   3.273
    9GLY      C   93   0.468   1.555   3.397
    9GLY      O   94   0.563   1.616   3.448
   10ASP      N   95   0.405   1.462   3.467
   10ASP     HN   96   0.331   1.415   3.419
   10ASP     CA   97   0.441   1.417   3.607
   10ASP     HA   98   0.441   1.503   3.672
   10ASP     CB   99   0.342   1.311   3.658
   10ASP    HB1  100   0.363   1.296   3.766
   10ASP    HB2  101   0.353   1.215   3.603
   10ASP     CG  102   0.206   1.369   3.656
   10ASP    OD1  103   0.115   1.292   3.614
   10ASP    OD2  104   0.183   1.477   3.709
   10ASP      C  105   0.580   1.363   3.626
   10ASP      O  106   0.648   1.397   3.719
   11GLY      N  107   0.627   1.285   3.529
   11GLY     HN  108   0.569   1.268   3.450
   11GLY     CA  109   0.770   1.249   3.519
   11GLY    HA1  110   0.778   1.166   3.588
   11GLY    HA2  111   0.836   1.325   3.558
   11GLY      C  112   0.810   1.205   3.382
   11GLY    OT1  113   0.800   1.288   3.290
   11GLY    OT2  114   0.836   1.092   3.355
   12LIT    LIT  115   5.378   4.754   1.994
   13LIT    LIT  116   3.066   2.522   4.995
   14LIT    LIT  117   6.830   3.629   5.809
   15LIT    LIT  118   3.044   1.858   2.367
   16LIT    LIT  119   0.787   1.127   3.170
   17LIT    LIT  120   7.102   2.346   0.131
   18LIT    LIT  121   2.009   1.116   4.965
   19LIT    LIT  122   2.116   6.267   1.618
   20LIT    LIT  123   7.151   3.608   3.364
   21LIT    LIT  124   2.984   1.004   5.196
   22LIT    LIT  125   4.164   5.286   0.806
   23LIT    LIT  126   4.358   4.219   5.770
   24LIT    LIT  127   7.000   4.745   2.402
   25LIT    LIT  128   6.686   1.419   2.204
   26LIT    LIT  129   7.206   1.448   3.736
   27LIT    LIT  130   3.960   1.779   3.649
   28LIT    LIT  131   6.236   5.246   5.509
   29LIT    LIT  132   0.405   2.398   3.283
   30LIT    LIT  133   7.030   2.824   1.564
   31LIT    LIT  134   3.939   1.277   2.754
   32LIT    LIT  135   6.314   1.259   0.542
   33LIT    LIT  136   4.118   2.974   2.032
   34LIT    LIT  137   7.094   5.213   0.156
   35LIT    LIT  138   0.240   1.859   1.994
   36LIT    LIT  139   4.320   2.579   5.187
   37LIT    LIT  140   3.758   3.947   1.670
   38LIT    LIT  141   1.099   4.656   0.542
   39LIT    LIT  142   2.325   0.962   2.812
   40LIT    LIT  143   4.963   1.206   2.352
   41LIT    LIT  144   3.201   1.310   4.245
   42LIT    LIT  145   1.484   1.131   2.453
   43CLA    CLA  146   4.885   1.020   2.444
   44CLA    CLA  147   6.852   1.747   2.940
   45CLA    CLA  148   3.397   2.168   5.061
   46CLA    CLA  149   2.690   1.274   5.863
   47CLA    CLA  150   5.591   1.381   1.990
   48CLA    CLA  151   3.407   3.402   3.948
   49CLA    CLA  152   4.404   3.910   2.131
   50CLA    CLA  153   5.362   5.745   0.448
   51CLA    CLA  154   6.384   1.734   0.516
   52CLA    CLA  155   2.632   1.111   1.397
   53CLA    CLA  156   4.183   4.518   3.068
   54CLA    CLA  157   4.359   2.331   2.911
   55CLA    CLA  158   0.581   2.370   5.586
   56CLA    CLA  159   0.734   2.894   1.617
   57CLA    CLA  160   6.263   0.340   5.025
   58CLA    CLA  161   4.054   3.243   1.431
   59CLA    CLA  162   5.903   4.848   4.220
   60CLA    CLA  163   2.874   1.707   4.908
   61CLA    CLA  164   2.734   0.789   0.611
   62CLA    CLA  165   4.651   0.058   0.821
   63CLA    CLA  166   1.941   1.519   3.599
   64CLA    CLA  167   6.563   5.283   5.880
   65CLA    CLA  168   6.681   4.149   1.930
   66CLA    CLA  169   1.637   0.647   4.896
   67CLA    CLA  170   4.446   2.944   1.672
   68CLA    CLA  171   1.287   2.739   2.473
   69CLA    CLA  172   4.955   5.057   0.667
   70TIP3   OH2  173   6.202   2.740   0.481
   70TIP3    H1  174   6.136   2.671   0.490
   70TIP3    H2  175   6.273   2.700   0.430
   71TIP3   OH2  176   5.034   0.261   4.707
   71TIP3    H1  177   5.122   0.236   4.736
   71TIP3    H2  178   5.009   0.332   4.767
   72TIP3   OH2  179   3.393   3.330   4.800
   72TIP3    H1  180   3.383   3.254   4.743
   72TIP3    H2  181   3.303   3.357   4.820
   73TIP3   OH2  182   5.059   2.958   0.677
   73TIP3    H1  183   5.009   2.892   0.628
   73TIP3    H2  184   5.023   3.042   0.646
   74TIP3   OH2  185   4.785   3.938   2.695
   74TIP3    H1  186   4.703   3.952   2.647
   74TIP3    H2  187   4.853   3.948   2.629
   75TIP3   OH2  188   5.096   3.713   1.999
   75TIP3    H1  189   5.130   3.724   2.088
   75TIP3    H2  190   5.020   3.657   2.008
   76TIP3   OH2  191   5.069   5.873   5.706
   76TIP3    H1  192   5.033   5.809   5.767
   76TIP3    H2  193   5.036   5.957   5.738
   77TIP3   OH2  194   3.116   3.861   2.349
   77TIP3    H1  195   3.142   3.776   2.385
   77TIP3    H2  196   3.040   3.843   2.294
   78TIP3   OH2  197   6.469   0.990   5.302
   78TIP3    H1  198   6.476   1.080   5.335
   78TIP3    H2  199   6.536   0.942   5.349
   79TIP3   OH2  200   6.406   1.110   0.637
   79TIP3    H1  201   6.344   1.069   0.697
   79TIP3    H2  202   6.490   1.070   0.659
   80TIP3   OH2  203   4.095   2.312   0.756
   80TIP3    H1  204   4.176   2.268   0.733
   80TIP3    H2  205   4.080   2.289   0.848
   81TIP3   OH2  206   6.725   1.872   4.904
   81TIP3    H1  207   6.664   1.932   4.860
   81TIP3    H2  208   6.690   1.865   4.993
   82TIP3   OH2  209   4.132   4.766   2.866
   82TIP3    H1  210   4.076   4.719   2.804
   82TIP3    H2  211   4.160   4.700   2.929
   83TIP3   OH2  212   5.473   3.842   1.191
   83TIP3    H1  213   5.488   3.936   1.176
   83TIP3    H2  214   5.383   3.838   1.226
   84TIP3   OH2  215   6.025   5.816   1.629
   84TIP3    H1  216   6.060   5.866   1.702
   84TIP3    H2  217   6.065   5.855   1.551
   85TIP3   OH2  218   3.943   1.980   4.000
   85TIP3    H1  219   3.862   1.937   4.028
   85TIP3    H2  220   3.922   2.074   4.003
   86TIP3   OH2  221   5.714   0.298   3.934
   86TIP3    H1  222   5.638   0.267   3.885
   86TIP3    H2  223   5.785   0.300   3.870
   87TIP3   OH2  224   3.101   1.488   2.226
   87TIP3    H1  225   3.010   1.460   2.214
   87TIP3    H2  226   3.139   1.483   2.138
   88TIP3   OH2  227   0.440   3.838   4.950
   88TIP3    H1  228   0.423   3.749   4.919
   88TIP3    H2  229   0.534   3.840   4.968
   89TIP3   OH2  230   1.003   5.408   2.568
   89TIP3    H1  231   0.967   5.443   2.650
   89TIP3    H2  232   1.019   5.316   2.587
   90TIP3   OH2  233   5.095   0.453   3.964
   90TIP3    H1  234   5.121   0.418   4.049
   90TIP3    H2  235   5.077   0.546   3.981
   91TIP3   OH2  236   7.193   1.933   4.529
   91TIP3    H1  237   7.235   1.915   4.445
   91TIP3    H2  238   7.226   1.864   4.587
   92TIP3   OH2  239   1.485   4.961   2.118
   92TIP3    H1  240   1.419   4.944   2.051
   92TIP3    H2  241   1.563   4.986   2.069
   93TIP3   OH2  242   7.134   3.992   4.239
   93TIP3    H1  243   7.041   3.989   4.215
   93TIP3    H2  244   7.151   4.084   4.257
   94TIP3   OH2  245   4.273   2.591   2.760
   94TIP3    H1  246   4.345   2.648   2.732
   94TIP3    H2  247   4.316   2.508   2.781
   95TIP3   OH2  248   0.297   1.786   0.251
   95TIP3    H1  249   0.240   1.853   0.289
   95TIP3    H2  250   0.288   1.798   0.157
   96TIP3   OH2  251   6.202   1.308   1.720
   96TIP3    H1  252   6.196   1.350   1.634
   96TIP3    H2  253   6.159   1.369   1.779
   97TIP3   OH2  254   1.367   4.594   1.269
   97TIP3    H1  255   1.420   4.557   1.198
   97TIP3    H2  256   1.283   4.615   1.227
   98TIP3   OH2  257   0.543   0.524   1.809
   98TIP3    H1  258   0.508   0.612   1.824
   98TIP3    H2  259   0.497   0.468   1.872
   99TIP3   OH2  260   0.907   3.892   1.073
   99TIP3    H1  261   0.985   3.923   1.026
   99TIP3    H2  262   0.845   3.868   1.004
  100TIP3   OH2  263   6.025   5.024   2.004
  100TIP3    H1  264   6.060   5.099   2.052
  100TIP3    H2  265   5.960   4.986   2.064
  101TIP3   OH2  266   2.937   3.922   3.052
  101TIP3    H1  267   2.958   3.992   2.991
  101TIP3    H2  268   2.974   3.843   3.013
  102TIP3   OH2  269   2.455   1.930   2.224
  102TIP3    H1  270   2.437   2.024   2.218
  102TIP3    H2  271   2.528   1.923   2.285
  103TIP3   OH2  272   5.559   4.689   1.946
  103TIP3    H1  273   5.626   4.689   2.014
  103TIP3    H2  274   5.603   4.651   1.870
  104TIP3   OH2  275   1.879   6.474   5.354
  104TIP3    H1  276   1.846   6.402   5.299
  104TIP3    H2  277   1.849   6.553   5.310
  105TIP3   OH2  278   6.046   4.753   0.957
  105TIP3    H1  279   5.965   4.770   0.910
  105TIP3    H2  280   6.110   4.814   0.920
  106TIP3   OH2  281   4.828   1.570   5.694
  106TIP3    H1  282   4.856   1.608   5.611
  106TIP3    H2  283   4.908   1.564   5.746
  107TIP3   OH2  284   4.113   0.540   2.273
  107TIP3    H1  285   4.080   0.494   2.195
  107TIP3    H2  286   4.143   0.625   2.240
  108TIP3   OH2  287   2.186   0.379   1.672
  108TIP3    H1  288   2.163   0.357   1.582
  108TIP3    H2  289   2.216   0.470   1.668
  109TIP3   OH2  290   0.671   6.807   1.833
  109TIP3    H1  291   0.726   6.733   1.856
  109TIP3    H2  292   0.604   6.771   1.776
  110TIP3   OH2  293   0.891   6.495   2.228
  110TIP3    H1  294   0.852   6.493   2.315
  110TIP3    H2  295   0.846   6.425   2.180
  111TIP3   OH2  296   2.040   3.365   4.104
  111TIP3    H1  297   2.014   3.329   4.188
  111TIP3    H2  298   1.987   3.317   4.040
  112TIP3   OH2  299   0.485   1.243   4.574
  112TIP3    H1  300   0.569   1.249   4.529
  112TIP3    H2  301   0.421   1.272   4.508
  113TIP3   OH2  302   0.647   0.046   3.017
  113TIP3    H1  303   0.621   0.117   2.959
  113TIP3    H2  304   0.577  -0.019   3.008
  114TIP3   OH2  305   1.158   6.115   5.479
  114TIP3    H1  306   1.186   6.119   5.570
  114TIP3    H2  307   1.179   6.201   5.443
  115TIP3   OH2  308   3.916   1.137   5.071
  115TIP3    H1  309   3.955   1.125   5.158
  115TIP3    H2  310   3.953   1.219   5.039
  116TIP3   OH2  311   3.186   4.559   2.856
  116TIP3    H1  312   3.212   4.649   2.874
  116TIP3    H2  313   3.133   4.565   2.777
  117TIP3   OH2  314   3.115   6.661   1.738
  117TIP3    H1  315   3.198   6.642   1.781
  117TIP3    H2  316   3.063   6.706   1.804
  118TIP3   OH2  317   6.741   3.729   2.221
  118TIP3    H1  318   6.795   3.747   2.144
  118TIP3    H2  319   6.805   3.713   2.291
  119TIP3   OH2  320   3.039   0.154   0.180
  119TIP3    H1  321   3.132   0.143   0.160
  119TIP3    H2  322   3.035   0.156   0.275
  120TIP3   OH2  323   6.428   1.744   2.544
  120TIP3    H1  324   6.383   1.803   2.485
  120TIP3    H2  325   6.460   1.800   2.616
  121TIP3   OH2  326   2.079   0.037   1.436
  121TIP3    H1  327   2.167   0.064   1.411
  121TIP3    H2  328   2.062  -0.041   1.383
  122TIP3   OH2  329   3.462   1.575   3.267
  122TIP3    H1  330   3.414   1.543   3.191
  122TIP3    H2  331   3.444   1.509   3.335
  123TIP3   OH2  332   1.639   6.384   4.313
  123TIP3    H1  333   1.560   6.393   4.260
  123TIP3    H2  334   1.706   6.434   4.266
  124TIP3   OH2  335   6.268   0.611   5.716
  124TIP3    H1  336   6.343   0.664   5.742
  124TIP3    H2  337   6.246   0.560   5.794
  125TIP3   OH2  338   5.462   1.980   2.527
  125TIP3    H1  339   5.423   2.067   2.522
  125TIP3    H2  340   5.519   1.983   2.604
  126TIP3   OH2  341   2.868   1.093   3.277
  126TIP3    H1  342   2.943   1.043   3.308
  126TIP3    H2  343   2.798   1.076   3.341
  127TIP3   OH2  344   4.690   6.557   5.858
  127TIP3    H1  345   4.768   6.578   5.806
  127TIP3    H2  346   4.624   6.621   5.829
  128TIP3   OH2  347   3.613   2.645   1.239
  128TIP3    H1  348   3.616   2.610   1.328
  128TIP3    H2  349   3.630   2.739   1.250
  129TIP3   OH2  350   1.938   1.006   3.336
  129TIP3    H1  351   2.023   0.966   3.356
  129TIP3    H2  352   1.938   1.088   3.386
  130TIP3   OH2  353   3.891   1.220   0.552
  130TIP3    H1  354   3.846   1.264   0.480
  130TIP3    H2  355   3.924   1.291   0.607
  131TIP3   OH2  356   0.691   6.099   5.160
  131TIP3    H1  357   0.708   6.130   5.071
  131TIP3    H2  358   0.612   6.045   5.153
  132TIP3   OH2  359   3.907   6.431   4.693
  132TIP3    H1  360   3.986   6.479   4.719
  132TIP3    H2  361   3.893   6.368   4.763
  133TIP3   OH2  362   5.048   2.045   3.545
  133TIP3    H1  363   5.013   1.964   3.581
  133TIP3    H2  364   5.035   2.036   3.450
  134TIP3   OH2  365   0.312   1.751   2.145
  134TIP3    H1  366   0.330   1.657   2.136
  134TIP3    H2  367   0.298   1.764   2.238
  135TIP3   OH2  368   4.636   5.360   2.472
  135TIP3    H1  369   4.558   5.417   2.477
  135TIP3    H2  370   4.603   5.272   2.491
  136TIP3   OH2  371   5.226   3.592   4.853
  136TIP3    H1  372   5.274   3.527   4.802
  136TIP3    H2  373   5.292   3.636   4.906
  137TIP3   OH2  374   2.661   1.273   0.204
  137TIP3    H1  375   2.571   1.242   0.199
  137TIP3    H2  376   2.678   1.284   0.298
  138TIP3   OH2  377   6.898   0.949   1.677
  138TIP3    H1  378   6.809   0.957   1.641
  138TIP3    H2  379   6.888   0.967   1.770
  139TIP3   OH2  380   6.741   2.025   5.458
  139TIP3    H1  381   6.790   1.985   5.386
  139TIP3    H2  382   6.755   1.966   5.532
  140TIP3   OH2  383   1.891   2.912   4.036
  140TIP3    H1  384   1.837   2.845   4.078
  140TIP3    H2  385   1.952   2.940   4.104
  141TIP3   OH2  386   1.933   0.018   2.230
  141TIP3    H1  387   1.996   0.078   2.189
  141TIP3    H2  388   1.928   0.048   2.321
  142TIP3   OH2  389   2.827   1.886   4.652
  142TIP3    H1  390   2.836   1.831   4.575
  142TIP3    H2  391   2.841   1.827   4.726
  143TIP3   OH2  392   7.111   5.911   2.210
  143TIP3    H1  393   7.035   5.962   2.237
  143TIP3    H2  394   7.181   5.975   2.199
  144TIP3   OH2  395   6.339   2.498   4.758
  144TIP3    H1  396   6.295   2.522   4.840
  144TIP3    H2  397   6.350   2.582   4.713
  145TIP3   OH2  398   2.064   3.705   0.862
  145TIP3    H1  399   2.051   3.610   0.858
  145TIP3    H2  400   2.039   3.736   0.774
  146TIP3   OH2  401   0.498   2.276   5.860
  146TIP3    H1  402   0.584   2.261   5.900
  146TIP3    H2  403   0.516   2.301   5.770
  147TIP3   OH2  404   4.383   0.536   2.742
  147TIP3    H1  405   4.424   0.455   2.770
  147TIP3    H2  406   4.303   0.509   2.698
  148TIP3   OH2  407   5.859   4.792   0.487
  148TIP3    H1  408   5.868   4.729   0.558
  148TIP3    H2  409   5.765   4.792   0.467
  149TIP3   OH2  410   4.977   6.158   3.495
  149TIP3    H1  411   5.033   6.087   3.524
  149TIP3    H2  412   5.037   6.222   3.456
  150TIP3   OH2  413   1.169   6.690   0.217
  150TIP3    H1  414   1.262   6.667   0.209
  150TIP3    H2  415   1.123   6.606   0.215
  151TIP3   OH2  416   1.496   5.612   2.750
  151TIP3    H1  417   1.468   5.694   2.709
  151TIP3    H2  418   1.415   5.561   2.760
  152TIP3   OH2  419   4.284   3.189   4.778
  152TIP3    H1  420   4.330   3.267   4.745
  152TIP3    H2  421   4.194   3.217   4.789
  153TIP3   OH2  422   1.125   1.756   4.060
  153TIP3    H1  423   1.126   1.852   4.062
  153TIP3    H2  424   1.052   1.734   4.002
  154TIP3   OH2  425   0.423   0.719   3.900
  154TIP3    H1  426   0.348   0.679   3.945
  154TIP3    H2  427   0.403   0.709   3.807
  155TIP3   OH2  428   2.518   3.142   0.419
  155TIP3    H1  429   2.453   3.143   0.490
  155TIP3    H2  430   2.474   3.186   0.346
  156TIP3   OH2  431   3.460   2.148   2.849
  156TIP3    H1  432   3.550   2.176   2.834
  156TIP3    H2  433   3.410   2.230   2.854
  157TIP3   OH2  434   7.060   6.374   2.221
  157TIP3    H1  435   7.082   6.289   2.258
  157TIP3    H2  436   6.967   6.367   2.197
  158TIP3   OH2  437   5.154   5.997   4.851
  158TIP3    H1  438   5.085   5.931   4.846
  158TIP3    H2  439   5.109   6.080   4.835
  159TIP3   OH2  440   4.492   1.400   2.618
  159TIP3    H1  441   4.462   1.486   2.589
  159TIP3    H2  442   4.517   1.412   2.710
  160TIP3   OH2  443   1.058   4.240   2.441
  160TIP3    H1  444   1.139   4.189   2.436
  160TIP3    H2  445   1.085   4.323   2.481
  161TIP3   OH2  446   2.957   3.048   1.814
  161TIP3    H1  447   3.043   3.046   1.856
  161TIP3    H2  448   2.966   2.989   1.739
  162TIP3   OH2  449   5.750   1.155   1.129
  162TIP3    H1  450   5.658   1.147   1.104
  162TIP3    H2  451   5.785   1.223   1.072
  163TIP3   OH2  452   3.385   1.302   2.589
  163TIP3    H1  453   3.361   1.229   2.532
  163TIP3    H2  454   3.354   1.380   2.543
  164TIP3   OH2  455   3.955   4.575   1.283
  164TIP3    H1  456   4.041   4.565   1.241
  164TIP3    H2  457   3.932   4.667   1.267
  165TIP3   OH2  458   5.564   2.584   3.648
  165TIP3    H1  459   5.641   2.556   3.600
  165TIP3    H2  460   5.543   2.510   3.705
  166TIP3   OH2  461   2.003   4.460   3.967
  166TIP3    H1  462   2.041   4.433   4.051
  166TIP3    H2  463   1.910   4.471   3.985
  167TIP3   OH2  464   6.830   1.483   3.923
  167TIP3    H1  465   6.856   1.572   3.947
  167TIP3    H2  466   6.895   1.457   3.857
  168TIP3   OH2  467   0.551   6.516   1.921
  168TIP3    H1  468   0.546   6.543   1.829
  168TIP3    H2  469   0.460   6.496   1.944
  169TIP3   OH2  470   7.105   4.337   2.339
  169TIP3    H1  471   7.024   4.313   2.293
  169TIP3    H2  472   7.132   4.257   2.384
  170TIP3   OH2  473   5.051   3.706   5.053
  170TIP3    H1  474   5.110   3.759   5.107
  170TIP3    H2  475   5.102   3.685   4.976
  171TIP3   OH2  476   0.336   2.167   1.776
  171TIP3    H1  477   0.243   2.148   1.769
  171TIP3    H2  478   0.342   2.235   1.843
  172TIP3   OH2  479   5.296   0.390   2.669
  172TIP3    H1  480   5.372   0.334   2.676
  172TIP3    H2  481   5.224   0.338   2.704
  173TIP3   OH2  482   7.082   2.196   3.087
  173TIP3    H1  483   7.024   2.192   3.011
  173TIP3    H2  484   7.149   2.259   3.062
  174TIP3   OH2  485   0.920   5.372   0.661
  174TIP3    H1  486   0.907   5.443   0.724
  174TIP3    H2  487   0.870   5.400   0.584
  175TIP3   OH2  488   4.684   5.748   2.259
  175TIP3    H1  489   4.594   5.754   2.291
  175TIP3    H2  490   4.733   5.808   2.315
  176TIP3   OH2  491   2.363   3.642   0.581
  176TIP3    H1  492   2.387   3.733   0.599
  176TIP3    H2  493   2.354   3.602   0.667
  177TIP3   OH2  494   4.689   4.938   4.390
  177TIP3    H1  495   4.693   4.868   4.456
  177TIP3    H2  496   4.610   4.988   4.412
  178TIP3   OH2  497   4.212   4.157   1.948
  178TIP3    H1  498   4.244   4.228   2.004
  178TIP3    H2  499   4.223   4.078   2.002
  179TIP3   OH2  500   4.756   4.149   0.081
  179TIP3    H1  501   4.673   4.131   0.125
  179TIP3    H2  502   4.796   4.064   0.068
  180TIP3   OH2  503   3.662   3.386   4.134
  180TIP3    H1  504   3.584   3.385   4.079
  180TIP3    H2  505   3.720   3.448   4.092
  181TIP3   OH2  506   5.772   1.443   2.226
  181TIP3    H1  507   5.787   1.537   2.213
  181TIP3    H2  508   5.705   1.420   2.161
  182TIP3   OH2  509   2.704   1.016   4.365
  182TIP3    H1  510   2.719   0.932   4.322
  182TIP3    H2  511   2.779   1.026   4.424
  183TIP3   OH2  512   1.404   4.530   3.902
  183TIP3    H1  513   1.358   4.446   3.903
  183TIP3    H2  514   1.452   4.532   3.985
  184TIP3   OH2  515   7.072   4.497   4.038
  184TIP3    H1  516   7.091   4.483   4.130
  184TIP3    H2  517   7.141   4.450   3.991
  185TIP3   OH2  518   4.475   4.423   5.285
  185TIP3    H1  519   4.527   4.354   5.327
  185TIP3    H2  520   4.472   4.398   5.193
  186TIP3   OH2  521   4.242   2.644   3.661
  186TIP3    H1  522   4.226   2.550   3.646
  186TIP3    H2  523   4.179   2.688   3.604
  187TIP3   OH2  524   4.019   5.620   4.683
  187TIP3    H1  525   3.946   5.651   4.736
  187TIP3    H2  526   3.991   5.633   4.593
  188TIP3   OH2  527   6.601   5.727   0.458
  188TIP3    H1  528   6.653   5.767   0.388
  188TIP3    H2  529   6.637   5.764   0.539
  189TIP3   OH2  530   6.230   3.502   5.519
  189TIP3    H1  531   6.196   3.415   5.538
  189TIP3    H2  532   6.267   3.532   5.602
  190TIP3   OH2  533   6.148   3.449   0.832
  190TIP3    H1  534   6.238   3.459   0.863
  190TIP3    H2  535   6.147   3.494   0.747
  191TIP3   OH2  536   3.756   1.475   3.420
  191TIP3    H1  537   3.699   1.401   3.444
  191TIP3    H2  538   3.820   1.438   3.359
  192TIP3   OH2  539   4.519   5.436   1.032
  192TIP3    H1  540   4.594   5.457   0.976
  192TIP3    H2  541   4.539   5.479   1.115
  193TIP3   OH2  542   4.547   0.830   4.334
  193TIP3    H1  543   4.613   0.780   4.286
  193TIP3    H2  544   4.484   0.856   4.266
  194TIP3   OH2  545   1.219   2.867   3.571
  194TIP3    H1  546   1.187   2.819   3.495
  194TIP3    H2  547   1.216   2.959   3.543
  195TIP3   OH2  548   6.217   0.281   4.226
  195TIP3    H1  549   6.198   0.207   4.169
  195TIP3    H2  550   6.306   0.266   4.257
  196TIP3   OH2  551   1.853   1.564   4.397
  196TIP3    H1  552   1.792   1.638   4.398
  196TIP3    H2  553   1.806   1.493   4.440
  197TIP3   OH2  554   3.472   1.130   1.263
  197TIP3    H1  555   3.406   1.070   1.232
  197TIP3    H2  556   3.552   1.077   1.270
  198TIP3   OH2  557   1.680   6.396   1.542
  198TIP3    H1  558   1.588   6.372   1.546
  198TIP3    H2  559   1.683   6.468   1.478
  199TIP3   OH2  560   5.200   1.350   3.699
  199TIP3    H1  561   5.258   1.348   3.623
  199TIP3    H2  562   5.155   1.435   3.693
  200TIP3   OH2  563   3.755   3.206   1.194
  200TIP3    H1  564   3.732   3.272   1.129
  200TIP3    H2  565   3.688   3.216   1.262
  201TIP3   OH2  566   2.150   2.912   1.745
  201TIP3    H1  567   2.214   2.844   1.766
  201TIP3    H2  568   2.175   2.941   1.658
  202TIP3   OH2  569   0.194   4.118   2.599
  202TIP3    H1  570   0.222   4.067   2.522
  202TIP3    H2  571   0.184   4.052   2.668
  203TIP3   OH2  572   4.908   0.607   1.045
  203TIP3    H1  573   4.851   0.640   0.975
  203TIP3    H2  574   4.929   0.683   1.098
  204TIP3   OH2  575   0.161   2.345   2.317
  204TIP3    H1  576   0.129   2.385   2.398
  204TIP3    H2  577   0.228   2.405   2.285
  205TIP3   OH2  578   5.416   2.707   4.351
  205TIP3    H1  579   5.444   2.707   4.443
  205TIP3    H2  580   5.325   2.737   4.354
  206TIP3   OH2  581   3.337   2.336   1.038
  206TIP3    H1  582   3.328   2.309   0.947
  206TIP3    H2  583   3.264   2.397   1.052
  207TIP3   OH2  584   7.190   2.790   4.618
  207TIP3    H1  585   7.285   2.783   4.627
  207TIP3    H2  586   7.175   2.780   4.524
  208TIP3   OH2  587   0.965   0.184   4.719
  208TIP3    H1  588   0.936   0.257   4.664
  208TIP3    H2  589   0.979   0.112   4.658
  209TIP3   OH2  590   0.331   0.002   2.981
  209TIP3    H1  591   0.296   0.038   2.899
  209TIP3    H2  592   0.343  -0.091   2.963
  210TIP3   OH2  593   6.581   5.026   3.036
  210TIP3    H1  594   6.574   5.116   3.069
  210TIP3    H2  595   6.675   5.010   3.028
  211TIP3   OH2  596   4.637   1.124   2.084
  211TIP3    H1  597   4.606   1.214   2.089
  211TIP3    H2  598   4.598   1.090   2.003
  212TIP3   OH2  599   4.342   4.319   1.542
  212TIP3    H1  600   4.380   4.243   1.585
  212TIP3    H2  601   4.381   4.394   1.586
  213TIP3   OH2  602   1.102   4.438   4.965
  213TIP3    H1  603   1.192   4.443   4.934
  213TIP3    H2  604   1.089   4.346   4.989
  214TIP3   OH2  605   6.231   2.663   3.795
  214TIP3    H1  606   6.220   2.757   3.808
  214TIP3    H2  607   6.231   2.626   3.884
  215TIP3   OH2  608   5.383   1.107   3.759
  215TIP3    H1  609   5.375   1.198   3.732
  215TIP3    H2  610   5.374   1.057   3.678
  216TIP3   OH2  611   6.809   2.365   4.397
  216TIP3    H1  612   6.766   2.433   4.345
  216TIP3    H2  613   6.886   2.341   4.345
  217TIP3   OH2  614   4.032   1.519   4.679
  217TIP3    H1  615   4.122   1.551   4.670
  217TIP3    H2  616   4.033   1.433   4.638
  218TIP3   OH2  617   7.063   1.489   5.448
  218TIP3    H1  618   6.974   1.473   5.477
  218TIP3    H2  619   7.078   1.424   5.379
  219TIP3   OH2  620   4.749   1.206   0.068
  219TIP3    H1  621   4.757   1.293   0.027
  219TIP3    H2  622   4.838   1.182   0.091
  220TIP3   OH2  623   0.153   0.126   2.730
  220TIP3    H1  624   0.111   0.040   2.723
  220TIP3    H2  625   0.103   0.172   2.797
  221TIP3   OH2  626   6.676   2.941   3.303
  221TIP3    H1  627   6.756   2.897   3.331
  221TIP3    H2  628   6.634   2.880   3.243
  222TIP3   OH2  629   0.506   6.309   2.678
  222TIP3    H1  630   0.574   6.286   2.742
  222TIP3    H2  631   0.452   6.230   2.672
  223TIP3   OH2  632   1.485   1.657   2.805
  223TIP3    H1  633   1.570   1.681   2.841
  223TIP3    H2  634   1.443   1.606   2.873
  224TIP3   OH2  635   2.825   4.634   4.127
  224TIP3    H1  636   2.786   4.547   4.136
  224TIP3    H2  637   2.768   4.691   4.177
  225TIP3   OH2  638   4.708   6.480   5.417
  225TIP3    H1  639   4.778   6.530   5.458
  225TIP3    H2  640   4.752   6.404   5.378
  226TIP3   OH2  641   0.121   2.467   0.850
  226TIP3    H1  642   0.207   2.426   0.838
  226TIP3    H2  643   0.096   2.442   0.939
  227TIP3   OH2  644   4.581   3.458   4.969
  227TIP3    H1  645   4.672   3.486   4.974
  227TIP3    H2  646   4.585   3.363   4.982
  228TIP3   OH2  647   3.038   5.587   5.577
  228TIP3    H1  648   3.017   5.495   5.563
  228TIP3    H2  649   3.031   5.627   5.490
  229TIP3   OH2  650   4.667   0.036   3.921
  229TIP3    H1  651   4.589  -0.007   3.955
  229TIP3    H2  652   4.659   0.029   3.826
  230TIP3   OH2  653   6.708   0.035   1.235
  230TIP3    H1  654   6.781   0.051   1.294
  230TIP3    H2  655   6.635   0.084   1.273
  231TIP3   OH2  656   4.231   1.016   1.837
  231TIP3    H1  657   4.214   1.103   1.800
  231TIP3    H2  658   4.164   0.960   1.798
  232TIP3   OH2  659   3.276   6.333   1.974
  232TIP3    H1  660   3.360   6.302   2.006
  232TIP3    H2  661   3.254   6.273   1.902
  233TIP3   OH2  662   6.720   3.883   4.511
  233TIP3    H1  663   6.781   3.868   4.583
  233TIP3    H2  664   6.679   3.798   4.496
  234TIP3   OH2  665   4.806   2.288   3.045
  234TIP3    H1  666   4.784   2.290   3.138
  234TIP3    H2  667   4.775   2.202   3.015
  235TIP3   OH2  668   5.067   2.995   4.780
  235TIP3    H1  669   4.979   2.997   4.742
  235TIP3    H2  670   5.079   2.904   4.807
  236TIP3   OH2  671   1.853   4.902   3.668
  236TIP3    H1  672   1.877   4.881   3.758
  236TIP3    H2  673   1.847   4.818   3.624
  237TIP3   OH2  674   5.935   0.385   0.815
  237TIP3    H1  675   6.028   0.364   0.816
  237TIP3    H2  676   5.895   0.316   0.868
  238TIP3   OH2  677   4.741   6.438   4.298
  238TIP3    H1  678   4.811   6.395   4.249
  238TIP3    H2  679   4.675   6.460   4.232
  239TIP3   OH2  680   5.813   5.630   1.594
  239TIP3    H1  681   5.859   5.713   1.586
  239TIP3    H2  682   5.840   5.580   1.517
  240TIP3   OH2  683   6.724   6.345   0.862
  240TIP3    H1  684   6.656   6.309   0.919
  240TIP3    H2  685   6.677   6.373   0.784
  241TIP3   OH2  686   2.378   5.552   2.145
  241TIP3    H1  687   2.302   5.598   2.109
  241TIP3    H2  688   2.451   5.613   2.132
  242TIP3   OH2  689   6.173   1.783   3.584
  242TIP3    H1  690   6.205   1.704   3.626
  242TIP3    H2  691   6.144   1.754   3.497
  243TIP3   OH2  692   3.488   3.986   5.251
  243TIP3    H1  693   3.521   3.928   5.182
  243TIP3    H2  694   3.397   3.960   5.262
  244TIP3   OH2  695   1.562   0.568   3.439
  244TIP3    H1  696   1.532   0.554   3.528
  244TIP3    H2  697   1.645   0.615   3.448
  245TIP3   OH2  698   1.645   3.243   3.963
  245TIP3    H1  699   1.739   3.240   3.980
  245TIP3    H2  700   1.629   3.169   3.905
  246TIP3   OH2  701   3.117   0.658   0.794
  246TIP3    H1  702   3.096   0.644   0.886
  246TIP3    H2  703   3.057   0.600   0.747
  247TIP3   OH2  704   6.372   3.004   2.154
  247TIP3    H1  705   6.446   3.064   2.149
  247TIP3    H2  706   6.411   2.917   2.149
  248TIP3   OH2  707   1.826   4.071   4.614
  248TIP3    H1  708   1.735   4.078   4.640
  248TIP3    H2  709   1.831   4.122   4.533
  249TIP3   OH2  710   6.789   6.772   3.598
  249TIP3    H1  711   6.754   6.683   3.611
  249TIP3    H2  712   6.711   6.825   3.581
  250TIP3   OH2  713   3.682   2.808   3.318
  250TIP3    H1  714   3.685   2.903   3.330
  250TIP3    H2  715   3.639   2.796   3.233
  251TIP3   OH2  716   0.811   3.330   1.237
  251TIP3    H1  717   0.883   3.385   1.205
  251TIP3    H2  718   0.848   3.242   1.238
  252TIP3   OH2  719   6.307   6.129   5.483
  252TIP3    H1  720   6.235   6.188   5.505
  252TIP3    H2  721   6.361   6.126   5.563
  253TIP3   OH2  722   4.088   4.112   1.694
  253TIP3    H1  723   4.148   4.047   1.659
  253TIP3    H2  724   4.133   4.148   1.770
  254TIP3   OH2  725   2.501   2.439   3.586
  254TIP3    H1  726   2.478   2.422   3.678
  254TIP3    H2  727   2.480   2.357   3.541
  255TIP3   OH2  728   3.554   3.175   1.384
  255TIP3    H1  729   3.518   3.186   1.472
  255TIP3    H2  730   3.486   3.127   1.336
  256TIP3   OH2  731   3.880   6.488   5.513
  256TIP3    H1  732   3.850   6.430   5.443
  256TIP3    H2  733   3.905   6.569   5.468
  257TIP3   OH2  734   2.946   1.435   5.812
  257TIP3    H1  735   2.856   1.403   5.821
  257TIP3    H2  736   2.982   1.383   5.740
  258TIP3   OH2  737   3.430   2.820   2.756
  258TIP3    H1  738   3.363   2.759   2.787
  258TIP3    H2  739   3.496   2.765   2.714
  259TIP3   OH2  740   3.822   3.629   3.461
  259TIP3    H1  741   3.730   3.638   3.437
  259TIP3    H2  742   3.870   3.648   3.381
  260TIP3   OH2  743   2.285   5.969   1.901
  260TIP3    H1  744   2.352   6.037   1.914
  260TIP3    H2  745   2.261   5.942   1.989
  261TIP3   OH2  746   1.651   1.791   3.229
  261TIP3    H1  747   1.639   1.774   3.136
  261TIP3    H2  748   1.637   1.885   3.239
  262TIP3   OH2  749   2.268   3.904   5.448
  262TIP3    H1  750   2.174   3.910   5.434
  262TIP3    H2  751   2.279   3.917   5.542
  263TIP3   OH2  752   2.044   4.124   0.308
  263TIP3    H1  753   2.114   4.059   0.311
  263TIP3    H2  754   2.088   4.208   0.296
  264TIP3   OH2  755   1.738   4.679   1.788
  264TIP3    H1  756   1.670   4.648   1.728
  264TIP3    H2  757   1.817   4.634   1.759
  265TIP3   OH2  758   6.265   2.585   0.063
  265TIP3    H1  759   6.207   2.644   0.109
  265TIP3    H2  760   6.314   2.641   0.003
  266TIP3   OH2  761   4.338   1.092   1.396
  266TIP3    H1  762   4.367   1.002   1.408
  266TIP3    H2  763   4.260   1.100   1.451
  267TIP3   OH2  764   1.989   2.382   0.664
  267TIP3    H1  765   1.977   2.304   0.610
  267TIP3    H2  766   2.016   2.450   0.602
  268TIP3   OH2  767   5.652   5.024   1.547
  268TIP3    H1  768   5.736   5.043   1.505
  268TIP3    H2  769   5.675   4.978   1.628
  269TIP3   OH2  770   2.920   5.720   4.419
  269TIP3    H1  771   2.898   5.662   4.347
  269TIP3    H2  772   2.962   5.664   4.484
  270TIP3   OH2  773   3.309   1.886   3.202
  270TIP3    H1  774   3.270   1.828   3.268
  270TIP3    H2  775   3.386   1.839   3.171
  271TIP3   OH2  776   5.338   1.462   2.535
  271TIP3    H1  777   5.270   1.416   2.585
  271TIP3    H2  778   5.418   1.448   2.585
  272TIP3   OH2  779   0.175   5.743   1.222
  272TIP3    H1  780   0.113   5.723   1.292
  272TIP3    H2  781   0.165   5.837   1.207
  273TIP3   OH2  782   2.004   2.582   2.913
  273TIP3    H1  783   1.985   2.566   2.821
  273TIP3    H2  784   1.938   2.646   2.940
  274TIP3   OH2  785   0.591   5.135   0.505
  274TIP3    H1  786   0.587   5.190   0.584
  274TIP3    H2  787   0.594   5.046   0.538
  275TIP3   OH2  788   2.573   1.989   4.931
  275TIP3    H1  789   2.637   1.919   4.948
  275TIP3    H2  790   2.587   2.052   5.002
  276TIP3   OH2  791   2.099   1.336   4.382
  276TIP3    H1  792   2.187   1.352   4.416
  276TIP3    H2  793   2.041   1.381   4.443
  277TIP3   OH2  794   1.601   4.600   0.026
  277TIP3    H1  795   1.523   4.623  -0.024
  277TIP3    H2  796   1.570   4.589   0.116
  278TIP3   OH2  797   0.607   1.547   0.545
  278TIP3    H1  798   0.561   1.463   0.538
  278TIP3    H2  799   0.559   1.595   0.613
  279TIP3   OH2  800   0.024   2.178   1.542
  279TIP3    H1  801   0.036   2.174   1.637
  279TIP3    H2  802   0.112   2.188   1.507
  280TIP3   OH2  803   5.024   1.005   3.972
  280TIP3    H1  804   5.080   1.076   4.003
  280TIP3    H2  805   4.935   1.039   3.978
  281TIP3   OH2  806   2.421   0.321   3.563
  281TIP3    H1  807   2.508   0.360   3.562
  281TIP3    H2  808   2.380   0.356   3.642
  282TIP3   OH2  809   4.326   5.368   5.004
  282TIP3    H1  810   4.265   5.442   5.010
  282TIP3    H2  811   4.279   5.295   5.045
  283TIP3   OH2  812   0.656   1.105   2.059
  283TIP3    H1  813   0.711   1.032   2.029
  283TIP3    H2  814   0.700   1.183   2.025
  284TIP3   OH2  815   5.632   1.036   0.771
  284TIP3    H1  816   5.590   0.950   0.765
  284TIP3    H2  817   5.620   1.061   0.863
  285TIP3   OH2  818   2.511   1.171   4.033
  285TIP3    H1  819   2.418   1.167   4.057
  285TIP3    H2  820   2.552   1.218   4.105
  286TIP3   OH2  821   5.411   0.189   3.154
  286TIP3    H1  822   5.425   0.266   3.209
  286TIP3    H2  823   5.472   0.199   3.082
  287TIP3   OH2  824   6.080   0.314   3.011
  287TIP3    H1  825   6.113   0.365   3.085
  287TIP3    H2  826   6.138   0.337   2.938
  288TIP3   OH2  827   1.264   0.416   5.096
  288TIP3    H1  828   1.350   0.387   5.067
  288TIP3    H2  829   1.204   0.350   5.063
  289TIP3   OH2  830   3.428   3.606   4.749
  289TIP3    H1  831   3.340   3.573   4.734
  289TIP3    H2  832   3.482   3.527   4.756
  290TIP3   OH2  833   3.243   6.470   4.892
  290TIP3    H1  834   3.193   6.502   4.967
  290TIP3    H2  835   3.179   6.462   4.821
  291TIP3   OH2  836   0.774   5.502   5.269
  291TIP3    H1  837   0.738   5.415   5.255
  291TIP3    H2  838   0.860   5.487   5.308
  292TIP3   OH2  839   3.424   5.486   0.314
  292TIP3    H1  840   3.406   5.552   0.247
  292TIP3    H2  841   3.468   5.416   0.267
  293TIP3   OH2  842   5.391   1.796   3.388
  293TIP3    H1  843   5.470   1.750   3.414
  293TIP3    H2  844   5.319   1.737   3.413
  294TIP3   OH2  845   0.837   2.140   4.868
  294TIP3    H1  846   0.866   2.052   4.891
  294TIP3    H2  847   0.913   2.181   4.827
  295TIP3   OH2  848   2.350   0.012   2.059
  295TIP3    H1  849   2.427   0.001   2.115
  295TIP3    H2  850   2.386   0.030   1.972
  296TIP3   OH2  851   5.971   3.927   0.131
  296TIP3    H1  852   5.930   4.011   0.107
  296TIP3    H2  853   5.914   3.891   0.199
  297TIP3   OH2  854   4.276   1.931   2.790
  297TIP3    H1  855   4.205   1.872   2.766
  297TIP3    H2  856   4.267   1.941   2.885
  298TIP3   OH2  857   2.048   3.543   0.043
  298TIP3    H1  858   2.048   3.533   0.138
  298TIP3    H2  859   2.093   3.626   0.028
  299TIP3   OH2  860   4.086   4.447   2.792
  299TIP3    H1  861   4.125   4.484   2.871
  299TIP3    H2  862   4.040   4.368   2.822
  300TIP3   OH2  863   5.546   3.961   0.819
  300TIP3    H1  864   5.475   3.899   0.835
  300TIP3    H2  865   5.509   4.023   0.756
  301TIP3   OH2  866   1.638   2.748   0.246
  301TIP3    H1  867   1.617   2.687   0.176
  301TIP3    H2  868   1.724   2.784   0.222
  302TIP3   OH2  869   3.688   4.780   4.843
  302TIP3    H1  870   3.626   4.755   4.912
  302TIP3    H2  871   3.726   4.697   4.814
  303TIP3   OH2  872   0.134   5.816   4.101
  303TIP3    H1  873   0.204   5.767   4.057
  303TIP3    H2  874   0.103   5.756   4.169
  304TIP3   OH2  875   0.036   4.024   5.211
  304TIP3    H1  876   0.015   4.109   5.250
  304TIP3    H2  877   0.090   3.980   5.277
  305TIP3   OH2  878   5.759   4.908   4.580
  305TIP3    H1  879   5.699   4.868   4.643
  305TIP3    H2  880   5.802   4.834   4.537
  306TIP3   OH2  881   3.299   4.042   2.789
  306TIP3    H1  882   3.372   3.990   2.754
  306TIP3    H2  883   3.225   4.020   2.732
  307TIP3   OH2  884   4.307   4.209   0.621
  307TIP3    H1  885   4.324   4.280   0.683
  307TIP3    H2  886   4.224   4.171   0.651
  308TIP3   OH2  887   3.054   0.373   1.807
  308TIP3    H1  888   3.017   0.458   1.782
  308TIP3    H2  889   3.063   0.325   1.725
  309TIP3   OH2  890   0.176   0.053   0.977
  309TIP3    H1  891   0.250   0.007   1.016
  309TIP3    H2  892   0.196   0.146   0.991
  310TIP3   OH2  893   5.185   6.168   0.099
  310TIP3    H1  894   5.098   6.147   0.064
  310TIP3    H2  895   5.235   6.087   0.087
  311TIP3   OH2  896   5.446   6.414   1.933
  311TIP3    H1  897   5.443   6.459   2.018
  311TIP3    H2  898   5.539   6.418   1.908
  312TIP3   OH2  899   0.734   4.618   2.500
  312TIP3    H1  900   0.771   4.705   2.515
  312TIP3    H2  901   0.741   4.604   2.406
  313TIP3   OH2  902   2.246   1.065   1.265
  313TIP3    H1  903   2.318   1.112   1.222
  313TIP3    H2  904   2.231   1.113   1.346
  314TIP3   OH2  905   1.840   3.207   1.920
  314TIP3    H1  906   1.828   3.165   1.835
  314TIP3    H2  907   1.752   3.207   1.959
  315TIP3   OH2  908   5.284   3.739   3.177
  315TIP3    H1  909   5.202   3.776   3.210
  315TIP3    H2  910   5.258   3.686   3.102
  316TIP3   OH2  911   6.975   6.464   0.795
  316TIP3    H1  912   6.899   6.436   0.846
  316TIP3    H2  913   7.004   6.545   0.837
  317TIP3   OH2  914   2.043   3.650   3.726
  317TIP3    H1  915   2.017   3.688   3.809
  317TIP3    H2  916   2.000   3.564   3.724
  318TIP3   OH2  917   0.468   5.439   4.928
  318TIP3    H1  918   0.541   5.392   4.966
  318TIP3    H2  919   0.486   5.439   4.834
  319TIP3   OH2  920   2.577   1.655   1.223
  319TIP3    H1  921   2.650   1.664   1.284
  319TIP3    H2  922   2.514   1.600   1.269
  320TIP3   OH2  923   5.520   2.284   1.920
  320TIP3    H1  924   5.541   2.211   1.979
  320TIP3    H2  925   5.436   2.260   1.882
  321TIP3   OH2  926   4.923   4.224   0.323
  321TIP3    H1  927   4.842   4.185   0.290
  321TIP3    H2  928   4.976   4.240   0.245
  322TIP3   OH2  929   2.694   4.429   3.511
  322TIP3    H1  930   2.682   4.508   3.563
  322TIP3    H2  931   2.621   4.430   3.448
  323TIP3   OH2  932   5.331   5.942   5.802
  323TIP3    H1  933   5.258   5.952   5.742
  323TIP3    H2  934   5.308   5.867   5.857
  324TIP3   OH2  935   1.605   3.626   4.005
  324TIP3    H1  936   1.673   3.686   3.972
  324TIP3    H2  937   1.568   3.588   3.926
  325TIP3   OH2  938   2.342   5.946   3.284
  325TIP3    H1  939   2.270   5.989   3.238
  325TIP3    H2  940   2.421   5.974   3.238
  326TIP3   OH2  941   0.753   2.673   2.096
  326TIP3    H1  942   0.828   2.685   2.037
  326TIP3    H2  943   0.792   2.649   2.180
  327TIP3   OH2  944   1.605   2.044   0.748
  327TIP3    H1  945   1.557   1.985   0.689
  327TIP3    H2  946   1.536   2.089   0.798
  328TIP3   OH2  947   3.436   3.066   3.620
  328TIP3    H1  948   3.397   2.979   3.620
  328TIP3    H2  949   3.530   3.050   3.612
  329TIP3   OH2  950   1.766   6.641   3.303
  329TIP3    H1  951   1.820   6.649   3.382
  329TIP3    H2  952   1.681   6.612   3.334
  330TIP3   OH2  953   3.836   0.085   1.554
  330TIP3    H1  954   3.809   0.163   1.603
  330TIP3    H2  955   3.906   0.116   1.497
  331TIP3   OH2  956   2.740   0.809   1.417
  331TIP3    H1  957   2.727   0.781   1.326
  331TIP3    H2  958   2.701   0.896   1.421
  332TIP3   OH2  959   5.031   1.375   3.365
  332TIP3    H1  960   5.068   1.462   3.380
  332TIP3    H2  961   4.942   1.391   3.335
  333TIP3   OH2  962   6.947   6.057   1.951
  333TIP3    H1  963   6.852   6.052   1.937
  333TIP3    H2  964   6.956   6.087   2.041
  334TIP3   OH2  965   3.913   0.705   1.871
  334TIP3    H1  966   3.937   0.766   1.941
  334TIP3    H2  967   3.945   0.620   1.901
  335TIP3   OH2  968   4.194   0.319   5.815
  335TIP3    H1  969   4.116   0.365   5.785
  335TIP3    H2  970   4.261   0.342   5.751
  336TIP3   OH2  971   2.124   4.632   3.805
  336TIP3    H1  972   2.098   4.560   3.747
  336TIP3    H2  973   2.073   4.618   3.884
  337TIP3   OH2  974   0.507   1.028   2.287
  337TIP3    H1  975   0.576   1.018   2.353
  337TIP3    H2  976   0.555   1.042   2.205
  338TIP3   OH2  977   1.617   0.028   2.554
  338TIP3    H1  978   1.594   0.108   2.601
  338TIP3    H2  979   1.555   0.025   2.480
  339TIP3   OH2  980   3.081   6.661   2.559
  339TIP3    H1  981   3.022   6.686   2.488
  339TIP3    H2  982   3.056   6.716   2.633
  340TIP3   OH2  983   1.155   1.944   1.843
  340TIP3    H1  984   1.073   1.896   1.835
  340TIP3    H2  985   1.133   2.033   1.814
  341TIP3   OH2  986   6.669   6.598   2.085
  341TIP3    H1  987   6.701   6.681   2.121
  341TIP3    H2  988   6.617   6.623   2.009
  342TIP3   OH2  989   4.403   3.283   2.841
  342TIP3    H1  990   4.494   3.308   2.857
  342TIP3    H2  991   4.380   3.227   2.914
  343TIP3   OH2  992   5.995   6.537   2.789
  343TIP3    H1  993   5.960   6.456   2.754
  343TIP3    H2  994   6.001   6.596   2.714
  344TIP3   OH2  995   1.305   5.753   2.335
  344TIP3    H1  996   1.269   5.671   2.369
  344TIP3    H2  997   1.339   5.729   2.248
  345TIP3   OH2  998   3.872   5.914   4.672
  345TIP3    H1  999   3.790   5.895   4.719
  345TIP3    H2 1000   3.873   5.851   4.600
  346TIP3   OH2 1001   6.976   1.943   4.006
  346TIP3    H1 1002   6.941   1.855   3.992
  346TIP3    H2 1003   7.050   1.950   3.945
  347TIP3   OH2 1004   0.984   4.424   1.666
  347TIP3    H1 1005   1.046   4.463   1.727
  347TIP3    H2 1006   1.023   4.341   1.640
  348TIP3   OH2 1007   5.318   5.620   0.082
  348TIP3    H1 1008   5.405   5.645   0.113
  348TIP3    H2 1009   5.318   5.641  -0.011
  349TIP3   OH2 1010   5.784   4.438   2.646
  349TIP3    H1 1011   5.875   4.468   2.659
  349TIP3    H2 1012   5.762   4.393   2.727
  350TIP3   OH2 1013   4.485   5.342   1.816
  350TIP3    H1 1014   4.554   5.389   1.861
  350TIP3    H2 1015   4.484   5.378   1.727
  351TIP3   OH2 1016   0.562   3.437   0.460
  351TIP3    H1 1017   0.625   3.486   0.513
  351TIP3    H2 1018   0.556   3.352   0.504
  352TIP3   OH2 1019   4.529   5.707   4.309
  352TIP3    H1 1020   4.597   5.698   4.242
  352TIP3    H2 1021   4.488   5.621   4.314
  353TIP3   OH2 1022   6.736   5.294   1.963
  353TIP3    H1 1023   6.824   5.258   1.973
  353TIP3    H2 1024   6.683   5.247   2.029
  354TIP3   OH2 1025   6.405   5.264   4.250
  354TIP3    H1 1026   6.420   5.185   4.199
  354TIP3    H2 1027   6.373   5.232   4.335
  355TIP3   OH2 1028   7.099   3.238   3.250
  355TIP3    H1 1029   7.133   3.184   3.179
  355TIP3    H2 1030   7.005   3.243   3.234
  356TIP3   OH2 1031   6.175   4.432   5.447
  356TIP3    H1 1032   6.239   4.449   5.516
  356TIP3    H2 1033   6.210   4.479   5.371
  357TIP3   OH2 1034   0.267   2.996   4.145
  357TIP3    H1 1035   0.244   2.943   4.222
  357TIP3    H2 1036   0.252   2.939   4.070
  358TIP3   OH2 1037   3.591   5.054   0.151
  358TIP3    H1 1038   3.641   5.133   0.128
  358TIP3    H2 1039   3.656   4.994   0.186
  359TIP3   OH2 1040   5.098   3.613   4.585
  359TIP3    H1 1041   5.138   3.542   4.536
  359TIP3    H2 1042   5.141   3.611   4.670
  360TIP3   OH2 1043   0.930   5.910   4.340
  360TIP3    H1 1044   1.006   5.852   4.340
  360TIP3    H2 1045   0.899   5.909   4.431
  361TIP3   OH2 1046   2.753   4.913   2.929
  361TIP3    H1 1047   2.803   4.834   2.910
  361TIP3    H2 1048   2.817   4.984   2.925
  362TIP3   OH2 1049   4.754   2.547   4.754
  362TIP3    H1 1050   4.663   2.575   4.756
  362TIP3    H2 1051   4.765   2.493   4.832
  363TIP3   OH2 1052   3.546   4.236   3.581
  363TIP3    H1 1053   3.541   4.258   3.488
  363TIP3    H2 1054   3.538   4.141   3.584
  364TIP3   OH2 1055   6.459   6.662   3.584
  364TIP3    H1 1056   6.378   6.653   3.635
  364TIP3    H2 1057   6.454   6.591   3.520
  365TIP3   OH2 1058   2.456   2.628   0.973
  365TIP3    H1 1059   2.425   2.551   0.925
  365TIP3    H2 1060   2.439   2.606   1.065
  366TIP3   OH2 1061   4.463   2.661   4.739
  366TIP3    H1 1062   4.369   2.644   4.739
  366TIP3    H2 1063   4.470   2.757   4.739
  367TIP3   OH2 1064   3.208   6.285   3.026
  367TIP3    H1 1065   3.289   6.333   3.045
  367TIP3    H2 1066   3.154   6.348   2.978
  368TIP3   OH2 1067   0.471   0.160   0.834
  368TIP3    H1 1068   0.485   0.238   0.781
  368TIP3    H2 1069   0.393   0.180   0.887
  369TIP3   OH2 1070   3.915   0.385   1.230
  369TIP3    H1 1071   3.820   0.391   1.229
  369TIP3    H2 1072   3.943   0.431   1.151
  370TIP3   OH2 1073   6.591   1.435   0.693
  370TIP3    H1 1074   6.582   1.517   0.645
  370TIP3    H2 1075   6.502   1.412   0.719
  371TIP3   OH2 1076   5.958   4.160   2.689
  371TIP3    H1 1077   5.905   4.081   2.695
  371TIP3    H2 1078   5.955   4.199   2.776
  372TIP3   OH2 1079   2.316   2.171   0.177
  372TIP3    H1 1080   2.364   2.156   0.259
  372TIP3    H2 1081   2.345   2.100   0.120
  373TIP3   OH2 1082   0.921   1.134   3.028
  373TIP3    H1 1083   0.927   1.096   2.940
  373TIP3    H2 1084   1.012   1.151   3.053
  374TIP3   OH2 1085   1.076   6.094   4.143
  374TIP3    H1 1086   1.031   6.013   4.168
  374TIP3    H2 1087   1.051   6.157   4.211
  375TIP3   OH2 1088   0.991   1.385   2.043
  375TIP3    H1 1089   1.020   1.348   2.127
  375TIP3    H2 1090   1.050   1.346   1.978
  376TIP3   OH2 1091   2.631   2.943   0.762
  376TIP3    H1 1092   2.540   2.939   0.792
  376TIP3    H2 1093   2.675   2.996   0.827
  377TIP3   OH2 1094   3.447   5.147   2.060
  377TIP3    H1 1095   3.405   5.127   2.144
  377TIP3    H2 1096   3.538   5.120   2.071
  378TIP3   OH2 1097   0.420   2.600   4.811
  378TIP3    H1 1098   0.386   2.615   4.899
  378TIP3    H2 1099   0.499   2.654   4.806
  379TIP3   OH2 1100   6.083   4.201   5.323
  379TIP3    H1 1101   6.155   4.154   5.365
  379TIP3    H2 1102   6.083   4.287   5.365
  380TIP3   OH2 1103   0.595   1.977   3.354
  380TIP3    H1 1104   0.669   1.944   3.303
  380TIP3    H2 1105   0.636   2.025   3.426
  381TIP3   OH2 1106   3.674   6.644   4.602
  381TIP3    H1 1107   3.667   6.549   4.599
  381TIP3    H2 1108   3.751   6.665   4.548
  382TIP3   OH2 1109   1.554   2.972   5.018
  382TIP3    H1 1110   1.549   2.879   4.999
  382TIP3    H2 1111   1.477   3.010   4.977
  383TIP3   OH2 1112   6.593   0.384   5.007
  383TIP3    H1 1113   6.504   0.351   5.019
  383TIP3    H2 1114   6.623   0.345   4.925
  384TIP3   OH2 1115   6.170   1.342   4.901
  384TIP3    H1 1116   6.135   1.427   4.872
  384TIP3    H2 1117   6.261   1.343   4.871
  385TIP3   OH2 1118   3.864   0.861   3.569
  385TIP3    H1 1119   3.851   0.786   3.627
  385TIP3    H2 1120   3.930   0.915   3.614
  386TIP3   OH2 1121   6.053   4.330   1.856
  386TIP3    H1 1122   6.116   4.364   1.793
  386TIP3    H2 1123   6.100   4.261   1.903
  387TIP3   OH2 1124   0.331   4.931   2.250
  387TIP3    H1 1125   0.409   4.913   2.198
  387TIP3    H2 1126   0.363   4.945   2.339
  388TIP3   OH2 1127   4.755   5.846   1.322
  388TIP3    H1 1128   4.789   5.872   1.408
  388TIP3    H2 1129   4.775   5.921   1.266
  389TIP3   OH2 1130   0.440   6.569   2.608
  389TIP3    H1 1131   0.456   6.569   2.514
  389TIP3    H2 1132   0.474   6.485   2.638
  390TIP3   OH2 1133   0.861   3.133   3.500
  390TIP3    H1 1134   0.933   3.114   3.559
  390TIP3    H2 1135   0.861   3.228   3.491
  391TIP3   OH2 1136   2.757   2.133   0.557
  391TIP3    H1 1137   2.806   2.169   0.631
  391TIP3    H2 1138   2.702   2.065   0.596
  392TIP3   OH2 1139   1.875   6.192   3.844
  392TIP3    H1 1140   1.784   6.186   3.874
  392TIP3    H2 1141   1.898   6.103   3.819
  393TIP3   OH2 1142   3.977   3.978   3.567
  393TIP3    H1 1143   4.017   3.893   3.584
  393TIP3    H2 1144   3.980   3.986   3.471
  394TIP3   OH2 1145   4.753   2.064   0.328
  394TIP3    H1 1146   4.772   2.018   0.410
  394TIP3    H2 1147   4.695   2.136   0.354
  395TIP3   OH2 1148   6.864   1.332   0.769
  395TIP3    H1 1149   6.772   1.344   0.747
  395TIP3    H2 1150   6.878   1.237   0.762
  396TIP3   OH2 1151   1.885   3.636   4.700
  396TIP3    H1 1152   1.813   3.699   4.705
  396TIP3    H2 1153   1.924   3.651   4.614
  397TIP3   OH2 1154   1.213   0.574   4.707
  397TIP3    H1 1155   1.288   0.517   4.690
  397TIP3    H2 1156   1.193   0.561   4.799
  398TIP3   OH2 1157   2.789   2.333   5.220
  398TIP3    H1 1158   2.871   2.295   5.249
  398TIP3    H2 1159   2.787   2.420   5.260
  399TIP3   OH2 1160   5.113   5.485   2.813
  399TIP3    H1 1161   5.204   5.503   2.790
  399TIP3    H2 1162   5.074   5.452   2.732
  400TIP3   OH2 1163   4.448   2.020   3.346
  400TIP3    H1 1164   4.451   2.115   3.359
  400TIP3    H2 1165   4.458   2.009   3.251
  401TIP3   OH2 1166   2.932   1.511   2.671
  401TIP3    H1 1167   2.916   1.603   2.695
  401TIP3    H2 1168   2.865   1.491   2.606
  402TIP3   OH2 1169   0.872   5.425   1.608
  402TIP3    H1 1170   0.908   5.441   1.520
  402TIP3    H2 1171   0.780   5.447   1.600
  403TIP3   OH2 1172   1.636   4.618   5.552
  403TIP3    H1 1173   1.678   4.603   5.467
  403TIP3    H2 1174   1.633   4.713   5.561
  404TIP3   OH2 1175   6.749   2.302   3.338
  404TIP3    H1 1176   6.714   2.387   3.309
  404TIP3    H2 1177   6.841   2.319   3.356
  405TIP3   OH2 1178   5.890   3.203   1.307
  405TIP3    H1 1179   5.874   3.151   1.228
  405TIP3    H2 1180   5.847   3.154   1.377
  406TIP3   OH2 1181   7.191   2.841   5.449
  406TIP3    H1 1182   7.215   2.928   5.418
  406TIP3    H2 1183   7.181   2.789   5.369
  407TIP3   OH2 1184   2.972   5.670   3.877
  407TIP3    H1 1185   2.999   5.755   3.912
  407TIP3    H2 1186   3.026   5.658   3.799
  408TIP3   OH2 1187   3.901   4.280   3.430
  408TIP3    H1 1188   3.934   4.282   3.340
  408TIP3    H2 1189   3.847   4.359   3.437
  409TIP3   OH2 1190   7.024   3.667   5.806
  409TIP3    H1 1191   7.075   3.707   5.736
  409TIP3    H2 1192   7.088   3.648   5.874
  410TIP3   OH2 1193   3.208   6.171   5.777
  410TIP3    H1 1194   3.264   6.176   5.700
  410TIP3    H2 1195   3.174   6.260   5.788
  411TIP3   OH2 1196   5.602   3.231   5.650
  411TIP3    H1 1197   5.667   3.257   5.716
  411TIP3    H2 1198   5.527   3.289   5.667
  412TIP3   OH2 1199   6.387   3.701   4.232
  412TIP3    H1 1200   6.330   3.755   4.287
  412TIP3    H2 1201   6.336   3.622   4.216
  413TIP3   OH2 1202  -0.024   2.995   2.143
  413TIP3    H1 1203   0.045   3.060   2.152
  413TIP3    H2 1204  -0.102   3.037   2.180
  414TIP3   OH2 1205   3.806   2.532   0.788
  414TIP3    H1 1206   3.799   2.449   0.741
  414TIP3    H2 1207   3.734   2.531   0.851
  415TIP3   OH2 1208   4.457   2.424   2.010
  415TIP3    H1 1209   4.453   2.393   2.100
  415TIP3    H2 1210   4.419   2.512   2.013
  416TIP3   OH2 1211   5.895   2.511   1.235
  416TIP3    H1 1212   5.963   2.487   1.173
  416TIP3    H2 1213   5.813   2.501   1.186
  417TIP3   OH2 1214   2.004   4.346   0.533
  417TIP3    H1 1215   1.942   4.327   0.463
  417TIP3    H2 1216   2.061   4.269   0.536
  418TIP3   OH2 1217   3.164   2.082   4.024
  418TIP3    H1 1218   3.192   2.131   3.947
  418TIP3    H2 1219   3.192   2.134   4.099
  419TIP3   OH2 1220   5.989   5.813   0.906
  419TIP3    H1 1221   6.001   5.760   0.985
  419TIP3    H2 1222   6.002   5.751   0.833
  420TIP3   OH2 1223   6.204   1.248   3.598
  420TIP3    H1 1224   6.149   1.176   3.569
  420TIP3    H2 1225   6.285   1.206   3.628
  421TIP3   OH2 1226   5.273   1.802   3.918
  421TIP3    H1 1227   5.259   1.895   3.934
  421TIP3    H2 1228   5.307   1.768   4.000
  422TIP3   OH2 1229   6.386   5.162   0.535
  422TIP3    H1 1230   6.321   5.220   0.574
  422TIP3    H2 1231   6.338   5.081   0.519
  423TIP3   OH2 1232   5.860   1.242   1.892
  423TIP3    H1 1233   5.920   1.315   1.904
  423TIP3    H2 1234   5.777   1.271   1.931
  424TIP3   OH2 1235   2.956   2.902   5.731
  424TIP3    H1 1236   2.874   2.873   5.689
  424TIP3    H2 1237   2.928   2.937   5.816
  425TIP3   OH2 1238   0.944   1.863   4.917
  425TIP3    H1 1239   1.020   1.881   4.971
  425TIP3    H2 1240   0.885   1.814   4.974
  426TIP3   OH2 1241   4.453   6.665   3.326
  426TIP3    H1 1242   4.409   6.658   3.411
  426TIP3    H2 1243   4.390   6.631   3.263
  427TIP3   OH2 1244   7.084   4.180   3.527
  427TIP3    H1 1245   7.150   4.235   3.485
  427TIP3    H2 1246   7.047   4.128   3.456
  428TIP3   OH2 1247   2.181   6.578   3.050
  428TIP3    H1 1248   2.135   6.662   3.054
  428TIP3    H2 1249   2.200   6.557   3.141
  429TIP3   OH2 1250   4.300   5.968   2.154
  429TIP3    H1 1251   4.297   5.906   2.082
  429TIP3    H2 1252   4.208   5.984   2.176
  430TIP3   OH2 1253   0.157   2.976   0.923
  430TIP3    H1 1254   0.191   2.989   0.835
  430TIP3    H2 1255   0.063   2.964   0.911
  431TIP3   OH2 1256   0.741   2.980   0.795
  431TIP3    H1 1257   0.716   2.923   0.723
  431TIP3    H2 1258   0.771   2.920   0.864
  432TIP3   OH2 1259   0.871   0.062   2.831
  432TIP3    H1 1260   0.796   0.102   2.788
  432TIP3    H2 1261   0.843   0.052   2.923
  433TIP3   OH2 1262   0.648   4.184   5.171
  433TIP3    H1 1263   0.611   4.106   5.213
  433TIP3    H2 1264   0.740   4.183   5.195
  434TIP3   OH2 1265   4.332   2.323   0.177
  434TIP3    H1 1266   4.403   2.301   0.116
  434TIP3    H2 1267   4.293   2.239   0.201
  435TIP3   OH2 1268   2.022   4.497   5.462
  435TIP3    H1 1269   2.108   4.478   5.426
  435TIP3    H2 1270   1.994   4.414   5.502
  436TIP3   OH2 1271   5.979   2.923   4.337
  436TIP3    H1 1272   5.928   2.947   4.259
  436TIP3    H2 1273   6.002   3.006   4.377
  437TIP3   OH2 1274   2.193   1.603   4.718
  437TIP3    H1 1275   2.108   1.559   4.720
  437TIP3    H2 1276   2.190   1.659   4.641
  438TIP3   OH2 1277   2.498   0.357   0.426
  438TIP3    H1 1278   2.562   0.317   0.485
  438TIP3    H2 1279   2.538   0.441   0.402
  439TIP3   OH2 1280   6.715   6.125   4.785
  439TIP3    H1 1281   6.735   6.200   4.729
  439TIP3    H2 1282   6.686   6.057   4.724
  440TIP3   OH2 1283   5.500   6.250   4.529
  440TIP3    H1 1284   5.535   6.339   4.534
  440TIP3    H2 1285   5.431   6.248   4.595
  441TIP3   OH2 1286   0.776   3.849   4.391
  441TIP3    H1 1287   0.750   3.937   4.416
  441TIP3    H2 1288   0.704   3.817   4.337
  442TIP3   OH2 1289   6.195   5.746   4.838
  442TIP3    H1 1290   6.104   5.742   4.868
  442TIP3    H2 1291   6.235   5.815   4.891
  443TIP3   OH2 1292   5.080   4.003   4.302
  443TIP3    H1 1293   5.140   3.975   4.232
  443TIP3    H2 1294   5.108   3.952   4.378
  444TIP3   OH2 1295   4.636   5.085   1.807
  444TIP3    H1 1296   4.721   5.123   1.828
  444TIP3    H2 1297   4.573   5.155   1.826
  445TIP3   OH2 1298   0.178   0.933   2.332
  445TIP3    H1 1299   0.117   0.876   2.285
  445TIP3    H2 1300   0.259   0.928   2.282
  446TIP3   OH2 1301   5.856   6.784   4.546
  446TIP3    H1 1302   5.949   6.788   4.569
  446TIP3    H2 1303   5.855   6.747   4.458
  447TIP3   OH2 1304   5.504   2.365   4.129
  447TIP3    H1 1305   5.568   2.432   4.105
  447TIP3    H2 1306   5.556   2.295   4.169
  448TIP3   OH2 1307   6.852   5.537   2.044
  448TIP3    H1 1308   6.797   5.538   2.121
  448TIP3    H2 1309   6.829   5.456   1.998
  449TIP3   OH2 1310   3.549   4.374   0.619
  449TIP3    H1 1311   3.488   4.442   0.589
  449TIP3    H2 1312   3.623   4.422   0.655
  450TIP3   OH2 1313   6.826   3.996   3.903
  450TIP3    H1 1314   6.828   3.971   3.995
  450TIP3    H2 1315   6.844   4.091   3.903
  451TIP3   OH2 1316   2.745   4.033   4.401
  451TIP3    H1 1317   2.816   4.035   4.336
  451TIP3    H2 1318   2.789   4.012   4.483
  452TIP3   OH2 1319   0.681   5.781   5.270
  452TIP3    H1 1320   0.726   5.698   5.287
  452TIP3    H2 1321   0.722   5.843   5.330
  453TIP3   OH2 1322   1.322   3.578   5.195
  453TIP3    H1 1323   1.229   3.564   5.176
  453TIP3    H2 1324   1.368   3.537   5.123
  454TIP3   OH2 1325   4.309   4.851   4.782
  454TIP3    H1 1326   4.310   4.836   4.688
  454TIP3    H2 1327   4.231   4.905   4.797
  455TIP3   OH2 1328   1.227   6.545   0.515
  455TIP3    H1 1329   1.135   6.525   0.496
  455TIP3    H2 1330   1.277   6.482   0.462
  456TIP3   OH2 1331   6.226   0.910   3.199
  456TIP3    H1 1332   6.249   0.877   3.112
  456TIP3    H2 1333   6.149   0.858   3.224
  457TIP3   OH2 1334   2.862   4.151   1.849
  457TIP3    H1 1335   2.868   4.196   1.933
  457TIP3    H2 1336   2.895   4.214   1.785
  458TIP3   OH2 1337   4.498   3.362   1.178
  458TIP3    H1 1338   4.543   3.435   1.136
  458TIP3    H2 1339   4.408   3.369   1.148
  459TIP3   OH2 1340   6.229   0.597   4.380
  459TIP3    H1 1341   6.283   0.520   4.396
  459TIP3    H2 1342   6.221   0.639   4.465
  460TIP3   OH2 1343   1.540   3.951   5.731
  460TIP3    H1 1344   1.484   3.913   5.662
  460TIP3    H2 1345   1.479   3.968   5.803
  461TIP3   OH2 1346   1.196   5.965   0.554
  461TIP3    H1 1347   1.239   5.906   0.493
  461TIP3    H2 1348   1.252   5.965   0.632
  462TIP3   OH2 1349   5.147   6.178   5.296
  462TIP3    H1 1350   5.242   6.183   5.313
  462TIP3    H2 1351   5.140   6.156   5.204
  463TIP3   OH2 1352   6.868   0.071   2.135
  463TIP3    H1 1353   6.847   0.033   2.050
  463TIP3    H2 1354   6.784   0.104   2.168
  464TIP3   OH2 1355   1.162   6.624   3.866
  464TIP3    H1 1356   1.123   6.558   3.809
  464TIP3    H2 1357   1.166   6.703   3.812
  465TIP3   OH2 1358   5.337   6.586   3.778
  465TIP3    H1 1359   5.248   6.607   3.752
  465TIP3    H2 1360   5.383   6.571   3.695
  466TIP3   OH2 1361   2.303   5.661   5.475
  466TIP3    H1 1362   2.221   5.684   5.519
  466TIP3    H2 1363   2.320   5.735   5.417
  467TIP3   OH2 1364   5.928   2.186   1.074
  467TIP3    H1 1365   5.916   2.189   0.979
  467TIP3    H2 1366   5.995   2.251   1.092
  468TIP3   OH2 1367   5.874   6.166   4.247
  468TIP3    H1 1368   5.852   6.117   4.168
  468TIP3    H2 1369   5.968   6.180   4.242
  469TIP3   OH2 1370   4.146   2.078   4.474
  469TIP3    H1 1371   4.240   2.066   4.458
  469TIP3    H2 1372   4.104   2.033   4.401
  470TIP3   OH2 1373   1.776   3.738   3.577
  470TIP3    H1 1374   1.844   3.682   3.615
  470TIP3    H2 1375   1.825   3.809   3.535
  471TIP3   OH2 1376   5.526   1.604   2.384
  471TIP3    H1 1377   5.473   1.538   2.429
  471TIP3    H2 1378   5.493   1.604   2.294
  472TIP3   OH2 1379   6.159   3.029   5.109
  472TIP3    H1 1380   6.117   2.984   5.036
  472TIP3    H2 1381   6.242   2.982   5.122
  473TIP3   OH2 1382   6.055   1.896   0.100
  473TIP3    H1 1383   6.052   1.810   0.060
  473TIP3    H2 1384   6.092   1.881   0.187
  474TIP3   OH2 1385   1.124   6.465   1.139
  474TIP3    H1 1386   1.206   6.507   1.113
  474TIP3    H2 1387   1.143   6.428   1.226
  475TIP3   OH2 1388   3.172   2.646   0.467
  475TIP3    H1 1389   3.266   2.627   0.462
  475TIP3    H2 1390   3.168   2.739   0.487
  476TIP3   OH2 1391   6.155   0.571   3.090
  476TIP3    H1 1392   6.121   0.534   3.171
  476TIP3    H2 1393   6.228   0.626   3.117
  477TIP3   OH2 1394   6.427   3.808   2.447
  477TIP3    H1 1395   6.487   3.866   2.492
  477TIP3    H2 1396   6.426   3.728   2.499
  478TIP3   OH2 1397   1.955   6.277   3.188
  478TIP3    H1 1398   1.936   6.265   3.095
  478TIP3    H2 1399   1.880   6.239   3.233
  479TIP3   OH2 1400   0.349   2.268   0.013
  479TIP3    H1 1401   0.378   2.256   0.103
  479TIP3    H2 1402   0.306   2.186  -0.010
  480TIP3   OH2 1403   0.987   4.645   0.369
  480TIP3    H1 1404   0.945   4.571   0.325
  480TIP3    H2 1405   1.021   4.699   0.297
  481TIP3   OH2 1406   4.192   1.325   3.425
  481TIP3    H1 1407   4.259   1.335   3.356
  481TIP3    H2 1408   4.109   1.331   3.378
  482TIP3   OH2 1409   5.034   2.212   2.356
  482TIP3    H1 1410   5.078   2.129   2.339
  482TIP3    H2 1411   5.016   2.248   2.270
  483TIP3   OH2 1412   0.084   3.996   2.322
  483TIP3    H1 1413   0.025   3.999   2.247
  483TIP3    H2 1414   0.044   4.054   2.387
  484TIP3   OH2 1415   5.643   3.061   4.500
  484TIP3    H1 1416   5.653   3.144   4.452
  484TIP3    H2 1417   5.697   3.072   4.578
  485TIP3   OH2 1418   4.312   1.078   5.475
  485TIP3    H1 1419   4.254   1.114   5.542
  485TIP3    H2 1420   4.355   1.004   5.519
  486TIP3   OH2 1421   6.274   5.501   4.613
  486TIP3    H1 1422   6.206   5.435   4.626
  486TIP3    H2 1423   6.226   5.582   4.599
  487TIP3   OH2 1424   4.116   5.447   2.674
  487TIP3    H1 1425   4.206   5.453   2.706
  487TIP3    H2 1426   4.087   5.538   2.667
  488TIP3   OH2 1427   2.363   2.074   3.300
  488TIP3    H1 1428   2.352   2.121   3.382
  488TIP3    H2 1429   2.316   1.992   3.312
  489TIP3   OH2 1430   4.760   2.866   4.849
  489TIP3    H1 1431   4.824   2.890   4.916
  489TIP3    H2 1432   4.692   2.819   4.897
  490TIP3   OH2 1433   4.299   0.233   1.403
  490TIP3    H1 1434   4.310   0.139   1.417
  490TIP3    H2 1435   4.325   0.274   1.485
  491TIP3   OH2 1436   5.252   0.152   2.067
  491TIP3    H1 1437   5.269   0.140   1.973
  491TIP3    H2 1438   5.167   0.111   2.081
  492TIP3   OH2 1439   1.255   4.678   5.132
  492TIP3    H1 1440   1.192   4.649   5.198
  492TIP3    H2 1441   1.273   4.769   5.154
  493TIP3   OH2 1442   2.634   2.575   5.188
  493TIP3    H1 1443   2.560   2.544   5.136
  493TIP3    H2 1444   2.594   2.613   5.266
  494TIP3   OH2 1445   5.343   5.544   5.771
  494TIP3    H1 1446   5.365   5.457   5.739
  494TIP3    H2 1447   5.341   5.599   5.692
  495TIP3   OH2 1448   2.370   2.051   0.721
  495TIP3    H1 1449   2.381   2.056   0.816
  495TIP3    H2 1450   2.455   2.077   0.686
  496TIP3   OH2 1451   6.027   6.085   2.655
  496TIP3    H1 1452   6.039   6.016   2.720
  496TIP3    H2 1453   6.037   6.041   2.570
  497TIP3   OH2 1454   0.238   5.194   2.228
  497TIP3    H1 1455   0.326   5.226   2.244
  497TIP3    H2 1456   0.246   5.098   2.233
  498TIP3   OH2 1457   1.043   6.476   3.278
  498TIP3    H1 1458   1.087   6.398   3.313
  498TIP3    H2 1459   1.045   6.540   3.349
  499TIP3   OH2 1460   1.665   3.794   1.473
  499TIP3    H1 1461   1.702   3.850   1.541
  499TIP3    H2 1462   1.622   3.723   1.521
  500TIP3   OH2 1463   2.070   1.919   5.262
  500TIP3    H1 1464   2.070   1.825   5.277
  500TIP3    H2 1465   2.154   1.950   5.297
  501TIP3   OH2 1466   3.145   0.725   3.174
  501TIP3    H1 1467   3.106   0.737   3.087
  501TIP3    H2 1468   3.239   0.719   3.157
  502TIP3   OH2 1469   1.296   3.379   1.356
  502TIP3    H1 1470   1.360   3.311   1.337
  502TIP3    H2 1471   1.228   3.334   1.406
  503TIP3   OH2 1472   1.953   2.814   2.444
  503TIP3    H1 1473   1.915   2.746   2.387
  503TIP3    H2 1474   1.879   2.849   2.492
  504TIP3   OH2 1475   6.085   2.817   2.048
  504TIP3    H1 1476   6.104   2.911   2.045
  504TIP3    H2 1477   6.008   2.810   2.105
  505TIP3   OH2 1478   3.652   2.329   1.606
  505TIP3    H1 1479   3.718   2.292   1.548
  505TIP3    H2 1480   3.677   2.421   1.615
  506TIP3   OH2 1481   5.491   0.785   0.707
  506TIP3    H1 1482   5.526   0.700   0.678
  506TIP3    H2 1483   5.413   0.798   0.654
  507TIP3   OH2 1484   2.009   2.613   2.631
  507TIP3    H1 1485   1.996   2.706   2.612
  507TIP3    H2 1486   2.089   2.590   2.584
  508TIP3   OH2 1487   2.214   0.801   5.091
  508TIP3    H1 1488   2.296   0.824   5.136
  508TIP3    H2 1489   2.202   0.707   5.110
  509TIP3   OH2 1490   6.420   3.019   5.753
  509TIP3    H1 1491   6.407   2.926   5.735
  509TIP3    H2 1492   6.480   3.022   5.827
  510TIP3   OH2 1493   5.447   6.637   0.154
  510TIP3    H1 1494   5.516   6.634   0.087
  510TIP3    H2 1495   5.484   6.588   0.228
  511TIP3   OH2 1496   3.920   5.265   3.539
  511TIP3    H1 1497   3.981   5.209   3.588
  511TIP3    H2 1498   3.926   5.350   3.581
  512TIP3   OH2 1499   3.001   3.694   2.898
  512TIP3    H1 1500   3.077   3.704   2.956
  512TIP3    H2 1501   3.040   3.666   2.815
  513TIP3   OH2 1502   0.733   5.065   4.838
  513TIP3    H1 1503   0.655   5.071   4.894
  513TIP3    H2 1504   0.698   5.064   4.749
  514TIP3   OH2 1505   2.971   2.672   2.995
  514TIP3    H1 1506   3.006   2.760   3.012
  514TIP3    H2 1507   2.942   2.640   3.080
  515TIP3   OH2 1508   6.188   4.653   3.820
  515TIP3    H1 1509   6.190   4.593   3.895
  515TIP3    H2 1510   6.256   4.620   3.761
  516TIP3   OH2 1511   5.357   1.060   1.673
  516TIP3    H1 1512   5.373   1.076   1.581
  516TIP3    H2 1513   5.442   1.034   1.709
  517TIP3   OH2 1514   0.989   4.532   1.338
  517TIP3    H1 1515   0.950   4.611   1.300
  517TIP3    H2 1516   0.921   4.498   1.396
  518TIP3   OH2 1517   3.109   0.632   1.735
  518TIP3    H1 1518   3.065   0.698   1.682
  518TIP3    H2 1519   3.194   0.620   1.692
  519TIP3   OH2 1520   5.407   0.648   4.224
  519TIP3    H1 1521   5.470   0.582   4.193
  519TIP3    H2 1522   5.434   0.665   4.314
  520TIP3   OH2 1523   1.038   0.956   2.503
  520TIP3    H1 1524   1.045   1.043   2.541
  520TIP3    H2 1525   1.121   0.913   2.527
  521TIP3   OH2 1526   0.573   3.972   0.867
  521TIP3    H1 1527   0.560   4.058   0.826
  521TIP3    H2 1528   0.584   3.991   0.960
  522TIP3   OH2 1529   5.726   2.440   1.599
  522TIP3    H1 1530   5.675   2.470   1.524
  522TIP3    H2 1531   5.814   2.428   1.564
  523TIP3   OH2 1532   5.334   2.420   5.355
  523TIP3    H1 1533   5.384   2.434   5.435
  523TIP3    H2 1534   5.400   2.398   5.289
  524TIP3   OH2 1535   3.588   6.435   1.114
  524TIP3    H1 1536   3.563   6.417   1.205
  524TIP3    H2 1537   3.523   6.388   1.062
  525TIP3   OH2 1538   1.870   4.075   1.495
  525TIP3    H1 1539   1.793   4.129   1.512
  525TIP3    H2 1540   1.882   4.024   1.575
  526TIP3   OH2 1541   3.701   6.681   1.222
  526TIP3    H1 1542   3.678   6.590   1.201
  526TIP3    H2 1543   3.621   6.730   1.205
  527TIP3   OH2 1544   3.058   5.096   2.269
  527TIP3    H1 1545   3.151   5.118   2.257
  527TIP3    H2 1546   3.054   5.055   2.355
  528TIP3   OH2 1547   0.879   1.648  -0.007
  528TIP3    H1 1548   0.811   1.589  -0.040
  528TIP3    H2 1549   0.831   1.721   0.032
  529TIP3   OH2 1550   3.447   4.742   2.734
  529TIP3    H1 1551   3.409   4.830   2.729
  529TIP3    H2 1552   3.533   4.756   2.774
  530TIP3   OH2 1553   3.920   6.418   5.177
  530TIP3    H1 1554   4.006   6.394   5.144
  530TIP3    H2 1555   3.904   6.358   5.250
  531TIP3   OH2 1556   0.195   0.325   5.223
  531TIP3    H1 1557   0.213   0.235   5.250
  531TIP3    H2 1558   0.168   0.317   5.131
  532TIP3   OH2 1559   5.587   3.227   5.181
  532TIP3    H1 1560   5.594   3.300   5.243
  532TIP3    H2 1561   5.498   3.235   5.145
  533TIP3   OH2 1562   4.312   2.864   4.127
  533TIP3    H1 1563   4.328   2.928   4.197
  533TIP3    H2 1564   4.223   2.833   4.143
  534TIP3   OH2 1565   4.060   5.112   3.958
  534TIP3    H1 1566   3.993   5.089   3.894
  534TIP3    H2 1567   4.141   5.116   3.907
  535TIP3   OH2 1568   2.842   3.233   4.820
  535TIP3    H1 1569   2.772   3.189   4.772
  535TIP3    H2 1570   2.798   3.276   4.894
  536TIP3   OH2 1571   0.265   0.076   0.580
  536TIP3    H1 1572   0.357   0.098   0.568
  536TIP3    H2 1573   0.218   0.136   0.522
  537TIP3   OH2 1574   6.928   4.881   0.523
  537TIP3    H1 1575   6.974   4.803   0.493
  537TIP3    H2 1576   6.975   4.907   0.602
  538TIP3   OH2 1577   6.088   5.754   4.089
  538TIP3    H1 1578   6.065   5.711   4.007
  538TIP3    H2 1579   6.024   5.722   4.152
  539TIP3   OH2 1580   2.429   3.304   2.877
  539TIP3    H1 1581   2.455   3.212   2.876
  539TIP3    H2 1582   2.384   3.317   2.793
  540TIP3   OH2 1583   2.033   5.867   3.148
  540TIP3    H1 1584   1.938   5.873   3.159
  540TIP3    H2 1585   2.062   5.809   3.219
  541TIP3   OH2 1586   4.574   1.050   5.298
  541TIP3    H1 1587   4.573   1.065   5.203
  541TIP3    H2 1588   4.483   1.063   5.325
  542TIP3   OH2 1589   3.296   1.522   5.109
  542TIP3    H1 1590   3.330   1.593   5.054
  542TIP3    H2 1591   3.223   1.562   5.157
  543TIP3   OH2 1592   0.214   0.758   5.431
  543TIP3    H1 1593   0.258   0.805   5.502
  543TIP3    H2 1594   0.146   0.707   5.475
  544TIP3   OH2 1595   1.051   4.544   5.269
  544TIP3    H1 1596   1.029   4.521   5.179
  544TIP3    H2 1597   1.081   4.462   5.308
  545TIP3   OH2 1598   2.474   2.752   2.414
  545TIP3    H1 1599   2.508   2.830   2.458
  545TIP3    H2 1600   2.484   2.770   2.321
  546TIP3   OH2 1601   4.056   6.441   2.702
  546TIP3    H1 1602   3.989   6.464   2.637
  546TIP3    H2 1603   4.129   6.500   2.683
  547TIP3   OH2 1604   1.745   5.461   0.876
  547TIP3    H1 1605   1.804   5.428   0.808
  547TIP3    H2 1606   1.777   5.550   0.894
  548TIP3   OH2 1607   1.120   0.562   0.123
  548TIP3    H1 1608   1.115   0.501   0.049
  548TIP3    H2 1609   1.030   0.572   0.152
  549TIP3   OH2 1610   4.877   6.506   4.546
  549TIP3    H1 1611   4.910   6.416   4.549
  549TIP3    H2 1612   4.810   6.504   4.478
  550TIP3   OH2 1613   0.465   1.890   1.786
  550TIP3    H1 1614   0.438   1.982   1.786
  550TIP3    H2 1615   0.535   1.886   1.851
  551TIP3   OH2 1616   1.247   5.212   3.203
  551TIP3    H1 1617   1.179   5.167   3.253
  551TIP3    H2 1618   1.323   5.211   3.260
  552TIP3   OH2 1619   2.397   2.573   2.660
  552TIP3    H1 1620   2.324   2.524   2.698
  552TIP3    H2 1621   2.364   2.605   2.577
  553TIP3   OH2 1622   0.564   5.091   1.086
  553TIP3    H1 1623   0.626   5.159   1.060
  553TIP3    H2 1624   0.482   5.137   1.100
  554TIP3   OH2 1625   5.784   1.132   5.780
  554TIP3    H1 1626   5.753   1.210   5.824
  554TIP3    H2 1627   5.714   1.067   5.792
  555TIP3   OH2 1628   5.701   0.752   3.369
  555TIP3    H1 1629   5.721   0.667   3.408
  555TIP3    H2 1630   5.637   0.732   3.300
  556TIP3   OH2 1631   1.403   1.405   3.524
  556TIP3    H1 1632   1.408   1.441   3.613
  556TIP3    H2 1633   1.329   1.345   3.526
  557TIP3   OH2 1634   4.023   5.447   4.343
  557TIP3    H1 1635   4.067   5.396   4.275
  557TIP3    H2 1636   3.932   5.454   4.313
  558TIP3   OH2 1637   4.375   6.413   2.171
  558TIP3    H1 1638   4.355   6.339   2.228
  558TIP3    H2 1639   4.291   6.458   2.161
  559TIP3   OH2 1640   1.249   4.607   5.660
  559TIP3    H1 1641   1.202   4.667   5.602
  559TIP3    H2 1642   1.321   4.660   5.696
  560TIP3   OH2 1643   3.669   2.282   5.493
  560TIP3    H1 1644   3.744   2.327   5.456
  560TIP3    H2 1645   3.700   2.193   5.509
  561TIP3   OH2 1646   2.553   3.969   4.010
  561TIP3    H1 1647   2.535   3.974   4.104
  561TIP3    H2 1648   2.554   3.875   3.990
  562TIP3   OH2 1649   6.902   0.777   0.682
  562TIP3    H1 1650   6.899   0.713   0.753
  562TIP3    H2 1651   6.878   0.728   0.604
  563TIP3   OH2 1652   1.226   5.016   1.464
  563TIP3    H1 1653   1.196   5.086   1.406
  563TIP3    H2 1654   1.285   4.964   1.410
  564TIP3   OH2 1655   1.726   5.255   5.470
  564TIP3    H1 1656   1.733   5.207   5.552
  564TIP3    H2 1657   1.650   5.312   5.481
  565TIP3   OH2 1658   3.255   0.476   5.256
  565TIP3    H1 1659   3.218   0.542   5.314
  565TIP3    H2 1660   3.350   0.481   5.270
  566TIP3   OH2 1661   3.023   6.134   2.769
  566TIP3    H1 1662   2.934   6.109   2.745
  566TIP3    H2 1663   3.028   6.227   2.750
  567TIP3   OH2 1664   2.115   2.172   4.868
  567TIP3    H1 1665   2.062   2.205   4.940
  567TIP3    H2 1666   2.132   2.248   4.812
  568TIP3   OH2 1667   3.872   3.336   0.862
  568TIP3    H1 1668   3.885   3.430   0.859
  568TIP3    H2 1669   3.798   3.320   0.803
  569TIP3   OH2 1670   1.151   0.216   4.423
  569TIP3    H1 1671   1.210   0.214   4.499
  569TIP3    H2 1672   1.180   0.143   4.368
  570TIP3   OH2 1673   5.282   6.194   1.827
  570TIP3    H1 1674   5.352   6.240   1.874
  570TIP3    H2 1675   5.301   6.209   1.735
  571TIP3   OH2 1676   3.220   4.159   1.517
  571TIP3    H1 1677   3.276   4.095   1.474
  571TIP3    H2 1678   3.218   4.131   1.609
  572TIP3   OH2 1679   2.371   4.886   2.902
  572TIP3    H1 1680   2.323   4.849   2.977
  572TIP3    H2 1681   2.305   4.893   2.834
  573TIP3   OH2 1682   0.479   1.020   4.709
  573TIP3    H1 1683   0.535   0.947   4.680
  573TIP3    H2 1684   0.516   1.097   4.666
  574TIP3   OH2 1685   7.103   3.799   4.560
  574TIP3    H1 1686   7.042   3.785   4.487
  574TIP3    H2 1687   7.189   3.784   4.522
  575TIP3   OH2 1688   3.694   2.836   3.800
  575TIP3    H1 1689   3.770   2.779   3.788
  575TIP3    H2 1690   3.713   2.886   3.880
  576TIP3   OH2 1691   3.969   4.158   4.635
  576TIP3    H1 1692   3.895   4.103   4.611
  576TIP3    H2 1693   4.046   4.103   4.619
  577TIP3   OH2 1694   6.147   3.108   2.273
  577TIP3    H1 1695   6.106   3.122   2.188
  577TIP3    H2 1696   6.239   3.091   2.253
  578TIP3   OH2 1697   1.715   3.658   0.262
  578TIP3    H1 1698   1.651   3.664   0.333
  578TIP3    H2 1699   1.664   3.628   0.187
  579TIP3   OH2 1700   2.274   4.249   2.505
  579TIP3    H1 1701   2.295   4.156   2.498
  579TIP3    H2 1702   2.315   4.289   2.428
  580TIP3   OH2 1703   0.459   6.461   4.361
  580TIP3    H1 1704   0.553   6.447   4.348
  580TIP3    H2 1705   0.417   6.391   4.311
  581TIP3   OH2 1706   1.445   4.733   3.469
  581TIP3    H1 1707   1.469   4.722   3.377
  581TIP3    H2 1708   1.453   4.645   3.506
  582TIP3   OH2 1709   3.556   4.912   3.384
  582TIP3    H1 1710   3.619   4.887   3.318
  582TIP3    H2 1711   3.608   4.951   3.455
  583TIP3   OH2 1712   6.980   6.418   5.401
  583TIP3    H1 1713   7.039   6.355   5.359
  583TIP3    H2 1714   6.978   6.391   5.492
  584TIP3   OH2 1715   2.830   3.764   3.628
  584TIP3    H1 1716   2.913   3.777   3.675
  584TIP3    H2 1717   2.853   3.705   3.556
  585TIP3   OH2 1718   5.448   1.617   5.366
  585TIP3    H1 1719   5.409   1.693   5.409
  585TIP3    H2 1720   5.540   1.641   5.355
  586TIP3   OH2 1721   0.845   3.388   5.794
  586TIP3    H1 1722   0.803   3.314   5.838
  586TIP3    H2 1723   0.850   3.456   5.861
  587TIP3   OH2 1724   2.010   3.737   2.993
  587TIP3    H1 1725   1.983   3.659   3.040
  587TIP3    H2 1726   2.078   3.776   3.048
  588TIP3   OH2 1727   5.086   3.243   0.937
  588TIP3    H1 1728   5.166   3.277   0.977
  588TIP3    H2 1729   5.069   3.161   0.983
  589TIP3   OH2 1730   7.069   3.693   3.769
  589TIP3    H1 1731   7.072   3.787   3.786
  589TIP3    H2 1732   6.983   3.679   3.730
  590TIP3   OH2 1733   3.835   1.375   0.325
  590TIP3    H1 1734   3.754   1.425   0.318
  590TIP3    H2 1735   3.893   1.414   0.259
  591TIP3   OH2 1736   5.286   5.127   3.463
  591TIP3    H1 1737   5.200   5.167   3.479
  591TIP3    H2 1738   5.292   5.057   3.528
  592TIP3   OH2 1739   5.874   6.051   2.114
  592TIP3    H1 1740   5.793   6.098   2.133
  592TIP3    H2 1741   5.939   6.120   2.100
  593TIP3   OH2 1742   5.119   1.927   0.750
  593TIP3    H1 1743   5.181   1.985   0.795
  593TIP3    H2 1744   5.135   1.942   0.657
  594TIP3   OH2 1745   6.956   0.727   1.955
  594TIP3    H1 1746   6.954   0.822   1.942
  594TIP3    H2 1747   7.038   0.699   1.913
  595TIP3   OH2 1748   2.066   4.761   0.335
  595TIP3    H1 1749   1.987   4.809   0.360
  595TIP3    H2 1750   2.036   4.697   0.271
  596TIP3   OH2 1751   2.251   3.812   3.117
  596TIP3    H1 1752   2.327   3.774   3.073
  596TIP3    H2 1753   2.279   3.824   3.207
  597TIP3   OH2 1754   4.032   4.317   2.163
  597TIP3    H1 1755   4.012   4.236   2.116
  597TIP3    H2 1756   3.946   4.355   2.182
  598TIP3   OH2 1757   0.080   6.061   3.059
  598TIP3    H1 1758   0.149   6.032   3.120
  598TIP3    H2 1759   0.122   6.131   3.008
  599TIP3   OH2 1760   0.839   3.079   2.278
  599TIP3    H1 1761   0.838   3.118   2.365
  599TIP3    H2 1762   0.765   3.119   2.233
  600TIP3   OH2 1763   4.070   5.932   4.418
  600TIP3    H1 1764   4.165   5.921   4.410
  600TIP3    H2 1765   4.046   5.877   4.493
  601TIP3   OH2 1766   3.698   4.462   0.367
  601TIP3    H1 1767   3.663   4.534   0.315
  601TIP3    H2 1768   3.645   4.386   0.342
  602TIP3   OH2 1769   1.717   5.162   3.112
  602TIP3    H1 1770   1.784   5.167   3.181
  602TIP3    H2 1771   1.642   5.121   3.154
  603TIP3   OH2 1772   4.264   6.601   4.161
  603TIP3    H1 1773   4.177   6.560   4.167
  603TIP3    H2 1774   4.270   6.655   4.240
  604TIP3   OH2 1775   1.459   0.023   1.152
  604TIP3    H1 1776   1.462  -0.012   1.063
  604TIP3    H2 1777   1.409   0.105   1.144
  605TIP3   OH2 1778   6.114   3.847   3.585
  605TIP3    H1 1779   6.031   3.799   3.590
  605TIP3    H2 1780   6.174   3.797   3.640
  606TIP3   OH2 1781   7.185   3.872   0.019
  606TIP3    H1 1782   7.185   3.791   0.070
  606TIP3    H2 1783   7.209   3.940   0.082
  607TIP3   OH2 1784   6.679   0.911   0.280
  607TIP3    H1 1785   6.767   0.899   0.314
  607TIP3    H2 1786   6.687   0.984   0.218
  608TIP3   OH2 1787   6.431   6.078   5.802
  608TIP3    H1 1788   6.434   6.108   5.892
  608TIP3    H2 1789   6.391   5.991   5.807
  609TIP3   OH2 1790   4.434   5.035   5.176
  609TIP3    H1 1791   4.422   4.999   5.264
  609TIP3    H2 1792   4.512   5.090   5.183
  610TIP3   OH2 1793   3.999   1.398   0.726
  610TIP3    H1 1794   4.048   1.341   0.786
  610TIP3    H2 1795   3.961   1.465   0.783
  611TIP3   OH2 1796   4.521   1.195   0.180
  611TIP3    H1 1797   4.609   1.198   0.142
  611TIP3    H2 1798   4.512   1.277   0.227
  612TIP3   OH2 1799   6.802   2.390   4.056
  612TIP3    H1 1800   6.796   2.309   4.106
  612TIP3    H2 1801   6.854   2.368   3.980
  613TIP3   OH2 1802   5.155   5.414   1.381
  613TIP3    H1 1803   5.165   5.475   1.308
  613TIP3    H2 1804   5.195   5.333   1.351
  614TIP3   OH2 1805   3.914   2.963   4.319
  614TIP3    H1 1806   3.952   2.900   4.258
  614TIP3    H2 1807   3.873   3.029   4.262
  615TIP3   OH2 1808   4.358   3.238   1.578
  615TIP3    H1 1809   4.402   3.153   1.590
  615TIP3    H2 1810   4.268   3.215   1.553
  616TIP3   OH2 1811   2.914   3.326   3.005
  616TIP3    H1 1812   2.897   3.311   2.912
  616TIP3    H2 1813   2.957   3.412   3.008
  617TIP3   OH2 1814   3.501   5.705   1.665
  617TIP3    H1 1815   3.436   5.714   1.734
  617TIP3    H2 1816   3.556   5.632   1.693
  618TIP3   OH2 1817   3.326   5.348   5.324
  618TIP3    H1 1818   3.297   5.412   5.259
  618TIP3    H2 1819   3.303   5.263   5.286
  619TIP3   OH2 1820   3.498   3.856   1.996
  619TIP3    H1 1821   3.466   3.903   2.074
  619TIP3    H2 1822   3.591   3.844   2.012
  620TIP3   OH2 1823   4.017   4.740   4.813
  620TIP3    H1 1824   3.991   4.824   4.776
  620TIP3    H2 1825   3.971   4.675   4.760
  621TIP3   OH2 1826   1.715   3.824   2.593
  621TIP3    H1 1827   1.729   3.746   2.645
  621TIP3    H2 1828   1.755   3.895   2.644
  622TIP3   OH2 1829   4.719   5.270   4.973
  622TIP3    H1 1830   4.658   5.224   4.915
  622TIP3    H2 1831   4.713   5.361   4.945
  623TIP3   OH2 1832   4.387   0.676   3.071
  623TIP3    H1 1833   4.404   0.769   3.056
  623TIP3    H2 1834   4.302   0.660   3.031
  624TIP3   OH2 1835   1.499   4.984   3.101
  624TIP3    H1 1836   1.574   4.979   3.041
  624TIP3    H2 1837   1.437   4.918   3.068
  625TIP3   OH2 1838   1.787   6.643   5.169
  625TIP3    H1 1839   1.737   6.718   5.200
  625TIP3    H2 1840   1.721   6.582   5.136
  626TIP3   OH2 1841   1.072   6.140   2.141
  626TIP3    H1 1842   1.086   6.209   2.206
  626TIP3    H2 1843   1.125   6.067   2.172
  627TIP3   OH2 1844   1.587   3.528   3.397
  627TIP3    H1 1845   1.679   3.511   3.414
  627TIP3    H2 1846   1.580   3.530   3.301
  628TIP3   OH2 1847   6.551   4.097   1.107
  628TIP3    H1 1848   6.518   4.096   1.197
  628TIP3    H2 1849   6.499   4.031   1.062
  629TIP3   OH2 1850   2.866   3.332   1.908
  629TIP3    H1 1851   2.779   3.319   1.945
  629TIP3    H2 1852   2.897   3.244   1.886
  630TIP3   OH2 1853   4.599   1.590   1.466
  630TIP3    H1 1854   4.628   1.618   1.380
  630TIP3    H2 1855   4.581   1.496   1.456
  631TIP3   OH2 1856  -0.015   4.174   1.992
  631TIP3    H1 1857  -0.035   4.119   2.068
  631TIP3    H2 1858   0.035   4.248   2.028
  632TIP3   OH2 1859   3.610   1.536   2.663
  632TIP3    H1 1860   3.514   1.531   2.653
  632TIP3    H2 1861   3.629   1.629   2.666
  633TIP3   OH2 1862   4.915   4.792   3.997
  633TIP3    H1 1863   4.825   4.772   4.023
  633TIP3    H2 1864   4.913   4.884   3.972
  634TIP3   OH2 1865   0.217   0.558   0.680
  634TIP3    H1 1866   0.129   0.522   0.671
  634TIP3    H2 1867   0.218   0.599   0.766
  635TIP3   OH2 1868   0.733   2.528   3.385
  635TIP3    H1 1869   0.776   2.497   3.465
  635TIP3    H2 1870   0.666   2.589   3.416
  636TIP3   OH2 1871   3.871   2.143   5.871
  636TIP3    H1 1872   3.949   2.091   5.890
  636TIP3    H2 1873   3.903   2.231   5.852
  637TIP3   OH2 1874   5.979   5.148   3.374
  637TIP3    H1 1875   6.057   5.108   3.337
  637TIP3    H2 1876   5.949   5.085   3.440
  638TIP3   OH2 1877   4.206   5.189   4.329
  638TIP3    H1 1878   4.149   5.159   4.400
  638TIP3    H2 1879   4.146   5.223   4.263
  639TIP3   OH2 1880   5.733   6.046   5.250
  639TIP3    H1 1881   5.711   5.999   5.331
  639TIP3    H2 1882   5.664   6.021   5.189
  640TIP3   OH2 1883   3.474   0.923   3.608
  640TIP3    H1 1884   3.461   0.900   3.699
  640TIP3    H2 1885   3.462   0.841   3.560
  641TIP3   OH2 1886   1.230   3.999   5.703
  641TIP3    H1 1887   1.177   3.926   5.736
  641TIP3    H2 1888   1.284   3.960   5.634
  642TIP3   OH2 1889   6.635   2.740   4.275
  642TIP3    H1 1890   6.594   2.773   4.356
  642TIP3    H2 1891   6.585   2.781   4.205
  643TIP3   OH2 1892   1.859   5.448   5.681
  643TIP3    H1 1893   1.774   5.492   5.677
  643TIP3    H2 1894   1.861   5.393   5.603
  644TIP3   OH2 1895   2.884   6.675   2.383
  644TIP3    H1 1896   2.870   6.608   2.316
  644TIP3    H2 1897   2.796   6.692   2.418
  645TIP3   OH2 1898   1.598   5.437   5.089
  645TIP3    H1 1899   1.509   5.455   5.119
  645TIP3    H2 1900   1.606   5.489   5.009
  646TIP3   OH2 1901   6.857   5.648   5.017
  646TIP3    H1 1902   6.910   5.639   5.096
  646TIP3    H2 1903   6.874   5.567   4.968
  647TIP3   OH2 1904   3.208   5.946   0.541
  647TIP3    H1 1905   3.178   5.988   0.621
  647TIP3    H2 1906   3.288   5.900   0.566
  648TIP3   OH2 1907   3.899   3.980   0.497
  648TIP3    H1 1908   3.847   3.981   0.416
  648TIP3    H2 1909   3.926   4.071   0.510
  649TIP3   OH2 1910   5.902   6.421   0.251
  649TIP3    H1 1911   5.981   6.436   0.200
  649TIP3    H2 1912   5.878   6.330   0.232
  650TIP3   OH2 1913   1.666   1.768   0.717
  650TIP3    H1 1914   1.609   1.750   0.643
  650TIP3    H2 1915   1.609   1.759   0.794
  651TIP3   OH2 1916   5.530   5.410   2.337
  651TIP3    H1 1917   5.473   5.460   2.279
  651TIP3    H2 1918   5.540   5.465   2.415
  652TIP3   OH2 1919   5.756   2.819   5.085
  652TIP3    H1 1920   5.815   2.891   5.106
  652TIP3    H2 1921   5.689   2.858   5.029
  653TIP3   OH2 1922   0.440   4.234   0.830
  653TIP3    H1 1923   0.362   4.222   0.884
  653TIP3    H2 1924   0.409   4.222   0.741
  654TIP3   OH2 1925   0.171   5.126   3.721
  654TIP3    H1 1926   0.256   5.164   3.744
  654TIP3    H2 1927   0.120   5.201   3.689
  655TIP3   OH2 1928   0.902   6.609   1.876
  655TIP3    H1 1929   0.969   6.618   1.944
  655TIP3    H2 1930   0.894   6.514   1.863
  656TIP3   OH2 1931   0.085   2.622   1.954
  656TIP3    H1 1932   0.093   2.637   2.049
  656TIP3    H2 1933   0.097   2.709   1.915
  657TIP3   OH2 1934   4.354   3.703   1.748
  657TIP3    H1 1935   4.330   3.633   1.688
  657TIP3    H2 1936   4.272   3.727   1.791
  658TIP3   OH2 1937   5.237   4.430   4.313
  658TIP3    H1 1938   5.258   4.385   4.231
  658TIP3    H2 1939   5.304   4.499   4.320
  659TIP3   OH2 1940   5.568   6.516   3.937
  659TIP3    H1 1941   5.585   6.598   3.891
  659TIP3    H2 1942   5.487   6.483   3.898
  660TIP3   OH2 1943   2.109   4.211   4.504
  660TIP3    H1 1944   2.115   4.128   4.551
  660TIP3    H2 1945   2.030   4.203   4.451
  661TIP3   OH2 1946   3.434   3.931   1.474
  661TIP3    H1 1947   3.360   3.872   1.459
  661TIP3    H2 1948   3.498   3.877   1.521
  662TIP3   OH2 1949   5.103   0.162   3.509
  662TIP3    H1 1950   5.140   0.204   3.586
  662TIP3    H2 1951   5.029   0.111   3.542
  663TIP3   OH2 1952   0.478   6.686   1.397
  663TIP3    H1 1953   0.429   6.645   1.326
  663TIP3    H2 1954   0.567   6.696   1.362
  664TIP3   OH2 1955   2.828   3.662   0.989
  664TIP3    H1 1956   2.853   3.652   0.897
  664TIP3    H2 1957   2.733   3.673   0.987
  665TIP3   OH2 1958   3.768   1.776   3.685
  665TIP3    H1 1959   3.727   1.708   3.739
  665TIP3    H2 1960   3.706   1.848   3.686
  666TIP3   OH2 1961   6.578   3.304   3.883
  666TIP3    H1 1962   6.528   3.333   3.807
  666TIP3    H2 1963   6.544   3.356   3.955
  667TIP3   OH2 1964   6.235   4.950   2.293
  667TIP3    H1 1965   6.298   4.959   2.221
  667TIP3    H2 1966   6.168   4.891   2.257
  668TIP3   OH2 1967   0.929   4.178   0.633
  668TIP3    H1 1968   0.909   4.201   0.724
  668TIP3    H2 1969   1.020   4.205   0.621
  669TIP3   OH2 1970   4.964   5.606   0.742
  669TIP3    H1 1971   4.932   5.674   0.682
  669TIP3    H2 1972   4.990   5.534   0.684
  670TIP3   OH2 1973   2.271   5.467   3.445
  670TIP3    H1 1974   2.336   5.535   3.463
  670TIP3    H2 1975   2.249   5.432   3.531
  671TIP3   OH2 1976   6.780   6.345   4.568
  671TIP3    H1 1977   6.768   6.307   4.481
  671TIP3    H2 1978   6.753   6.437   4.558
  672TIP3   OH2 1979   2.006   3.995   3.926
  672TIP3    H1 1980   2.007   3.998   3.830
  672TIP3    H2 1981   2.097   4.007   3.951
  673TIP3   OH2 1982   4.720   0.714   1.712
  673TIP3    H1 1983   4.738   0.799   1.751
  673TIP3    H2 1984   4.703   0.656   1.786
  674TIP3   OH2 1985   4.033   4.759   5.115
  674TIP3    H1 1986   4.050   4.769   5.022
  674TIP3    H2 1987   4.098   4.696   5.145
  675TIP3   OH2 1988   1.711   0.425   4.120
  675TIP3    H1 1989   1.745   0.369   4.190
  675TIP3    H2 1990   1.727   0.514   4.151
  676TIP3   OH2 1991   1.139   6.804   4.482
  676TIP3    H1 1992   1.128   6.832   4.573
  676TIP3    H2 1993   1.217   6.851   4.451
  677TIP3   OH2 1994   2.164   6.049   4.701
  677TIP3    H1 1995   2.117   6.107   4.761
  677TIP3    H2 1996   2.256   6.075   4.710
  678TIP3   OH2 1997   1.721   4.862   4.270
  678TIP3    H1 1998   1.678   4.927   4.325
  678TIP3    H2 1999   1.679   4.870   4.185
  679TIP3   OH2 2000   1.688   6.113   5.708
  679TIP3    H1 2001   1.600   6.143   5.686
  679TIP3    H2 2002   1.717   6.066   5.630
  680TIP3   OH2 2003   2.480   4.855   5.471
  680TIP3    H1 2004   2.523   4.940   5.473
  680TIP3    H2 2005   2.410   4.861   5.536
  681TIP3   OH2 2006   1.744   1.759   1.280
  681TIP3    H1 2007   1.836   1.735   1.292
  681TIP3    H2 2008   1.731   1.756   1.185
  682TIP3   OH2 2009   4.465   4.639   2.931
  682TIP3    H1 2010   4.397   4.614   2.994
  682TIP3    H2 2011   4.453   4.734   2.920
  683TIP3   OH2 2012   6.901   2.548   2.437
  683TIP3    H1 2013   6.815   2.590   2.429
  683TIP3    H2 2014   6.927   2.528   2.347
  684TIP3   OH2 2015   6.059   1.719   1.141
  684TIP3    H1 2016   5.985   1.721   1.202
  684TIP3    H2 2017   6.114   1.647   1.173
  685TIP3   OH2 2018   6.697   0.875   5.096
  685TIP3    H1 2019   6.762   0.850   5.031
  685TIP3    H2 2020   6.627   0.811   5.087
  686TIP3   OH2 2021   7.146   2.222   1.277
  686TIP3    H1 2022   7.190   2.212   1.361
  686TIP3    H2 2023   7.142   2.133   1.241
  687TIP3   OH2 2024   3.329   4.989   4.228
  687TIP3    H1 2025   3.404   4.945   4.188
  687TIP3    H2 2026   3.259   4.982   4.163
  688TIP3   OH2 2027   2.211   1.116   3.936
  688TIP3    H1 2028   2.213   1.184   4.003
  688TIP3    H2 2029   2.197   1.035   3.985
  689TIP3   OH2 2030   0.914   4.970   0.545
  689TIP3    H1 2031   0.938   5.018   0.624
  689TIP3    H2 2032   0.943   5.026   0.473
  690TIP3   OH2 2033   3.596   2.203   4.662
  690TIP3    H1 2034   3.676   2.189   4.712
  690TIP3    H2 2035   3.548   2.270   4.711
  691TIP3   OH2 2036   4.690   0.578   0.251
  691TIP3    H1 2037   4.706   0.555   0.160
  691TIP3    H2 2038   4.776   0.570   0.293
  692TIP3   OH2 2039   3.555   0.675   4.084
  692TIP3    H1 2040   3.620   0.744   4.098
  692TIP3    H2 2041   3.513   0.663   4.169
  693TIP3   OH2 2042   4.628   3.621   3.726
  693TIP3    H1 2043   4.691   3.558   3.762
  693TIP3    H2 2044   4.548   3.570   3.712
  694TIP3   OH2 2045   4.359   1.607   3.096
  694TIP3    H1 2046   4.301   1.654   3.156
  694TIP3    H2 2047   4.447   1.625   3.129
  695TIP3   OH2 2048   1.412   0.430   3.246
  695TIP3    H1 2049   1.329   0.473   3.228
  695TIP3    H2 2050   1.447   0.476   3.322
  696TIP3   OH2 2051   5.250   6.398   5.763
  696TIP3    H1 2052   5.255   6.467   5.696
  696TIP3    H2 2053   5.173   6.347   5.738
  697TIP3   OH2 2054   4.459   3.153   2.576
  697TIP3    H1 2055   4.488   3.103   2.652
  697TIP3    H2 2056   4.434   3.239   2.611
  698TIP3   OH2 2057   5.869   3.392   5.581
  698TIP3    H1 2058   5.867   3.423   5.671
  698TIP3    H2 2059   5.787   3.344   5.570
  699TIP3   OH2 2060   5.680   6.136   3.168
  699TIP3    H1 2061   5.672   6.071   3.238
  699TIP3    H2 2062   5.646   6.217   3.206
  700TIP3   OH2 2063   5.570   1.394   3.698
  700TIP3    H1 2064   5.505   1.443   3.749
  700TIP3    H2 2065   5.634   1.460   3.671
  701TIP3   OH2 2066   3.349   6.498   4.535
  701TIP3    H1 2067   3.271   6.501   4.591
  701TIP3    H2 2068   3.405   6.433   4.577
  702TIP3   OH2 2069   1.471   5.410   3.343
  702TIP3    H1 2070   1.559   5.420   3.305
  702TIP3    H2 2071   1.483   5.429   3.436
  703TIP3   OH2 2072   4.715   5.183   5.789
  703TIP3    H1 2073   4.745   5.188   5.699
  703TIP3    H2 2074   4.733   5.269   5.826
  704TIP3   OH2 2075   3.719   6.276   2.833
  704TIP3    H1 2076   3.689   6.219   2.905
  704TIP3    H2 2077   3.674   6.359   2.848
  705TIP3   OH2 2078   2.440   6.127   2.983
  705TIP3    H1 2079   2.427   6.209   2.935
  705TIP3    H2 2080   2.356   6.111   3.026
  706TIP3   OH2 2081   3.476   0.463   0.663
  706TIP3    H1 2082   3.385   0.487   0.680
  706TIP3    H2 2083   3.512   0.538   0.615
  707TIP3   OH2 2084   0.012   3.805   4.878
  707TIP3    H1 2085   0.061   3.858   4.816
  707TIP3    H2 2086  -0.054   3.865   4.914
  708TIP3   OH2 2087   5.995   0.076   0.133
  708TIP3    H1 2088   5.964   0.088   0.043
  708TIP3    H2 2089   5.926   0.114   0.187
  709TIP3   OH2 2090   1.683   2.326   0.524
  709TIP3    H1 2091   1.714   2.350   0.611
  709TIP3    H2 2092   1.628   2.400   0.497
  710TIP3   OH2 2093   2.752   4.297   0.105
  710TIP3    H1 2094   2.678   4.236   0.104
  710TIP3    H2 2095   2.792   4.285   0.192
  711TIP3   OH2 2096   1.296   4.182   5.073
  711TIP3    H1 2097   1.383   4.144   5.079
  711TIP3    H2 2098   1.262   4.150   4.989
  712TIP3   OH2 2099   0.764   0.450   2.556
  712TIP3    H1 2100   0.691   0.484   2.609
  712TIP3    H2 2101   0.728   0.371   2.515
  713TIP3   OH2 2102   5.657   6.803   4.961
  713TIP3    H1 2103   5.639   6.881   4.909
  713TIP3    H2 2104   5.612   6.818   5.044
  714TIP3   OH2 2105   6.579   5.110   2.659
  714TIP3    H1 2106   6.647   5.051   2.626
  714TIP3    H2 2107   6.503   5.053   2.675
  715TIP3   OH2 2108   2.396   2.328   4.290
  715TIP3    H1 2109   2.354   2.242   4.287
  715TIP3    H2 2110   2.428   2.343   4.201
  716TIP3   OH2 2111   1.144   1.384   2.880
  716TIP3    H1 2112   1.161   1.330   2.803
  716TIP3    H2 2113   1.082   1.450   2.850
  717TIP3   OH2 2114   4.030   6.136   1.234
  717TIP3    H1 2115   4.009   6.167   1.146
  717TIP3    H2 2116   4.022   6.214   1.289
  718TIP3   OH2 2117   4.265   0.530   3.540
  718TIP3    H1 2118   4.265   0.452   3.485
  718TIP3    H2 2119   4.221   0.503   3.620
  719TIP3   OH2 2120   5.847   3.401   5.871
  719TIP3    H1 2121   5.794   3.428   5.946
  719TIP3    H2 2122   5.931   3.447   5.882
  720TIP3   OH2 2123   2.092   4.559   3.045
  720TIP3    H1 2124   2.168   4.511   3.013
  720TIP3    H2 2125   2.127   4.642   3.077
  721TIP3   OH2 2126   0.613   3.692   0.325
  721TIP3    H1 2127   0.566   3.774   0.340
  721TIP3    H2 2128   0.622   3.653   0.412
  722TIP3   OH2 2129   4.649   5.750   4.550
  722TIP3    H1 2130   4.582   5.750   4.481
  722TIP3    H2 2131   4.639   5.666   4.593
  723TIP3   OH2 2132   2.988   0.675   1.085
  723TIP3    H1 2133   2.963   0.756   1.128
  723TIP3    H2 2134   3.043   0.629   1.149
  724TIP3   OH2 2135   6.353   6.221   2.187
  724TIP3    H1 2136   6.333   6.279   2.261
  724TIP3    H2 2137   6.284   6.240   2.123
  725TIP3   OH2 2138   2.709   0.849   5.516
  725TIP3    H1 2139   2.658   0.927   5.537
  725TIP3    H2 2140   2.645   0.778   5.511
  726TIP3   OH2 2141   3.971   2.696   4.565
  726TIP3    H1 2142   4.003   2.705   4.475
  726TIP3    H2 2143   3.889   2.744   4.566
  727TIP3   OH2 2144   5.011   4.011   0.489
  727TIP3    H1 2145   5.007   4.092   0.438
  727TIP3    H2 2146   5.054   3.948   0.430
  728TIP3   OH2 2147   5.492   6.734   5.210
  728TIP3    H1 2148   5.424   6.676   5.244
  728TIP3    H2 2149   5.480   6.816   5.258
  729TIP3   OH2 2150   1.131   5.593   2.826
  729TIP3    H1 2151   1.193   5.520   2.819
  729TIP3    H2 2152   1.046   5.551   2.839
  730TIP3   OH2 2153   4.031   6.797   4.080
  730TIP3    H1 2154   4.087   6.754   4.015
  730TIP3    H2 2155   3.994   6.725   4.131
  731TIP3   OH2 2156   2.456   3.856   0.053
  731TIP3    H1 2157   2.453   3.800   0.131
  731TIP3    H2 2158   2.443   3.795  -0.020
  732TIP3   OH2 2159   6.439   6.489   3.377
  732TIP3    H1 2160   6.381   6.557   3.343
  732TIP3    H2 2161   6.381   6.418   3.404
  733TIP3   OH2 2162   6.929   0.794   4.920
  733TIP3    H1 2163   6.889   0.707   4.909
  733TIP3    H2 2164   6.943   0.825   4.831
  734TIP3   OH2 2165   3.248   3.399   5.074
  734TIP3    H1 2166   3.257   3.478   5.128
  734TIP3    H2 2167   3.338   3.375   5.052
  735TIP3   OH2 2168   3.284   3.761   3.350
  735TIP3    H1 2169   3.237   3.726   3.274
  735TIP3    H2 2170   3.299   3.853   3.329
  736TIP3   OH2 2171   5.423   4.204   0.142
  736TIP3    H1 2172   5.470   4.282   0.170
  736TIP3    H2 2173   5.333   4.233   0.130
  737TIP3   OH2 2174   6.554   3.354   5.570
  737TIP3    H1 2175   6.637   3.313   5.548
  737TIP3    H2 2176   6.489   3.283   5.566
  738TIP3   OH2 2177   5.807   6.724   0.671
  738TIP3    H1 2178   5.775   6.814   0.665
  738TIP3    H2 2179   5.820   6.710   0.765
  739TIP3   OH2 2180   3.289   1.985   0.206
  739TIP3    H1 2181   3.346   1.963   0.280
  739TIP3    H2 2182   3.346   1.980   0.129
  740TIP3   OH2 2183   3.426   1.586   1.989
  740TIP3    H1 2184   3.331   1.590   1.979
  740TIP3    H2 2185   3.461   1.602   1.901
  741TIP3   OH2 2186   5.101   3.560   0.699
  741TIP3    H1 2187   5.050   3.641   0.699
  741TIP3    H2 2188   5.081   3.518   0.615
  742TIP3   OH2 2189   6.030   2.712   3.384
  742TIP3    H1 2190   6.100   2.667   3.431
  742TIP3    H2 2191   6.004   2.784   3.443
  743TIP3   OH2 2192   4.208   0.695   0.001
  743TIP3    H1 2193   4.234   0.706   0.092
  743TIP3    H2 2194   4.271   0.748  -0.049
  744TIP3   OH2 2195   5.872   5.402   1.424
  744TIP3    H1 2196   5.948   5.395   1.366
  744TIP3    H2 2197   5.799   5.371   1.370
  745TIP3   OH2 2198   4.603   3.000   5.565
  745TIP3    H1 2199   4.624   3.005   5.658
  745TIP3    H2 2200   4.604   2.906   5.545
  746TIP3   OH2 2201   5.011   5.859   3.430
  746TIP3    H1 2202   4.993   5.777   3.476
  746TIP3    H2 2203   4.926   5.901   3.422
  747TIP3   OH2 2204   0.117   1.573   0.423
  747TIP3    H1 2205   0.058   1.564   0.348
  747TIP3    H2 2206   0.157   1.659   0.411
  748TIP3   OH2 2207   3.830   2.600   1.494
  748TIP3    H1 2208   3.811   2.692   1.512
  748TIP3    H2 2209   3.883   2.602   1.414
  749TIP3   OH2 2210   4.880   1.224   5.024
  749TIP3    H1 2211   4.973   1.209   5.043
  749TIP3    H2 2212   4.855   1.298   5.079
  750TIP3   OH2 2213   3.671   5.554   2.268
  750TIP3    H1 2214   3.680   5.524   2.359
  750TIP3    H2 2215   3.750   5.604   2.252
  751TIP3   OH2 2216   6.224   0.515   0.967
  751TIP3    H1 2217   6.313   0.551   0.963
  751TIP3    H2 2218   6.185   0.557   1.043
  752TIP3   OH2 2219   0.371   2.491   2.874
  752TIP3    H1 2220   0.433   2.418   2.879
  752TIP3    H2 2221   0.302   2.460   2.815
  753TIP3   OH2 2222   1.162   4.245   5.311
  753TIP3    H1 2223   1.236   4.255   5.371
  753TIP3    H2 2224   1.203   4.241   5.225
  754TIP3   OH2 2225   7.142   5.641   3.676
  754TIP3    H1 2226   7.062   5.680   3.641
  754TIP3    H2 2227   7.190   5.714   3.714
  755TIP3   OH2 2228   0.268   3.895   5.757
  755TIP3    H1 2229   0.282   3.977   5.710
  755TIP3    H2 2230   0.354   3.875   5.795
  756TIP3   OH2 2231   4.370   4.973   2.495
  756TIP3    H1 2232   4.298   4.951   2.435
  756TIP3    H2 2233   4.394   4.889   2.533
  757TIP3   OH2 2234   6.157   2.597   4.472
  757TIP3    H1 2235   6.071   2.638   4.480
  757TIP3    H2 2236   6.142   2.519   4.420
  758TIP3   OH2 2237   5.725   1.726   5.292
  758TIP3    H1 2238   5.794   1.680   5.244
  758TIP3    H2 2239   5.767   1.754   5.373
  759TIP3   OH2 2240   2.896   2.020   4.289
  759TIP3    H1 2241   2.931   1.999   4.376
  759TIP3    H2 2242   2.801   2.013   4.299
  760TIP3   OH2 2243   6.034   2.293   1.815
  760TIP3    H1 2244   6.016   2.227   1.748
  760TIP3    H2 2245   5.947   2.321   1.844
  761TIP3   OH2 2246   5.800   6.363   3.951
  761TIP3    H1 2247   5.861   6.389   4.020
  761TIP3    H2 2248   5.724   6.420   3.963
  762TIP3   OH2 2249   5.076   3.982   4.812
  762TIP3    H1 2250   5.084   3.930   4.892
  762TIP3    H2 2251   5.057   4.071   4.844
  763TIP3   OH2 2252   3.759   5.192   4.876
  763TIP3    H1 2253   3.825   5.144   4.926
  763TIP3    H2 2254   3.680   5.186   4.930
  764TIP3   OH2 2255   6.945   4.743   1.700
  764TIP3    H1 2256   6.924   4.650   1.694
  764TIP3    H2 2257   7.032   4.746   1.739
  765TIP3   OH2 2258   4.735   0.560   0.670
  765TIP3    H1 2259   4.682   0.573   0.749
  765TIP3    H2 2260   4.674   0.567   0.597
  766TIP3   OH2 2261   2.100   5.527   1.012
  766TIP3    H1 2262   2.119   5.519   1.105
  766TIP3    H2 2263   2.183   5.553   0.973
  767TIP3   OH2 2264   6.637   1.227   4.719
  767TIP3    H1 2265   6.573   1.243   4.649
  767TIP3    H2 2266   6.639   1.131   4.727
  768TIP3   OH2 2267   5.179   0.472   0.241
  768TIP3    H1 2268   5.107   0.534   0.246
  768TIP3    H2 2269   5.254   0.524   0.215
  769TIP3   OH2 2270   2.267   6.051   0.222
  769TIP3    H1 2271   2.233   6.012   0.141
  769TIP3    H2 2272   2.355   6.016   0.230
  770TIP3   OH2 2273   3.109   0.913   3.677
  770TIP3    H1 2274   3.077   0.823   3.671
  770TIP3    H2 2275   3.197   0.905   3.715
  771TIP3   OH2 2276   4.507   6.135   3.506
  771TIP3    H1 2277   4.510   6.197   3.433
  771TIP3    H2 2278   4.570   6.067   3.482
  772TIP3   OH2 2279   6.235   0.282   5.329
  772TIP3    H1 2280   6.143   0.276   5.302
  772TIP3    H2 2281   6.281   0.315   5.252
  773TIP3   OH2 2282   4.306   1.654   4.829
  773TIP3    H1 2283   4.231   1.671   4.887
  773TIP3    H2 2284   4.310   1.730   4.772
  774TIP3   OH2 2285   6.017   1.098   0.797
  774TIP3    H1 2286   5.968   1.104   0.715
  774TIP3    H2 2287   5.994   1.177   0.846
  775TIP3   OH2 2288   2.406   0.474   5.280
  775TIP3    H1 2289   2.476   0.409   5.267
  775TIP3    H2 2290   2.331   0.438   5.233
  776TIP3   OH2 2291   0.691   1.227   1.062
  776TIP3    H1 2292   0.603   1.231   1.098
  776TIP3    H2 2293   0.679   1.207   0.969
  777TIP3   OH2 2294   4.922   5.039   4.842
  777TIP3    H1 2295   4.853   5.056   4.906
  777TIP3    H2 2296   4.882   5.061   4.758
  778TIP3   OH2 2297   3.777   4.285   4.479
  778TIP3    H1 2298   3.861   4.316   4.513
  778TIP3    H2 2299   3.712   4.342   4.521
  779TIP3   OH2 2300   1.789   0.397   0.324
  779TIP3    H1 2301   1.844   0.368   0.252
  779TIP3    H2 2302   1.700   0.388   0.291
  780TIP3   OH2 2303   2.568   2.886   3.211
  780TIP3    H1 2304   2.569   2.805   3.262
  780TIP3    H2 2305   2.621   2.866   3.133
  781TIP3   OH2 2306   4.481   4.099   5.859
  781TIP3    H1 2307   4.470   4.005   5.866
  781TIP3    H2 2308   4.520   4.126   5.942
  782TIP3   OH2 2309   3.076   3.673   2.635
  782TIP3    H1 2310   3.005   3.728   2.602
  782TIP3    H2 2311   3.120   3.641   2.557
  783TIP3   OH2 2312   0.818   0.966   0.091
  783TIP3    H1 2313   0.822   0.933   0.181
  783TIP3    H2 2314   0.730   1.002   0.083
  784TIP3   OH2 2315   2.932   0.683   3.541
  784TIP3    H1 2316   2.838   0.698   3.556
  784TIP3    H2 2317   2.949   0.598   3.582
  785TIP3   OH2 2318   6.627   2.435   1.093
  785TIP3    H1 2319   6.584   2.416   1.010
  785TIP3    H2 2320   6.672   2.353   1.116
  786TIP3   OH2 2321   3.276   4.872   1.376
  786TIP3    H1 2322   3.193   4.892   1.333
  786TIP3    H2 2323   3.263   4.786   1.415
  787TIP3   OH2 2324   4.978   2.690   1.956
  787TIP3    H1 2325   4.937   2.678   2.042
  787TIP3    H2 2326   4.916   2.744   1.907
  788TIP3   OH2 2327   7.157   0.708   0.147
  788TIP3    H1 2328   7.139   0.756   0.066
  788TIP3    H2 2329   7.251   0.689   0.142
  789TIP3   OH2 2330   4.353   4.568   2.382
  789TIP3    H1 2331   4.316   4.513   2.451
  789TIP3    H2 2332   4.356   4.656   2.419
  790TIP3   OH2 2333   2.868   0.566   4.295
  790TIP3    H1 2334   2.912   0.505   4.236
  790TIP3    H2 2335   2.936   0.590   4.358
  791TIP3   OH2 2336   2.154   4.876   2.737
  791TIP3    H1 2337   2.114   4.926   2.808
  791TIP3    H2 2338   2.110   4.791   2.738
  792TIP3   OH2 2339   3.999   2.674   2.409
  792TIP3    H1 2340   4.083   2.706   2.442
  792TIP3    H2 2341   4.020   2.588   2.371
  793TIP3   OH2 2342   5.255   0.232   0.180
  793TIP3    H1 2343   5.208   0.310   0.207
  793TIP3    H2 2344   5.213   0.206   0.098
  794TIP3   OH2 2345   5.181   1.582   1.461
  794TIP3    H1 2346   5.091   1.601   1.434
  794TIP3    H2 2347   5.212   1.517   1.397
  795TIP3   OH2 2348   2.303   1.983   1.961
  795TIP3    H1 2349   2.262   2.069   1.951
  795TIP3    H2 2350   2.339   1.983   2.050
  796TIP3   OH2 2351   0.649   2.414   3.875
  796TIP3    H1 2352   0.693   2.358   3.938
  796TIP3    H2 2353   0.674   2.503   3.901
  797TIP3   OH2 2354   4.275   4.467   3.370
  797TIP3    H1 2355   4.361   4.443   3.403
  797TIP3    H2 2356   4.292   4.511   3.287
  798TIP3   OH2 2357   1.952   2.098   0.060
  798TIP3    H1 2358   1.867   2.054   0.058
  798TIP3    H2 2359   2.012   2.033   0.097
  799TIP3   OH2 2360   6.975   2.987   1.144
  799TIP3    H1 2361   7.056   2.973   1.094
  799TIP3    H2 2362   6.987   3.072   1.186
  800TIP3   OH2 2363   4.783   5.923   0.094
  800TIP3    H1 2364   4.727   5.869   0.038
  800TIP3    H2 2365   4.866   5.875   0.098
  801TIP3   OH2 2366   2.138   5.021   5.529
  801TIP3    H1 2367   2.075   5.069   5.475
  801TIP3    H2 2368   2.159   5.081   5.600
  802TIP3   OH2 2369   4.518   3.681   0.293
  802TIP3    H1 2370   4.514   3.601   0.241
  802TIP3    H2 2371   4.428   3.694   0.323
  803TIP3   OH2 2372   5.294  -0.021   5.777
  803TIP3    H1 2373   5.214   0.022   5.747
  803TIP3    H2 2374   5.322   0.031   5.853
  804TIP3   OH2 2375   6.477   4.675   3.318
  804TIP3    H1 2376   6.541   4.707   3.381
  804TIP3    H2 2377   6.529   4.636   3.248
  805TIP3   OH2 2378   5.616   3.469   3.497
  805TIP3    H1 2379   5.580   3.380   3.502
  805TIP3    H2 2380   5.607   3.503   3.587
  806TIP3   OH2 2381   1.672   6.158   0.175
  806TIP3    H1 2382   1.653   6.242   0.134
  806TIP3    H2 2383   1.652   6.172   0.268
  807TIP3   OH2 2384   1.401   1.371   1.103
  807TIP3    H1 2385   1.376   1.398   1.191
  807TIP3    H2 2386   1.320   1.341   1.063
  808TIP3   OH2 2387   3.162   1.757   4.429
  808TIP3    H1 2388   3.155   1.786   4.338
  808TIP3    H2 2389   3.238   1.804   4.464
  809TIP3   OH2 2390   6.469   0.427   4.435
  809TIP3    H1 2391   6.523   0.489   4.386
  809TIP3    H2 2392   6.488   0.342   4.396
  810TIP3   OH2 2393   5.973   4.945   3.577
  810TIP3    H1 2394   6.028   4.897   3.514
  810TIP3    H2 2395   5.960   4.883   3.649
  811TIP3   OH2 2396   2.807   5.234   3.513
  811TIP3    H1 2397   2.815   5.258   3.606
  811TIP3    H2 2398   2.766   5.148   3.514
  812TIP3   OH2 2399   4.000   1.985   2.677
  812TIP3    H1 2400   3.989   1.954   2.587
  812TIP3    H2 2401   4.092   2.007   2.683
  813TIP3   OH2 2402   0.374   0.704   2.069
  813TIP3    H1 2403   0.433   0.714   2.144
  813TIP3    H2 2404   0.382   0.787   2.021
  814TIP3   OH2 2405   5.490   5.844   5.218
  814TIP3    H1 2406   5.399   5.859   5.192
  814TIP3    H2 2407   5.515   5.763   5.173
  815TIP3   OH2 2408   2.926   6.301   0.756
  815TIP3    H1 2409   2.917   6.362   0.683
  815TIP3    H2 2410   2.853   6.239   0.744
  816TIP3   OH2 2411   7.162   3.956   3.663
  816TIP3    H1 2412   7.131   3.947   3.753
  816TIP3    H2 2413   7.114   4.031   3.628
  817TIP3   OH2 2414   4.755   2.023   2.907
  817TIP3    H1 2415   4.680   1.992   2.856
  817TIP3    H2 2416   4.830   1.980   2.867
  818TIP3   OH2 2417   0.096   0.825   1.159
  818TIP3    H1 2418   0.094   0.853   1.250
  818TIP3    H2 2419   0.168   0.874   1.120
  819TIP3   OH2 2420   5.731   6.404   5.612
  819TIP3    H1 2421   5.642   6.368   5.604
  819TIP3    H2 2422   5.776   6.373   5.534
  820TIP3   OH2 2423   3.023   3.389   2.737
  820TIP3    H1 2424   3.082   3.367   2.809
  820TIP3    H2 2425   3.043   3.480   2.716
  821TIP3   OH2 2426   0.151   3.700   2.952
  821TIP3    H1 2427   0.139   3.694   2.857
  821TIP3    H2 2428   0.199   3.782   2.965
  822TIP3   OH2 2429   0.141   6.205   2.636
  822TIP3    H1 2430   0.149   6.120   2.679
  822TIP3    H2 2431   0.077   6.192   2.567
  823TIP3   OH2 2432   1.535   3.617   0.027
  823TIP3    H1 2433   1.473   3.545   0.013
  823TIP3    H2 2434   1.613   3.590  -0.021
  824TIP3   OH2 2435   3.984   2.458   2.012
  824TIP3    H1 2436   3.988   2.544   1.971
  824TIP3    H2 2437   4.036   2.402   1.954
  825TIP3   OH2 2438   2.404   0.044   1.787
  825TIP3    H1 2439   2.311   0.050   1.808
  825TIP3    H2 2440   2.432   0.134   1.773
  826TIP3   OH2 2441   5.571   3.712   2.917
  826TIP3    H1 2442   5.557   3.772   2.843
  826TIP3    H2 2443   5.527   3.631   2.891
  827TIP3   OH2 2444   6.384   6.046   3.388
  827TIP3    H1 2445   6.464   6.057   3.439
  827TIP3    H2 2446   6.343   6.132   3.388
  828TIP3   OH2 2447   2.473   0.715   3.305
  828TIP3    H1 2448   2.407   0.706   3.236
  828TIP3    H2 2449   2.515   0.799   3.287
  829TIP3   OH2 2450   2.485   3.078   4.007
  829TIP3    H1 2451   2.564   3.095   4.059
  829TIP3    H2 2452   2.415   3.120   4.055
  830TIP3   OH2 2453   0.847   6.346   0.333
  830TIP3    H1 2454   0.917   6.331   0.396
  830TIP3    H2 2455   0.839   6.441   0.329
  831TIP3   OH2 2456   2.484   1.644   4.468
  831TIP3    H1 2457   2.436   1.706   4.413
  831TIP3    H2 2458   2.447   1.655   4.555
  832TIP3   OH2 2459   5.498   3.281   0.280
  832TIP3    H1 2460   5.463   3.224   0.348
  832TIP3    H2 2461   5.593   3.272   0.286
  833TIP3   OH2 2462   2.334   1.009   0.596
  833TIP3    H1 2463   2.375   0.951   0.661
  833TIP3    H2 2464   2.309   1.087   0.645
  834TIP3   OH2 2465   6.804   3.727   2.744
  834TIP3    H1 2466   6.716   3.719   2.781
  834TIP3    H2 2467   6.821   3.641   2.706
  835TIP3   OH2 2468   3.009   1.543   3.770
  835TIP3    H1 2469   2.928   1.497   3.748
  835TIP3    H2 2470   3.003   1.558   3.865
  836TIP3   OH2 2471   1.094   5.795   4.667
  836TIP3    H1 2472   1.095   5.794   4.763
  836TIP3    H2 2473   1.005   5.821   4.644
  837TIP3   OH2 2474   1.546   4.783   5.206
  837TIP3    H1 2475   1.491   4.736   5.143
  837TIP3    H2 2476   1.595   4.714   5.251
  838TIP3   OH2 2477   6.854   2.409   5.053
  838TIP3    H1 2478   6.842   2.343   5.121
  838TIP3    H2 2479   6.888   2.486   5.099
  839TIP3   OH2 2480   2.323   4.119   0.310
  839TIP3    H1 2481   2.410   4.095   0.342
  839TIP3    H2 2482   2.339   4.183   0.241
  840TIP3   OH2 2483   0.229   1.465   2.738
  840TIP3    H1 2484   0.295   1.479   2.806
  840TIP3    H2 2485   0.158   1.525   2.760
  841TIP3   OH2 2486   1.973   1.451   1.701
  841TIP3    H1 2487   1.967   1.510   1.626
  841TIP3    H2 2488   2.009   1.504   1.771
  842TIP3   OH2 2489   4.641   0.269   0.594
  842TIP3    H1 2490   4.654   0.184   0.636
  842TIP3    H2 2491   4.711   0.323   0.630
  843TIP3   OH2 2492   6.632   0.546   0.776
  843TIP3    H1 2493   6.591   0.460   0.782
  843TIP3    H2 2494   6.613   0.576   0.687
  844TIP3   OH2 2495   2.215   1.948   2.928
  844TIP3    H1 2496   2.225   1.943   2.833
  844TIP3    H2 2497   2.120   1.955   2.942
  845TIP3   OH2 2498   2.180   6.606   3.334
  845TIP3    H1 2499   2.250   6.668   3.352
  845TIP3    H2 2500   2.106   6.638   3.386
  846TIP3   OH2 2501   3.885   0.468   5.368
  846TIP3    H1 2502   3.896   0.519   5.449
  846TIP3    H2 2503   3.929   0.385   5.387
  847TIP3   OH2 2504   3.699   4.475   1.965
  847TIP3    H1 2505   3.720   4.507   2.053
  847TIP3    H2 2506   3.764   4.515   1.908
  848TIP3   OH2 2507   4.686   1.174   3.141
  848TIP3    H1 2508   4.748   1.101   3.132
  848TIP3    H2 2509   4.662   1.196   3.051
  849TIP3   OH2 2510   2.207   4.253   5.375
  849TIP3    H1 2511   2.298   4.242   5.402
  849TIP3    H2 2512   2.204   4.221   5.284
  850TIP3   OH2 2513   6.741   3.432   2.698
  850TIP3    H1 2514   6.672   3.393   2.644
  850TIP3    H2 2515   6.721   3.405   2.787
  851TIP3   OH2 2516   4.995   0.615   5.340
  851TIP3    H1 2517   5.072   0.579   5.384
  851TIP3    H2 2518   4.927   0.616   5.407
  852TIP3   OH2 2519   5.485   1.964   0.550
  852TIP3    H1 2520   5.566   1.914   0.544
  852TIP3    H2 2521   5.433   1.935   0.475
  853TIP3   OH2 2522   3.959   0.974   5.566
  853TIP3    H1 2523   3.912   0.909   5.618
  853TIP3    H2 2524   3.917   1.057   5.586
  854TIP3   OH2 2525   1.046   0.544   2.699
  854TIP3    H1 2526   1.063   0.637   2.683
  854TIP3    H2 2527   1.126   0.512   2.741
  855TIP3   OH2 2528   1.190   5.008   5.870
  855TIP3    H1 2529   1.105   4.967   5.858
  855TIP3    H2 2530   1.252   4.950   5.825
  856TIP3   OH2 2531   7.018   4.472   4.322
  856TIP3    H1 2532   6.924   4.476   4.303
  856TIP3    H2 2533   7.042   4.561   4.348
  857TIP3   OH2 2534   6.745   4.152   0.495
  857TIP3    H1 2535   6.746   4.059   0.472
  857TIP3    H2 2536   6.786   4.156   0.581
  858TIP3   OH2 2537   6.136   4.523   2.945
  858TIP3    H1 2538   6.046   4.538   2.915
  858TIP3    H2 2539   6.177   4.473   2.874
  859TIP3   OH2 2540   3.840   3.454   0.375
  859TIP3    H1 2541   3.865   3.546   0.385
  859TIP3    H2 2542   3.873   3.411   0.455
  860TIP3   OH2 2543   1.021   2.847   3.793
  860TIP3    H1 2544   0.933   2.829   3.759
  860TIP3    H2 2545   1.074   2.859   3.714
  861TIP3   OH2 2546   5.774   0.244   1.389
  861TIP3    H1 2547   5.719   0.269   1.463
  861TIP3    H2 2548   5.844   0.191   1.428
  862TIP3   OH2 2549   3.306   1.008   0.224
  862TIP3    H1 2550   3.285   0.961   0.143
  862TIP3    H2 2551   3.251   1.086   0.222
  863TIP3   OH2 2552   4.160   0.232   2.927
  863TIP3    H1 2553   4.241   0.243   2.878
  863TIP3    H2 2554   4.184   0.251   3.018
  864TIP3   OH2 2555   2.763   2.087   5.443
  864TIP3    H1 2556   2.772   2.020   5.374
  864TIP3    H2 2557   2.823   2.059   5.512
  865TIP3   OH2 2558   3.277   2.028   4.324
  865TIP3    H1 2559   3.347   2.081   4.363
  865TIP3    H2 2560   3.197   2.062   4.363
  866TIP3   OH2 2561   1.418   4.475   2.008
  866TIP3    H1 2562   1.365   4.427   2.071
  866TIP3    H2 2563   1.376   4.457   1.923
  867TIP3   OH2 2564   2.825   5.315   1.063
  867TIP3    H1 2565   2.812   5.284   0.973
  867TIP3    H2 2566   2.826   5.410   1.055
  868TIP3   OH2 2567   3.263   1.939   3.706
  868TIP3    H1 2568   3.265   2.031   3.733
  868TIP3    H2 2569   3.298   1.939   3.618
  869TIP3   OH2 2570   6.991   6.428   2.550
  869TIP3    H1 2571   7.075   6.464   2.522
  869TIP3    H2 2572   6.926   6.487   2.512
  870TIP3   OH2 2573   5.641   1.864   2.358
  870TIP3    H1 2574   5.570   1.890   2.417
  870TIP3    H2 2575   5.642   1.768   2.362
  871TIP3   OH2 2576   0.253   1.309   2.539
  871TIP3    H1 2577   0.183   1.343   2.483
  871TIP3    H2 2578   0.263   1.376   2.607
  872TIP3   OH2 2579   1.824   2.466   2.503
  872TIP3    H1 2580   1.892   2.525   2.536
  872TIP3    H2 2581   1.755   2.524   2.471
  873TIP3   OH2 2582   2.758   2.014   1.220
  873TIP3    H1 2583   2.770   1.933   1.171
  873TIP3    H2 2584   2.704   1.989   1.295
  874TIP3   OH2 2585   7.199   0.135   0.038
  874TIP3    H1 2586   7.286   0.103   0.013
  874TIP3    H2 2587   7.159   0.163  -0.045
  875TIP3   OH2 2588   6.247   4.887   3.638
  875TIP3    H1 2589   6.182   4.957   3.637
  875TIP3    H2 2590   6.233   4.843   3.722
  876TIP3   OH2 2591   2.137   2.203   1.979
  876TIP3    H1 2592   2.145   2.245   2.064
  876TIP3    H2 2593   2.054   2.236   1.943
  877TIP3   OH2 2594   4.042   4.387   1.609
  877TIP3    H1 2595   4.138   4.388   1.606
  877TIP3    H2 2596   4.020   4.298   1.636
  878TIP3   OH2 2597   6.111   5.984   3.821
  878TIP3    H1 2598   6.063   5.940   3.892
  878TIP3    H2 2599   6.050   5.983   3.748
  879TIP3   OH2 2600   4.845   2.801   4.100
  879TIP3    H1 2601   4.750   2.806   4.090
  879TIP3    H2 2602   4.865   2.708   4.101
  880TIP3   OH2 2603   0.233   1.239   4.035
  880TIP3    H1 2604   0.189   1.232   3.951
  880TIP3    H2 2605   0.291   1.163   4.038
  881TIP3   OH2 2606   3.398   1.737   4.156
  881TIP3    H1 2607   3.365   1.705   4.072
  881TIP3    H2 2608   3.484   1.695   4.165
  882TIP3   OH2 2609   1.750   2.877   0.040
  882TIP3    H1 2610   1.721   2.894  -0.050
  882TIP3    H2 2611   1.834   2.923   0.047
  883TIP3   OH2 2612   4.562   5.682   5.438
  883TIP3    H1 2613   4.482   5.669   5.489
  883TIP3    H2 2614   4.623   5.723   5.500
  884TIP3   OH2 2615   2.609   0.616   0.378
  884TIP3    H1 2616   2.635   0.673   0.451
  884TIP3    H2 2617   2.550   0.669   0.325
  885TIP3   OH2 2618   3.524   0.940   2.163
  885TIP3    H1 2619   3.529   0.998   2.239
  885TIP3    H2 2620   3.587   0.976   2.100
  886TIP3   OH2 2621   4.083   2.268   4.666
  886TIP3    H1 2622   3.991   2.279   4.688
  886TIP3    H2 2623   4.085   2.190   4.611
  887TIP3   OH2 2624   5.915   6.613   4.094
  887TIP3    H1 2625   5.866   6.657   4.164
  887TIP3    H2 2626   5.928   6.681   4.028
  888TIP3   OH2 2627   2.862   2.971   0.579
  888TIP3    H1 2628   2.849   2.929   0.494
  888TIP3    H2 2629   2.777   2.965   0.622
  889TIP3   OH2 2630   0.801   4.999   0.013
  889TIP3    H1 2631   0.730   5.059   0.033
  889TIP3    H2 2632   0.829   4.966   0.098
  890TIP3   OH2 2633   0.017   3.529   0.502
  890TIP3    H1 2634   0.046   3.607   0.455
  890TIP3    H2 2635  -0.037   3.482   0.439
  891TIP3   OH2 2636   3.120   0.543   1.281
  891TIP3    H1 2637   3.064   0.561   1.357
  891TIP3    H2 2638   3.202   0.589   1.301
  892TIP3   OH2 2639   6.012   1.160   4.627
  892TIP3    H1 2640   6.095   1.207   4.629
  892TIP3    H2 2641   5.950   1.220   4.668
  893TIP3   OH2 2642   1.275   3.351   4.179
  893TIP3    H1 2643   1.371   3.352   4.177
  893TIP3    H2 2644   1.253   3.260   4.202
  894TIP3   OH2 2645   2.334   6.344   0.043
  894TIP3    H1 2646   2.422   6.308   0.060
  894TIP3    H2 2647   2.304   6.297  -0.034
  895TIP3   OH2 2648   6.633   2.137   1.113
  895TIP3    H1 2649   6.620   2.126   1.019
  895TIP3    H2 2650   6.546   2.149   1.149
  896TIP3   OH2 2651   0.248   4.402   2.610
  896TIP3    H1 2652   0.333   4.418   2.651
  896TIP3    H2 2653   0.250   4.310   2.586
  897TIP3   OH2 2654   1.982   0.060   3.130
  897TIP3    H1 2655   1.898   0.035   3.090
  897TIP3    H2 2656   1.994   0.151   3.105
  898TIP3   OH2 2657   6.613   6.805   4.002
  898TIP3    H1 2658   6.701   6.792   3.965
  898TIP3    H2 2659   6.559   6.739   3.960
  899TIP3   OH2 2660   5.513   6.228   5.630
  899TIP3    H1 2661   5.583   6.185   5.678
  899TIP3    H2 2662   5.433   6.206   5.678
  900TIP3   OH2 2663   4.937   3.627   3.293
  900TIP3    H1 2664   5.010   3.687   3.308
  900TIP3    H2 2665   4.876   3.646   3.364
  901TIP3   OH2 2666   2.131   2.333   4.043
  901TIP3    H1 2667   2.181   2.256   4.071
  901TIP3    H2 2668   2.096   2.309   3.958
  902TIP3   OH2 2669   2.145   2.341   2.212
  902TIP3    H1 2670   2.181   2.429   2.211
  902TIP3    H2 2671   2.051   2.354   2.195
  903TIP3   OH2 2672   5.243   5.375   0.983
  903TIP3    H1 2673   5.184   5.395   1.056
  903TIP3    H2 2674   5.198   5.306   0.934
  904TIP3   OH2 2675   4.745   4.512   0.619
  904TIP3    H1 2676   4.707   4.522   0.532
  904TIP3    H2 2677   4.703   4.435   0.655
  905TIP3   OH2 2678   1.529   5.834   4.210
  905TIP3    H1 2679   1.524   5.871   4.122
  905TIP3    H2 2680   1.534   5.740   4.197
  906TIP3   OH2 2681   4.545   4.639   4.293
  906TIP3    H1 2682   4.557   4.692   4.372
  906TIP3    H2 2683   4.457   4.602   4.302
  907TIP3   OH2 2684   1.095   5.486   4.377
  907TIP3    H1 2685   1.029   5.417   4.373
  907TIP3    H2 2686   1.174   5.445   4.342
  908TIP3   OH2 2687   3.489   6.397   3.705
  908TIP3    H1 2688   3.481   6.480   3.658
  908TIP3    H2 2689   3.582   6.389   3.724
  909TIP3   OH2 2690   0.629   2.810   0.610
  909TIP3    H1 2691   0.663   2.723   0.587
  909TIP3    H2 2692   0.558   2.792   0.672
  910TIP3   OH2 2693   4.892   0.887   2.115
  910TIP3    H1 2694   4.900   0.925   2.202
  910TIP3    H2 2695   4.978   0.848   2.098
  911TIP3   OH2 2696   0.074   5.977   5.263
  911TIP3    H1 2697   0.069   5.950   5.171
  911TIP3    H2 2698   0.116   5.903   5.307
  912TIP3   OH2 2699   5.945   6.629   3.434
  912TIP3    H1 2700   5.946   6.612   3.528
  912TIP3    H2 2701   6.029   6.670   3.416
  913TIP3   OH2 2702   2.847   6.354   1.015
  913TIP3    H1 2703   2.876   6.368   0.925
  913TIP3    H2 2704   2.784   6.282   1.009
  914TIP3   OH2 2705   4.337   5.935   4.351
  914TIP3    H1 2706   4.394   6.007   4.324
  914TIP3    H2 2707   4.394   5.859   4.351
  915TIP3   OH2 2708   4.653   4.252   4.443
  915TIP3    H1 2709   4.741   4.224   4.420
  915TIP3    H2 2710   4.616   4.288   4.362
  916TIP3   OH2 2711   1.882   0.037   2.497
  916TIP3    H1 2712   1.908   0.069   2.584
  916TIP3    H2 2713   1.787   0.036   2.499
  917TIP3   OH2 2714   1.802   1.541   4.815
  917TIP3    H1 2715   1.824   1.618   4.763
  917TIP3    H2 2716   1.817   1.568   4.906
  918TIP3   OH2 2717   5.054   2.056   1.993
  918TIP3    H1 2718   4.976   2.004   1.975
  918TIP3    H2 2719   5.107   2.000   2.050
  919TIP3   OH2 2720   3.986   6.566   3.834
  919TIP3    H1 2721   4.003   6.482   3.876
  919TIP3    H2 2722   3.900   6.592   3.866
  920TIP3   OH2 2723   2.020   1.212   2.967
  920TIP3    H1 2724   2.065   1.145   3.020
  920TIP3    H2 2725   1.949   1.243   3.024
  921TIP3   OH2 2726   0.509   6.179   2.076
  921TIP3    H1 2727   0.477   6.089   2.080
  921TIP3    H2 2728   0.470   6.215   1.997
  922TIP3   OH2 2729   6.661   2.655   2.638
  922TIP3    H1 2730   6.635   2.644   2.547
  922TIP3    H2 2731   6.685   2.568   2.667
  923TIP3   OH2 2732   0.817   2.466   2.475
  923TIP3    H1 2733   0.904   2.462   2.515
  923TIP3    H2 2734   0.758   2.484   2.548
  924TIP3   OH2 2735   6.294   0.751   1.749
  924TIP3    H1 2736   6.268   0.673   1.797
  924TIP3    H2 2737   6.211   0.790   1.720
  925TIP3   OH2 2738   2.463   0.746   4.713
  925TIP3    H1 2739   2.544   0.694   4.711
  925TIP3    H2 2740   2.393   0.681   4.719
  926TIP3   OH2 2741   5.421   2.197   1.008
  926TIP3    H1 2742   5.505   2.158   1.035
  926TIP3    H2 2743   5.423   2.191   0.912
  927TIP3   OH2 2744   0.742   4.655   2.943
  927TIP3    H1 2745   0.661   4.671   2.992
  927TIP3    H2 2746   0.805   4.627   3.010
  928TIP3   OH2 2747   1.890   4.214   4.294
  928TIP3    H1 2748   1.908   4.138   4.237
  928TIP3    H2 2749   1.796   4.230   4.285
  929TIP3   OH2 2750   4.467   5.158   1.100
  929TIP3    H1 2751   4.503   5.234   1.054
  929TIP3    H2 2752   4.446   5.191   1.187
  930TIP3   OH2 2753   1.352   5.435   4.255
  930TIP3    H1 2754   1.357   5.486   4.174
  930TIP3    H2 2755   1.436   5.449   4.298
  931TIP3   OH2 2756   3.704   1.454   3.136
  931TIP3    H1 2757   3.660   1.488   3.214
  931TIP3    H2 2758   3.637   1.400   3.093
  932TIP3   OH2 2759   6.972   6.426   4.308
  932TIP3    H1 2760   6.976   6.336   4.274
  932TIP3    H2 2761   6.903   6.468   4.258
  933TIP3   OH2 2762   1.566   1.718   5.521
  933TIP3    H1 2763   1.651   1.675   5.512
  933TIP3    H2 2764   1.520   1.666   5.587
  934TIP3   OH2 2765   0.732   0.860   2.405
  934TIP3    H1 2766   0.799   0.927   2.396
  934TIP3    H2 2767   0.746   0.823   2.493
  935TIP3   OH2 2768   6.865   6.549  -0.027
  935TIP3    H1 2769   6.959   6.540  -0.013
  935TIP3    H2 2770   6.832   6.459  -0.030
  936TIP3   OH2 2771   4.346   5.122   3.148
  936TIP3    H1 2772   4.434   5.104   3.180
  936TIP3    H2 2773   4.288   5.095   3.219
  937TIP3   OH2 2774   6.637   2.103   2.584
  937TIP3    H1 2775   6.567   2.100   2.650
  937TIP3    H2 2776   6.691   2.027   2.603
  938TIP3   OH2 2777   1.286   0.634   2.998
  938TIP3    H1 2778   1.338   0.686   3.059
  938TIP3    H2 2779   1.228   0.583   3.055
  939TIP3   OH2 2780   5.563   2.223   2.706
  939TIP3    H1 2781   5.573   2.128   2.713
  939TIP3    H2 2782   5.651   2.254   2.684
  940TIP3   OH2 2783   0.094   5.551   1.933
  940TIP3    H1 2784   0.064   5.603   2.008
  940TIP3    H2 2785   0.016   5.541   1.879
  941TIP3   OH2 2786   6.832   6.716   5.059
  941TIP3    H1 2787   6.902   6.762   5.104
  941TIP3    H2 2788   6.873   6.637   5.025
  942TIP3   OH2 2789   2.513   2.882   4.759
  942TIP3    H1 2790   2.453   2.859   4.688
  942TIP3    H2 2791   2.465   2.861   4.839
  943TIP3   OH2 2792   4.185   6.390   0.890
  943TIP3    H1 2793   4.178   6.332   0.814
  943TIP3    H2 2794   4.099   6.386   0.931
  944TIP3   OH2 2795   4.811   1.438   3.243
  944TIP3    H1 2796   4.764   1.354   3.240
  944TIP3    H2 2797   4.742   1.504   3.232
  945TIP3   OH2 2798   0.272   3.062   2.301
  945TIP3    H1 2799   0.278   2.972   2.269
  945TIP3    H2 2800   0.353   3.075   2.351
  946TIP3   OH2 2801   0.370   2.250   4.784
  946TIP3    H1 2802   0.294   2.205   4.746
  946TIP3    H2 2803   0.338   2.337   4.806
  947TIP3   OH2 2804   6.153   5.196   2.410
  947TIP3    H1 2805   6.159   5.119   2.353
  947TIP3    H2 2806   6.243   5.219   2.429
  948TIP3   OH2 2807   6.509   0.079   1.656
  948TIP3    H1 2808   6.457   0.154   1.686
  948TIP3    H2 2809   6.598   0.114   1.649
  949TIP3   OH2 2810   3.542   4.808   5.245
  949TIP3    H1 2811   3.631   4.843   5.250
  949TIP3    H2 2812   3.490   4.866   5.301
  950TIP3   OH2 2813   0.784   0.937   4.841
  950TIP3    H1 2814   0.798   0.854   4.796
  950TIP3    H2 2815   0.693   0.934   4.868
  951TIP3   OH2 2816   4.472   0.921   3.019
  951TIP3    H1 2817   4.450   1.013   3.003
  951TIP3    H2 2818   4.502   0.889   2.934
  952TIP3   OH2 2819   5.308   1.501   5.636
  952TIP3    H1 2820   5.360   1.427   5.669
  952TIP3    H2 2821   5.272   1.470   5.553
  953TIP3   OH2 2822   6.800   2.119   4.130
  953TIP3    H1 2823   6.838   2.042   4.089
  953TIP3    H2 2824   6.816   2.107   4.224
  954TIP3   OH2 2825   2.128   1.515   2.138
  954TIP3    H1 2826   2.192   1.572   2.181
  954TIP3    H2 2827   2.099   1.456   2.208
  955TIP3   OH2 2828   2.543   0.700   3.577
  955TIP3    H1 2829   2.519   0.681   3.486
  955TIP3    H2 2830   2.602   0.629   3.601
  956TIP3   OH2 2831   5.675   4.005   2.956
  956TIP3    H1 2832   5.739   3.940   2.987
  956TIP3    H2 2833   5.590   3.970   2.983
  957TIP3   OH2 2834   6.204   4.097   1.091
  957TIP3    H1 2835   6.178   4.127   1.179
  957TIP3    H2 2836   6.138   4.135   1.033
  958TIP3   OH2 2837   1.304   6.120   3.148
  958TIP3    H1 2838   1.252   6.161   3.078
  958TIP3    H2 2839   1.318   6.030   3.118
  959TIP3   OH2 2840   2.439   0.398   1.298
  959TIP3    H1 2841   2.490   0.329   1.340
  959TIP3    H2 2842   2.452   0.384   1.205
  960TIP3   OH2 2843   5.815   6.488   0.984
  960TIP3    H1 2844   5.763   6.433   0.926
  960TIP3    H2 2845   5.801   6.577   0.951
  961TIP3   OH2 2846   1.571   2.926   1.623
  961TIP3    H1 2847   1.662   2.955   1.619
  961TIP3    H2 2848   1.568   2.850   1.565
  962TIP3   OH2 2849   2.955   4.152   4.675
  962TIP3    H1 2850   2.994   4.180   4.592
  962TIP3    H2 2851   2.953   4.232   4.728
  963TIP3   OH2 2852   6.474   0.881   1.935
  963TIP3    H1 2853   6.406   0.849   1.876
  963TIP3    H2 2854   6.553   0.832   1.909
  964TIP3   OH2 2855   1.589   3.937   5.343
  964TIP3    H1 2856   1.584   4.005   5.276
  964TIP3    H2 2857   1.632   3.979   5.417
  965TIP3   OH2 2858   0.882   5.981   1.134
  965TIP3    H1 2859   0.885   6.060   1.080
  965TIP3    H2 2860   0.894   6.013   1.223
  966TIP3   OH2 2861   0.462   5.110   3.316
  966TIP3    H1 2862   0.407   5.045   3.273
  966TIP3    H2 2863   0.495   5.066   3.394
  967TIP3   OH2 2864   5.629   2.767   4.581
  967TIP3    H1 2865   5.607   2.750   4.672
  967TIP3    H2 2866   5.618   2.861   4.570
  968TIP3   OH2 2867   2.135   2.891   5.831
  968TIP3    H1 2868   2.155   2.833   5.906
  968TIP3    H2 2869   2.191   2.967   5.845
  969TIP3   OH2 2870   5.333   6.023   4.051
  969TIP3    H1 2871   5.410   6.057   4.005
  969TIP3    H2 2872   5.358   5.935   4.079
  970TIP3   OH2 2873   4.586   1.248   3.386
  970TIP3    H1 2874   4.626   1.196   3.316
  970TIP3    H2 2875   4.505   1.282   3.348
  971TIP3   OH2 2876   3.578   3.357   1.002
  971TIP3    H1 2877   3.550   3.437   1.047
  971TIP3    H2 2878   3.555   3.372   0.911
  972TIP3   OH2 2879   0.447   2.395   1.597
  972TIP3    H1 2880   0.477   2.485   1.610
  972TIP3    H2 2881   0.362   2.390   1.641
  973TIP3   OH2 2882   2.290   2.035   5.392
  973TIP3    H1 2883   2.316   1.943   5.404
  973TIP3    H2 2884   2.365   2.085   5.424
  974TIP3   OH2 2885   6.345   3.252   3.390
  974TIP3    H1 2886   6.323   3.163   3.417
  974TIP3    H2 2887   6.336   3.251   3.295
  975TIP3   OH2 2888   6.197   4.809   3.034
  975TIP3    H1 2889   6.210   4.789   3.126
  975TIP3    H2 2890   6.182   4.725   2.992
  976TIP3   OH2 2891   2.112   1.541   5.140
  976TIP3    H1 2892   2.114   1.468   5.202
  976TIP3    H2 2893   2.199   1.541   5.099
  977TIP3   OH2 2894   1.399   0.025   1.872
  977TIP3    H1 2895   1.404   0.094   1.806
  977TIP3    H2 2896   1.470   0.045   1.933
  978TIP3   OH2 2897   1.547   5.546   3.011
  978TIP3    H1 2898   1.464   5.566   3.055
  978TIP3    H2 2899   1.537   5.581   2.922
  979TIP3   OH2 2900   1.070   2.417   2.053
  979TIP3    H1 2901   1.016   2.338   2.052
  979TIP3    H2 2902   1.034   2.469   2.125
  980TIP3   OH2 2903   2.360   3.469   3.535
  980TIP3    H1 2904   2.383   3.400   3.472
  980TIP3    H2 2905   2.443   3.494   3.575
  981TIP3   OH2 2906   6.765   0.932   5.442
  981TIP3    H1 2907   6.772   1.000   5.375
  981TIP3    H2 2908   6.780   0.850   5.395
  982TIP3   OH2 2909   6.629   5.867   5.399
  982TIP3    H1 2910   6.686   5.902   5.468
  982TIP3    H2 2911   6.671   5.894   5.317
  983TIP3   OH2 2912   1.472   4.943   1.017
  983TIP3    H1 2913   1.531   5.017   1.015
  983TIP3    H2 2914   1.458   4.925   1.110
  984TIP3   OH2 2915   1.014   1.289   5.204
  984TIP3    H1 2916   1.006   1.218   5.140
  984TIP3    H2 2917   0.959   1.359   5.170
  985TIP3   OH2 2918   3.474   4.885   1.101
  985TIP3    H1 2919   3.411   4.871   1.171
  985TIP3    H2 2920   3.449   4.824   1.032
  986TIP3   OH2 2921   3.214   1.042   4.574
  986TIP3    H1 2922   3.299   1.059   4.615
  986TIP3    H2 2923   3.230   0.967   4.516
  987TIP3   OH2 2924   2.307   5.906   4.929
  987TIP3    H1 2925   2.350   5.854   4.996
  987TIP3    H2 2926   2.361   5.984   4.921
  988TIP3   OH2 2927   6.700   6.766   5.873
  988TIP3    H1 2928   6.618   6.718   5.862
  988TIP3    H2 2929   6.678   6.840   5.930
  989TIP3   OH2 2930   4.861   5.328   3.976
  989TIP3    H1 2931   4.859   5.259   4.043
  989TIP3    H2 2932   4.769   5.348   3.960
  990TIP3   OH2 2933   5.772   2.448   0.939
  990TIP3    H1 2934   5.709   2.512   0.972
  990TIP3    H2 2935   5.846   2.500   0.908
  991TIP3   OH2 2936   4.797   5.743   3.833
  991TIP3    H1 2937   4.779   5.758   3.741
  991TIP3    H2 2938   4.797   5.831   3.872
  992TIP3   OH2 2939   6.190   3.728   1.270
  992TIP3    H1 2940   6.172   3.736   1.176
  992TIP3    H2 2941   6.268   3.674   1.274
  993TIP3   OH2 2942   1.449   6.348   0.115
  993TIP3    H1 2943   1.426   6.369   0.025
  993TIP3    H2 2944   1.409   6.262   0.131
  994TIP3   OH2 2945   4.723   1.896   3.141
  994TIP3    H1 2946   4.727   1.940   3.057
  994TIP3    H2 2947   4.653   1.940   3.189
  995TIP3   OH2 2948   3.756   0.021   0.526
  995TIP3    H1 2949   3.835   0.036   0.474
  995TIP3    H2 2950   3.707  -0.044   0.477
  996TIP3   OH2 2951   0.714   1.768   5.148
  996TIP3    H1 2952   0.755   1.841   5.195
  996TIP3    H2 2953   0.646   1.737   5.207
  997TIP3   OH2 2954   1.442   4.480   4.796
  997TIP3    H1 2955   1.534   4.486   4.771
  997TIP3    H2 2956   1.423   4.565   4.836
  998TIP3   OH2 2957   3.973   0.530   0.082
  998TIP3    H1 2958   4.056   0.569   0.108
  998TIP3    H2 2959   3.913   0.604   0.074
  999TIP3   OH2 2960   2.303   2.568   3.338
  999TIP3    H1 2961   2.212   2.585   3.361
  999TIP3    H2 2962   2.299   2.534   3.248
 1000TIP3   OH2 2963   7.123   1.840   3.744
 1000TIP3    H1 2964   7.203   1.887   3.721
 1000TIP3    H2 2965   7.055   1.880   3.690
 1001TIP3   OH2 2966   2.169   0.438   2.647
 1001TIP3    H1 2967   2.134   0.382   2.716
 1001TIP3    H2 2968   2.171   0.382   2.569
 1002TIP3   OH2 2969   4.998   5.598   5.598
 1002TIP3    H1 2970   4.915   5.558   5.623
 1002TIP3    H2 2971   4.974   5.676   5.548
 1003TIP3   OH2 2972   5.858   4.728   5.645
 1003TIP3    H1 2973   5.932   4.734   5.584
 1003TIP3    H2 2974   5.864   4.808   5.698
 1004TIP3   OH2 2975   2.734   3.703   4.406
 1004TIP3    H1 2976   2.751   3.793   4.435
 1004TIP3    H2 2977   2.686   3.663   4.477
 1005TIP3   OH2 2978   6.689   0.080   0.091
 1005TIP3    H1 2979   6.688  -0.011   0.060
 1005TIP3    H2 2980   6.735   0.076   0.175
 1006TIP3   OH2 2981   4.585   5.443   1.587
 1006TIP3    H1 2982   4.614   5.534   1.600
 1006TIP3    H2 2983   4.529   5.447   1.510
 1007TIP3   OH2 2984   2.361   1.714   1.831
 1007TIP3    H1 2985   2.409   1.656   1.891
 1007TIP3    H2 2986   2.321   1.780   1.887
 1008TIP3   OH2 2987   5.169   5.606   1.184
 1008TIP3    H1 2988   5.176   5.688   1.233
 1008TIP3    H2 2989   5.124   5.630   1.103
 1009TIP3   OH2 2990   1.971   1.661   0.250
 1009TIP3    H1 2991   1.984   1.578   0.297
 1009TIP3    H2 2992   1.878   1.681   0.263
 1010TIP3   OH2 2993   4.966   6.392   2.863
 1010TIP3    H1 2994   5.037   6.456   2.861
 1010TIP3    H2 2995   5.011   6.307   2.866
 1011TIP3   OH2 2996   0.508   3.614   3.600
 1011TIP3    H1 2997   0.516   3.606   3.505
 1011TIP3    H2 2998   0.562   3.543   3.634
 1012TIP3   OH2 2999   6.982   5.455   1.040
 1012TIP3    H1 3000   7.077   5.458   1.031
 1012TIP3    H2 3001   6.957   5.544   1.066
 1013TIP3   OH2 3002   4.892   0.366   0.368
 1013TIP3    H1 3003   4.920   0.275   0.373
 1013TIP3    H2 3004   4.935   0.409   0.442
 1014TIP3   OH2 3005   5.257   2.061   4.022
 1014TIP3    H1 3006   5.269   2.139   3.968
 1014TIP3    H2 3007   5.335   2.058   4.077
 1015TIP3   OH2 3008   4.248   3.423   2.319
 1015TIP3    H1 3009   4.188   3.402   2.391
 1015TIP3    H2 3010   4.192   3.461   2.252
 1016TIP3   OH2 3011   3.412   1.806   0.538
 1016TIP3    H1 3012   3.506   1.793   0.552
 1016TIP3    H2 3013   3.395   1.893   0.573
 1017TIP3   OH2 3014   6.861   3.558   1.515
 1017TIP3    H1 3015   6.768   3.575   1.500
 1017TIP3    H2 3016   6.863   3.491   1.583
 1018TIP3   OH2 3017   6.455   2.926   5.192
 1018TIP3    H1 3018   6.441   2.878   5.274
 1018TIP3    H2 3019   6.449   3.018   5.218
 1019TIP3   OH2 3020   4.317   3.336   1.912
 1019TIP3    H1 3021   4.374   3.260   1.923
 1019TIP3    H2 3022   4.372   3.411   1.936
 1020TIP3   OH2 3023   1.221   3.734   1.508
 1020TIP3    H1 3024   1.205   3.667   1.442
 1020TIP3    H2 3025   1.207   3.817   1.463
 1021TIP3   OH2 3026   5.463   3.737   2.327
 1021TIP3    H1 3027   5.502   3.768   2.246
 1021TIP3    H2 3028   5.400   3.670   2.300
 1022TIP3   OH2 3029   5.290   6.653   4.043
 1022TIP3    H1 3030   5.349   6.602   4.098
 1022TIP3    H2 3031   5.304   6.619   3.954
 1023TIP3   OH2 3032   3.051   5.476   2.489
 1023TIP3    H1 3033   2.964   5.467   2.450
 1023TIP3    H2 3034   3.050   5.416   2.564
 1024TIP3   OH2 3035   3.771   5.769   1.908
 1024TIP3    H1 3036   3.793   5.693   1.961
 1024TIP3    H2 3037   3.689   5.802   1.947
 1025TIP3   OH2 3038   3.548   2.619   1.797
 1025TIP3    H1 3039   3.550   2.611   1.702
 1025TIP3    H2 3040   3.492   2.695   1.814
 1026TIP3   OH2 3041   4.625   5.763   1.033
 1026TIP3    H1 3042   4.708   5.810   1.028
 1026TIP3    H2 3043   4.605   5.741   0.942
 1027TIP3   OH2 3044   4.571   1.372   2.157
 1027TIP3    H1 3045   4.624   1.430   2.211
 1027TIP3    H2 3046   4.512   1.430   2.109
 1028TIP3   OH2 3047   4.100   0.889   5.362
 1028TIP3    H1 3048   4.063   0.924   5.442
 1028TIP3    H2 3049   4.026   0.851   5.315
 1029TIP3   OH2 3050   2.183   6.311   0.294
 1029TIP3    H1 3051   2.218   6.222   0.288
 1029TIP3    H2 3052   2.217   6.355   0.216
 1030TIP3   OH2 3053   6.916   3.397   2.136
 1030TIP3    H1 3054   6.977   3.451   2.187
 1030TIP3    H2 3055   6.831   3.413   2.176
 1031TIP3   OH2 3056   2.334   0.059   1.335
 1031TIP3    H1 3057   2.365  -0.031   1.343
 1031TIP3    H2 3058   2.412   0.113   1.348
 1032TIP3   OH2 3059   1.990   4.450   2.431
 1032TIP3    H1 3060   1.961   4.440   2.522
 1032TIP3    H2 3061   1.960   4.371   2.387
 1033TIP3   OH2 3062   5.839   4.211   0.508
 1033TIP3    H1 3063   5.771   4.159   0.466
 1033TIP3    H2 3064   5.816   4.211   0.601
 1034TIP3   OH2 3065   4.338   2.146   2.445
 1034TIP3    H1 3066   4.381   2.102   2.518
 1034TIP3    H2 3067   4.262   2.188   2.484
 1035TIP3   OH2 3068   5.443   0.749   5.784
 1035TIP3    H1 3069   5.374   0.710   5.730
 1035TIP3    H2 3070   5.409   0.745   5.874
 1036TIP3   OH2 3071   4.393   6.575   1.184
 1036TIP3    H1 3072   4.334   6.647   1.203
 1036TIP3    H2 3073   4.474   6.617   1.155
 1037TIP3   OH2 3074   5.715   4.784   5.049
 1037TIP3    H1 3075   5.746   4.761   4.962
 1037TIP3    H2 3076   5.622   4.759   5.050
 1038TIP3   OH2 3077   3.321   5.302   1.237
 1038TIP3    H1 3078   3.252   5.367   1.227
 1038TIP3    H2 3079   3.297   5.232   1.176
 1039TIP3   OH2 3080   5.018   3.020   2.383
 1039TIP3    H1 3081   4.947   3.053   2.438
 1039TIP3    H2 3082   5.028   2.928   2.410
 1040TIP3   OH2 3083   0.524   6.524   3.652
 1040TIP3    H1 3084   0.582   6.457   3.614
 1040TIP3    H2 3085   0.506   6.492   3.740
 1041TIP3   OH2 3086   5.601   4.046   0.391
 1041TIP3    H1 3087   5.573   4.076   0.304
 1041TIP3    H2 3088   5.531   4.073   0.450
 1042TIP3   OH2 3089   1.255   5.379   1.937
 1042TIP3    H1 3090   1.275   5.473   1.928
 1042TIP3    H2 3091   1.180   5.365   1.879
 1043TIP3   OH2 3092   1.568   0.885   4.217
 1043TIP3    H1 3093   1.584   0.963   4.269
 1043TIP3    H2 3094   1.502   0.836   4.266
 1044TIP3   OH2 3095   5.390   4.166   4.419
 1044TIP3    H1 3096   5.360   4.256   4.431
 1044TIP3    H2 3097   5.419   4.161   4.328
 1045TIP3   OH2 3098   2.835   0.094   5.802
 1045TIP3    H1 3099   2.896   0.062   5.869
 1045TIP3    H2 3100   2.773   0.022   5.790
 1046TIP3   OH2 3101   1.599   2.220   3.087
 1046TIP3    H1 3102   1.577   2.291   3.147
 1046TIP3    H2 3103   1.693   2.228   3.074
 1047TIP3   OH2 3104   6.217   4.144   1.993
 1047TIP3    H1 3105   6.269   4.084   1.939
 1047TIP3    H2 3106   6.280   4.211   2.021
 1048TIP3   OH2 3107   3.952  -0.022   4.696
 1048TIP3    H1 3108   4.035   0.027   4.697
 1048TIP3    H2 3109   3.923  -0.018   4.605
 1049TIP3   OH2 3110   4.569   6.669   0.792
 1049TIP3    H1 3111   4.600   6.669   0.883
 1049TIP3    H2 3112   4.649   6.660   0.740
 1050TIP3   OH2 3113   0.744   2.205   3.484
 1050TIP3    H1 3114   0.811   2.151   3.443
 1050TIP3    H2 3115   0.792   2.279   3.521
 1051TIP3   OH2 3116   1.918   6.530   0.982
 1051TIP3    H1 3117   1.903   6.493   0.895
 1051TIP3    H2 3118   1.948   6.457   1.035
 1052TIP3   OH2 3119   0.699   1.264   4.416
 1052TIP3    H1 3120   0.780   1.266   4.467
 1052TIP3    H2 3121   0.722   1.216   4.336
 1053TIP3   OH2 3122   6.833   4.445   0.846
 1053TIP3    H1 3123   6.801   4.507   0.913
 1053TIP3    H2 3124   6.783   4.365   0.862
 1054TIP3   OH2 3125   0.765   0.353   4.979
 1054TIP3    H1 3126   0.676   0.319   4.986
 1054TIP3    H2 3127   0.765   0.432   5.033
 1055TIP3   OH2 3128   2.967   3.343   4.559
 1055TIP3    H1 3129   2.918   3.343   4.642
 1055TIP3    H2 3130   3.030   3.271   4.568
 1056TIP3   OH2 3131   0.462   4.158   3.216
 1056TIP3    H1 3132   0.391   4.113   3.262
 1056TIP3    H2 3133   0.483   4.100   3.142
 1057TIP3   OH2 3134   6.400   6.766   3.237
 1057TIP3    H1 3135   6.456   6.752   3.160
 1057TIP3    H2 3136   6.426   6.853   3.269
 1058TIP3   OH2 3137   1.296   5.381   2.770
 1058TIP3    H1 3138   1.330   5.350   2.685
 1058TIP3    H2 3139   1.335   5.322   2.834
 1059TIP3   OH2 3140   7.154   2.076   1.019
 1059TIP3    H1 3141   7.249   2.065   1.023
 1059TIP3    H2 3142   7.119   1.987   1.025
 1060TIP3   OH2 3143   6.501   1.779   5.615
 1060TIP3    H1 3144   6.476   1.834   5.541
 1060TIP3    H2 3145   6.595   1.794   5.625
 1061TIP3   OH2 3146   5.089   1.138   1.753
 1061TIP3    H1 3147   5.085   1.224   1.711
 1061TIP3    H2 3148   5.134   1.153   1.836
 1062TIP3   OH2 3149   1.576   1.237   0.626
 1062TIP3    H1 3150   1.604   1.223   0.717
 1062TIP3    H2 3151   1.544   1.327   0.624
 1063TIP3   OH2 3152   6.696   2.060   3.702
 1063TIP3    H1 3153   6.621   2.107   3.738
 1063TIP3    H2 3154   6.676   2.052   3.609
 1064TIP3   OH2 3155   1.908   5.449   0.176
 1064TIP3    H1 3156   1.822   5.453   0.134
 1064TIP3    H2 3157   1.968   5.428   0.105
 1065TIP3   OH2 3158   1.505   6.354   3.676
 1065TIP3    H1 3159   1.447   6.280   3.657
 1065TIP3    H2 3160   1.494   6.412   3.600
 1066TIP3   OH2 3161   2.435   5.304   4.868
 1066TIP3    H1 3162   2.345   5.320   4.837
 1066TIP3    H2 3163   2.439   5.349   4.953
 1067TIP3   OH2 3164   0.074   1.271   4.958
 1067TIP3    H1 3165   0.124   1.351   4.946
 1067TIP3    H2 3166   0.035   1.254   4.872
 1068TIP3   OH2 3167   5.550   5.715   1.274
 1068TIP3    H1 3168   5.612   5.732   1.203
 1068TIP3    H2 3169   5.496   5.793   1.278
 1069TIP3   OH2 3170   0.438   5.629   2.831
 1069TIP3    H1 3171   0.398   5.584   2.756
 1069TIP3    H2 3172   0.529   5.640   2.805
 1070TIP3   OH2 3173   3.680   0.998   5.697
 1070TIP3    H1 3174   3.686   0.904   5.716
 1070TIP3    H2 3175   3.596   1.008   5.653
 1071TIP3   OH2 3176   4.047   4.769   3.536
 1071TIP3    H1 3177   4.095   4.694   3.571
 1071TIP3    H2 3178   4.002   4.735   3.459
 1072TIP3   OH2 3179   5.827   1.176   2.190
 1072TIP3    H1 3180   5.831   1.164   2.095
 1072TIP3    H2 3181   5.792   1.264   2.202
 1073TIP3   OH2 3182   3.987   3.360   0.591
 1073TIP3    H1 3183   4.066   3.399   0.628
 1073TIP3    H2 3184   3.949   3.311   0.663
 1074TIP3   OH2 3185   3.652   2.542   5.654
 1074TIP3    H1 3186   3.637   2.586   5.571
 1074TIP3    H2 3187   3.622   2.605   5.720
 1075TIP3   OH2 3188   1.107   4.651   3.834
 1075TIP3    H1 3189   1.087   4.658   3.740
 1075TIP3    H2 3190   1.172   4.581   3.839
 1076TIP3   OH2 3191   2.700   0.231   0.663
 1076TIP3    H1 3192   2.665   0.319   0.652
 1076TIP3    H2 3193   2.631   0.183   0.708
 1077TIP3   OH2 3194   6.215   5.277   1.080
 1077TIP3    H1 3195   6.269   5.230   1.017
 1077TIP3    H2 3196   6.135   5.299   1.033
 1078TIP3   OH2 3197   4.837   1.587   2.662
 1078TIP3    H1 3198   4.753   1.606   2.621
 1078TIP3    H2 3199   4.848   1.657   2.727
 1079TIP3   OH2 3200   6.916   4.934   1.042
 1079TIP3    H1 3201   6.862   5.012   1.054
 1079TIP3    H2 3202   6.863   4.875   0.989
 1080TIP3   OH2 3203   0.045   2.074   2.582
 1080TIP3    H1 3204   0.129   2.117   2.596
 1080TIP3    H2 3205   0.034   2.016   2.657
 1081TIP3   OH2 3206   5.065   6.425   5.376
 1081TIP3    H1 3207   5.020   6.432   5.460
 1081TIP3    H2 3208   5.097   6.335   5.373
 1082TIP3   OH2 3209   3.226   0.594   1.978
 1082TIP3    H1 3210   3.252   0.684   2.000
 1082TIP3    H2 3211   3.183   0.603   1.893
 1083TIP3   OH2 3212   2.329   2.638   2.170
 1083TIP3    H1 3213   2.308   2.645   2.077
 1083TIP3    H2 3214   2.386   2.561   2.175
 1084TIP3   OH2 3215   6.386   5.981   3.127
 1084TIP3    H1 3216   6.332   6.046   3.081
 1084TIP3    H2 3217   6.384   6.009   3.218
 1085TIP3   OH2 3218   3.563   4.898   4.159
 1085TIP3    H1 3219   3.570   4.857   4.246
 1085TIP3    H2 3220   3.582   4.827   4.098
 1086TIP3   OH2 3221   5.486   5.773   2.190
 1086TIP3    H1 3222   5.446   5.722   2.119
 1086TIP3    H2 3223   5.580   5.765   2.174
 1087TIP3   OH2 3224   6.916   4.101   5.256
 1087TIP3    H1 3225   6.822   4.120   5.251
 1087TIP3    H2 3226   6.956   4.165   5.197
 1088TIP3   OH2 3227   2.646   6.478   1.183
 1088TIP3    H1 3228   2.694   6.464   1.265
 1088TIP3    H2 3229   2.700   6.434   1.116
 1089TIP3   OH2 3230   0.954   1.255   2.574
 1089TIP3    H1 3231   1.038   1.233   2.615
 1089TIP3    H2 3232   0.952   1.350   2.573
 1090TIP3   OH2 3233   5.377   2.967   2.156
 1090TIP3    H1 3234   5.343   2.952   2.068
 1090TIP3    H2 3235   5.344   2.893   2.207
 1091TIP3   OH2 3236   6.421   0.532   1.327
 1091TIP3    H1 3237   6.469   0.459   1.367
 1091TIP3    H2 3238   6.463   0.544   1.241
 1092TIP3   OH2 3239   0.094   2.376   2.991
 1092TIP3    H1 3240   0.081   2.467   3.017
 1092TIP3    H2 3241   0.074   2.375   2.897
 1093TIP3   OH2 3242   0.637   0.884   2.687
 1093TIP3    H1 3243   0.722   0.840   2.698
 1093TIP3    H2 3244   0.659   0.970   2.652
 1094TIP3   OH2 3245   5.787   1.011   3.487
 1094TIP3    H1 3246   5.759   0.938   3.433
 1094TIP3    H2 3247   5.739   1.000   3.570
 1095TIP3   OH2 3248   3.355   5.742   0.153
 1095TIP3    H1 3249   3.322   5.759   0.065
 1095TIP3    H2 3250   3.434   5.795   0.159
 1096TIP3   OH2 3251   0.150   5.796   3.457
 1096TIP3    H1 3252   0.121   5.712   3.492
 1096TIP3    H2 3253   0.074   5.833   3.414
 1097TIP3   OH2 3254   2.573   1.788   0.434
 1097TIP3    H1 3255   2.649   1.780   0.377
 1097TIP3    H2 3256   2.608   1.818   0.518
 1098TIP3   OH2 3257   7.143   6.752   2.692
 1098TIP3    H1 3258   7.213   6.688   2.683
 1098TIP3    H2 3259   7.115   6.770   2.602
 1099TIP3   OH2 3260   4.771  -0.002   4.641
 1099TIP3    H1 3261   4.809  -0.009   4.729
 1099TIP3    H2 3262   4.757  -0.092   4.613
 1100TIP3   OH2 3263   6.178   5.016   4.152
 1100TIP3    H1 3264   6.150   4.962   4.078
 1100TIP3    H2 3265   6.111   5.002   4.219
 1101TIP3   OH2 3266   3.311   1.705   0.071
 1101TIP3    H1 3267   3.403   1.710   0.097
 1101TIP3    H2 3268   3.265   1.685   0.153
 1102TIP3   OH2 3269   3.420   0.594   2.581
 1102TIP3    H1 3270   3.470   0.654   2.636
 1102TIP3    H2 3271   3.408   0.641   2.498
 1103TIP3   OH2 3272   1.582   3.191   4.685
 1103TIP3    H1 3273   1.560   3.241   4.607
 1103TIP3    H2 3274   1.596   3.256   4.753
 1104TIP3   OH2 3275   1.247   2.477   4.789
 1104TIP3    H1 3276   1.234   2.527   4.869
 1104TIP3    H2 3277   1.302   2.403   4.815
 1105TIP3   OH2 3278   0.770   4.967   3.453
 1105TIP3    H1 3279   0.857   4.938   3.480
 1105TIP3    H2 3280   0.755   5.046   3.504
 1106TIP3   OH2 3281   0.947   0.254   5.222
 1106TIP3    H1 3282   1.006   0.188   5.186
 1106TIP3    H2 3283   0.993   0.337   5.209
 1107TIP3   OH2 3284   4.398   3.876   5.218
 1107TIP3    H1 3285   4.379   3.902   5.128
 1107TIP3    H2 3286   4.492   3.889   5.228
 1108TIP3   OH2 3287   4.903   4.532   3.915
 1108TIP3    H1 3288   4.910   4.622   3.945
 1108TIP3    H2 3289   4.859   4.538   3.830
 1109TIP3   OH2 3290   2.348   4.283   1.617
 1109TIP3    H1 3291   2.364   4.190   1.603
 1109TIP3    H2 3292   2.435   4.321   1.629
 1110TIP3   OH2 3293   2.886   4.881   1.568
 1110TIP3    H1 3294   2.795   4.878   1.597
 1110TIP3    H2 3295   2.934   4.831   1.635
 1111TIP3   OH2 3296   0.185   6.589   1.769
 1111TIP3    H1 3297   0.144   6.538   1.699
 1111TIP3    H2 3298   0.118   6.654   1.793
 1112TIP3   OH2 3299   0.763   5.195   3.930
 1112TIP3    H1 3300   0.839   5.152   3.969
 1112TIP3    H2 3301   0.783   5.288   3.935
 1113TIP3   OH2 3302   2.754   2.734   2.487
 1113TIP3    H1 3303   2.672   2.769   2.522
 1113TIP3    H2 3304   2.778   2.665   2.549
 1114TIP3   OH2 3305   0.819   6.489   4.984
 1114TIP3    H1 3306   0.764   6.412   4.998
 1114TIP3    H2 3307   0.864   6.502   5.067
 1115TIP3   OH2 3308   2.213   2.543   5.699
 1115TIP3    H1 3309   2.141   2.507   5.648
 1115TIP3    H2 3310   2.171   2.605   5.759
 1116TIP3   OH2 3311   1.749   4.196   0.278
 1116TIP3    H1 3312   1.809   4.123   0.265
 1116TIP3    H2 3313   1.721   4.221   0.190
 1117TIP3   OH2 3314   6.089   4.755   5.449
 1117TIP3    H1 3315   6.078   4.851   5.451
 1117TIP3    H2 3316   6.067   4.731   5.359
 1118TIP3   OH2 3317   3.273   2.631   3.924
 1118TIP3    H1 3318   3.304   2.594   3.841
 1118TIP3    H2 3319   3.338   2.602   3.988
 1119TIP3   OH2 3320   3.899   5.643   2.148
 1119TIP3    H1 3321   3.949   5.592   2.084
 1119TIP3    H2 3322   3.940   5.623   2.232
 1120TIP3   OH2 3323   4.568   0.907   5.810
 1120TIP3    H1 3324   4.656   0.873   5.831
 1120TIP3    H2 3325   4.521   0.907   5.893
 1121TIP3   OH2 3326   1.676   0.936   3.293
 1121TIP3    H1 3327   1.641   1.022   3.315
 1121TIP3    H2 3328   1.771   0.949   3.288
 1122TIP3   OH2 3329   6.606   4.456   5.757
 1122TIP3    H1 3330   6.626   4.402   5.833
 1122TIP3    H2 3331   6.690   4.467   5.712
 1123TIP3   OH2 3332   0.369   0.622   1.133
 1123TIP3    H1 3333   0.410   0.536   1.147
 1123TIP3    H2 3334   0.290   0.620   1.185
 1124TIP3   OH2 3335   0.293   2.350   1.303
 1124TIP3    H1 3336   0.360   2.293   1.343
 1124TIP3    H2 3337   0.332   2.378   1.220
 1125TIP3   OH2 3338   1.016   5.887   1.797
 1125TIP3    H1 3339   0.972   5.946   1.736
 1125TIP3    H2 3340   1.096   5.933   1.823
 1126TIP3   OH2 3341   1.000   5.464   2.084
 1126TIP3    H1 3342   0.960   5.422   2.008
 1126TIP3    H2 3343   1.059   5.398   2.119
 1127TIP3   OH2 3344   0.203   2.830   3.898
 1127TIP3    H1 3345   0.264   2.844   3.825
 1127TIP3    H2 3346   0.117   2.828   3.856
 1128TIP3   OH2 3347   6.007   6.536   2.346
 1128TIP3    H1 3348   6.022   6.445   2.323
 1128TIP3    H2 3349   5.922   6.558   2.306
 1129TIP3   OH2 3350   4.167   2.518   4.691
 1129TIP3    H1 3351   4.137   2.428   4.696
 1129TIP3    H2 3352   4.090   2.568   4.666
 1130TIP3   OH2 3353   0.273   3.551   4.611
 1130TIP3    H1 3354   0.216   3.499   4.669
 1130TIP3    H2 3355   0.215   3.617   4.573
 1131TIP3   OH2 3356   4.195   5.107   5.065
 1131TIP3    H1 3357   4.282   5.074   5.090
 1131TIP3    H2 3358   4.185   5.079   4.974
 1132TIP3   OH2 3359   5.937   3.952   1.597
 1132TIP3    H1 3360   5.987   3.894   1.654
 1132TIP3    H2 3361   5.959   3.923   1.508
 1133TIP3   OH2 3362   6.404   4.645   1.602
 1133TIP3    H1 3363   6.492   4.681   1.596
 1133TIP3    H2 3364   6.368   4.655   1.514
 1134TIP3   OH2 3365   4.366   1.709   3.778
 1134TIP3    H1 3366   4.319   1.669   3.705
 1134TIP3    H2 3367   4.297   1.747   3.832
 1135TIP3   OH2 3368   6.391   5.794   2.703
 1135TIP3    H1 3369   6.301   5.813   2.677
 1135TIP3    H2 3370   6.386   5.781   2.798
 1136TIP3   OH2 3371   1.542   0.371   5.027
 1136TIP3    H1 3372   1.627   0.330   5.041
 1136TIP3    H2 3373   1.562   0.456   4.987
 1137TIP3   OH2 3374   0.699   1.107   5.085
 1137TIP3    H1 3375   0.702   1.106   5.180
 1137TIP3    H2 3376   0.772   1.051   5.057
 1138TIP3   OH2 3377   3.459   2.534   2.324
 1138TIP3    H1 3378   3.382   2.501   2.278
 1138TIP3    H2 3379   3.480   2.616   2.279
 1139TIP3   OH2 3380   1.338   6.120   4.076
 1139TIP3    H1 3381   1.372   6.138   4.164
 1139TIP3    H2 3382   1.245   6.142   4.081
 1140TIP3   OH2 3383   1.209   4.182   0.602
 1140TIP3    H1 3384   1.190   4.104   0.550
 1140TIP3    H2 3385   1.305   4.182   0.610
 1141TIP3   OH2 3386   0.975   0.445   1.480
 1141TIP3    H1 3387   0.951   0.448   1.573
 1141TIP3    H2 3388   0.893   0.432   1.434
 1142TIP3   OH2 3389   4.190   0.762   4.526
 1142TIP3    H1 3390   4.145   0.846   4.524
 1142TIP3    H2 3391   4.281   0.784   4.545
 1143TIP3   OH2 3392   2.555   6.174   1.692
 1143TIP3    H1 3393   2.541   6.268   1.682
 1143TIP3    H2 3394   2.537   6.157   1.784
 1144TIP3   OH2 3395   4.570   0.594   0.883
 1144TIP3    H1 3396   4.569   0.665   0.947
 1144TIP3    H2 3397   4.575   0.514   0.935
 1145TIP3   OH2 3398   3.805   5.710   4.881
 1145TIP3    H1 3399   3.822   5.702   4.975
 1145TIP3    H2 3400   3.744   5.639   4.861
 1146TIP3   OH2 3401   0.482   0.446   4.180
 1146TIP3    H1 3402   0.537   0.426   4.104
 1146TIP3    H2 3403   0.396   0.466   4.142
 1147TIP3   OH2 3404   2.109   6.292   5.371
 1147TIP3    H1 3405   2.066   6.376   5.351
 1147TIP3    H2 3406   2.202   6.310   5.358
 1148TIP3   OH2 3407   3.742   4.518   3.478
 1148TIP3    H1 3408   3.653   4.537   3.448
 1148TIP3    H2 3409   3.746   4.554   3.567
 1149TIP3   OH2 3410   1.312   4.933   5.189
 1149TIP3    H1 3411   1.305   4.992   5.114
 1149TIP3    H2 3412   1.405   4.929   5.208
 1150TIP3   OH2 3413   3.687   5.905   5.652
 1150TIP3    H1 3414   3.724   5.870   5.732
 1150TIP3    H2 3415   3.755   5.894   5.586
 1151TIP3   OH2 3416   5.262   3.279   0.560
 1151TIP3    H1 3417   5.184   3.248   0.606
 1151TIP3    H2 3418   5.289   3.204   0.506
 1152TIP3   OH2 3419   6.486   0.544   1.905
 1152TIP3    H1 3420   6.547   0.601   1.952
 1152TIP3    H2 3421   6.401   0.563   1.943
 1153TIP3   OH2 3422   2.660   1.483   0.009
 1153TIP3    H1 3423   2.649   1.411   0.071
 1153TIP3    H2 3424   2.711   1.446  -0.063
 1154TIP3   OH2 3425   1.866   3.023   5.080
 1154TIP3    H1 3426   1.872   3.030   4.985
 1154TIP3    H2 3427   1.841   3.111   5.109
 1155TIP3   OH2 3428   2.827   0.104   0.021
 1155TIP3    H1 3429   2.751   0.113   0.079
 1155TIP3    H2 3430   2.903   0.118   0.078
 1156TIP3   OH2 3431   3.717   1.317   1.851
 1156TIP3    H1 3432   3.781   1.303   1.782
 1156TIP3    H2 3433   3.656   1.382   1.815
 1157TIP3   OH2 3434   2.818   1.716   3.169
 1157TIP3    H1 3435   2.902   1.676   3.146
 1157TIP3    H2 3436   2.752   1.655   3.135
 1158TIP3   OH2 3437   2.132   2.828   5.083
 1158TIP3    H1 3438   2.083   2.800   5.161
 1158TIP3    H2 3439   2.080   2.899   5.047
 1159TIP3   OH2 3440   3.554   1.357   0.546
 1159TIP3    H1 3441   3.465   1.376   0.575
 1159TIP3    H2 3442   3.609   1.417   0.595
 1160TIP3   OH2 3443   0.716   6.259   1.656
 1160TIP3    H1 3444   0.721   6.271   1.561
 1160TIP3    H2 3445   0.638   6.204   1.669
 1161TIP3   OH2 3446   0.130   3.924   1.134
 1161TIP3    H1 3447   0.153   3.872   1.211
 1161TIP3    H2 3448   0.043   3.958   1.154
 1162TIP3   OH2 3449   5.576   2.830   0.797
 1162TIP3    H1 3450   5.509   2.891   0.828
 1162TIP3    H2 3451   5.595   2.775   0.873
 1163TIP3   OH2 3452   3.378   2.998   1.273
 1163TIP3    H1 3453   3.323   2.947   1.333
 1163TIP3    H2 3454   3.318   3.023   1.203
 1164TIP3   OH2 3455   5.222   0.255   1.582
 1164TIP3    H1 3456   5.136   0.229   1.549
 1164TIP3    H2 3457   5.257   0.313   1.515
 1165TIP3   OH2 3458   1.139   4.011   0.346
 1165TIP3    H1 3459   1.223   4.002   0.300
 1165TIP3    H2 3460   1.105   3.922   0.351
 1166TIP3   OH2 3461   3.256   3.641   5.242
 1166TIP3    H1 3462   3.268   3.701   5.169
 1166TIP3    H2 3463   3.163   3.648   5.264
 1167TIP3   OH2 3464   4.976   1.830   4.195
 1167TIP3    H1 3465   5.023   1.891   4.252
 1167TIP3    H2 3466   4.887   1.829   4.231
 1168TIP3   OH2 3467   6.497   0.682   3.428
 1168TIP3    H1 3468   6.464   0.770   3.445
 1168TIP3    H2 3469   6.511   0.679   3.334
 1169TIP3   OH2 3470   6.362   4.109   3.699
 1169TIP3    H1 3471   6.429   4.083   3.635
 1169TIP3    H2 3472   6.280   4.108   3.650
 1170TIP3   OH2 3473   3.237   3.485   1.618
 1170TIP3    H1 3474   3.236   3.421   1.690
 1170TIP3    H2 3475   3.212   3.567   1.660
 1171TIP3   OH2 3476   2.616   0.644   3.014
 1171TIP3    H1 3477   2.690   0.627   3.073
 1171TIP3    H2 3478   2.614   0.568   2.956
 1172TIP3   OH2 3479   5.433   5.137   2.272
 1172TIP3    H1 3480   5.380   5.167   2.198
 1172TIP3    H2 3481   5.433   5.211   2.334
 1173TIP3   OH2 3482   0.895   4.364   5.705
 1173TIP3    H1 3483   0.985   4.361   5.737
 1173TIP3    H2 3484   0.854   4.286   5.741
 1174TIP3   OH2 3485   3.543   1.224   0.965
 1174TIP3    H1 3486   3.531   1.222   0.870
 1174TIP3    H2 3487   3.608   1.156   0.982
 1175TIP3   OH2 3488   0.354   1.756   5.080
 1175TIP3    H1 3489   0.401   1.838   5.068
 1175TIP3    H2 3490   0.383   1.700   5.008
 1176TIP3   OH2 3491   2.227   3.014   0.207
 1176TIP3    H1 3492   2.246   3.072   0.133
 1176TIP3    H2 3493   2.142   3.045   0.240
 1177TIP3   OH2 3494   3.305   0.800   4.448
 1177TIP3    H1 3495   3.266   0.732   4.502
 1177TIP3    H2 3496   3.348   0.753   4.376
 1178TIP3   OH2 3497   0.115   2.559   4.520
 1178TIP3    H1 3498   0.071   2.500   4.582
 1178TIP3    H2 3499   0.183   2.601   4.572
 1179TIP3   OH2 3500   0.688   2.981   5.108
 1179TIP3    H1 3501   0.663   2.990   5.200
 1179TIP3    H2 3502   0.756   3.047   5.095
 1180TIP3   OH2 3503   5.807   3.518   5.108
 1180TIP3    H1 3504   5.787   3.514   5.202
 1180TIP3    H2 3505   5.778   3.433   5.075
 1181TIP3   OH2 3506   2.674   2.263   1.125
 1181TIP3    H1 3507   2.723   2.184   1.147
 1181TIP3    H2 3508   2.585   2.233   1.109
 1182TIP3   OH2 3509   5.223   6.456   1.449
 1182TIP3    H1 3510   5.277   6.382   1.475
 1182TIP3    H2 3511   5.147   6.453   1.508
 1183TIP3   OH2 3512   2.216   2.601   1.910
 1183TIP3    H1 3513   2.208   2.581   1.817
 1183TIP3    H2 3514   2.145   2.552   1.951
 1184TIP3   OH2 3515   1.241   3.434   1.689
 1184TIP3    H1 3516   1.207   3.500   1.749
 1184TIP3    H2 3517   1.319   3.400   1.732
 1185TIP3   OH2 3518   6.481   6.103   1.713
 1185TIP3    H1 3519   6.427   6.024   1.717
 1185TIP3    H2 3520   6.420   6.174   1.732
 1186TIP3   OH2 3521   0.110   3.539   5.271
 1186TIP3    H1 3522   0.015   3.552   5.268
 1186TIP3    H2 3523   0.146   3.612   5.220
 1187TIP3   OH2 3524   6.856   4.149   4.382
 1187TIP3    H1 3525   6.927   4.152   4.447
 1187TIP3    H2 3526   6.783   4.108   4.429
 1188TIP3   OH2 3527   5.786   4.378   5.210
 1188TIP3    H1 3528   5.818   4.292   5.181
 1188TIP3    H2 3529   5.837   4.397   5.288
 1189TIP3   OH2 3530   2.009   5.695   1.419
 1189TIP3    H1 3531   2.049   5.774   1.383
 1189TIP3    H2 3532   2.049   5.624   1.370
 1190TIP3   OH2 3533   3.418   2.667   0.768
 1190TIP3    H1 3534   3.336   2.685   0.814
 1190TIP3    H2 3535   3.466   2.750   0.772
 1191TIP3   OH2 3536   4.265   6.603   0.032
 1191TIP3    H1 3537   4.303   6.546   0.099
 1191TIP3    H2 3538   4.187   6.639   0.073
 1192TIP3   OH2 3539   5.534   1.603   1.650
 1192TIP3    H1 3540   5.617   1.616   1.603
 1192TIP3    H2 3541   5.530   1.509   1.668
 1193TIP3   OH2 3542   3.746   2.053   5.653
 1193TIP3    H1 3543   3.651   2.046   5.660
 1193TIP3    H2 3544   3.774   2.093   5.735
 1194TIP3   OH2 3545   4.980   4.509   0.785
 1194TIP3    H1 3546   4.979   4.603   0.802
 1194TIP3    H2 3547   4.908   4.495   0.723
 1195TIP3   OH2 3548   6.810   2.901   2.054
 1195TIP3    H1 3549   6.800   2.996   2.045
 1195TIP3    H2 3550   6.745   2.865   1.992
 1196TIP3   OH2 3551   6.577   2.342   2.385
 1196TIP3    H1 3552   6.552   2.250   2.397
 1196TIP3    H2 3553   6.606   2.347   2.294
 1197TIP3   OH2 3554   2.806   2.101   2.706
 1197TIP3    H1 3555   2.715   2.115   2.731
 1197TIP3    H2 3556   2.857   2.130   2.782
 1198TIP3   OH2 3557   1.436   2.999   0.494
 1198TIP3    H1 3558   1.469   2.998   0.404
 1198TIP3    H2 3559   1.384   2.919   0.501
 1199TIP3   OH2 3560   4.222   5.589   1.110
 1199TIP3    H1 3561   4.270   5.508   1.094
 1199TIP3    H2 3562   4.291   5.653   1.130
 1200TIP3   OH2 3563   6.861   4.186   1.699
 1200TIP3    H1 3564   6.831   4.143   1.619
 1200TIP3    H2 3565   6.790   4.171   1.762
 1201TIP3   OH2 3566   7.112   1.464   0.297
 1201TIP3    H1 3567   7.040   1.414   0.259
 1201TIP3    H2 3568   7.071   1.518   0.364
 1202TIP3   OH2 3569   3.377   6.224   0.753
 1202TIP3    H1 3570   3.385   6.231   0.848
 1202TIP3    H2 3571   3.302   6.166   0.739
 1203TIP3   OH2 3572   0.663   4.690   4.646
 1203TIP3    H1 3573   0.688   4.658   4.559
 1203TIP3    H2 3574   0.627   4.777   4.629
 1204TIP3   OH2 3575   6.225   2.642   0.896
 1204TIP3    H1 3576   6.252   2.697   0.969
 1204TIP3    H2 3577   6.302   2.639   0.839
 1205TIP3   OH2 3578   5.183   4.649   2.674
 1205TIP3    H1 3579   5.166   4.613   2.761
 1205TIP3    H2 3580   5.236   4.582   2.631
 1206TIP3   OH2 3581   2.633   4.686   2.306
 1206TIP3    H1 3582   2.663   4.752   2.368
 1206TIP3    H2 3583   2.677   4.709   2.224
 1207TIP3   OH2 3584   3.697   4.381   4.038
 1207TIP3    H1 3585   3.647   4.364   3.958
 1207TIP3    H2 3586   3.772   4.322   4.033
 1208TIP3   OH2 3587   0.592   2.071   5.532
 1208TIP3    H1 3588   0.592   2.157   5.572
 1208TIP3    H2 3589   0.523   2.076   5.465
 1209TIP3   OH2 3590   7.133   3.358   1.003
 1209TIP3    H1 3591   7.102   3.298   0.935
 1209TIP3    H2 3592   7.196   3.305   1.053
 1210TIP3   OH2 3593   3.411   3.558   3.635
 1210TIP3    H1 3594   3.323   3.594   3.620
 1210TIP3    H2 3595   3.405   3.512   3.719
 1211TIP3   OH2 3596   0.702   5.133   2.181
 1211TIP3    H1 3597   0.742   5.189   2.248
 1211TIP3    H2 3598   0.650   5.192   2.127
 1212TIP3   OH2 3599   3.487   6.661   4.337
 1212TIP3    H1 3600   3.445   6.618   4.412
 1212TIP3    H2 3601   3.420   6.660   4.268
 1213TIP3   OH2 3602   1.465   0.045   2.312
 1213TIP3    H1 3603   1.528   0.114   2.293
 1213TIP3    H2 3604   1.471  -0.014   2.237
 1214TIP3   OH2 3605   4.163   5.889   5.684
 1214TIP3    H1 3606   4.176   5.794   5.689
 1214TIP3    H2 3607   4.244   5.922   5.645
 1215TIP3   OH2 3608   6.880   2.605   1.885
 1215TIP3    H1 3609   6.920   2.692   1.882
 1215TIP3    H2 3610   6.786   2.622   1.876
 1216TIP3   OH2 3611   2.940   6.430   1.591
 1216TIP3    H1 3612   2.928   6.351   1.645
 1216TIP3    H2 3613   2.996   6.487   1.645
 1217TIP3   OH2 3614   3.643   0.665   0.850
 1217TIP3    H1 3615   3.552   0.641   0.833
 1217TIP3    H2 3616   3.694   0.600   0.802
 1218TIP3   OH2 3617   6.207   0.509   1.853
 1218TIP3    H1 3618   6.200   0.461   1.935
 1218TIP3    H2 3619   6.117   0.520   1.823
 1219TIP3   OH2 3620   6.887   6.094   2.216
 1219TIP3    H1 3621   6.813   6.038   2.193
 1219TIP3    H2 3622   6.858   6.183   2.192
 1220TIP3   OH2 3623   2.057   6.351   1.131
 1220TIP3    H1 3624   2.138   6.300   1.134
 1220TIP3    H2 3625   2.078   6.431   1.179
 1221TIP3   OH2 3626   0.517   3.209   3.376
 1221TIP3    H1 3627   0.561   3.124   3.373
 1221TIP3    H2 3628   0.466   3.212   3.295
 1222TIP3   OH2 3629   5.640   4.151   4.675
 1222TIP3    H1 3630   5.678   4.137   4.762
 1222TIP3    H2 3631   5.570   4.085   4.669
 1223TIP3   OH2 3632   4.239   2.934   3.532
 1223TIP3    H1 3633   4.238   2.924   3.627
 1223TIP3    H2 3634   4.198   3.020   3.517
 1224TIP3   OH2 3635   3.218   3.882   1.142
 1224TIP3    H1 3636   3.149   3.842   1.088
 1224TIP3    H2 3637   3.215   3.975   1.119
 1225TIP3   OH2 3638   0.174   2.546   3.651
 1225TIP3    H1 3639   0.230   2.484   3.697
 1225TIP3    H2 3640   0.102   2.563   3.711
 1226TIP3   OH2 3641   0.982   5.086   2.209
 1226TIP3    H1 3642   0.898   5.120   2.239
 1226TIP3    H2 3643   0.975   5.086   2.114
 1227TIP3   OH2 3644   5.712   4.916   1.109
 1227TIP3    H1 3645   5.684   4.884   1.195
 1227TIP3    H2 3646   5.765   4.993   1.127
 1228TIP3   OH2 3647   3.726   5.404   5.921
 1228TIP3    H1 3648   3.778   5.483   5.905
 1228TIP3    H2 3649   3.767   5.337   5.867
 1229TIP3   OH2 3650   0.804   4.879   2.466
 1229TIP3    H1 3651   0.808   4.970   2.496
 1229TIP3    H2 3652   0.885   4.866   2.417
 1230TIP3   OH2 3653   3.643   0.912   4.683
 1230TIP3    H1 3654   3.629   0.827   4.725
 1230TIP3    H2 3655   3.675   0.968   4.753
 1231TIP3   OH2 3656   7.197   1.625   4.676
 1231TIP3    H1 3657   7.103   1.612   4.667
 1231TIP3    H2 3658   7.216   1.599   4.767
 1232TIP3   OH2 3659   3.148   5.542   1.146
 1232TIP3    H1 3660   3.063   5.584   1.131
 1232TIP3    H2 3661   3.211   5.615   1.147
 1233TIP3   OH2 3662   0.459   3.415   2.459
 1233TIP3    H1 3663   0.514   3.382   2.388
 1233TIP3    H2 3664   0.422   3.337   2.499
 1234TIP3   OH2 3665   5.952   2.080   5.621
 1234TIP3    H1 3666   5.932   2.000   5.573
 1234TIP3    H2 3667   5.884   2.142   5.594
 1235TIP3   OH2 3668   1.266   1.203   3.284
 1235TIP3    H1 3669   1.361   1.196   3.290
 1235TIP3    H2 3670   1.233   1.118   3.311
 1236TIP3   OH2 3671   2.930   2.206   1.366
 1236TIP3    H1 3672   2.985   2.202   1.288
 1236TIP3    H2 3673   2.860   2.142   1.350
 1237TIP3   OH2 3674   4.304   1.134   2.694
 1237TIP3    H1 3675   4.333   1.194   2.625
 1237TIP3    H2 3676   4.333   1.048   2.665
 1238TIP3   OH2 3677   2.380   4.726   2.486
 1238TIP3    H1 3678   2.302   4.722   2.430
 1238TIP3    H2 3679   2.425   4.806   2.458
 1239TIP3   OH2 3680   4.871   5.933   1.569
 1239TIP3    H1 3681   4.799   5.962   1.624
 1239TIP3    H2 3682   4.914   6.015   1.542
 1240TIP3   OH2 3683   5.318   2.983   0.725
 1240TIP3    H1 3684   5.226   2.960   0.710
 1240TIP3    H2 3685   5.360   2.967   0.640
 1241TIP3   OH2 3686   3.455   6.291   5.502
 1241TIP3    H1 3687   3.507   6.335   5.435
 1241TIP3    H2 3688   3.513   6.225   5.538
 1242TIP3   OH2 3689   2.445   0.917   2.521
 1242TIP3    H1 3690   2.352   0.930   2.503
 1242TIP3    H2 3691   2.454   0.823   2.535
 1243TIP3   OH2 3692   5.496   4.221   5.506
 1243TIP3    H1 3693   5.435   4.196   5.575
 1243TIP3    H2 3694   5.579   4.181   5.531
 1244TIP3   OH2 3695   6.150   1.735   0.745
 1244TIP3    H1 3696   6.171   1.802   0.810
 1244TIP3    H2 3697   6.226   1.733   0.687
 1245TIP3   OH2 3698   0.167   0.402   5.510
 1245TIP3    H1 3699   0.156   0.347   5.432
 1245TIP3    H2 3700   0.140   0.490   5.481
 1246TIP3   OH2 3701   2.578   2.812   2.180
 1246TIP3    H1 3702   2.570   2.732   2.129
 1246TIP3    H2 3703   2.671   2.835   2.173
 1247TIP3   OH2 3704   4.480   5.121   4.488
 1247TIP3    H1 3705   4.443   5.204   4.517
 1247TIP3    H2 3706   4.477   5.064   4.564
 1248TIP3   OH2 3707   5.026   3.890   0.853
 1248TIP3    H1 3708   5.007   3.808   0.900
 1248TIP3    H2 3709   4.976   3.883   0.772
 1249TIP3   OH2 3710   5.564   6.498   2.619
 1249TIP3    H1 3711   5.616   6.578   2.606
 1249TIP3    H2 3712   5.621   6.428   2.588
 1250TIP3   OH2 3713   0.713   0.554   5.169
 1250TIP3    H1 3714   0.676   0.640   5.190
 1250TIP3    H2 3715   0.686   0.499   5.243
 1251TIP3   OH2 3716   0.572   0.314   3.296
 1251TIP3    H1 3717   0.504   0.348   3.355
 1251TIP3    H2 3718   0.550   0.222   3.286
 1252TIP3   OH2 3719   5.202   5.164   0.446
 1252TIP3    H1 3720   5.262   5.125   0.510
 1252TIP3    H2 3721   5.117   5.165   0.491
 1253TIP3   OH2 3722   1.612   4.033   1.681
 1253TIP3    H1 3723   1.600   4.075   1.767
 1253TIP3    H2 3724   1.646   4.103   1.625
 1254TIP3   OH2 3725   4.588   4.718   0.667
 1254TIP3    H1 3726   4.659   4.660   0.638
 1254TIP3    H2 3727   4.619   4.806   0.644
 1255TIP3   OH2 3728   3.266   0.185   4.569
 1255TIP3    H1 3729   3.307   0.106   4.533
 1255TIP3    H2 3730   3.174   0.162   4.579
 1256TIP3   OH2 3731   3.274   0.850   0.931
 1256TIP3    H1 3732   3.358   0.863   0.887
 1256TIP3    H2 3733   3.222   0.797   0.871
 1257TIP3   OH2 3734   4.183   4.083   0.904
 1257TIP3    H1 3735   4.200   3.995   0.936
 1257TIP3    H2 3736   4.109   4.114   0.956
 1258TIP3   OH2 3737   6.007   5.295   4.173
 1258TIP3    H1 3738   5.918   5.259   4.173
 1258TIP3    H2 3739   6.026   5.312   4.265
 1259TIP3   OH2 3740   6.327   0.585   5.279
 1259TIP3    H1 3741   6.392   0.585   5.349
 1259TIP3    H2 3742   6.377   0.565   5.200
 1260TIP3   OH2 3743   4.315   6.266   4.161
 1260TIP3    H1 3744   4.289   6.239   4.072
 1260TIP3    H2 3745   4.388   6.209   4.183
 1261TIP3   OH2 3746   4.541   1.901   2.176
 1261TIP3    H1 3747   4.520   1.934   2.089
 1261TIP3    H2 3748   4.601   1.965   2.212
 1262TIP3   OH2 3749   4.204   6.276   0.633
 1262TIP3    H1 3750   4.137   6.253   0.568
 1262TIP3    H2 3751   4.275   6.314   0.581
 1263TIP3   OH2 3752   2.823   0.870   4.899
 1263TIP3    H1 3753   2.770   0.856   4.820
 1263TIP3    H2 3754   2.771   0.832   4.970
 1264TIP3   OH2 3755   4.174   3.459   5.753
 1264TIP3    H1 3756   4.109   3.525   5.777
 1264TIP3    H2 3757   4.250   3.509   5.723
 1265TIP3   OH2 3758   0.679   4.442   1.756
 1265TIP3    H1 3759   0.716   4.387   1.688
 1265TIP3    H2 3760   0.755   4.482   1.799
 1266TIP3   OH2 3761   4.794   1.293   4.532
 1266TIP3    H1 3762   4.800   1.206   4.571
 1266TIP3    H2 3763   4.716   1.332   4.571
 1267TIP3   OH2 3764   6.683   4.783   0.601
 1267TIP3    H1 3765   6.763   4.830   0.577
 1267TIP3    H2 3766   6.625   4.793   0.526
 1268TIP3   OH2 3767   2.851   4.658   5.353
 1268TIP3    H1 3768   2.912   4.624   5.287
 1268TIP3    H2 3769   2.879   4.617   5.435
 1269TIP3   OH2 3770   7.198   0.506   4.750
 1269TIP3    H1 3771   7.213   0.601   4.752
 1269TIP3    H2 3772   7.213   0.481   4.659
 1270TIP3   OH2 3773   1.812   0.459   2.617
 1270TIP3    H1 3774   1.814   0.428   2.708
 1270TIP3    H2 3775   1.810   0.554   2.624
 1271TIP3   OH2 3776   2.580   3.759   0.926
 1271TIP3    H1 3777   2.553   3.782   0.837
 1271TIP3    H2 3778   2.498   3.755   0.975
 1272TIP3   OH2 3779   6.102   5.015   5.343
 1272TIP3    H1 3780   6.012   5.041   5.364
 1272TIP3    H2 3781   6.117   5.051   5.255
 1273TIP3   OH2 3782   0.801   3.185   3.770
 1273TIP3    H1 3783   0.732   3.121   3.755
 1273TIP3    H2 3784   0.814   3.185   3.865
 1274TIP3   OH2 3785   3.047   5.207   0.633
 1274TIP3    H1 3786   3.084   5.194   0.546
 1274TIP3    H2 3787   3.084   5.290   0.662
 1275TIP3   OH2 3788   5.191   2.195   4.536
 1275TIP3    H1 3789   5.263   2.253   4.508
 1275TIP3    H2 3790   5.220   2.160   4.620
 1276TIP3   OH2 3791   3.115   2.966   4.312
 1276TIP3    H1 3792   3.025   2.978   4.341
 1276TIP3    H2 3793   3.107   2.919   4.229
 1277TIP3   OH2 3794   5.355   4.602   0.413
 1277TIP3    H1 3795   5.324   4.607   0.504
 1277TIP3    H2 3796   5.285   4.640   0.361
 1278TIP3   OH2 3797   5.772   0.003   4.945
 1278TIP3    H1 3798   5.727   0.027   5.026
 1278TIP3    H2 3799   5.826  -0.073   4.970
 1279TIP3   OH2 3800   6.973   1.083   4.463
 1279TIP3    H1 3801   6.946   1.174   4.450
 1279TIP3    H2 3802   6.964   1.068   4.558
 1280TIP3   OH2 3803   1.264   1.298   0.495
 1280TIP3    H1 3804   1.340   1.347   0.463
 1280TIP3    H2 3805   1.287   1.206   0.480
 1281TIP3   OH2 3806   5.937   1.987   5.227
 1281TIP3    H1 3807   5.991   2.063   5.202
 1281TIP3    H2 3808   5.847   2.016   5.211
 1282TIP3   OH2 3809   3.274   1.263   2.904
 1282TIP3    H1 3810   3.264   1.169   2.889
 1282TIP3    H2 3811   3.222   1.305   2.836
 1283TIP3   OH2 3812   7.067   5.085   0.004
 1283TIP3    H1 3813   7.131   5.046  -0.056
 1283TIP3    H2 3814   7.011   5.013   0.031
 1284TIP3   OH2 3815   0.265   3.551   2.325
 1284TIP3    H1 3816   0.356   3.530   2.344
 1284TIP3    H2 3817   0.223   3.466   2.313
 1285TIP3   OH2 3818   4.947   2.524   2.441
 1285TIP3    H1 3819   4.985   2.437   2.431
 1285TIP3    H2 3820   4.867   2.510   2.491
 1286TIP3   OH2 3821   2.898   3.719   1.435
 1286TIP3    H1 3822   2.852   3.639   1.411
 1286TIP3    H2 3823   2.831   3.773   1.477
 1287TIP3   OH2 3824   4.615   4.378   4.174
 1287TIP3    H1 3825   4.612   4.473   4.158
 1287TIP3    H2 3826   4.698   4.350   4.137
 1288TIP3   OH2 3827   6.766   3.943   1.103
 1288TIP3    H1 3828   6.740   3.866   1.153
 1288TIP3    H2 3829   6.690   4.002   1.109
 1289TIP3   OH2 3830   1.090   1.347   1.682
 1289TIP3    H1 3831   1.163   1.408   1.678
 1289TIP3    H2 3832   1.117   1.273   1.627
 1290TIP3   OH2 3833   6.265   2.222   4.036
 1290TIP3    H1 3834   6.264   2.151   3.971
 1290TIP3    H2 3835   6.353   2.217   4.075
 1291TIP3   OH2 3836   6.199   0.315   0.761
 1291TIP3    H1 3837   6.246   0.380   0.814
 1291TIP3    H2 3838   6.227   0.333   0.671
 1292TIP3   OH2 3839   0.048   1.052   5.460
 1292TIP3    H1 3840   0.120   1.088   5.511
 1292TIP3    H2 3841   0.072   1.068   5.369
 1293TIP3   OH2 3842   5.851   0.136   0.379
 1293TIP3    H1 3843   5.785   0.197   0.412
 1293TIP3    H2 3844   5.931   0.157   0.427
 1294TIP3   OH2 3845   4.945   5.801   5.427
 1294TIP3    H1 3846   4.930   5.869   5.493
 1294TIP3    H2 3847   4.901   5.834   5.348
 1295TIP3   OH2 3848   4.606   1.618   0.815
 1295TIP3    H1 3849   4.665   1.568   0.758
 1295TIP3    H2 3850   4.598   1.564   0.894
 1296TIP3   OH2 3851   6.670   5.683   0.739
 1296TIP3    H1 3852   6.740   5.692   0.804
 1296TIP3    H2 3853   6.618   5.610   0.770
 1297TIP3   OH2 3854   1.275   1.133   0.752
 1297TIP3    H1 3855   1.300   1.040   0.750
 1297TIP3    H2 3856   1.315   1.170   0.674
 1298TIP3   OH2 3857   6.099   2.643   5.207
 1298TIP3    H1 3858   6.057   2.633   5.121
 1298TIP3    H2 3859   6.193   2.642   5.187
 1299TIP3   OH2 3860   1.224   1.271   1.933
 1299TIP3    H1 3861   1.295   1.209   1.915
 1299TIP3    H2 3862   1.189   1.292   1.846
 1300TIP3   OH2 3863   3.844   0.240   1.797
 1300TIP3    H1 3864   3.920   0.296   1.784
 1300TIP3    H2 3865   3.783   0.293   1.848
 1301TIP3   OH2 3866   2.807   6.019   2.669
 1301TIP3    H1 3867   2.778   5.987   2.583
 1301TIP3    H2 3868   2.732   6.006   2.726
 1302TIP3   OH2 3869   5.919   4.503   5.409
 1302TIP3    H1 3870   5.857   4.468   5.473
 1302TIP3    H2 3871   6.005   4.485   5.446
 1303TIP3   OH2 3872   0.947   0.527   0.440
 1303TIP3    H1 3873   0.978   0.441   0.412
 1303TIP3    H2 3874   0.862   0.511   0.479
 1304TIP3   OH2 3875   2.090   4.846   1.835
 1304TIP3    H1 3876   2.042   4.898   1.770
 1304TIP3    H2 3877   2.120   4.769   1.786
 1305TIP3   OH2 3878   0.243   1.326   3.253
 1305TIP3    H1 3879   0.150   1.320   3.274
 1305TIP3    H2 3880   0.251   1.286   3.167
 1306TIP3   OH2 3881   3.083   4.248   2.134
 1306TIP3    H1 3882   3.179   4.251   2.137
 1306TIP3    H2 3883   3.063   4.165   2.091
 1307TIP3   OH2 3884   7.214   2.166   0.755
 1307TIP3    H1 3885   7.199   2.157   0.849
 1307TIP3    H2 3886   7.272   2.093   0.734
 1308TIP3   OH2 3887   3.586   1.390   1.378
 1308TIP3    H1 3888   3.546   1.329   1.315
 1308TIP3    H2 3889   3.511   1.435   1.418
 1309TIP3   OH2 3890   4.403   4.734   2.629
 1309TIP3    H1 3891   4.381   4.787   2.706
 1309TIP3    H2 3892   4.465   4.669   2.663
 1310TIP3   OH2 3893   6.535   3.773   2.804
 1310TIP3    H1 3894   6.495   3.763   2.890
 1310TIP3    H2 3895   6.487   3.711   2.748
 1311TIP3   OH2 3896   5.277   5.920   3.473
 1311TIP3    H1 3897   5.195   5.901   3.428
 1311TIP3    H2 3898   5.267   5.880   3.560
 1312TIP3   OH2 3899   5.817   1.268   4.812
 1312TIP3    H1 3900   5.810   1.173   4.820
 1312TIP3    H2 3901   5.897   1.290   4.859
 1313TIP3   OH2 3902   3.921   0.302   3.873
 1313TIP3    H1 3903   3.838   0.348   3.889
 1313TIP3    H2 3904   3.906   0.214   3.907
 1314TIP3   OH2 3905   4.625   0.644   2.895
 1314TIP3    H1 3906   4.596   0.653   2.805
 1314TIP3    H2 3907   4.545   0.630   2.945
 1315TIP3   OH2 3908   3.230   0.007   3.695
 1315TIP3    H1 3909   3.148  -0.041   3.684
 1315TIP3    H2 3910   3.256  -0.010   3.785
 1316TIP3   OH2 3911   1.659   3.766   0.636
 1316TIP3    H1 3912   1.586   3.760   0.697
 1316TIP3    H2 3913   1.720   3.698   0.664
 1317TIP3   OH2 3914   1.463   4.912   0.374
 1317TIP3    H1 3915   1.531   4.928   0.439
 1317TIP3    H2 3916   1.413   4.993   0.371
 1318TIP3   OH2 3917   2.171   3.770  -0.007
 1318TIP3    H1 3918   2.162   3.832   0.065
 1318TIP3    H2 3919   2.153   3.822  -0.086
 1319TIP3   OH2 3920   0.181   3.257   1.494
 1319TIP3    H1 3921   0.226   3.256   1.410
 1319TIP3    H2 3922   0.241   3.303   1.553
 1320TIP3   OH2 3923   1.608   0.411   1.978
 1320TIP3    H1 3924   1.606   0.338   1.916
 1320TIP3    H2 3925   1.691   0.402   2.024
 1321TIP3   OH2 3926   3.956   2.327   3.953
 1321TIP3    H1 3927   3.879   2.382   3.969
 1321TIP3    H2 3928   4.030   2.387   3.955
 1322TIP3   OH2 3929   2.913   1.191   0.169
 1322TIP3    H1 3930   2.818   1.200   0.165
 1322TIP3    H2 3931   2.938   1.226   0.254
 1323TIP3   OH2 3932   6.732   3.902   2.506
 1323TIP3    H1 3933   6.806   3.848   2.479
 1323TIP3    H2 3934   6.731   3.895   2.602
 1324TIP3   OH2 3935   6.913   0.157   5.030
 1324TIP3    H1 3936   6.887   0.193   4.946
 1324TIP3    H2 3937   6.842   0.098   5.054
 1325TIP3   OH2 3938   2.282   3.450   0.371
 1325TIP3    H1 3939   2.213   3.393   0.403
 1325TIP3    H2 3940   2.318   3.491   0.450
 1326TIP3   OH2 3941   6.338   4.485   3.596
 1326TIP3    H1 3942   6.308   4.445   3.515
 1326TIP3    H2 3943   6.434   4.480   3.592
 1327TIP3   OH2 3944   1.589   1.913   5.259
 1327TIP3    H1 3945   1.533   1.908   5.337
 1327TIP3    H2 3946   1.550   1.851   5.198
 1328TIP3   OH2 3947   0.505   0.260   2.359
 1328TIP3    H1 3948   0.487   0.350   2.385
 1328TIP3    H2 3949   0.444   0.208   2.410
 1329TIP3   OH2 3950   5.375   1.287   3.061
 1329TIP3    H1 3951   5.390   1.217   2.996
 1329TIP3    H2 3952   5.285   1.313   3.046
 1330TIP3   OH2 3953   6.737   5.238   2.864
 1330TIP3    H1 3954   6.801   5.171   2.889
 1330TIP3    H2 3955   6.698   5.205   2.783
 1331TIP3   OH2 3956   1.753   3.982   2.177
 1331TIP3    H1 3957   1.697   3.982   2.254
 1331TIP3    H2 3958   1.772   4.074   2.160
 1332TIP3   OH2 3959   5.454   6.529   2.191
 1332TIP3    H1 3960   5.434   6.596   2.257
 1332TIP3    H2 3961   5.426   6.447   2.231
 1333TIP3   OH2 3962   1.000   4.973   0.859
 1333TIP3    H1 3963   1.043   5.027   0.925
 1333TIP3    H2 3964   1.056   4.896   0.850
 1334TIP3   OH2 3965   1.912   1.736   4.674
 1334TIP3    H1 3966   1.956   1.815   4.705
 1334TIP3    H2 3967   1.964   1.707   4.599
 1335TIP3   OH2 3968   4.359   3.405   4.599
 1335TIP3    H1 3969   4.381   3.381   4.509
 1335TIP3    H2 3970   4.435   3.455   4.630
 1336TIP3   OH2 3971   5.120   2.780   3.460
 1336TIP3    H1 3972   5.114   2.873   3.438
 1336TIP3    H2 3973   5.180   2.776   3.534
 1337TIP3   OH2 3974   6.893   3.112   3.473
 1337TIP3    H1 3975   6.870   3.036   3.527
 1337TIP3    H2 3976   6.887   3.080   3.383
 1338TIP3   OH2 3977   0.664   2.992   4.352
 1338TIP3    H1 3978   0.727   2.936   4.397
 1338TIP3    H2 3979   0.678   2.976   4.259
 1339TIP3   OH2 3980   1.161   5.936   3.916
 1339TIP3    H1 3981   1.189   5.848   3.943
 1339TIP3    H2 3982   1.164   5.987   3.997
 1340TIP3   OH2 3983   1.263   6.795   2.080
 1340TIP3    H1 3984   1.307   6.713   2.103
 1340TIP3    H2 3985   1.197   6.807   2.148
 1341TIP3   OH2 3986   3.775   5.939   5.901
 1341TIP3    H1 3987   3.818   5.987   5.831
 1341TIP3    H2 3988   3.718   6.003   5.943
 1342TIP3   OH2 3989   2.533   0.546   4.980
 1342TIP3    H1 3990   2.579   0.542   4.896
 1342TIP3    H2 3991   2.472   0.471   4.977
 1343TIP3   OH2 3992   4.693   0.997   0.816
 1343TIP3    H1 3993   4.661   1.088   0.815
 1343TIP3    H2 3994   4.687   0.972   0.908
 1344TIP3   OH2 3995   5.394   1.698   1.868
 1344TIP3    H1 3996   5.452   1.643   1.815
 1344TIP3    H2 3997   5.390   1.781   1.820
 1345TIP3   OH2 3998   4.343   2.982   0.662
 1345TIP3    H1 3999   4.336   2.895   0.623
 1345TIP3    H2 4000   4.254   3.018   0.655
 1346TIP3   OH2 4001   0.228   1.692   4.668
 1346TIP3    H1 4002   0.135   1.671   4.668
 1346TIP3    H2 4003   0.251   1.704   4.576
 1347TIP3   OH2 4004   1.910   6.725   5.581
 1347TIP3    H1 4005   1.816   6.719   5.594
 1347TIP3    H2 4006   1.924   6.810   5.539
 1348TIP3   OH2 4007   1.910   2.866   3.674
 1348TIP3    H1 4008   1.897   2.772   3.686
 1348TIP3    H2 4009   2.005   2.878   3.676
 1349TIP3   OH2 4010   2.472   3.159   4.458
 1349TIP3    H1 4011   2.515   3.127   4.378
 1349TIP3    H2 4012   2.429   3.240   4.431
 1350TIP3   OH2 4013   2.820   4.619   3.817
 1350TIP3    H1 4014   2.789   4.634   3.907
 1350TIP3    H2 4015   2.746   4.645   3.762
 1351TIP3   OH2 4016   0.129   5.973   5.618
 1351TIP3    H1 4017   0.059   5.930   5.667
 1351TIP3    H2 4018   0.115   6.066   5.632
 1352TIP3   OH2 4019   5.120   0.848   1.663
 1352TIP3    H1 4020   5.195   0.845   1.604
 1352TIP3    H2 4021   5.121   0.937   1.698
 1353TIP3   OH2 4022   4.486   1.645   4.325
 1353TIP3    H1 4023   4.521   1.638   4.236
 1353TIP3    H2 4024   4.392   1.659   4.312
 1354TIP3   OH2 4025   2.902   4.601   4.936
 1354TIP3    H1 4026   2.911   4.697   4.938
 1354TIP3    H2 4027   2.815   4.586   4.900
 1355TIP3   OH2 4028   3.453   3.182   1.653
 1355TIP3    H1 4029   3.373   3.146   1.690
 1355TIP3    H2 4030   3.522   3.159   1.716
 1356TIP3   OH2 4031   1.737   4.034   3.521
 1356TIP3    H1 4032   1.735   4.032   3.426
 1356TIP3    H2 4033   1.659   4.085   3.545
 1357TIP3   OH2 4034   1.451   4.892   1.284
 1357TIP3    H1 4035   1.506   4.953   1.334
 1357TIP3    H2 4036   1.471   4.806   1.320
 1358TIP3   OH2 4037   3.209   4.699   3.583
 1358TIP3    H1 4038   3.116   4.677   3.578
 1358TIP3    H2 4039   3.231   4.688   3.675
 1359TIP3   OH2 4040   1.263   2.514   4.137
 1359TIP3    H1 4041   1.310   2.452   4.192
 1359TIP3    H2 4042   1.177   2.475   4.122
 1360TIP3   OH2 4043   5.910   0.421   2.450
 1360TIP3    H1 4044   5.814   0.421   2.457
 1360TIP3    H2 4045   5.936   0.335   2.481
 1361TIP3   OH2 4046   5.859   1.722   2.859
 1361TIP3    H1 4047   5.831   1.667   2.785
 1361TIP3    H2 4048   5.787   1.715   2.922
 1362TIP3   OH2 4049   1.824   5.793   5.810
 1362TIP3    H1 4050   1.856   5.716   5.763
 1362TIP3    H2 4051   1.729   5.787   5.804
 1363TIP3   OH2 4052   6.842   2.635   4.139
 1363TIP3    H1 4053   6.765   2.661   4.190
 1363TIP3    H2 4054   6.816   2.552   4.098
 1364TIP3   OH2 4055   4.462  -0.002   1.216
 1364TIP3    H1 4056   4.522   0.065   1.249
 1364TIP3    H2 4057   4.434   0.031   1.131
 1365TIP3   OH2 4058   1.153   3.006   2.416
 1365TIP3    H1 4059   1.198   2.922   2.430
 1365TIP3    H2 4060   1.201   3.068   2.471
 1366TIP3   OH2 4061   2.323   2.394   1.598
 1366TIP3    H1 4062   2.249   2.338   1.574
 1366TIP3    H2 4063   2.283   2.479   1.615
 1367TIP3   OH2 4064   2.377   5.665   3.223
 1367TIP3    H1 4065   2.324   5.744   3.210
 1367TIP3    H2 4066   2.460   5.697   3.258
 1368TIP3   OH2 4067   5.488   2.671   5.558
 1368TIP3    H1 4068   5.475   2.714   5.474
 1368TIP3    H2 4069   5.569   2.709   5.593
 1369TIP3   OH2 4070   4.748   3.584   3.014
 1369TIP3    H1 4071   4.727   3.655   2.954
 1369TIP3    H2 4072   4.793   3.626   3.087
 1370TIP3   OH2 4073   6.516   0.255   3.517
 1370TIP3    H1 4074   6.540   0.260   3.425
 1370TIP3    H2 4075   6.497   0.162   3.532
 1371TIP3   OH2 4076   2.668   5.601   5.064
 1371TIP3    H1 4077   2.686   5.534   5.130
 1371TIP3    H2 4078   2.687   5.684   5.107
 1372TIP3   OH2 4079   3.986   0.889   2.042
 1372TIP3    H1 4080   3.975   0.939   1.962
 1372TIP3    H2 4081   4.068   0.920   2.080
 1373TIP3   OH2 4082   0.091   4.237   5.381
 1373TIP3    H1 4083   0.182   4.206   5.378
 1373TIP3    H2 4084   0.086   4.289   5.461
 1374TIP3   OH2 4085   5.655   3.900   3.704
 1374TIP3    H1 4086   5.661   3.984   3.750
 1374TIP3    H2 4087   5.698   3.915   3.620
 1375TIP3   OH2 4088   0.920   5.958   5.458
 1375TIP3    H1 4089   0.988   6.022   5.478
 1375TIP3    H2 4090   0.942   5.882   5.513
 1376TIP3   OH2 4091   3.680   5.799   3.180
 1376TIP3    H1 4092   3.693   5.874   3.238
 1376TIP3    H2 4093   3.753   5.741   3.200
 1377TIP3   OH2 4094   1.465   4.757   2.971
 1377TIP3    H1 4095   1.540   4.700   2.989
 1377TIP3    H2 4096   1.425   4.720   2.892
 1378TIP3   OH2 4097   6.066   5.930   3.052
 1378TIP3    H1 4098   6.020   6.014   3.057
 1378TIP3    H2 4099   6.065   5.907   2.959
 1379TIP3   OH2 4100   3.377   4.473   2.703
 1379TIP3    H1 4101   3.327   4.485   2.784
 1379TIP3    H2 4102   3.399   4.562   2.675
 1380TIP3   OH2 4103   1.607   0.068   2.047
 1380TIP3    H1 4104   1.632  -0.022   2.026
 1380TIP3    H2 4105   1.667   0.122   1.995
 1381TIP3   OH2 4106   6.102   4.507   4.260
 1381TIP3    H1 4107   6.113   4.515   4.165
 1381TIP3    H2 4108   6.007   4.503   4.272
 1382TIP3   OH2 4109   4.299   1.251   1.157
 1382TIP3    H1 4110   4.270   1.162   1.178
 1382TIP3    H2 4111   4.217   1.300   1.142
 1383TIP3   OH2 4112   1.322   6.498   2.389
 1383TIP3    H1 4113   1.400   6.534   2.432
 1383TIP3    H2 4114   1.249   6.530   2.441
 1384TIP3   OH2 4115   2.165   1.426   0.762
 1384TIP3    H1 4116   2.196   1.489   0.697
 1384TIP3    H2 4117   2.081   1.395   0.727
 1385TIP3   OH2 4118   3.288   1.265   1.033
 1385TIP3    H1 4119   3.263   1.185   1.079
 1385TIP3    H2 4120   3.380   1.254   1.012
 1386TIP3   OH2 4121   3.325   3.367   0.238
 1386TIP3    H1 4122   3.382   3.414   0.299
 1386TIP3    H2 4123   3.246   3.420   0.233
 1387TIP3   OH2 4124   0.029   0.141   3.637
 1387TIP3    H1 4125   0.049   0.148   3.730
 1387TIP3    H2 4126   0.111   0.164   3.593
 1388TIP3   OH2 4127   2.828   0.191   5.485
 1388TIP3    H1 4128   2.862   0.138   5.413
 1388TIP3    H2 4129   2.828   0.133   5.560
 1389TIP3   OH2 4130   1.590   1.534   0.936
 1389TIP3    H1 4131   1.557   1.474   1.004
 1389TIP3    H2 4132   1.661   1.485   0.895
 1390TIP3   OH2 4133   3.557   3.861   5.486
 1390TIP3    H1 4134   3.572   3.878   5.393
 1390TIP3    H2 4135   3.558   3.947   5.527
 1391TIP3   OH2 4136   2.851   1.273   0.435
 1391TIP3    H1 4137   2.794   1.278   0.512
 1391TIP3    H2 4138   2.882   1.363   0.423
 1392TIP3   OH2 4139   5.201   2.117   4.787
 1392TIP3    H1 4140   5.128   2.107   4.848
 1392TIP3    H2 4141   5.276   2.141   4.843
 1393TIP3   OH2 4142   2.949   3.657   0.244
 1393TIP3    H1 4143   2.982   3.569   0.266
 1393TIP3    H2 4144   2.993   3.678   0.161
 1394TIP3   OH2 4145   2.586   5.253   2.395
 1394TIP3    H1 4146   2.552   5.231   2.482
 1394TIP3    H2 4147   2.547   5.337   2.374
 1395TIP3   OH2 4148   6.084   4.184   1.351
 1395TIP3    H1 4149   6.021   4.112   1.348
 1395TIP3    H2 4150   6.065   4.229   1.434
 1396TIP3   OH2 4151   1.426   2.223   4.491
 1396TIP3    H1 4152   1.495   2.217   4.557
 1396TIP3    H2 4153   1.345   2.206   4.539
 1397TIP3   OH2 4154   6.457   0.225   0.122
 1397TIP3    H1 4155   6.404   0.145   0.113
 1397TIP3    H2 4156   6.545   0.198   0.095
 1398TIP3   OH2 4157   0.590   0.651   0.278
 1398TIP3    H1 4158   0.519   0.603   0.321
 1398TIP3    H2 4159   0.594   0.734   0.325
 1399TIP3   OH2 4160   2.144   4.495   4.699
 1399TIP3    H1 4161   2.170   4.419   4.752
 1399TIP3    H2 4162   2.191   4.483   4.617
 1400TIP3   OH2 4163   3.628   3.987   3.044
 1400TIP3    H1 4164   3.653   3.969   3.135
 1400TIP3    H2 4165   3.548   4.038   3.050
 1401TIP3   OH2 4166   0.411   5.686   3.523
 1401TIP3    H1 4167   0.482   5.706   3.462
 1401TIP3    H2 4168   0.332   5.716   3.478
 1402TIP3   OH2 4169   3.243   0.696   4.137
 1402TIP3    H1 4170   3.239   0.608   4.173
 1402TIP3    H2 4171   3.318   0.695   4.078
 1403TIP3   OH2 4172   0.819   5.315   1.200
 1403TIP3    H1 4173   0.861   5.382   1.254
 1403TIP3    H2 4174   0.807   5.357   1.115
 1404TIP3   OH2 4175   4.410   6.496   2.516
 1404TIP3    H1 4176   4.466   6.549   2.460
 1404TIP3    H2 4177   4.462   6.418   2.535
 1405TIP3   OH2 4178   5.587   0.176   4.244
 1405TIP3    H1 4179   5.592   0.096   4.192
 1405TIP3    H2 4180   5.663   0.172   4.302
 1406TIP3   OH2 4181   6.140   0.323   3.318
 1406TIP3    H1 4182   6.225   0.363   3.299
 1406TIP3    H2 4183   6.160   0.232   3.337
 1407TIP3   OH2 4184   1.094   3.464   1.191
 1407TIP3    H1 4185   1.165   3.481   1.252
 1407TIP3    H2 4186   1.125   3.392   1.137
 1408TIP3   OH2 4187   1.049   6.847   0.406
 1408TIP3    H1 4188   1.038   6.769   0.461
 1408TIP3    H2 4189   1.103   6.817   0.333
 1409TIP3   OH2 4190   4.318   5.104   3.841
 1409TIP3    H1 4191   4.386   5.115   3.775
 1409TIP3    H2 4192   4.364   5.075   3.919
 1410TIP3   OH2 4193   6.130   2.268   4.425
 1410TIP3    H1 4194   6.106   2.195   4.481
 1410TIP3    H2 4195   6.210   2.303   4.464
 1411TIP3   OH2 4196   6.434   3.568   3.962
 1411TIP3    H1 4197   6.386   3.587   3.882
 1411TIP3    H2 4198   6.367   3.569   4.031
 1412TIP3   OH2 4199   3.170   6.798   5.383
 1412TIP3    H1 4200   3.188   6.728   5.446
 1412TIP3    H2 4201   3.077   6.788   5.363
 1413TIP3   OH2 4202   3.044   0.006   4.842
 1413TIP3    H1 4203   3.100   0.056   4.901
 1413TIP3    H2 4204   3.012   0.070   4.778
 1414TIP3   OH2 4205   0.097   3.704   5.663
 1414TIP3    H1 4206   0.174   3.754   5.690
 1414TIP3    H2 4207   0.071   3.654   5.741
 1415TIP3   OH2 4208   7.024   0.396   1.489
 1415TIP3    H1 4209   7.080   0.332   1.533
 1415TIP3    H2 4210   7.079   0.473   1.477
 1416TIP3   OH2 4211   5.982   3.508   3.319
 1416TIP3    H1 4212   5.898   3.551   3.302
 1416TIP3    H2 4213   5.978   3.427   3.269
 1417TIP3   OH2 4214   4.200   1.935   1.819
 1417TIP3    H1 4215   4.128   1.967   1.765
 1417TIP3    H2 4216   4.159   1.904   1.899
 1418TIP3   OH2 4217   4.532   6.124   4.285
 1418TIP3    H1 4218   4.569   6.118   4.373
 1418TIP3    H2 4219   4.601   6.091   4.228
 1419TIP3   OH2 4220   7.066   2.828   5.697
 1419TIP3    H1 4221   7.113   2.840   5.615
 1419TIP3    H2 4222   7.007   2.754   5.680
 1420TIP3   OH2 4223   1.245   3.331   0.440
 1420TIP3    H1 4224   1.156   3.335   0.405
 1420TIP3    H2 4225   1.234   3.343   0.534
 1421TIP3   OH2 4226   0.781   5.735   1.077
 1421TIP3    H1 4227   0.819   5.822   1.089
 1421TIP3    H2 4228   0.852   5.682   1.041
 1422TIP3   OH2 4229   1.168   6.146   2.912
 1422TIP3    H1 4230   1.076   6.128   2.894
 1422TIP3    H2 4231   1.210   6.060   2.908
 1423TIP3   OH2 4232   6.506   2.107   0.132
 1423TIP3    H1 4233   6.531   2.020   0.101
 1423TIP3    H2 4234   6.434   2.134   0.074
 1424TIP3   OH2 4235   5.955   2.678   0.858
 1424TIP3    H1 4236   5.957   2.760   0.908
 1424TIP3    H2 4237   6.035   2.633   0.882
 1425TIP3   OH2 4238   6.239   0.951   0.196
 1425TIP3    H1 4239   6.193   0.877   0.156
 1425TIP3    H2 4240   6.169   1.007   0.231
 1426TIP3   OH2 4241   6.761   5.518   3.573
 1426TIP3    H1 4242   6.800   5.475   3.497
 1426TIP3    H2 4243   6.720   5.597   3.537
 1427TIP3   OH2 4244   5.109   1.318   4.024
 1427TIP3    H1 4245   5.020   1.291   4.000
 1427TIP3    H2 4246   5.112   1.307   4.119
 1428TIP3   OH2 4247   4.345   6.105   3.180
 1428TIP3    H1 4248   4.283   6.108   3.107
 1428TIP3    H2 4249   4.320   6.029   3.231
 1429TIP3   OH2 4250   3.352   1.890   4.595
 1429TIP3    H1 4251   3.362   1.932   4.680
 1429TIP3    H2 4252   3.433   1.840   4.584
 1430TIP3   OH2 4253   2.747   5.440   5.497
 1430TIP3    H1 4254   2.733   5.448   5.402
 1430TIP3    H2 4255   2.782   5.351   5.508
 1431TIP3   OH2 4256   0.047   5.285   5.680
 1431TIP3    H1 4257  -0.019   5.216   5.683
 1431TIP3    H2 4258   0.037   5.332   5.763
 1432TIP3   OH2 4259   3.312   5.718   1.870
 1432TIP3    H1 4260   3.275   5.630   1.875
 1432TIP3    H2 4261   3.253   5.772   1.922
 1433TIP3   OH2 4262   0.240   4.894   0.447
 1433TIP3    H1 4263   0.157   4.876   0.491
 1433TIP3    H2 4264   0.299   4.823   0.476
 1434TIP3   OH2 4265   0.724   2.668   5.576
 1434TIP3    H1 4266   0.762   2.628   5.498
 1434TIP3    H2 4267   0.663   2.602   5.610
 1435TIP3   OH2 4268   3.157   0.707   5.337
 1435TIP3    H1 4269   3.090   0.750   5.284
 1435TIP3    H2 4270   3.137   0.733   5.427
 1436TIP3   OH2 4271   1.751   4.087   0.824
 1436TIP3    H1 4272   1.771   4.088   0.730
 1436TIP3    H2 4273   1.837   4.088   0.866
 1437TIP3   OH2 4274   4.948   6.610   5.774
 1437TIP3    H1 4275   4.986   6.641   5.692
 1437TIP3    H2 4276   5.014   6.628   5.840
 1438TIP3   OH2 4277   0.295   6.225   5.401
 1438TIP3    H1 4278   0.282   6.319   5.413
 1438TIP3    H2 4279   0.208   6.190   5.384
 1439TIP3   OH2 4280   1.709   2.798   3.325
 1439TIP3    H1 4281   1.781   2.740   3.300
 1439TIP3    H2 4282   1.749   2.861   3.385
 1440TIP3   OH2 4283   7.145   3.226   4.817
 1440TIP3    H1 4284   7.091   3.163   4.769
 1440TIP3    H2 4285   7.235   3.203   4.795
 1441TIP3   OH2 4286   0.710   4.292   1.488
 1441TIP3    H1 4287   0.623   4.329   1.503
 1441TIP3    H2 4288   0.731   4.316   1.398
 1442TIP3   OH2 4289   4.177   2.478   5.572
 1442TIP3    H1 4290   4.181   2.494   5.667
 1442TIP3    H2 4291   4.189   2.564   5.533
 1443TIP3   OH2 4292   4.289   0.291   0.877
 1443TIP3    H1 4293   4.273   0.282   0.783
 1443TIP3    H2 4294   4.293   0.201   0.909
 1444TIP3   OH2 4295   3.688   0.096   2.694
 1444TIP3    H1 4296   3.759   0.122   2.636
 1444TIP3    H2 4297   3.718   0.121   2.781
 1445TIP3   OH2 4298   4.757   0.403   4.452
 1445TIP3    H1 4299   4.767   0.459   4.375
 1445TIP3    H2 4300   4.753   0.464   4.525
 1446TIP3   OH2 4301   7.073   4.000   2.175
 1446TIP3    H1 4302   7.046   3.928   2.232
 1446TIP3    H2 4303   7.058   3.967   2.086
 1447TIP3   OH2 4304   4.367   6.328   4.992
 1447TIP3    H1 4305   4.409   6.303   5.074
 1447TIP3    H2 4306   4.431   6.384   4.948
 1448TIP3   OH2 4307   4.848   2.455   0.433
 1448TIP3    H1 4308   4.862   2.414   0.348
 1448TIP3    H2 4309   4.758   2.432   0.456
 1449TIP3   OH2 4310   0.705   0.407   1.012
 1449TIP3    H1 4311   0.701   0.500   0.993
 1449TIP3    H2 4312   0.737   0.402   1.102
 1450TIP3   OH2 4313   4.998   6.441   1.621
 1450TIP3    H1 4314   4.933   6.509   1.635
 1450TIP3    H2 4315   5.030   6.419   1.708
 1451TIP3   OH2 4316   1.106   2.876   3.111
 1451TIP3    H1 4317   1.097   2.950   3.171
 1451TIP3    H2 4318   1.074   2.909   3.027
 1452TIP3   OH2 4319   5.529   5.596   3.594
 1452TIP3    H1 4320   5.589   5.649   3.647
 1452TIP3    H2 4321   5.585   5.551   3.531
 1453TIP3   OH2 4322   3.181   6.404   0.687
 1453TIP3    H1 4323   3.112   6.369   0.743
 1453TIP3    H2 4324   3.260   6.357   0.715
 1454TIP3   OH2 4325   5.457   3.912   5.111
 1454TIP3    H1 4326   5.548   3.900   5.086
 1454TIP3    H2 4327   5.445   4.007   5.114
 1455TIP3   OH2 4328   7.056   3.699   1.021
 1455TIP3    H1 4329   7.107   3.662   0.950
 1455TIP3    H2 4330   7.035   3.624   1.077
 1456TIP3   OH2 4331   3.077   5.013   2.992
 1456TIP3    H1 4332   3.013   5.016   2.921
 1456TIP3    H2 4333   3.028   5.042   3.069
 1457TIP3   OH2 4334   3.552   4.099   5.640
 1457TIP3    H1 4335   3.481   4.117   5.703
 1457TIP3    H2 4336   3.595   4.184   5.628
 1458TIP3   OH2 4337   0.396   5.445   4.363
 1458TIP3    H1 4338   0.476   5.483   4.328
 1458TIP3    H2 4339   0.425   5.391   4.437
 1459TIP3   OH2 4340   0.283   2.915   5.508
 1459TIP3    H1 4341   0.222   2.966   5.561
 1459TIP3    H2 4342   0.365   2.916   5.559
 1460TIP3   OH2 4343   6.680   5.121   1.413
 1460TIP3    H1 4344   6.649   5.187   1.475
 1460TIP3    H2 4345   6.763   5.091   1.449
 1461TIP3   OH2 4346   0.592   1.454   5.134
 1461TIP3    H1 4347   0.511   1.480   5.178
 1461TIP3    H2 4348   0.593   1.359   5.140
 1462TIP3   OH2 4349   5.848   4.166   4.454
 1462TIP3    H1 4350   5.783   4.191   4.519
 1462TIP3    H2 4351   5.849   4.238   4.391
 1463TIP3   OH2 4352   6.914   1.679   4.832
 1463TIP3    H1 4353   6.912   1.767   4.869
 1463TIP3    H2 4354   6.935   1.622   4.906
 1464TIP3   OH2 4355   7.179   6.570   0.559
 1464TIP3    H1 4356   7.216   6.609   0.479
 1464TIP3    H2 4357   7.241   6.501   0.583
 1465TIP3   OH2 4358   3.354   2.703   3.145
 1465TIP3    H1 4359   3.304   2.719   3.225
 1465TIP3    H2 4360   3.398   2.786   3.127
 1466TIP3   OH2 4361   1.954   2.220   2.843
 1466TIP3    H1 4362   1.980   2.311   2.834
 1466TIP3    H2 4363   1.902   2.201   2.765
 1467TIP3   OH2 4364   2.169   1.070   1.548
 1467TIP3    H1 4365   2.240   1.005   1.554
 1467TIP3    H2 4366   2.107   1.045   1.616
 1468TIP3   OH2 4367   4.043   6.688   0.497
 1468TIP3    H1 4368   3.949   6.682   0.476
 1468TIP3    H2 4369   4.058   6.616   0.558
 1469TIP3   OH2 4370   0.512   0.971   3.436
 1469TIP3    H1 4371   0.490   1.028   3.362
 1469TIP3    H2 4372   0.607   0.963   3.432
 1470TIP3   OH2 4373   6.283   0.566   0.293
 1470TIP3    H1 4374   6.314   0.480   0.264
 1470TIP3    H2 4375   6.280   0.560   0.388
 1471TIP3   OH2 4376   5.467   4.342   0.829
 1471TIP3    H1 4377   5.490   4.373   0.917
 1471TIP3    H2 4378   5.395   4.398   0.802
 1472TIP3   OH2 4379   0.473   6.005   5.350
 1472TIP3    H1 4380   0.397   6.052   5.384
 1472TIP3    H2 4381   0.537   6.008   5.420
 1473TIP3   OH2 4382   6.028   4.573   2.670
 1473TIP3    H1 4383   6.110   4.528   2.647
 1473TIP3    H2 4384   6.054   4.664   2.684
 1474TIP3   OH2 4385   1.710   2.367   0.823
 1474TIP3    H1 4386   1.719   2.290   0.878
 1474TIP3    H2 4387   1.788   2.419   0.841
 1475TIP3   OH2 4388   1.183   1.665   4.965
 1475TIP3    H1 4389   1.208   1.615   5.042
 1475TIP3    H2 4390   1.098   1.630   4.939
 1476TIP3   OH2 4391   3.064   4.199   4.422
 1476TIP3    H1 4392   3.026   4.166   4.341
 1476TIP3    H2 4393   3.130   4.133   4.446
 1477TIP3   OH2 4394   2.022   4.977   2.957
 1477TIP3    H1 4395   1.947   4.930   2.994
 1477TIP3    H2 4396   2.022   5.061   3.002
 1478TIP3   OH2 4397   5.501   6.572   3.117
 1478TIP3    H1 4398   5.567   6.563   3.185
 1478TIP3    H2 4399   5.551   6.589   3.037
 1479TIP3   OH2 4400   4.743   3.152   3.873
 1479TIP3    H1 4401   4.809   3.152   3.943
 1479TIP3    H2 4402   4.660   3.164   3.919
 1480TIP3   OH2 4403   4.372   6.809   0.341
 1480TIP3    H1 4404   4.431   6.740   0.371
 1480TIP3    H2 4405   4.305   6.815   0.409
 1481TIP3   OH2 4406   6.834   6.328   1.751
 1481TIP3    H1 4407   6.740   6.322   1.765
 1481TIP3    H2 4408   6.869   6.247   1.789
 1482TIP3   OH2 4409   2.738   3.157   1.638
 1482TIP3    H1 4410   2.653   3.170   1.679
 1482TIP3    H2 4411   2.784   3.095   1.696
 1483TIP3   OH2 4412   4.889   2.688   5.542
 1483TIP3    H1 4413   4.985   2.686   5.541
 1483TIP3    H2 4414   4.863   2.596   5.541
 1484TIP3   OH2 4415   4.491   4.416   3.720
 1484TIP3    H1 4416   4.429   4.386   3.653
 1484TIP3    H2 4417   4.437   4.432   3.797
 1485TIP3   OH2 4418   0.569   4.002   4.665
 1485TIP3    H1 4419   0.516   3.935   4.707
 1485TIP3    H2 4420   0.614   4.045   4.738
 1486TIP3   OH2 4421   7.001   5.355   4.074
 1486TIP3    H1 4422   6.956   5.297   4.136
 1486TIP3    H2 4423   6.952   5.343   3.992
 1487TIP3   OH2 4424   2.078   5.721   4.230
 1487TIP3    H1 4425   1.998   5.750   4.188
 1487TIP3    H2 4426   2.085   5.628   4.209
 1488TIP3   OH2 4427   4.420   6.713   1.921
 1488TIP3    H1 4428   4.427   6.739   1.830
 1488TIP3    H2 4429   4.508   6.686   1.946
 1489TIP3   OH2 4430   2.123   2.966   4.803
 1489TIP3    H1 4431   2.146   3.027   4.733
 1489TIP3    H2 4432   2.173   2.887   4.783
 1490TIP3   OH2 4433   0.834   5.219   0.287
 1490TIP3    H1 4434   0.847   5.287   0.353
 1490TIP3    H2 4435   0.756   5.247   0.238
 1491TIP3   OH2 4436   7.100   2.049   4.219
 1491TIP3    H1 4437   7.047   2.020   4.144
 1491TIP3    H2 4438   7.183   2.076   4.180
 1492TIP3   OH2 4439   0.625   2.442   4.235
 1492TIP3    H1 4440   0.621   2.528   4.193
 1492TIP3    H2 4441   0.547   2.439   4.290
 1493TIP3   OH2 4442   0.530   2.965   1.826
 1493TIP3    H1 4443   0.576   2.964   1.910
 1493TIP3    H2 4444   0.594   2.932   1.763
 1494TIP3   OH2 4445   0.698   2.990   3.329
 1494TIP3    H1 4446   0.692   2.901   3.366
 1494TIP3    H2 4447   0.749   3.039   3.393
 1495TIP3   OH2 4448   3.969   5.392   5.274
 1495TIP3    H1 4449   3.985   5.362   5.364
 1495TIP3    H2 4450   3.873   5.396   5.267
 1496TIP3   OH2 4451   6.230   3.962   0.105
 1496TIP3    H1 4452   6.136   3.957   0.123
 1496TIP3    H2 4453   6.248   3.885   0.051
 1497TIP3   OH2 4454   3.233   4.055   0.596
 1497TIP3    H1 4455   3.310   4.094   0.637
 1497TIP3    H2 4456   3.160   4.109   0.626
 1498TIP3   OH2 4457   0.808   2.033   4.494
 1498TIP3    H1 4458   0.798   2.124   4.521
 1498TIP3    H2 4459   0.874   1.997   4.553
 1499TIP3   OH2 4460   3.562   2.352   0.736
 1499TIP3    H1 4461   3.564   2.414   0.809
 1499TIP3    H2 4462   3.477   2.365   0.695
 1500TIP3   OH2 4463   1.626   0.484   5.838
 1500TIP3    H1 4464   1.585   0.568   5.858
 1500TIP3    H2 4465   1.719   0.505   5.825
 1501TIP3   OH2 4466   0.099   2.012   5.436
 1501TIP3    H1 4467   0.051   1.955   5.495
 1501TIP3    H2 4468   0.142   1.953   5.373
 1502TIP3   OH2 4469   2.931   4.101   1.032
 1502TIP3    H1 4470   2.919   4.188   1.068
 1502TIP3    H2 4471   2.912   4.042   1.105
 1503TIP3   OH2 4472   1.660   6.719   2.049
 1503TIP3    H1 4473   1.741   6.686   2.087
 1503TIP3    H2 4474   1.623   6.644   2.002
 1504TIP3   OH2 4475   6.480   2.890   4.118
 1504TIP3    H1 4476   6.390   2.882   4.149
 1504TIP3    H2 4477   6.513   2.969   4.160
 1505TIP3   OH2 4478   3.155   2.171   2.695
 1505TIP3    H1 4479   3.061   2.163   2.713
 1505TIP3    H2 4480   3.197   2.128   2.769
 1506TIP3   OH2 4481   0.101   0.836   4.908
 1506TIP3    H1 4482   0.148   0.917   4.928
 1506TIP3    H2 4483   0.099   0.788   4.991
 1507TIP3   OH2 4484   6.649   4.284   1.483
 1507TIP3    H1 4485   6.599   4.354   1.440
 1507TIP3    H2 4486   6.589   4.209   1.484
 1508TIP3   OH2 4487   5.105   5.714   3.000
 1508TIP3    H1 4488   5.117   5.636   2.946
 1508TIP3    H2 4489   5.012   5.713   3.022
 1509TIP3   OH2 4490   1.708   5.689   3.421
 1509TIP3    H1 4491   1.700   5.604   3.377
 1509TIP3    H2 4492   1.725   5.750   3.349
 1510TIP3   OH2 4493   1.027   5.686   4.931
 1510TIP3    H1 4494   0.946   5.688   4.983
 1510TIP3    H2 4495   1.057   5.596   4.939
 1511TIP3   OH2 4496   5.293   5.670   5.548
 1511TIP3    H1 4497   5.204   5.673   5.584
 1511TIP3    H2 4498   5.310   5.760   5.519
 1512TIP3   OH2 4499   4.458   4.522   1.709
 1512TIP3    H1 4500   4.426   4.607   1.679
 1512TIP3    H2 4501   4.503   4.541   1.791
 1513TIP3   OH2 4502   6.848   1.307   1.371
 1513TIP3    H1 4503   6.887   1.225   1.340
 1513TIP3    H2 4504   6.922   1.362   1.396
 1514TIP3   OH2 4505   4.483   4.776   0.186
 1514TIP3    H1 4506   4.412   4.791   0.249
 1514TIP3    H2 4507   4.540   4.852   0.195
 1515TIP3   OH2 4508   3.793   1.380   2.823
 1515TIP3    H1 4509   3.726   1.414   2.763
 1515TIP3    H2 4510   3.759   1.401   2.910
 1516TIP3   OH2 4511   4.230   3.381   1.173
 1516TIP3    H1 4512   4.239   3.361   1.266
 1516TIP3    H2 4513   4.187   3.305   1.136
 1517TIP3   OH2 4514   5.409   3.983   4.627
 1517TIP3    H1 4515   5.332   3.926   4.629
 1517TIP3    H2 4516   5.396   4.039   4.550
 1518TIP3   OH2 4517   3.293   4.054   3.942
 1518TIP3    H1 4518   3.301   4.127   3.880
 1518TIP3    H2 4519   3.205   4.020   3.927
 1519TIP3   OH2 4520   6.585   0.692   4.701
 1519TIP3    H1 4521   6.589   0.596   4.708
 1519TIP3    H2 4522   6.529   0.718   4.774
 1520TIP3   OH2 4523   6.474   0.199   4.261
 1520TIP3    H1 4524   6.506   0.159   4.341
 1520TIP3    H2 4525   6.475   0.128   4.196
 1521TIP3   OH2 4526   4.644   5.970   4.753
 1521TIP3    H1 4527   4.551   5.979   4.774
 1521TIP3    H2 4528   4.647   5.903   4.685
 1522TIP3   OH2 4529   0.465   0.566   5.759
 1522TIP3    H1 4530   0.384   0.584   5.808
 1522TIP3    H2 4531   0.528   0.629   5.794
 1523TIP3   OH2 4532   2.023   3.213   5.702
 1523TIP3    H1 4533   1.977   3.224   5.786
 1523TIP3    H2 4534   1.957   3.176   5.643
 1524TIP3   OH2 4535   3.843   2.855   2.612
 1524TIP3    H1 4536   3.861   2.825   2.701
 1524TIP3    H2 4537   3.890   2.794   2.556
 1525TIP3   OH2 4538   2.727   5.488   2.013
 1525TIP3    H1 4539   2.647   5.436   2.020
 1525TIP3    H2 4540   2.797   5.429   2.039
 1526TIP3   OH2 4541   5.489   3.461   2.771
 1526TIP3    H1 4542   5.434   3.468   2.693
 1526TIP3    H2 4543   5.571   3.426   2.738
 1527TIP3   OH2 4544   2.122   5.537   5.719
 1527TIP3    H1 4545   2.045   5.481   5.707
 1527TIP3    H2 4546   2.098   5.619   5.675
 1528TIP3   OH2 4547   6.529   1.046   4.277
 1528TIP3    H1 4548   6.621   1.045   4.252
 1528TIP3    H2 4549   6.497   0.958   4.254
 1529TIP3   OH2 4550   0.091   1.503   5.630
 1529TIP3    H1 4551   0.093   1.428   5.690
 1529TIP3    H2 4552   0.017   1.485   5.571
 1530TIP3   OH2 4553   7.088   0.266   3.375
 1530TIP3    H1 4554   7.038   0.248   3.295
 1530TIP3    H2 4555   7.024   0.306   3.434
 1531TIP3   OH2 4556   7.168   4.998   1.655
 1531TIP3    H1 4557   7.211   4.997   1.740
 1531TIP3    H2 4558   7.240   4.991   1.591
 1532TIP3   OH2 4559   3.298   4.586   4.778
 1532TIP3    H1 4560   3.232   4.655   4.783
 1532TIP3    H2 4561   3.357   4.616   4.708
 1533TIP3   OH2 4562   6.379   0.787   4.253
 1533TIP3    H1 4563   6.341   0.807   4.167
 1533TIP3    H2 4564   6.337   0.705   4.279
 1534TIP3   OH2 4565   3.405   6.543   3.186
 1534TIP3    H1 4566   3.477   6.601   3.209
 1534TIP3    H2 4567   3.360   6.525   3.269
 1535TIP3   OH2 4568   5.280   3.128   1.161
 1535TIP3    H1 4569   5.235   3.057   1.207
 1535TIP3    H2 4570   5.240   3.208   1.196
 1536TIP3   OH2 4571   2.865   4.201   3.180
 1536TIP3    H1 4572   2.882   4.246   3.262
 1536TIP3    H2 4573   2.928   4.238   3.118
 1537TIP3   OH2 4574   7.137   0.350   2.758
 1537TIP3    H1 4575   7.054   0.377   2.797
 1537TIP3    H2 4576   7.152   0.412   2.687
 1538TIP3   OH2 4577   0.401   0.059   2.604
 1538TIP3    H1 4578   0.384  -0.014   2.544
 1538TIP3    H2 4579   0.320   0.067   2.655
 1539TIP3   OH2 4580   1.172   6.786   1.276
 1539TIP3    H1 4581   1.096   6.733   1.303
 1539TIP3    H2 4582   1.230   6.784   1.352
 1540TIP3   OH2 4583   0.679   5.716   0.776
 1540TIP3    H1 4584   0.749   5.660   0.808
 1540TIP3    H2 4585   0.710   5.805   0.793
 1541TIP3   OH2 4586   2.152   1.388   0.056
 1541TIP3    H1 4587   2.159   1.335   0.136
 1541TIP3    H2 4588   2.223   1.452   0.064
 1542TIP3   OH2 4589   3.843   5.417   0.576
 1542TIP3    H1 4590   3.796   5.487   0.531
 1542TIP3    H2 4591   3.774   5.364   0.616
 1543TIP3   OH2 4592   2.522   5.323   2.051
 1543TIP3    H1 4593   2.470   5.242   2.052
 1543TIP3    H2 4594   2.456   5.393   2.051
 1544TIP3   OH2 4595   6.572   6.210   3.157
 1544TIP3    H1 4596   6.640   6.187   3.221
 1544TIP3    H2 4597   6.493   6.168   3.190
 1545TIP3   OH2 4598   5.676   0.425   5.924
 1545TIP3    H1 4599   5.709   0.362   5.989
 1545TIP3    H2 4600   5.667   0.374   5.844
 1546TIP3   OH2 4601   4.894   0.867   4.256
 1546TIP3    H1 4602   4.871   0.921   4.181
 1546TIP3    H2 4603   4.941   0.926   4.315
 1547TIP3   OH2 4604   2.932   1.052   4.532
 1547TIP3    H1 4605   2.905   1.115   4.599
 1547TIP3    H2 4606   3.014   1.016   4.566
 1548TIP3   OH2 4607   4.593   6.521   2.048
 1548TIP3    H1 4608   4.605   6.449   2.109
 1548TIP3    H2 4609   4.534   6.487   1.981
 1549TIP3   OH2 4610   5.715   1.997   4.703
 1549TIP3    H1 4611   5.644   2.000   4.768
 1549TIP3    H2 4612   5.749   1.908   4.709
 1550TIP3   OH2 4613   3.642   0.808   5.228
 1550TIP3    H1 4614   3.737   0.813   5.217
 1550TIP3    H2 4615   3.629   0.774   5.316
 1551TIP3   OH2 4616   1.614   5.896   4.764
 1551TIP3    H1 4617   1.606   5.880   4.670
 1551TIP3    H2 4618   1.525   5.891   4.797
 1552TIP3   OH2 4619   4.963   0.193   1.459
 1552TIP3    H1 4620   4.998   0.215   1.373
 1552TIP3    H2 4621   4.885   0.248   1.468
 1553TIP3   OH2 4622   3.976   1.999   1.542
 1553TIP3    H1 4623   4.011   1.942   1.473
 1553TIP3    H2 4624   3.949   1.938   1.611
 1554TIP3   OH2 4625   3.951   1.368   3.272
 1554TIP3    H1 4626   3.956   1.444   3.215
 1554TIP3    H2 4627   3.910   1.300   3.218
 1555TIP3   OH2 4628   4.776   5.153   0.921
 1555TIP3    H1 4629   4.705   5.178   0.862
 1555TIP3    H2 4630   4.845   5.121   0.862
 1556TIP3   OH2 4631   3.724   3.008   3.575
 1556TIP3    H1 4632   3.736   2.957   3.655
 1556TIP3    H2 4633   3.813   3.032   3.548
 1557TIP3   OH2 4634   3.016   4.570   1.311
 1557TIP3    H1 4635   3.103   4.557   1.348
 1557TIP3    H2 4636   2.956   4.560   1.385
 1558TIP3   OH2 4637   4.880   1.714   2.053
 1558TIP3    H1 4638   4.950   1.740   2.113
 1558TIP3    H2 4639   4.844   1.797   2.021
 1559TIP3   OH2 4640   5.312  -0.004   5.293
 1559TIP3    H1 4641   5.285   0.070   5.239
 1559TIP3    H2 4642   5.230  -0.051   5.313
 1560TIP3   OH2 4643   5.409   2.366   3.775
 1560TIP3    H1 4644   5.410   2.309   3.699
 1560TIP3    H2 4645   5.389   2.307   3.848
 1561TIP3   OH2 4646   1.466   6.334   3.266
 1561TIP3    H1 4647   1.472   6.395   3.192
 1561TIP3    H2 4648   1.415   6.260   3.232
 1562TIP3   OH2 4649   4.750   2.239   1.580
 1562TIP3    H1 4650   4.711   2.322   1.556
 1562TIP3    H2 4651   4.708   2.175   1.523
 1563TIP3   OH2 4652   2.829   4.496   0.927
 1563TIP3    H1 4653   2.745   4.459   0.901
 1563TIP3    H2 4654   2.825   4.588   0.900
 1564TIP3   OH2 4655   5.949   3.020   0.008
 1564TIP3    H1 4656   5.992   3.017   0.094
 1564TIP3    H2 4657   5.865   3.061   0.024
 1565TIP3   OH2 4658   5.753   5.810   2.058
 1565TIP3    H1 4659   5.722   5.818   1.967
 1565TIP3    H2 4660   5.797   5.893   2.076
 1566TIP3   OH2 4661   6.411   5.077   1.475
 1566TIP3    H1 4662   6.362   5.024   1.412
 1566TIP3    H2 4663   6.497   5.090   1.433
 1567TIP3   OH2 4664   4.709   4.181   3.267
 1567TIP3    H1 4665   4.775   4.211   3.204
 1567TIP3    H2 4666   4.753   4.187   3.352
 1568TIP3   OH2 4667   2.458   3.288   3.370
 1568TIP3    H1 4668   2.546   3.253   3.356
 1568TIP3    H2 4669   2.418   3.289   3.283
 1569TIP3   OH2 4670   4.843   0.596   2.453
 1569TIP3    H1 4671   4.792   0.675   2.474
 1569TIP3    H2 4672   4.920   0.603   2.509
 1570TIP3   OH2 4673   2.499   6.840   3.610
 1570TIP3    H1 4674   2.557   6.801   3.676
 1570TIP3    H2 4675   2.503   6.778   3.537
 1571TIP3   OH2 4676   1.977   4.011   3.648
 1571TIP3    H1 4677   1.905   4.004   3.585
 1571TIP3    H2 4678   1.969   4.099   3.683
 1572TIP3   OH2 4679   0.596   0.299   2.898
 1572TIP3    H1 4680   0.668   0.353   2.931
 1572TIP3    H2 4681   0.517   0.340   2.934
 1573TIP3   OH2 4682   6.366   6.650   1.664
 1573TIP3    H1 4683   6.302   6.607   1.721
 1573TIP3    H2 4684   6.336   6.632   1.576
 1574TIP3   OH2 4685   0.910   5.728   0.135
 1574TIP3    H1 4686   0.980   5.711   0.198
 1574TIP3    H2 4687   0.902   5.647   0.085
 1575TIP3   OH2 4688   1.483   4.127   0.594
 1575TIP3    H1 4689   1.565   4.120   0.643
 1575TIP3    H2 4690   1.487   4.055   0.530
 1576TIP3   OH2 4691   2.013   0.353   5.629
 1576TIP3    H1 4692   2.006   0.301   5.710
 1576TIP3    H2 4693   2.063   0.297   5.569
 1577TIP3   OH2 4694   0.792   0.121   0.522
 1577TIP3    H1 4695   0.750   0.110   0.436
 1577TIP3    H2 4696   0.874   0.166   0.503
 1578TIP3   OH2 4697   0.969   6.131   1.364
 1578TIP3    H1 4698   1.035   6.135   1.295
 1578TIP3    H2 4699   0.932   6.219   1.366
 1579TIP3   OH2 4700   3.971   4.262   4.891
 1579TIP3    H1 4701   4.052   4.228   4.928
 1579TIP3    H2 4702   3.982   4.251   4.796
 1580TIP3   OH2 4703   6.115   4.421   0.255
 1580TIP3    H1 4704   6.188   4.368   0.223
 1580TIP3    H2 4705   6.102   4.391   0.345
 1581TIP3   OH2 4706   1.363   2.781   4.514
 1581TIP3    H1 4707   1.429   2.711   4.512
 1581TIP3    H2 4708   1.371   2.824   4.429
 1582TIP3   OH2 4709   3.974   4.956   3.024
 1582TIP3    H1 4710   3.992   5.049   3.042
 1582TIP3    H2 4711   4.060   4.919   3.004
 1583TIP3   OH2 4712   0.049   5.798   3.841
 1583TIP3    H1 4713   0.011   5.781   3.927
 1583TIP3    H2 4714   0.141   5.772   3.850
 1584TIP3   OH2 4715   7.124   2.972   3.297
 1584TIP3    H1 4716   7.164   2.949   3.214
 1584TIP3    H2 4717   7.152   3.062   3.313
 1585TIP3   OH2 4718   2.672   4.289   4.022
 1585TIP3    H1 4719   2.634   4.303   3.935
 1585TIP3    H2 4720   2.765   4.278   4.005
 1586TIP3   OH2 4721   6.749   4.806   0.859
 1586TIP3    H1 4722   6.745   4.790   0.765
 1586TIP3    H2 4723   6.719   4.724   0.898
 1587TIP3   OH2 4724   6.028   2.327   0.534
 1587TIP3    H1 4725   5.978   2.282   0.601
 1587TIP3    H2 4726   6.097   2.265   0.509
 1588TIP3   OH2 4727   0.329   6.306   3.774
 1588TIP3    H1 4728   0.323   6.225   3.825
 1588TIP3    H2 4729   0.264   6.295   3.705
 1589TIP3   OH2 4730   0.906   6.334   1.862
 1589TIP3    H1 4731   0.822   6.299   1.830
 1589TIP3    H2 4732   0.961   6.256   1.873
 1590TIP3   OH2 4733   5.923   4.998   1.503
 1590TIP3    H1 4734   5.974   4.930   1.546
 1590TIP3    H2 4735   5.971   5.079   1.522
 1591TIP3   OH2 4736   2.251   0.212   3.071
 1591TIP3    H1 4737   2.162   0.243   3.088
 1591TIP3    H2 4738   2.271   0.156   3.146
 1592TIP3   OH2 4739   1.409   3.927   2.129
 1592TIP3    H1 4740   1.325   3.935   2.175
 1592TIP3    H2 4741   1.403   3.843   2.083
 1593TIP3   OH2 4742   4.718   6.512   1.298
 1593TIP3    H1 4743   4.671   6.449   1.352
 1593TIP3    H2 4744   4.779   6.555   1.358
 1594TIP3   OH2 4745   1.161   5.760   4.383
 1594TIP3    H1 4746   1.149   5.672   4.349
 1594TIP3    H2 4747   1.144   5.752   4.477
 1595TIP3   OH2 4748   6.583   4.657   5.171
 1595TIP3    H1 4749   6.671   4.692   5.157
 1595TIP3    H2 4750   6.555   4.627   5.084
 1596TIP3   OH2 4751   1.098   6.198   0.423
 1596TIP3    H1 4752   1.114   6.115   0.467
 1596TIP3    H2 4753   1.185   6.239   0.418
 1597TIP3   OH2 4754   2.687   4.895   5.679
 1597TIP3    H1 4755   2.626   4.898   5.752
 1597TIP3    H2 4756   2.694   4.802   5.658
 1598TIP3   OH2 4757   3.504   6.231   4.374
 1598TIP3    H1 4758   3.569   6.171   4.339
 1598TIP3    H2 4759   3.553   6.289   4.432
 1599TIP3   OH2 4760   7.122   3.473   2.321
 1599TIP3    H1 4761   7.108   3.499   2.412
 1599TIP3    H2 4762   7.183   3.399   2.326
 1600TIP3   OH2 4763   4.007   4.866   2.085
 1600TIP3    H1 4764   3.961   4.894   2.164
 1600TIP3    H2 4765   4.043   4.946   2.048
 1601TIP3   OH2 4766   3.610   6.319   0.665
 1601TIP3    H1 4767   3.659   6.293   0.743
 1601TIP3    H2 4768   3.523   6.281   0.679
 1602TIP3   OH2 4769   3.613   4.835   1.421
 1602TIP3    H1 4770   3.542   4.815   1.360
 1602TIP3    H2 4771   3.622   4.930   1.418
 1603TIP3   OH2 4772   5.332   5.284   4.406
 1603TIP3    H1 4773   5.388   5.238   4.469
 1603TIP3    H2 4774   5.354   5.376   4.417
 1604TIP3   OH2 4775   3.354   6.132   0.089
 1604TIP3    H1 4776   3.292   6.114   0.160
 1604TIP3    H2 4777   3.382   6.223   0.104
 1605TIP3   OH2 4778   3.912   2.204   0.579
 1605TIP3    H1 4779   3.973   2.264   0.622
 1605TIP3    H2 4780   3.949   2.117   0.596
 1606TIP3   OH2 4781   5.298   3.242   4.084
 1606TIP3    H1 4782   5.303   3.180   4.012
 1606TIP3    H2 4783   5.230   3.206   4.142
 1607TIP3   OH2 4784   2.519   5.782   1.731
 1607TIP3    H1 4785   2.533   5.762   1.823
 1607TIP3    H2 4786   2.606   5.803   1.697
 1608TIP3   OH2 4787   6.725   2.379   2.649
 1608TIP3    H1 4788   6.810   2.379   2.605
 1608TIP3    H2 4789   6.664   2.344   2.585
 1609TIP3   OH2 4790   0.071   0.097   3.282
 1609TIP3    H1 4791   0.036   0.041   3.351
 1609TIP3    H2 4792   0.025   0.180   3.293
 1610TIP3   OH2 4793   5.128   0.044   4.144
 1610TIP3    H1 4794   5.202   0.070   4.090
 1610TIP3    H2 4795   5.072   0.121   4.147
 1611TIP3   OH2 4796   4.531   2.099   3.095
 1611TIP3    H1 4797   4.565   2.115   3.007
 1611TIP3    H2 4798   4.460   2.163   3.105
 1612TIP3   OH2 4799   6.580   2.651   2.991
 1612TIP3    H1 4800   6.567   2.577   2.931
 1612TIP3    H2 4801   6.519   2.718   2.960
 1613TIP3   OH2 4802   6.960   0.175   1.325
 1613TIP3    H1 4803   7.041   0.147   1.281
 1613TIP3    H2 4804   6.981   0.262   1.359
 1614TIP3   OH2 4805   1.036   4.522   4.602
 1614TIP3    H1 4806   1.121   4.501   4.565
 1614TIP3    H2 4807   1.049   4.605   4.649
 1615TIP3   OH2 4808   3.065   0.342   0.817
 1615TIP3    H1 4809   3.123   0.321   0.744
 1615TIP3    H2 4810   3.002   0.405   0.780
 1616TIP3   OH2 4811   5.276   0.761   4.482
 1616TIP3    H1 4812   5.199   0.716   4.515
 1616TIP3    H2 4813   5.253   0.784   4.392
 1617TIP3   OH2 4814   2.024   5.419   5.412
 1617TIP3    H1 4815   1.980   5.452   5.334
 1617TIP3    H2 4816   2.115   5.445   5.401
 1618TIP3   OH2 4817   5.486   0.291   2.188
 1618TIP3    H1 4818   5.432   0.366   2.211
 1618TIP3    H2 4819   5.423   0.227   2.152
 1619TIP3   OH2 4820   3.344   1.486   1.442
 1619TIP3    H1 4821   3.375   1.554   1.502
 1619TIP3    H2 4822   3.279   1.529   1.388
 1620TIP3   OH2 4823   5.072   5.231   5.071
 1620TIP3    H1 4824   4.991   5.278   5.049
 1620TIP3    H2 4825   5.119   5.225   4.988
 1621TIP3   OH2 4826   4.760   0.610   4.212
 1621TIP3    H1 4827   4.816   0.678   4.249
 1621TIP3    H2 4828   4.766   0.622   4.118
 1622TIP3   OH2 4829   1.995   0.911   3.076
 1622TIP3    H1 4830   1.995   0.928   3.170
 1622TIP3    H2 4831   2.088   0.904   3.053
 1623TIP3   OH2 4832   6.705   6.467   2.648
 1623TIP3    H1 4833   6.732   6.506   2.565
 1623TIP3    H2 4834   6.777   6.409   2.672
 1624TIP3   OH2 4835   4.745   1.476   2.972
 1624TIP3    H1 4836   4.797   1.451   3.048
 1624TIP3    H2 4837   4.777   1.420   2.902
 1625TIP3   OH2 4838   0.098   0.181   4.745
 1625TIP3    H1 4839   0.081   0.145   4.832
 1625TIP3    H2 4840   0.165   0.248   4.760
 1626TIP3   OH2 4841   6.129   4.772   4.926
 1626TIP3    H1 4842   6.090   4.743   5.009
 1626TIP3    H2 4843   6.059   4.819   4.881
 1627TIP3   OH2 4844   4.228   5.131   0.702
 1627TIP3    H1 4845   4.256   5.058   0.758
 1627TIP3    H2 4846   4.278   5.120   0.621
 1628TIP3   OH2 4847   4.343   3.558   3.727
 1628TIP3    H1 4848   4.320   3.639   3.774
 1628TIP3    H2 4849   4.303   3.568   3.640
 1629TIP3   OH2 4850   0.909   1.884   5.732
 1629TIP3    H1 4851   0.851   1.861   5.805
 1629TIP3    H2 4852   0.908   1.806   5.676
 1630TIP3   OH2 4853   4.755   2.992   3.621
 1630TIP3    H1 4854   4.785   3.045   3.695
 1630TIP3    H2 4855   4.815   2.918   3.619
 1631TIP3   OH2 4856   5.013   3.866   3.027
 1631TIP3    H1 4857   4.926   3.888   2.991
 1631TIP3    H2 4858   4.995   3.796   3.090
 1632TIP3   OH2 4859   5.600   0.428   4.158
 1632TIP3    H1 4860   5.694   0.442   4.169
 1632TIP3    H2 4861   5.587   0.336   4.177
 1633TIP3   OH2 4862   2.117   1.951   4.708
 1633TIP3    H1 4863   2.109   2.020   4.775
 1633TIP3    H2 4864   2.201   1.909   4.727
 1634TIP3   OH2 4865   4.579   3.896   0.800
 1634TIP3    H1 4866   4.619   3.922   0.717
 1634TIP3    H2 4867   4.635   3.827   0.833
 1635TIP3   OH2 4868   1.685   6.377   2.545
 1635TIP3    H1 4869   1.626   6.345   2.613
 1635TIP3    H2 4870   1.773   6.357   2.577
 1636TIP3   OH2 4871   5.071   2.594   4.153
 1636TIP3    H1 4872   5.006   2.575   4.220
 1636TIP3    H2 4873   5.098   2.508   4.120
 1637TIP3   OH2 4874   2.218   2.266   3.121
 1637TIP3    H1 4875   2.233   2.211   3.044
 1637TIP3    H2 4876   2.273   2.227   3.190
 1638TIP3   OH2 4877   6.237   4.203   4.134
 1638TIP3    H1 4878   6.270   4.113   4.128
 1638TIP3    H2 4879   6.224   4.217   4.228
 1639TIP3   OH2 4880   2.521   1.341   2.560
 1639TIP3    H1 4881   2.521   1.365   2.653
 1639TIP3    H2 4882   2.430   1.318   2.541
 1640TIP3   OH2 4883   1.684   0.793   2.572
 1640TIP3    H1 4884   1.692   0.782   2.477
 1640TIP3    H2 4885   1.629   0.719   2.600
 1641TIP3   OH2 4886   2.598   4.240   2.142
 1641TIP3    H1 4887   2.629   4.158   2.104
 1641TIP3    H2 4888   2.673   4.299   2.139
 1642TIP3   OH2 4889   2.408   3.466   0.855
 1642TIP3    H1 4890   2.458   3.432   0.930
 1642TIP3    H2 4891   2.394   3.389   0.800
 1643TIP3   OH2 4892   5.835   2.446   5.643
 1643TIP3    H1 4893   5.913   2.401   5.676
 1643TIP3    H2 4894   5.867   2.497   5.568
 1644TIP3   OH2 4895   0.142   6.320   3.251
 1644TIP3    H1 4896   0.092   6.321   3.169
 1644TIP3    H2 4897   0.124   6.405   3.292
 1645TIP3   OH2 4898   3.456   2.732   1.533
 1645TIP3    H1 4899   3.515   2.795   1.575
 1645TIP3    H2 4900   3.397   2.786   1.480
 1646TIP3   OH2 4901   4.028   4.305   4.231
 1646TIP3    H1 4902   3.971   4.259   4.170
 1646TIP3    H2 4903   4.062   4.236   4.289
 1647TIP3   OH2 4904   1.664   0.221   2.309
 1647TIP3    H1 4905   1.720   0.165   2.255
 1647TIP3    H2 4906   1.721   0.253   2.378
 1648TIP3   OH2 4907   6.253   3.870   4.668
 1648TIP3    H1 4908   6.253   3.775   4.652
 1648TIP3    H2 4909   6.168   3.899   4.635
 1649TIP3   OH2 4910   0.269   3.941   3.012
 1649TIP3    H1 4911   0.200   4.006   3.023
 1649TIP3    H2 4912   0.347   3.992   2.989
 1650TIP3   OH2 4913   2.471   4.227   2.905
 1650TIP3    H1 4914   2.544   4.201   2.961
 1650TIP3    H2 4915   2.512   4.282   2.837
 1651TIP3   OH2 4916   5.660   0.665   1.413
 1651TIP3    H1 4917   5.575   0.677   1.454
 1651TIP3    H2 4918   5.656   0.578   1.373
 1652TIP3   OH2 4919   3.446   2.627   0.453
 1652TIP3    H1 4920   3.483   2.649   0.367
 1652TIP3    H2 4921   3.522   2.624   0.511
 1653TIP3   OH2 4922   5.123   5.343   3.059
 1653TIP3    H1 4923   5.134   5.249   3.044
 1653TIP3    H2 4924   5.115   5.380   2.971
 1654TIP3   OH2 4925   3.971   2.740   5.245
 1654TIP3    H1 4926   3.928   2.699   5.320
 1654TIP3    H2 4927   3.929   2.826   5.238
 1655TIP3   OH2 4928   3.296   3.334   2.569
 1655TIP3    H1 4929   3.239   3.291   2.505
 1655TIP3    H2 4930   3.269   3.298   2.654
 1656TIP3   OH2 4931   0.372   4.858   4.468
 1656TIP3    H1 4932   0.417   4.819   4.393
 1656TIP3    H2 4933   0.280   4.834   4.456
 1657TIP3   OH2 4934   5.905   1.737   3.441
 1657TIP3    H1 4935   5.914   1.684   3.520
 1657TIP3    H2 4936   5.838   1.801   3.462
 1658TIP3   OH2 4937   0.934   1.488   3.907
 1658TIP3    H1 4938   0.858   1.435   3.887
 1658TIP3    H2 4939   0.899   1.566   3.951
 1659TIP3   OH2 4940   2.132   1.386   2.705
 1659TIP3    H1 4941   2.194   1.346   2.644
 1659TIP3    H2 4942   2.170   1.371   2.791
 1660TIP3   OH2 4943   6.041   5.260   1.588
 1660TIP3    H1 4944   6.030   5.335   1.647
 1660TIP3    H2 4945   5.989   5.283   1.511
 1661TIP3   OH2 4946   6.282   0.942   3.848
 1661TIP3    H1 4947   6.190   0.963   3.837
 1661TIP3    H2 4948   6.284   0.872   3.914
 1662TIP3   OH2 4949   6.365   4.149   0.276
 1662TIP3    H1 4950   6.313   4.093   0.218
 1662TIP3    H2 4951   6.302   4.178   0.342
 1663TIP3   OH2 4952   3.811   3.968   0.236
 1663TIP3    H1 4953   3.737   4.027   0.222
 1663TIP3    H2 4954   3.792   3.892   0.179
 1664TIP3   OH2 4955   3.948   3.066   2.072
 1664TIP3    H1 4956   3.884   3.068   2.144
 1664TIP3    H2 4957   3.925   3.140   2.017
 1665TIP3   OH2 4958   5.231   2.849   2.808
 1665TIP3    H1 4959   5.251   2.895   2.890
 1665TIP3    H2 4960   5.151   2.801   2.826
 1666TIP3   OH2 4961   1.992   1.041   3.731
 1666TIP3    H1 4962   2.061   1.070   3.791
 1666TIP3    H2 4963   1.983   0.947   3.750
 1667TIP3   OH2 4964   4.334   0.771   5.280
 1667TIP3    H1 4965   4.398   0.830   5.320
 1667TIP3    H2 4966   4.250   0.797   5.319
 1668TIP3   OH2 4967   2.560   0.050   5.534
 1668TIP3    H1 4968   2.582   0.133   5.576
 1668TIP3    H2 4969   2.527   0.074   5.448
 1669TIP3   OH2 4970   2.651   1.053   1.079
 1669TIP3    H1 4971   2.685   0.968   1.051
 1669TIP3    H2 4972   2.665   1.055   1.173
 1670TIP3   OH2 4973   4.774   2.099   4.516
 1670TIP3    H1 4974   4.715   2.121   4.444
 1670TIP3    H2 4975   4.720   2.047   4.576
 1671TIP3   OH2 4976   0.384   3.059   3.591
 1671TIP3    H1 4977   0.397   3.092   3.503
 1671TIP3    H2 4978   0.289   3.065   3.605
 1672TIP3   OH2 4979   0.515   3.018   1.163
 1672TIP3    H1 4980   0.479   2.940   1.119
 1672TIP3    H2 4981   0.594   2.986   1.206
 1673TIP3   OH2 4982   2.681   5.942   2.935
 1673TIP3    H1 4983   2.747   6.010   2.944
 1673TIP3    H2 4984   2.603   5.979   2.976
 1674TIP3   OH2 4985   2.427   6.595   0.003
 1674TIP3    H1 4986   2.385   6.510   0.016
 1674TIP3    H2 4987   2.500   6.577  -0.056
 1675TIP3   OH2 4988   1.710   1.975   0.165
 1675TIP3    H1 4989   1.688   1.884   0.144
 1675TIP3    H2 4990   1.760   1.968   0.247
 1676TIP3   OH2 4991   3.091   2.481   1.114
 1676TIP3    H1 4992   3.005   2.492   1.153
 1676TIP3    H2 4993   3.080   2.508   1.022
 1677TIP3   OH2 4994   3.125   1.124   5.129
 1677TIP3    H1 4995   3.173   1.184   5.186
 1677TIP3    H2 4996   3.158   1.144   5.041
 1678TIP3   OH2 4997   0.452   6.018   2.723
 1678TIP3    H1 4998   0.405   5.964   2.786
 1678TIP3    H2 4999   0.540   5.981   2.720
 1679TIP3   OH2 5000   4.860   4.066   5.592
 1679TIP3    H1 5001   4.901   3.982   5.614
 1679TIP3    H2 5002   4.933   4.123   5.570
 1680TIP3   OH2 5003   1.459   3.746   4.428
 1680TIP3    H1 5004   1.456   3.650   4.435
 1680TIP3    H2 5005   1.391   3.776   4.488
 1681TIP3   OH2 5006   1.208   0.230   3.303
 1681TIP3    H1 5007   1.152   0.299   3.338
 1681TIP3    H2 5008   1.293   0.274   3.289
 1682TIP3   OH2 5009   1.380   2.944   1.838
 1682TIP3    H1 5010   1.322   3.017   1.814
 1682TIP3    H2 5011   1.434   2.930   1.760
 1683TIP3   OH2 5012   5.620   1.670   5.028
 1683TIP3    H1 5013   5.622   1.575   5.028
 1683TIP3    H2 5014   5.654   1.695   5.115
 1684TIP3   OH2 5015   0.440   1.119   5.054
 1684TIP3    H1 5016   0.401   1.044   5.099
 1684TIP3    H2 5017   0.533   1.098   5.047
 1685TIP3   OH2 5018   5.975   0.851   3.291
 1685TIP3    H1 5019   5.965   0.757   3.303
 1685TIP3    H2 5020   5.886   0.883   3.275
 1686TIP3   OH2 5021   1.136   1.475   0.813
 1686TIP3    H1 5022   1.085   1.479   0.732
 1686TIP3    H2 5023   1.153   1.567   0.835
 1687TIP3   OH2 5024   2.802   6.401   3.174
 1687TIP3    H1 5025   2.847   6.439   3.249
 1687TIP3    H2 5026   2.778   6.476   3.119
 1688TIP3   OH2 5027   6.933   5.080   3.278
 1688TIP3    H1 5028   7.006   5.137   3.253
 1688TIP3    H2 5029   6.884   5.066   3.197
 1689TIP3   OH2 5030   2.221   0.861   0.170
 1689TIP3    H1 5031   2.274   0.922   0.222
 1689TIP3    H2 5032   2.273   0.844   0.092
 1690TIP3   OH2 5033   2.469   6.532   2.994
 1690TIP3    H1 5034   2.462   6.627   2.992
 1690TIP3    H2 5035   2.415   6.505   3.068
 1691TIP3   OH2 5036   0.791   2.923   4.123
 1691TIP3    H1 5037   0.869   2.878   4.154
 1691TIP3    H2 5038   0.824   3.002   4.080
 1692TIP3   OH2 5039   6.919   6.362   5.649
 1692TIP3    H1 5040   6.935   6.280   5.695
 1692TIP3    H2 5041   6.824   6.376   5.656
 1693TIP3   OH2 5042   6.714   0.592   2.319
 1693TIP3    H1 5043   6.739   0.502   2.340
 1693TIP3    H2 5044   6.798   0.636   2.304
 1694TIP3   OH2 5045   3.709   4.606   2.524
 1694TIP3    H1 5046   3.749   4.528   2.486
 1694TIP3    H2 5047   3.695   4.584   2.616
 1695TIP3   OH2 5048   3.142   4.851   5.483
 1695TIP3    H1 5049   3.198   4.872   5.408
 1695TIP3    H2 5050   3.066   4.808   5.444
 1696TIP3   OH2 5051   4.544   2.151   0.059
 1696TIP3    H1 5052   4.527   2.058   0.072
 1696TIP3    H2 5053   4.603   2.155  -0.016
 1697TIP3   OH2 5054   3.492   5.773   5.510
 1697TIP3    H1 5055   3.403   5.796   5.536
 1697TIP3    H2 5056   3.547   5.816   5.576
 1698TIP3   OH2 5057   5.744   3.109   3.300
 1698TIP3    H1 5058   5.675   3.175   3.296
 1698TIP3    H2 5059   5.802   3.139   3.370
 1699TIP3   OH2 5060   6.215   0.459   3.928
 1699TIP3    H1 5061   6.286   0.429   3.871
 1699TIP3    H2 5062   6.213   0.396   3.999
 1700TIP3   OH2 5063   1.277   5.486   0.251
 1700TIP3    H1 5064   1.360   5.447   0.280
 1700TIP3    H2 5065   1.248   5.428   0.180
 1701TIP3   OH2 5066   2.022   2.073   0.940
 1701TIP3    H1 5067   2.014   2.168   0.944
 1701TIP3    H2 5068   1.973   2.049   0.861
 1702TIP3   OH2 5069   4.142   3.814   2.531
 1702TIP3    H1 5070   4.219   3.761   2.509
 1702TIP3    H2 5071   4.136   3.878   2.460
 1703TIP3   OH2 5072   6.564   4.809   0.301
 1703TIP3    H1 5073   6.518   4.730   0.329
 1703TIP3    H2 5074   6.531   4.826   0.213
 1704TIP3   OH2 5075   4.454   4.635   5.728
 1704TIP3    H1 5076   4.487   4.695   5.795
 1704TIP3    H2 5077   4.415   4.692   5.662
 1705TIP3   OH2 5078   4.783   3.930   1.242
 1705TIP3    H1 5079   4.850   3.863   1.256
 1705TIP3    H2 5080   4.831   4.005   1.207
 1706TIP3   OH2 5081   2.326   1.223   0.759
 1706TIP3    H1 5082   2.258   1.291   0.763
 1706TIP3    H2 5083   2.334   1.191   0.849
 1707TIP3   OH2 5084   1.700   4.330   3.803
 1707TIP3    H1 5085   1.659   4.296   3.723
 1707TIP3    H2 5086   1.711   4.253   3.859
 1708TIP3   OH2 5087   5.756   4.735   3.496
 1708TIP3    H1 5088   5.796   4.663   3.447
 1708TIP3    H2 5089   5.829   4.772   3.547
 1709TIP3   OH2 5090   6.665   3.902   1.427
 1709TIP3    H1 5091   6.706   3.830   1.379
 1709TIP3    H2 5092   6.686   3.980   1.376
 1710TIP3   OH2 5093   2.422   4.413   0.422
 1710TIP3    H1 5094   2.461   4.328   0.443
 1710TIP3    H2 5095   2.330   4.394   0.405
 1711TIP3   OH2 5096   2.564   2.727   5.821
 1711TIP3    H1 5097   2.477   2.720   5.861
 1711TIP3    H2 5098   2.550   2.699   5.730
 1712TIP3   OH2 5099   5.839   6.277   4.879
 1712TIP3    H1 5100   5.872   6.337   4.946
 1712TIP3    H2 5101   5.836   6.330   4.799
 1713TIP3   OH2 5102   2.825   5.512   1.680
 1713TIP3    H1 5103   2.742   5.464   1.683
 1713TIP3    H2 5104   2.887   5.456   1.727
 1714TIP3   OH2 5105   1.693   1.648   0.315
 1714TIP3    H1 5106   1.646   1.723   0.352
 1714TIP3    H2 5107   1.673   1.650   0.222
 1715TIP3   OH2 5108   3.060   2.411   2.599
 1715TIP3    H1 5109   3.119   2.349   2.642
 1715TIP3    H2 5110   3.011   2.358   2.536
 1716TIP3   OH2 5111   0.391   2.060   3.952
 1716TIP3    H1 5112   0.466   2.076   3.895
 1716TIP3    H2 5113   0.422   2.086   4.039
 1717TIP3   OH2 5114   0.368   0.230   0.227
 1717TIP3    H1 5115   0.309   0.241   0.301
 1717TIP3    H2 5116   0.415   0.314   0.222
 1718TIP3   OH2 5117   6.212   3.614   3.065
 1718TIP3    H1 5118   6.182   3.525   3.049
 1718TIP3    H2 5119   6.215   3.622   3.160
 1719TIP3   OH2 5120   6.109   5.463   0.181
 1719TIP3    H1 5121   6.025   5.508   0.174
 1719TIP3    H2 5122   6.165   5.505   0.115
 1720TIP3   OH2 5123   5.533   4.458   5.175
 1720TIP3    H1 5124   5.520   4.493   5.263
 1720TIP3    H2 5125   5.624   4.429   5.174
 1721TIP3   OH2 5126   1.658   4.592   2.692
 1721TIP3    H1 5127   1.695   4.591   2.780
 1721TIP3    H2 5128   1.615   4.678   2.685
 1722TIP3   OH2 5129   0.140   3.305   2.338
 1722TIP3    H1 5130   0.151   3.319   2.432
 1722TIP3    H2 5131   0.195   3.230   2.318
 1723TIP3   OH2 5132   3.581   2.545   2.875
 1723TIP3    H1 5133   3.646   2.518   2.810
 1723TIP3    H2 5134   3.531   2.466   2.893
 1724TIP3   OH2 5135   3.616   1.310   4.369
 1724TIP3    H1 5136   3.576   1.397   4.359
 1724TIP3    H2 5137   3.669   1.318   4.448
 1725TIP3   OH2 5138   3.334   2.568   0.120
 1725TIP3    H1 5139   3.416   2.603   0.084
 1725TIP3    H2 5140   3.359   2.487   0.163
 1726TIP3   OH2 5141   5.345   3.752   0.621
 1726TIP3    H1 5142   5.322   3.669   0.578
 1726TIP3    H2 5143   5.321   3.819   0.558
 1727TIP3   OH2 5144   2.470   6.169   1.945
 1727TIP3    H1 5145   2.516   6.160   2.028
 1727TIP3    H2 5146   2.420   6.250   1.954
 1728TIP3   OH2 5147   6.267   4.303   3.387
 1728TIP3    H1 5148   6.213   4.244   3.438
 1728TIP3    H2 5149   6.208   4.338   3.320
 1729TIP3   OH2 5150   5.871   2.834   2.215
 1729TIP3    H1 5151   5.837   2.912   2.259
 1729TIP3    H2 5152   5.814   2.763   2.245
 1730TIP3   OH2 5153   6.732   5.349   2.345
 1730TIP3    H1 5154   6.782   5.352   2.426
 1730TIP3    H2 5155   6.754   5.265   2.306
 1731TIP3   OH2 5156   5.391   4.873   5.213
 1731TIP3    H1 5157   5.422   4.816   5.142
 1731TIP3    H2 5158   5.350   4.947   5.168
 1732TIP3   OH2 5159   5.739   0.394   0.216
 1732TIP3    H1 5160   5.660   0.347   0.192
 1732TIP3    H2 5161   5.739   0.394   0.312
 1733TIP3   OH2 5162   1.867   0.757   0.556
 1733TIP3    H1 5163   1.824   0.837   0.586
 1733TIP3    H2 5164   1.941   0.787   0.502
 1734TIP3   OH2 5165   5.050   3.253   4.622
 1734TIP3    H1 5166   5.069   3.185   4.687
 1734TIP3    H2 5167   4.954   3.259   4.621
 1735TIP3   OH2 5168   1.322   3.270   3.836
 1735TIP3    H1 5169   1.251   3.218   3.874
 1735TIP3    H2 5170   1.386   3.280   3.907
 1736TIP3   OH2 5171   6.176   4.911   4.557
 1736TIP3    H1 5172   6.124   4.990   4.543
 1736TIP3    H2 5173   6.255   4.923   4.503
 1737TIP3   OH2 5174   5.506   0.478   3.607
 1737TIP3    H1 5175   5.417   0.500   3.633
 1737TIP3    H2 5176   5.544   0.436   3.685
 1738TIP3   OH2 5177   3.412   0.378   0.231
 1738TIP3    H1 5178   3.407   0.457   0.177
 1738TIP3    H2 5179   3.491   0.391   0.284
 1739TIP3   OH2 5180   6.337   1.087   1.648
 1739TIP3    H1 5181   6.293   1.141   1.714
 1739TIP3    H2 5182   6.349   1.146   1.574
 1740TIP3   OH2 5183   1.664   0.159   3.821
 1740TIP3    H1 5184   1.698   0.110   3.746
 1740TIP3    H2 5185   1.734   0.155   3.886
 1741TIP3   OH2 5186   4.728   6.311   3.948
 1741TIP3    H1 5187   4.749   6.242   3.885
 1741TIP3    H2 5188   4.812   6.350   3.971
 1742TIP3   OH2 5189   0.724   1.781   3.624
 1742TIP3    H1 5190   0.755   1.698   3.589
 1742TIP3    H2 5191   0.647   1.802   3.571
 1743TIP3   OH2 5192   0.279   5.976   2.482
 1743TIP3    H1 5193   0.276   5.982   2.578
 1743TIP3    H2 5194   0.302   6.064   2.453
 1744TIP3   OH2 5195   7.144   3.860   1.533
 1744TIP3    H1 5196   7.065   3.806   1.541
 1744TIP3    H2 5197   7.164   3.888   1.622
 1745TIP3   OH2 5198   6.434   4.406   1.064
 1745TIP3    H1 5199   6.351   4.415   1.018
 1745TIP3    H2 5200   6.468   4.321   1.036
 1746TIP3   OH2 5201   0.424   4.709   0.569
 1746TIP3    H1 5202   0.519   4.696   0.576
 1746TIP3    H2 5203   0.389   4.622   0.551
 1747TIP3   OH2 5204   2.494   5.472   4.520
 1747TIP3    H1 5205   2.413   5.460   4.569
 1747TIP3    H2 5206   2.472   5.538   4.454
 1748TIP3   OH2 5207   4.572   1.166   1.092
 1748TIP3    H1 5208   4.478   1.151   1.099
 1748TIP3    H2 5209   4.610   1.078   1.090
 1749TIP3   OH2 5210   6.904   2.732   2.999
 1749TIP3    H1 5211   6.824   2.679   3.006
 1749TIP3    H2 5212   6.963   2.680   2.945
 1750TIP3   OH2 5213   1.226   4.784   0.497
 1750TIP3    H1 5214   1.304   4.767   0.550
 1750TIP3    H2 5215   1.254   4.853   0.437
 1751TIP3   OH2 5216   3.347   4.546   5.810
 1751TIP3    H1 5217   3.330   4.467   5.861
 1751TIP3    H2 5218   3.426   4.584   5.848
 1752TIP3   OH2 5219   1.935   1.325   0.657
 1752TIP3    H1 5220   1.879   1.307   0.581
 1752TIP3    H2 5221   1.947   1.240   0.698
 1753TIP3   OH2 5222   1.231   0.798   5.685
 1753TIP3    H1 5223   1.316   0.797   5.728
 1753TIP3    H2 5224   1.168   0.805   5.757
 1754TIP3   OH2 5225   3.430   5.398   5.865
 1754TIP3    H1 5226   3.518   5.435   5.870
 1754TIP3    H2 5227   3.435   5.333   5.795
 1755TIP3   OH2 5228   3.844   0.584   0.395
 1755TIP3    H1 5229   3.925   0.538   0.420
 1755TIP3    H2 5230   3.872   0.647   0.329
 1756TIP3   OH2 5231   0.998   5.128   2.626
 1756TIP3    H1 5232   1.031   5.125   2.536
 1756TIP3    H2 5233   1.064   5.083   2.678
 1757TIP3   OH2 5234   7.053   5.532   1.557
 1757TIP3    H1 5235   7.144   5.513   1.577
 1757TIP3    H2 5236   7.017   5.568   1.638
 1758TIP3   OH2 5237   4.553   6.524   4.130
 1758TIP3    H1 5238   4.584   6.534   4.040
 1758TIP3    H2 5239   4.462   6.496   4.120
 1759TIP3   OH2 5240   5.318   5.926   0.179
 1759TIP3    H1 5241   5.328   5.869   0.255
 1759TIP3    H2 5242   5.404   5.965   0.167
 1760TIP3   OH2 5243   2.883   1.503   4.690
 1760TIP3    H1 5244   2.880   1.566   4.762
 1760TIP3    H2 5245   2.934   1.430   4.724
 1761TIP3   OH2 5246   5.418   5.095   0.777
 1761TIP3    H1 5247   5.432   5.179   0.734
 1761TIP3    H2 5248   5.334   5.106   0.823
 1762TIP3   OH2 5249   7.053   2.632   4.796
 1762TIP3    H1 5250   7.075   2.664   4.884
 1762TIP3    H2 5251   7.103   2.689   4.737
 1763TIP3   OH2 5252   3.521   4.783   0.645
 1763TIP3    H1 5253   3.463   4.819   0.712
 1763TIP3    H2 5254   3.468   4.717   0.601
 1764TIP3   OH2 5255   0.899   5.629   4.148
 1764TIP3    H1 5256   0.868   5.622   4.238
 1764TIP3    H2 5257   0.866   5.714   4.118
 1765TIP3   OH2 5258   2.496   5.607   4.860
 1765TIP3    H1 5259   2.402   5.618   4.872
 1765TIP3    H2 5260   2.528   5.578   4.946
 1766TIP3   OH2 5261   0.319   1.638   4.383
 1766TIP3    H1 5262   0.291   1.589   4.306
 1766TIP3    H2 5263   0.396   1.592   4.414
 1767TIP3   OH2 5264   3.865   5.534   3.231
 1767TIP3    H1 5265   3.817   5.472   3.286
 1767TIP3    H2 5266   3.831   5.518   3.143
 1768TIP3   OH2 5267   0.616   6.074   0.728
 1768TIP3    H1 5268   0.630   6.104   0.817
 1768TIP3    H2 5269   0.672   6.131   0.675
 1769TIP3   OH2 5270   7.018   5.420   2.242
 1769TIP3    H1 5271   6.941   5.378   2.203
 1769TIP3    H2 5272   7.068   5.348   2.280
 1770TIP3   OH2 5273   4.220   5.530   5.323
 1770TIP3    H1 5274   4.149   5.500   5.265
 1770TIP3    H2 5275   4.289   5.465   5.311
 1771TIP3   OH2 5276   4.911   4.748   5.548
 1771TIP3    H1 5277   4.968   4.778   5.619
 1771TIP3    H2 5278   4.822   4.758   5.583
 1772TIP3   OH2 5279   1.843   0.601   1.086
 1772TIP3    H1 5280   1.899   0.599   1.008
 1772TIP3    H2 5281   1.905   0.604   1.159
 1773TIP3   OH2 5282   4.039   2.191   3.616
 1773TIP3    H1 5283   4.028   2.240   3.534
 1773TIP3    H2 5284   3.950   2.180   3.649
 1774TIP3   OH2 5285   6.240   0.142   3.982
 1774TIP3    H1 5286   6.196   0.087   3.917
 1774TIP3    H2 5287   6.316   0.091   4.010
 1775TIP3   OH2 5288   6.029   5.730   0.660
 1775TIP3    H1 5289   6.094   5.664   0.683
 1775TIP3    H2 5290   6.023   5.726   0.564
 1776TIP3   OH2 5291   6.658   3.015   1.342
 1776TIP3    H1 5292   6.654   2.948   1.273
 1776TIP3    H2 5293   6.705   3.088   1.301
 1777TIP3   OH2 5294   5.326   2.486   0.658
 1777TIP3    H1 5295   5.345   2.577   0.634
 1777TIP3    H2 5296   5.407   2.439   0.640
 1778TIP3   OH2 5297   2.651   3.039   1.043
 1778TIP3    H1 5298   2.682   2.962   1.089
 1778TIP3    H2 5299   2.604   3.090   1.109
 1779TIP3   OH2 5300   6.001   5.857   2.805
 1779TIP3    H1 5301   6.023   5.795   2.735
 1779TIP3    H2 5302   5.914   5.831   2.833
 1780TIP3   OH2 5303   2.864   0.358   3.341
 1780TIP3    H1 5304   2.943   0.358   3.287
 1780TIP3    H2 5305   2.802   0.412   3.293
 1781TIP3   OH2 5306   5.921   2.718   1.782
 1781TIP3    H1 5307   5.940   2.758   1.867
 1781TIP3    H2 5308   5.833   2.682   1.792
 1782TIP3   OH2 5309   5.853   2.209   0.810
 1782TIP3    H1 5310   5.792   2.182   0.741
 1782TIP3    H2 5311   5.823   2.297   0.835
 1783TIP3   OH2 5312   3.423   1.974   3.473
 1783TIP3    H1 5313   3.438   2.020   3.391
 1783TIP3    H2 5314   3.472   1.892   3.465
 1784TIP3   OH2 5315   5.039   3.050   0.177
 1784TIP3    H1 5316   4.971   3.112   0.150
 1784TIP3    H2 5317   5.103   3.053   0.106
 1785TIP3   OH2 5318   4.562   6.589   0.435
 1785TIP3    H1 5319   4.612   6.560   0.359
 1785TIP3    H2 5320   4.609   6.666   0.467
 1786TIP3   OH2 5321   5.755   4.102   4.944
 1786TIP3    H1 5322   5.773   4.152   5.023
 1786TIP3    H2 5323   5.744   4.012   4.975
 1787TIP3   OH2 5324   3.874   5.927   0.625
 1787TIP3    H1 5325   3.873   5.997   0.559
 1787TIP3    H2 5326   3.959   5.937   0.669
 1788TIP3   OH2 5327   5.727   6.407   1.820
 1788TIP3    H1 5328   5.746   6.491   1.778
 1788TIP3    H2 5329   5.762   6.342   1.759
 1789TIP3   OH2 5330   1.747   0.093   3.554
 1789TIP3    H1 5331   1.742   0.137   3.469
 1789TIP3    H2 5332   1.714   0.005   3.537
 1790TIP3   OH2 5333   6.027   5.353   4.580
 1790TIP3    H1 5334   6.020   5.259   4.565
 1790TIP3    H2 5335   5.988   5.392   4.501
 1791TIP3   OH2 5336   1.401   4.494   3.604
 1791TIP3    H1 5337   1.399   4.514   3.698
 1791TIP3    H2 5338   1.392   4.399   3.600
 1792TIP3   OH2 5339   0.769   5.547   5.570
 1792TIP3    H1 5340   0.737   5.499   5.493
 1792TIP3    H2 5341   0.724   5.631   5.566
 1793TIP3   OH2 5342   6.113   4.350   5.771
 1793TIP3    H1 5343   6.128   4.261   5.738
 1793TIP3    H2 5344   6.190   4.399   5.742
 1794TIP3   OH2 5345   0.099   0.926   0.756
 1794TIP3    H1 5346   0.179   0.933   0.703
 1794TIP3    H2 5347   0.081   1.016   0.784
 1795TIP3   OH2 5348   0.387   6.757   2.086
 1795TIP3    H1 5349   0.432   6.837   2.060
 1795TIP3    H2 5350   0.335   6.732   2.009
 1796TIP3   OH2 5351   6.673   0.381   1.465
 1796TIP3    H1 5352   6.736   0.348   1.529
 1796TIP3    H2 5353   6.588   0.370   1.507
 1797TIP3   OH2 5354   1.436   0.342   1.069
 1797TIP3    H1 5355   1.529   0.357   1.087
 1797TIP3    H2 5356   1.396   0.331   1.155
 1798TIP3   OH2 5357   0.237   4.667   5.479
 1798TIP3    H1 5358   0.223   4.735   5.414
 1798TIP3    H2 5359   0.244   4.586   5.429
 1799TIP3   OH2 5360   6.904   0.246   4.288
 1799TIP3    H1 5361   6.955   0.286   4.218
 1799TIP3    H2 5362   6.901   0.153   4.267
 1800TIP3   OH2 5363   6.331   1.213   2.430
 1800TIP3    H1 5364   6.256   1.226   2.371
 1800TIP3    H2 5365   6.333   1.293   2.483
 1801TIP3   OH2 5366   3.075   4.201   5.323
 1801TIP3    H1 5367   3.082   4.273   5.261
 1801TIP3    H2 5368   3.102   4.124   5.273
 1802TIP3   OH2 5369   2.783   2.952   3.838
 1802TIP3    H1 5370   2.860   3.006   3.816
 1802TIP3    H2 5371   2.786   2.944   3.933
 1803TIP3   OH2 5372   3.840   5.541   2.523
 1803TIP3    H1 5373   3.819   5.634   2.511
 1803TIP3    H2 5374   3.920   5.529   2.471
 1804TIP3   OH2 5375   6.828   5.474   4.642
 1804TIP3    H1 5376   6.765   5.545   4.651
 1804TIP3    H2 5377   6.793   5.404   4.698
 1805TIP3   OH2 5378   5.222   5.004   1.567
 1805TIP3    H1 5379   5.154   5.071   1.557
 1805TIP3    H2 5380   5.293   5.048   1.612
 1806TIP3   OH2 5381   0.753   4.437   2.704
 1806TIP3    H1 5382   0.762   4.497   2.630
 1806TIP3    H2 5383   0.832   4.451   2.756
 1807TIP3   OH2 5384   1.734   6.144   2.158
 1807TIP3    H1 5385   1.778   6.198   2.094
 1807TIP3    H2 5386   1.704   6.205   2.225
 1808TIP3   OH2 5387   0.917   0.633   4.267
 1808TIP3    H1 5388   0.945   0.548   4.233
 1808TIP3    H2 5389   0.883   0.615   4.354
 1809TIP3   OH2 5390   6.285   4.435   2.294
 1809TIP3    H1 5391   6.359   4.381   2.322
 1809TIP3    H2 5392   6.208   4.393   2.333
 1810TIP3   OH2 5393   2.276   3.368   5.570
 1810TIP3    H1 5394   2.272   3.356   5.475
 1810TIP3    H2 5395   2.221   3.297   5.605
 1811TIP3   OH2 5396   2.358   3.661   5.310
 1811TIP3    H1 5397   2.273   3.639   5.272
 1811TIP3    H2 5398   2.339   3.735   5.368
 1812TIP3   OH2 5399   6.893   6.692   5.415
 1812TIP3    H1 5400   6.970   6.727   5.459
 1812TIP3    H2 5401   6.913   6.599   5.401
 1813TIP3   OH2 5402   1.904   0.619   4.743
 1813TIP3    H1 5403   1.962   0.689   4.775
 1813TIP3    H2 5404   1.820   0.636   4.786
 1814TIP3   OH2 5405   1.296   4.830   3.949
 1814TIP3    H1 5406   1.213   4.800   3.911
 1814TIP3    H2 5407   1.351   4.851   3.874
 1815TIP3   OH2 5408   5.402   3.641   5.107
 1815TIP3    H1 5409   5.418   3.734   5.123
 1815TIP3    H2 5410   5.475   3.615   5.050
 1816TIP3   OH2 5411   1.597   6.630   3.062
 1816TIP3    H1 5412   1.510   6.590   3.058
 1816TIP3    H2 5413   1.581   6.723   3.047
 1817TIP3   OH2 5414   3.483   2.004   0.014
 1817TIP3    H1 5415   3.513   1.913   0.020
 1817TIP3    H2 5416   3.511   2.044   0.097
 1818TIP3   OH2 5417   3.966   3.459   5.416
 1818TIP3    H1 5418   4.051   3.418   5.399
 1818TIP3    H2 5419   3.918   3.394   5.467
 1819TIP3   OH2 5420   4.812   0.727   1.444
 1819TIP3    H1 5421   4.775   0.697   1.527
 1819TIP3    H2 5422   4.822   0.648   1.392
 1820TIP3   OH2 5423   6.609   2.074   2.280
 1820TIP3    H1 5424   6.694   2.074   2.236
 1820TIP3    H2 5425   6.629   2.095   2.371
 1821TIP3   OH2 5426   0.204   1.115   2.035
 1821TIP3    H1 5427   0.262   1.175   2.082
 1821TIP3    H2 5428   0.120   1.162   2.030
 1822TIP3   OH2 5429   6.037   1.934   2.814
 1822TIP3    H1 5430   6.071   1.951   2.726
 1822TIP3    H2 5431   5.997   1.847   2.807
 1823TIP3   OH2 5432   4.239   6.746   4.401
 1823TIP3    H1 5433   4.267   6.828   4.441
 1823TIP3    H2 5434   4.156   6.724   4.444
 1824TIP3   OH2 5435   0.863   5.852   2.272
 1824TIP3    H1 5436   0.933   5.809   2.223
 1824TIP3    H2 5437   0.848   5.934   2.225
 1825TIP3   OH2 5438   3.333   5.275   3.163
 1825TIP3    H1 5439   3.363   5.367   3.164
 1825TIP3    H2 5440   3.368   5.240   3.081
 1826TIP3   OH2 5441   5.281   2.948   2.569
 1826TIP3    H1 5442   5.251   2.933   2.659
 1826TIP3    H2 5443   5.232   2.885   2.517
 1827TIP3   OH2 5444   5.486   1.264   0.727
 1827TIP3    H1 5445   5.409   1.240   0.778
 1827TIP3    H2 5446   5.542   1.186   0.728
 1828TIP3   OH2 5447   2.013   0.610   4.467
 1828TIP3    H1 5448   1.961   0.614   4.548
 1828TIP3    H2 5449   2.078   0.541   4.484
 1829TIP3   OH2 5450   6.794   1.995   1.952
 1829TIP3    H1 5451   6.701   2.008   1.939
 1829TIP3    H2 5452   6.812   2.036   2.037
 1830TIP3   OH2 5453   3.899   0.725   5.228
 1830TIP3    H1 5454   3.869   0.658   5.289
 1830TIP3    H2 5455   3.958   0.679   5.168
 1831TIP3   OH2 5456   5.202   6.334   3.696
 1831TIP3    H1 5457   5.141   6.384   3.641
 1831TIP3    H2 5458   5.275   6.314   3.638
 1832TIP3   OH2 5459   3.804   5.958   2.172
 1832TIP3    H1 5460   3.876   6.015   2.197
 1832TIP3    H2 5461   3.844   5.891   2.117
 1833TIP3   OH2 5462   5.290   3.409   4.667
 1833TIP3    H1 5463   5.364   3.349   4.666
 1833TIP3    H2 5464   5.218   3.360   4.627
 1834TIP3   OH2 5465   0.924   2.088   3.819
 1834TIP3    H1 5466   0.992   2.067   3.756
 1834TIP3    H2 5467   0.967   2.082   3.904
 1835TIP3   OH2 5468   4.097   3.927   4.670
 1835TIP3    H1 5469   4.162   3.857   4.666
 1835TIP3    H2 5470   4.029   3.893   4.727
 1836TIP3   OH2 5471   1.176   4.475   0.555
 1836TIP3    H1 5472   1.268   4.483   0.530
 1836TIP3    H2 5473   1.173   4.398   0.612
 1837TIP3   OH2 5474   6.229   0.633   2.471
 1837TIP3    H1 5475   6.252   0.596   2.556
 1837TIP3    H2 5476   6.288   0.707   2.459
 1838TIP3   OH2 5477   0.882   3.791   3.540
 1838TIP3    H1 5478   0.937   3.858   3.499
 1838TIP3    H2 5479   0.944   3.726   3.573
 1839TIP3   OH2 5480   7.118   4.507   3.143
 1839TIP3    H1 5481   7.110   4.544   3.055
 1839TIP3    H2 5482   7.117   4.583   3.201
 1840TIP3   OH2 5483   7.020   4.928   2.444
 1840TIP3    H1 5484   7.109   4.958   2.463
 1840TIP3    H2 5485   6.970   5.008   2.429
 1841TIP3   OH2 5486   4.911   2.768   3.650
 1841TIP3    H1 5487   4.970   2.755   3.576
 1841TIP3    H2 5488   4.912   2.686   3.698
 1842TIP3   OH2 5489   5.242   4.485   0.721
 1842TIP3    H1 5490   5.161   4.527   0.750
 1842TIP3    H2 5491   5.217   4.395   0.701
 1843TIP3   OH2 5492   0.013   3.507   3.500
 1843TIP3    H1 5493  -0.020   3.420   3.521
 1843TIP3    H2 5494   0.107   3.502   3.512
 1844TIP3   OH2 5495   2.345   4.531   5.421
 1844TIP3    H1 5496   2.361   4.596   5.353
 1844TIP3    H2 5497   2.358   4.447   5.376
 1845TIP3   OH2 5498   0.283   3.333   5.360
 1845TIP3    H1 5499   0.234   3.407   5.326
 1845TIP3    H2 5500   0.297   3.277   5.283
 1846TIP3   OH2 5501   3.363   6.569   1.832
 1846TIP3    H1 5502   3.334   6.585   1.921
 1846TIP3    H2 5503   3.428   6.499   1.840
 1847TIP3   OH2 5504   4.250   2.472   4.408
 1847TIP3    H1 5505   4.238   2.421   4.488
 1847TIP3    H2 5506   4.262   2.562   4.438
 1848TIP3   OH2 5507   4.180   3.808   1.964
 1848TIP3    H1 5508   4.165   3.732   2.020
 1848TIP3    H2 5509   4.240   3.863   2.015
 1849TIP3   OH2 5510   1.521   3.504   5.035
 1849TIP3    H1 5511   1.536   3.528   4.944
 1849TIP3    H2 5512   1.599   3.533   5.082
 1850TIP3   OH2 5513   3.751   2.355   1.179
 1850TIP3    H1 5514   3.725   2.427   1.122
 1850TIP3    H2 5515   3.671   2.306   1.194
 1851TIP3   OH2 5516   2.433   3.035   2.906
 1851TIP3    H1 5517   2.500   2.967   2.908
 1851TIP3    H2 5518   2.385   3.019   2.825
 1852TIP3   OH2 5519   2.420   2.376   5.320
 1852TIP3    H1 5520   2.456   2.312   5.382
 1852TIP3    H2 5521   2.470   2.363   5.240
 1853TIP3   OH2 5522   2.642   5.096   4.820
 1853TIP3    H1 5523   2.569   5.148   4.854
 1853TIP3    H2 5524   2.632   5.100   4.725
 1854TIP3   OH2 5525   5.455   5.591   0.905
 1854TIP3    H1 5526   5.387   5.649   0.872
 1854TIP3    H2 5527   5.412   5.506   0.915
 1855TIP3   OH2 5528   1.415   1.083   1.926
 1855TIP3    H1 5529   1.476   1.087   1.853
 1855TIP3    H2 5530   1.429   0.997   1.965
 1856TIP3   OH2 5531   6.443   2.188   1.382
 1856TIP3    H1 5532   6.422   2.139   1.303
 1856TIP3    H2 5533   6.530   2.158   1.407
 1857TIP3   OH2 5534   1.965   3.898   1.243
 1857TIP3    H1 5535   1.940   3.958   1.313
 1857TIP3    H2 5536   2.012   3.827   1.287
 1858TIP3   OH2 5537   5.583   0.444   1.235
 1858TIP3    H1 5538   5.578   0.443   1.140
 1858TIP3    H2 5539   5.611   0.355   1.259
 1859TIP3   OH2 5540   5.035   0.933   5.594
 1859TIP3    H1 5541   4.957   0.975   5.558
 1859TIP3    H2 5542   5.099   1.004   5.603
 1860TIP3   OH2 5543   2.962   3.650   2.369
 1860TIP3    H1 5544   2.935   3.559   2.362
 1860TIP3    H2 5545   2.899   3.699   2.317
 1861TIP3   OH2 5546   6.130   1.200   5.881
 1861TIP3    H1 5547   6.096   1.122   5.837
 1861TIP3    H2 5548   6.117   1.183   5.974
 1862TIP3   OH2 5549   0.071   2.406   1.105
 1862TIP3    H1 5550   0.052   2.352   1.181
 1862TIP3    H2 5551   0.140   2.466   1.134
 1863TIP3   OH2 5552   1.908   5.110   3.320
 1863TIP3    H1 5553   1.968   5.038   3.338
 1863TIP3    H2 5554   1.890   5.148   3.407
 1864TIP3   OH2 5555   0.744   6.494   4.329
 1864TIP3    H1 5556   0.777   6.511   4.241
 1864TIP3    H2 5557   0.797   6.550   4.386
 1865TIP3   OH2 5558   5.003   4.492   0.184
 1865TIP3    H1 5559   5.049   4.557   0.131
 1865TIP3    H2 5560   5.014   4.523   0.274
 1866TIP3   OH2 5561   4.861   6.729   2.966
 1866TIP3    H1 5562   4.901   6.788   3.029
 1866TIP3    H2 5563   4.775   6.708   3.003
 1867TIP3   OH2 5564   7.126   4.610   2.436
 1867TIP3    H1 5565   7.159   4.584   2.522
 1867TIP3    H2 5566   7.119   4.528   2.387
 1868TIP3   OH2 5567   1.704   2.715   4.187
 1868TIP3    H1 5568   1.690   2.704   4.281
 1868TIP3    H2 5569   1.686   2.629   4.150
 1869TIP3   OH2 5570   3.923   3.409   2.359
 1869TIP3    H1 5571   3.906   3.413   2.454
 1869TIP3    H2 5572   3.924   3.500   2.332
 1870TIP3   OH2 5573   3.485   1.034   0.425
 1870TIP3    H1 5574   3.410   1.049   0.366
 1870TIP3    H2 5575   3.498   0.939   0.424
 1871TIP3   OH2 5576   0.782   0.432   1.280
 1871TIP3    H1 5577   0.694   0.421   1.314
 1871TIP3    H2 5578   0.799   0.526   1.289
 1872TIP3   OH2 5579   1.632   5.094   3.585
 1872TIP3    H1 5580   1.686   5.020   3.558
 1872TIP3    H2 5581   1.593   5.126   3.504
 1873TIP3   OH2 5582   6.272   4.457   2.658
 1873TIP3    H1 5583   6.339   4.522   2.640
 1873TIP3    H2 5584   6.316   4.373   2.642
 1874TIP3   OH2 5585   2.614   1.924   1.796
 1874TIP3    H1 5586   2.632   2.017   1.808
 1874TIP3    H2 5587   2.524   1.921   1.765
 1875TIP3   OH2 5588   0.143   1.260   4.693
 1875TIP3    H1 5589   0.220   1.306   4.727
 1875TIP3    H2 5590   0.176   1.174   4.668
 1876TIP3   OH2 5591   5.414   1.769   4.878
 1876TIP3    H1 5592   5.482   1.724   4.928
 1876TIP3    H2 5593   5.408   1.720   4.796
 1877TIP3   OH2 5594   3.913   0.385   5.799
 1877TIP3    H1 5595   3.890   0.452   5.735
 1877TIP3    H2 5596   3.901   0.302   5.753
 1878TIP3   OH2 5597   3.851   5.789   2.412
 1878TIP3    H1 5598   3.795   5.867   2.405
 1878TIP3    H2 5599   3.936   5.817   2.378
 1879TIP3   OH2 5600   0.447   5.251   3.802
 1879TIP3    H1 5601   0.396   5.306   3.861
 1879TIP3    H2 5602   0.478   5.310   3.734
 1880TIP3   OH2 5603   0.205   2.752   4.299
 1880TIP3    H1 5604   0.188   2.667   4.259
 1880TIP3    H2 5605   0.290   2.742   4.342
 1881TIP3   OH2 5606   3.101   3.928   3.613
 1881TIP3    H1 5607   3.080   4.012   3.655
 1881TIP3    H2 5608   3.114   3.949   3.521
 1882TIP3   OH2 5609   6.305   2.308   2.965
 1882TIP3    H1 5610   6.244   2.274   3.029
 1882TIP3    H2 5611   6.390   2.306   3.009
 1883TIP3   OH2 5612   4.111   2.960   1.834
 1883TIP3    H1 5613   4.049   2.973   1.762
 1883TIP3    H2 5614   4.187   2.917   1.793
 1884TIP3   OH2 5615   2.411   3.220   5.125
 1884TIP3    H1 5616   2.335   3.205   5.069
 1884TIP3    H2 5617   2.431   3.134   5.163
 1885TIP3   OH2 5618   0.032   4.706   3.658
 1885TIP3    H1 5619   0.011   4.615   3.635
 1885TIP3    H2 5620  -0.052   4.745   3.682
 1886TIP3   OH2 5621   6.617   5.166   3.408
 1886TIP3    H1 5622   6.681   5.219   3.456
 1886TIP3    H2 5623   6.636   5.184   3.316
 1887TIP3   OH2 5624   1.612   3.186   5.570
 1887TIP3    H1 5625   1.644   3.120   5.508
 1887TIP3    H2 5626   1.595   3.138   5.650
 1888TIP3   OH2 5627   2.637   3.122   4.677
 1888TIP3    H1 5628   2.601   3.043   4.718
 1888TIP3    H2 5629   2.588   3.131   4.596
 1889TIP3   OH2 5630   5.195   1.850   5.051
 1889TIP3    H1 5631   5.114   1.829   5.005
 1889TIP3    H2 5632   5.265   1.820   4.993
 1890TIP3   OH2 5633   0.689   1.139   2.582
 1890TIP3    H1 5634   0.771   1.186   2.566
 1890TIP3    H2 5635   0.634   1.201   2.629
 1891TIP3   OH2 5636   3.912   6.490   0.714
 1891TIP3    H1 5637   3.990   6.472   0.767
 1891TIP3    H2 5638   3.844   6.510   0.779
 1892TIP3   OH2 5639   0.964   1.073   5.034
 1892TIP3    H1 5640   0.921   1.019   4.968
 1892TIP3    H2 5641   1.044   1.025   5.055
 1893TIP3   OH2 5642   4.231   1.555   0.055
 1893TIP3    H1 5643   4.227   1.651   0.055
 1893TIP3    H2 5644   4.315   1.535   0.015
 1894TIP3   OH2 5645   6.419   3.418   2.047
 1894TIP3    H1 5646   6.369   3.411   1.966
 1894TIP3    H2 5647   6.417   3.330   2.085
 1895TIP3   OH2 5648   1.778   3.343   5.426
 1895TIP3    H1 5649   1.733   3.306   5.502
 1895TIP3    H2 5650   1.708   3.363   5.364
 1896TIP3   OH2 5651   4.616   5.076   2.516
 1896TIP3    H1 5652   4.531   5.034   2.507
 1896TIP3    H2 5653   4.679   5.007   2.494
 1897TIP3   OH2 5654   3.637   2.986   5.347
 1897TIP3    H1 5655   3.676   2.935   5.419
 1897TIP3    H2 5656   3.659   2.937   5.268
 1898TIP3   OH2 5657   6.727   1.069   0.683
 1898TIP3    H1 5658   6.724   1.120   0.602
 1898TIP3    H2 5659   6.723   0.978   0.654
 1899TIP3   OH2 5660   2.253   5.946   5.350
 1899TIP3    H1 5661   2.160   5.969   5.359
 1899TIP3    H2 5662   2.289   5.957   5.438
 1900TIP3   OH2 5663   6.499   5.565   4.363
 1900TIP3    H1 5664   6.560   5.496   4.391
 1900TIP3    H2 5665   6.457   5.530   4.285
 1901TIP3   OH2 5666   0.932   2.038   3.415
 1901TIP3    H1 5667   0.964   1.986   3.488
 1901TIP3    H2 5668   1.011   2.077   3.377
 1902TIP3   OH2 5669   4.528   1.651   2.033
 1902TIP3    H1 5670   4.552   1.722   2.093
 1902TIP3    H2 5671   4.593   1.655   1.963
 1903TIP3   OH2 5672   6.967   3.000   1.532
 1903TIP3    H1 5673   6.969   3.069   1.465
 1903TIP3    H2 5674   6.881   3.009   1.573
 1904TIP3   OH2 5675   0.364   3.478   1.489
 1904TIP3    H1 5676   0.435   3.435   1.442
 1904TIP3    H2 5677   0.302   3.504   1.420
 1905TIP3   OH2 5678   5.103   4.702   3.339
 1905TIP3    H1 5679   5.076   4.611   3.346
 1905TIP3    H2 5680   5.040   4.750   3.393
 1906TIP3   OH2 5681   6.860   4.484   1.568
 1906TIP3    H1 5682   6.795   4.415   1.558
 1906TIP3    H2 5683   6.928   4.463   1.504
 1907TIP3   OH2 5684   5.970   2.611   4.972
 1907TIP3    H1 5685   5.875   2.617   4.973
 1907TIP3    H2 5686   5.991   2.571   4.887
 1908TIP3   OH2 5687   5.671   2.112   1.635
 1908TIP3    H1 5688   5.652   2.204   1.657
 1908TIP3    H2 5689   5.757   2.096   1.674
 1909TIP3   OH2 5690   3.390   4.975   3.152
 1909TIP3    H1 5691   3.430   4.936   3.230
 1909TIP3    H2 5692   3.311   5.018   3.185
 1910TIP3   OH2 5693   6.413   0.874   2.492
 1910TIP3    H1 5694   6.417   0.920   2.408
 1910TIP3    H2 5695   6.446   0.937   2.555
 1911TIP3   OH2 5696   0.780   1.553   1.728
 1911TIP3    H1 5697   0.803   1.460   1.730
 1911TIP3    H2 5698   0.752   1.568   1.638
 1912TIP3   OH2 5699   0.514   4.538   5.572
 1912TIP3    H1 5700   0.473   4.509   5.490
 1912TIP3    H2 5701   0.602   4.501   5.569
 1913TIP3   OH2 5702   5.867   4.369   5.652
 1913TIP3    H1 5703   5.837   4.439   5.711
 1913TIP3    H2 5704   5.952   4.343   5.687
 1914TIP3   OH2 5705   2.233   0.894   5.691
 1914TIP3    H1 5706   2.229   0.919   5.599
 1914TIP3    H2 5707   2.316   0.846   5.699
 1915TIP3   OH2 5708   0.684   3.070   2.889
 1915TIP3    H1 5709   0.718   3.112   2.968
 1915TIP3    H2 5710   0.757   3.016   2.857
 1916TIP3   OH2 5711   3.664   4.021   1.181
 1916TIP3    H1 5712   3.692   3.936   1.213
 1916TIP3    H2 5713   3.574   4.008   1.152
 1917TIP3   OH2 5714   4.378   5.248   2.608
 1917TIP3    H1 5715   4.324   5.231   2.685
 1917TIP3    H2 5716   4.386   5.162   2.566
 1918TIP3   OH2 5717   4.648   1.830   3.759
 1918TIP3    H1 5718   4.560   1.797   3.744
 1918TIP3    H2 5719   4.670   1.802   3.848
 1919TIP3   OH2 5720   1.054   2.050   2.744
 1919TIP3    H1 5721   1.105   2.131   2.749
 1919TIP3    H2 5722   0.964   2.078   2.762
 1920TIP3   OH2 5723   1.514   3.464   4.454
 1920TIP3    H1 5724   1.446   3.402   4.482
 1920TIP3    H2 5725   1.525   3.447   4.361
 1921TIP3   OH2 5726   0.973   0.288   5.515
 1921TIP3    H1 5727   0.991   0.326   5.429
 1921TIP3    H2 5728   0.984   0.360   5.577
 1922TIP3   OH2 5729   4.385   5.852   1.424
 1922TIP3    H1 5730   4.310   5.838   1.482
 1922TIP3    H2 5731   4.397   5.947   1.422
 1923TIP3   OH2 5732   1.051   4.808   2.405
 1923TIP3    H1 5733   1.121   4.866   2.376
 1923TIP3    H2 5734   1.077   4.721   2.373
 1924TIP3   OH2 5735   0.499   5.321   2.727
 1924TIP3    H1 5736   0.581   5.275   2.711
 1924TIP3    H2 5737   0.444   5.257   2.773
 1925TIP3   OH2 5738   6.697   6.347   5.371
 1925TIP3    H1 5739   6.720   6.293   5.295
 1925TIP3    H2 5740   6.779   6.392   5.394
 1926TIP3   OH2 5741   5.934   4.110   3.320
 1926TIP3    H1 5742   5.906   4.018   3.313
 1926TIP3    H2 5743   6.016   4.113   3.272
 1927TIP3   OH2 5744   5.645   0.438   2.424
 1927TIP3    H1 5745   5.592   0.361   2.402
 1927TIP3    H2 5746   5.647   0.489   2.343
 1928TIP3   OH2 5747   2.719   5.746   4.161
 1928TIP3    H1 5748   2.745   5.802   4.088
 1928TIP3    H2 5749   2.631   5.776   4.184
 1929TIP3   OH2 5750   7.098   6.090   1.286
 1929TIP3    H1 5751   7.028   6.028   1.302
 1929TIP3    H2 5752   7.077   6.130   1.202
 1930TIP3   OH2 5753   4.426   3.310   4.353
 1930TIP3    H1 5754   4.479   3.236   4.323
 1930TIP3    H2 5755   4.348   3.309   4.296
 1931TIP3   OH2 5756   5.709   4.119   2.408
 1931TIP3    H1 5757   5.744   4.087   2.492
 1931TIP3    H2 5758   5.657   4.195   2.431
 1932TIP3   OH2 5759   5.879   4.711   1.368
 1932TIP3    H1 5760   5.907   4.686   1.456
 1932TIP3    H2 5761   5.792   4.749   1.380
 1933TIP3   OH2 5762   3.246   0.336   2.007
 1933TIP3    H1 5763   3.173   0.337   1.945
 1933TIP3    H2 5764   3.261   0.428   2.028
 1934TIP3   OH2 5765   3.168   3.785   1.389
 1934TIP3    H1 5766   3.162   3.817   1.300
 1934TIP3    H2 5767   3.077   3.770   1.416
 1935TIP3   OH2 5768   6.454   5.973   2.204
 1935TIP3    H1 5769   6.403   5.945   2.281
 1935TIP3    H2 5770   6.427   6.064   2.190
 1936TIP3   OH2 5771   6.699   6.259   1.151
 1936TIP3    H1 5772   6.710   6.166   1.130
 1936TIP3    H2 5773   6.614   6.264   1.195
 1937TIP3   OH2 5774   0.976   5.539   3.363
 1937TIP3    H1 5775   0.997   5.462   3.417
 1937TIP3    H2 5776   1.021   5.611   3.405
 1938TIP3   OH2 5777   4.285   6.707   0.705
 1938TIP3    H1 5778   4.234   6.739   0.779
 1938TIP3    H2 5779   4.372   6.690   0.742
 1939TIP3   OH2 5780   6.807   0.287   4.801
 1939TIP3    H1 5781   6.727   0.313   4.755
 1939TIP3    H2 5782   6.825   0.198   4.770
 1940TIP3   OH2 5783   5.353   3.114   2.937
 1940TIP3    H1 5784   5.358   3.168   2.859
 1940TIP3    H2 5785   5.303   3.166   3.000
 1941TIP3   OH2 5786   1.315   3.832   3.272
 1941TIP3    H1 5787   1.225   3.833   3.239
 1941TIP3    H2 5788   1.369   3.844   3.194
 1942TIP3   OH2 5789   2.858   1.425   5.347
 1942TIP3    H1 5790   2.796   1.487   5.383
 1942TIP3    H2 5791   2.885   1.371   5.421
 1943TIP3   OH2 5792   2.042   5.291   0.822
 1943TIP3    H1 5793   2.119   5.270   0.769
 1943TIP3    H2 5794   2.068   5.366   0.874
 1944TIP3   OH2 5795   6.695   1.601   1.338
 1944TIP3    H1 5796   6.744   1.548   1.275
 1944TIP3    H2 5797   6.750   1.678   1.353
 1945TIP3   OH2 5798   1.700   6.171   2.924
 1945TIP3    H1 5799   1.681   6.253   2.970
 1945TIP3    H2 5800   1.664   6.183   2.837
 1946TIP3   OH2 5801   5.848   0.036   5.814
 1946TIP3    H1 5802   5.753   0.048   5.806
 1946TIP3    H2 5803   5.886   0.111   5.768
 1947TIP3   OH2 5804   0.722   0.103   3.464
 1947TIP3    H1 5805   0.655   0.066   3.521
 1947TIP3    H2 5806   0.710   0.198   3.472
 1948TIP3   OH2 5807   5.547   2.914   2.954
 1948TIP3    H1 5808   5.474   2.975   2.963
 1948TIP3    H2 5809   5.567   2.888   3.044
 1949TIP3   OH2 5810   1.312   1.417   2.149
 1949TIP3    H1 5811   1.283   1.342   2.201
 1949TIP3    H2 5812   1.288   1.394   2.059
 1950TIP3   OH2 5813   2.547   5.546   3.506
 1950TIP3    H1 5814   2.605   5.616   3.477
 1950TIP3    H2 5815   2.581   5.520   3.592
 1951TIP3   OH2 5816   3.769   3.317   3.455
 1951TIP3    H1 5817   3.831   3.375   3.411
 1951TIP3    H2 5818   3.824   3.252   3.499
 1952TIP3   OH2 5819   6.554   1.760   3.670
 1952TIP3    H1 5820   6.612   1.707   3.616
 1952TIP3    H2 5821   6.484   1.787   3.610
 1953TIP3   OH2 5822   4.669   0.998   0.345
 1953TIP3    H1 5823   4.727   1.039   0.409
 1953TIP3    H2 5824   4.619   1.071   0.307
 1954TIP3   OH2 5825   6.002   4.976   4.783
 1954TIP3    H1 5826   6.023   5.069   4.777
 1954TIP3    H2 5827   5.953   4.957   4.702
 1955TIP3   OH2 5828   6.943   3.107   0.564
 1955TIP3    H1 5829   6.853   3.107   0.596
 1955TIP3    H2 5830   6.940   3.163   0.487
 1956TIP3   OH2 5831   4.657   3.009   2.149
 1956TIP3    H1 5832   4.661   2.929   2.096
 1956TIP3    H2 5833   4.720   3.068   2.108
 1957TIP3   OH2 5834   5.076   4.168   2.593
 1957TIP3    H1 5835   5.040   4.224   2.525
 1957TIP3    H2 5836   5.122   4.099   2.546
 1958TIP3   OH2 5837   4.543   0.803   0.192
 1958TIP3    H1 5838   4.592   0.723   0.213
 1958TIP3    H2 5839   4.578   0.868   0.253
 1959TIP3   OH2 5840   5.540   6.718   5.797
 1959TIP3    H1 5841   5.564   6.802   5.759
 1959TIP3    H2 5842   5.624   6.673   5.810
 1960TIP3   OH2 5843   2.993   6.830   1.529
 1960TIP3    H1 5844   3.027   6.752   1.572
 1960TIP3    H2 5845   2.970   6.801   1.441
 1961TIP3   OH2 5846   5.044   1.662   5.398
 1961TIP3    H1 5847   4.954   1.669   5.368
 1961TIP3    H2 5848   5.073   1.752   5.408
 1962TIP3   OH2 5849   0.067   2.853   0.439
 1962TIP3    H1 5850   0.143   2.841   0.496
 1962TIP3    H2 5851  -0.006   2.867   0.500
 1963TIP3   OH2 5852   4.619   2.335   0.270
 1963TIP3    H1 5853   4.663   2.396   0.210
 1963TIP3    H2 5854   4.579   2.269   0.213
 1964TIP3   OH2 5855   3.032   6.112   4.212
 1964TIP3    H1 5856   3.078   6.152   4.286
 1964TIP3    H2 5857   2.942   6.102   4.243
 1965TIP3   OH2 5858   6.025   4.022   4.596
 1965TIP3    H1 5859   5.988   4.066   4.520
 1965TIP3    H2 5860   6.044   4.093   4.658
 1966TIP3   OH2 5861   2.788   3.962   5.282
 1966TIP3    H1 5862   2.695   3.939   5.286
 1966TIP3    H2 5863   2.798   4.003   5.196
 1967TIP3   OH2 5864   3.471   0.870   1.807
 1967TIP3    H1 5865   3.475   0.800   1.742
 1967TIP3    H2 5866   3.512   0.832   1.886
 1968TIP3   OH2 5867   5.182   2.834   4.079
 1968TIP3    H1 5868   5.109   2.874   4.032
 1968TIP3    H2 5869   5.153   2.745   4.097
 1969TIP3   OH2 5870   2.367   3.445   3.900
 1969TIP3    H1 5871   2.422   3.366   3.897
 1969TIP3    H2 5872   2.372   3.481   3.811
 1970TIP3   OH2 5873   1.663   2.192   3.647
 1970TIP3    H1 5874   1.671   2.099   3.670
 1970TIP3    H2 5875   1.627   2.233   3.725
 1971TIP3   OH2 5876   2.764   3.994   0.773
 1971TIP3    H1 5877   2.791   3.906   0.796
 1971TIP3    H2 5878   2.796   4.007   0.683
 1972TIP3   OH2 5879   3.330   2.836   5.502
 1972TIP3    H1 5880   3.385   2.898   5.551
 1972TIP3    H2 5881   3.389   2.796   5.439
 1973TIP3   OH2 5882   7.006   6.645   2.233
 1973TIP3    H1 5883   7.041   6.556   2.231
 1973TIP3    H2 5884   7.040   6.686   2.153
 1974TIP3   OH2 5885   6.451   1.631   4.373
 1974TIP3    H1 5886   6.474   1.633   4.280
 1974TIP3    H2 5887   6.529   1.665   4.417
 1975TIP3   OH2 5888   3.161   3.489   3.152
 1975TIP3    H1 5889   3.177   3.402   3.190
 1975TIP3    H2 5890   3.103   3.532   3.214
 1976TIP3   OH2 5891   1.323   2.180   2.541
 1976TIP3    H1 5892   1.377   2.220   2.472
 1976TIP3    H2 5893   1.378   2.112   2.579
 1977TIP3   OH2 5894   3.146   1.367   4.856
 1977TIP3    H1 5895   3.232   1.335   4.887
 1977TIP3    H2 5896   3.089   1.358   4.933
 1978TIP3   OH2 5897   0.291   1.445   1.030
 1978TIP3    H1 5898   0.267   1.524   0.982
 1978TIP3    H2 5899   0.360   1.405   0.978
 1979TIP3   OH2 5900   3.138   2.630   5.566
 1979TIP3    H1 5901   3.078   2.610   5.494
 1979TIP3    H2 5902   3.197   2.696   5.530
 1980TIP3   OH2 5903   2.174   1.222   0.250
 1980TIP3    H1 5904   2.125   1.145   0.221
 1980TIP3    H2 5905   2.261   1.188   0.273
 1981TIP3   OH2 5906   6.266   5.625   1.779
 1981TIP3    H1 5907   6.296   5.540   1.812
 1981TIP3    H2 5908   6.174   5.611   1.757
 1982TIP3   OH2 5909   6.142   6.522   4.240
 1982TIP3    H1 5910   6.186   6.438   4.231
 1982TIP3    H2 5911   6.057   6.509   4.199
 1983TIP3   OH2 5912   3.748   2.044   0.820
 1983TIP3    H1 5913   3.828   2.004   0.785
 1983TIP3    H2 5914   3.744   2.129   0.778
 1984TIP3   OH2 5915   4.092   5.163   2.492
 1984TIP3    H1 5916   4.129   5.235   2.543
 1984TIP3    H2 5917   4.060   5.101   2.558
 1985TIP3   OH2 5918   2.938   1.249   3.566
 1985TIP3    H1 5919   2.870   1.302   3.608
 1985TIP3    H2 5920   2.890   1.176   3.526
 1986TIP3   OH2 5921   0.855   3.649   5.474
 1986TIP3    H1 5922   0.797   3.588   5.521
 1986TIP3    H2 5923   0.943   3.616   5.491
 1987TIP3   OH2 5924   0.853   2.551   4.399
 1987TIP3    H1 5925   0.920   2.482   4.401
 1987TIP3    H2 5926   0.771   2.503   4.387
 1988TIP3   OH2 5927   0.159   4.675   1.649
 1988TIP3    H1 5928   0.126   4.671   1.739
 1988TIP3    H2 5929   0.232   4.736   1.653
 1989TIP3   OH2 5930   5.775   4.633   2.923
 1989TIP3    H1 5931   5.719   4.615   2.999
 1989TIP3    H2 5932   5.812   4.548   2.900
 1990TIP3   OH2 5933   6.033   0.904   4.748
 1990TIP3    H1 5934   5.999   0.974   4.692
 1990TIP3    H2 5935   6.125   0.926   4.762
 1991TIP3   OH2 5936   4.579   5.257   3.778
 1991TIP3    H1 5937   4.646   5.205   3.732
 1991TIP3    H2 5938   4.526   5.294   3.707
 1992TIP3   OH2 5939   4.958   2.000   1.239
 1992TIP3    H1 5940   4.967   2.069   1.174
 1992TIP3    H2 5941   4.993   2.039   1.320
 1993TIP3   OH2 5942   0.368   5.199   1.388
 1993TIP3    H1 5943   0.404   5.148   1.461
 1993TIP3    H2 5944   0.438   5.259   1.364
 1994TIP3   OH2 5945   5.538   5.827   4.443
 1994TIP3    H1 5946   5.600   5.897   4.461
 1994TIP3    H2 5947   5.476   5.864   4.380
 1995TIP3   OH2 5948   6.859   4.705   4.677
 1995TIP3    H1 5949   6.865   4.613   4.649
 1995TIP3    H2 5950   6.934   4.747   4.636
 1996TIP3   OH2 5951   3.428   0.076   4.222
 1996TIP3    H1 5952   3.476   0.025   4.286
 1996TIP3    H2 5953   3.337   0.074   4.253
 1997TIP3   OH2 5954   5.317   4.919   2.393
 1997TIP3    H1 5955   5.266   4.954   2.466
 1997TIP3    H2 5956   5.339   4.996   2.340
 1998TIP3   OH2 5957   4.485   5.303   2.166
 1998TIP3    H1 5958   4.530   5.366   2.110
 1998TIP3    H2 5959   4.438   5.246   2.105
 1999TIP3   OH2 5960   0.443   0.063   2.030
 1999TIP3    H1 5961   0.491   0.079   2.111
 1999TIP3    H2 5962   0.430   0.149   1.992
 2000TIP3   OH2 5963   4.098   2.332   1.505
 2000TIP3    H1 5964   4.095   2.375   1.419
 2000TIP3    H2 5965   4.140   2.396   1.562
 2001TIP3   OH2 5966   5.594   5.041   5.284
 2001TIP3    H1 5967   5.549   4.957   5.282
 2001TIP3    H2 5968   5.530   5.102   5.320
 2002TIP3   OH2 5969   4.356   1.907   0.435
 2002TIP3    H1 5970   4.335   1.814   0.445
 2002TIP3    H2 5971   4.396   1.932   0.518
 2003TIP3   OH2 5972   0.872   0.006   1.837
 2003TIP3    H1 5973   0.963   0.020   1.864
 2003TIP3    H2 5974   0.823   0.075   1.883
 2004TIP3   OH2 5975   0.961   2.829   3.417
 2004TIP3    H1 5976   0.891   2.820   3.483
 2004TIP3    H2 5977   1.014   2.750   3.429
 2005TIP3   OH2 5978   6.717   2.678   3.676
 2005TIP3    H1 5979   6.663   2.688   3.754
 2005TIP3    H2 5980   6.681   2.600   3.632
 2006TIP3   OH2 5981   4.790   6.022   3.377
 2006TIP3    H1 5982   4.782   6.005   3.283
 2006TIP3    H2 5983   4.853   6.094   3.384
 2007TIP3   OH2 5984   5.165   1.200   5.117
 2007TIP3    H1 5985   5.187   1.293   5.105
 2007TIP3    H2 5986   5.144   1.193   5.211
 2008TIP3   OH2 5987   6.768   0.092   2.771
 2008TIP3    H1 5988   6.802   0.181   2.783
 2008TIP3    H2 5989   6.833   0.050   2.714
 2009TIP3   OH2 5990   2.552   2.184   2.514
 2009TIP3    H1 5991   2.569   2.109   2.458
 2009TIP3    H2 5992   2.547   2.148   2.603
 2010TIP3   OH2 5993   1.503   6.275   2.746
 2010TIP3    H1 5994   1.442   6.216   2.702
 2010TIP3    H2 5995   1.450   6.352   2.769
 2011TIP3   OH2 5996   6.792   4.463   5.260
 2011TIP3    H1 5997   6.802   4.396   5.192
 2011TIP3    H2 5998   6.737   4.530   5.220
 2012TIP3   OH2 5999   3.948   4.925   4.623
 2012TIP3    H1 6000   3.989   4.972   4.550
 2012TIP3    H2 6001   3.858   4.958   4.626
 2013TIP3   OH2 6002   1.419   3.161   1.571
 2013TIP3    H1 6003   1.494   3.218   1.551
 2013TIP3    H2 6004   1.458   3.076   1.589
 2014TIP3   OH2 6005   4.676   4.706   4.565
 2014TIP3    H1 6006   4.637   4.658   4.638
 2014TIP3    H2 6007   4.760   4.662   4.549
 2015TIP3   OH2 6008   2.805   4.350   5.710
 2015TIP3    H1 6009   2.814   4.312   5.623
 2015TIP3    H2 6010   2.824   4.278   5.770
 2016TIP3   OH2 6011   2.922   6.582   3.345
 2016TIP3    H1 6012   3.016   6.603   3.340
 2016TIP3    H2 6013   2.879   6.655   3.300
 2017TIP3   OH2 6014   6.775   6.780   0.230
 2017TIP3    H1 6015   6.805   6.786   0.139
 2017TIP3    H2 6016   6.680   6.790   0.224
 2018TIP3   OH2 6017   3.942   4.197   3.731
 2018TIP3    H1 6018   3.927   4.128   3.667
 2018TIP3    H2 6019   4.029   4.230   3.712
 2019TIP3   OH2 6020   5.062   1.431   3.022
 2019TIP3    H1 6021   5.153   1.455   3.006
 2019TIP3    H2 6022   5.023   1.510   3.060
 2020TIP3   OH2 6023   2.761   1.008   3.018
 2020TIP3    H1 6024   2.806   1.007   3.102
 2020TIP3    H2 6025   2.830   1.023   2.954
 2021TIP3   OH2 6026   3.908   1.013   0.338
 2021TIP3    H1 6027   3.894   1.050   0.425
 2021TIP3    H2 6028   3.849   1.062   0.281
 2022TIP3   OH2 6029   6.313   6.337   3.740
 2022TIP3    H1 6030   6.404   6.316   3.760
 2022TIP3    H2 6031   6.262   6.270   3.785
 2023TIP3   OH2 6032   6.197   0.723   3.995
 2023TIP3    H1 6033   6.208   0.631   3.972
 2023TIP3    H2 6034   6.102   0.735   4.003
 2024TIP3   OH2 6035   1.837   5.401   1.188
 2024TIP3    H1 6036   1.853   5.412   1.094
 2024TIP3    H2 6037   1.908   5.344   1.218
 2025TIP3   OH2 6038   4.049   0.100   5.872
 2025TIP3    H1 6039   4.112   0.171   5.862
 2025TIP3    H2 6040   3.973   0.128   5.821
 2026TIP3   OH2 6041   6.500   2.447   0.843
 2026TIP3    H1 6042   6.473   2.408   0.761
 2026TIP3    H2 6043   6.509   2.540   0.824
 2027TIP3   OH2 6044   4.928   4.176   4.435
 2027TIP3    H1 6045   4.957   4.123   4.360
 2027TIP3    H2 6046   5.009   4.211   4.471
 2028TIP3   OH2 6047   5.464   3.344   3.183
 2028TIP3    H1 6048   5.388   3.346   3.125
 2028TIP3    H2 6049   5.434   3.386   3.263
 2029TIP3   OH2 6050   5.899   1.444   5.810
 2029TIP3    H1 6051   5.891   1.388   5.733
 2029TIP3    H2 6052   5.934   1.526   5.776
 2030TIP3   OH2 6053   6.294   0.791   1.015
 2030TIP3    H1 6054   6.290   0.722   1.081
 2030TIP3    H2 6055   6.320   0.869   1.063
 2031TIP3   OH2 6056   5.415   2.889   5.782
 2031TIP3    H1 6057   5.437   2.799   5.807
 2031TIP3    H2 6058   5.335   2.880   5.729
 2032TIP3   OH2 6059   6.155   2.202   0.237
 2032TIP3    H1 6060   6.206   2.232   0.161
 2032TIP3    H2 6061   6.219   2.156   0.292
 2033TIP3   OH2 6062   3.414   1.024   5.586
 2033TIP3    H1 6063   3.385   1.008   5.496
 2033TIP3    H2 6064   3.352   1.089   5.619
 2034TIP3   OH2 6065   3.845   1.715   4.338
 2034TIP3    H1 6066   3.824   1.794   4.289
 2034TIP3    H2 6067   3.859   1.746   4.428
 2035TIP3   OH2 6068   0.101   4.174   1.526
 2035TIP3    H1 6069   0.114   4.108   1.594
 2035TIP3    H2 6070   0.031   4.139   1.472
 2036TIP3   OH2 6071   1.433   0.095   5.123
 2036TIP3    H1 6072   1.430   0.170   5.182
 2036TIP3    H2 6073   1.399   0.128   5.040
 2037TIP3   OH2 6074   1.213   2.991   0.229
 2037TIP3    H1 6075   1.307   2.988   0.214
 2037TIP3    H2 6076   1.184   3.071   0.184
 2038TIP3   OH2 6077   6.025   4.074   2.183
 2038TIP3    H1 6078   6.101   4.088   2.126
 2038TIP3    H2 6079   6.054   4.006   2.244
 2039TIP3   OH2 6080   5.586   0.558   3.068
 2039TIP3    H1 6081   5.530   0.508   3.128
 2039TIP3    H2 6082   5.536   0.561   2.986
 2040TIP3   OH2 6083   0.992   6.463   2.589
 2040TIP3    H1 6084   0.942   6.482   2.668
 2040TIP3    H2 6085   1.045   6.541   2.575
 2041TIP3   OH2 6086   1.399   1.433   3.004
 2041TIP3    H1 6087   1.446   1.360   2.964
 2041TIP3    H2 6088   1.310   1.427   2.969
 2042TIP3   OH2 6089   1.360   5.012   0.714
 2042TIP3    H1 6090   1.361   5.087   0.773
 2042TIP3    H2 6091   1.420   5.036   0.644
 2043TIP3   OH2 6092   6.812   4.220   0.104
 2043TIP3    H1 6093   6.733   4.239   0.155
 2043TIP3    H2 6094   6.844   4.137   0.139
 2044TIP3   OH2 6095   5.325   5.799   4.654
 2044TIP3    H1 6096   5.398   5.816   4.713
 2044TIP3    H2 6097   5.272   5.879   4.656
 2045TIP3   OH2 6098   6.380   4.933   4.364
 2045TIP3    H1 6099   6.417   4.941   4.276
 2045TIP3    H2 6100   6.442   4.979   4.421
 2046TIP3   OH2 6101   3.827   2.454   4.455
 2046TIP3    H1 6102   3.888   2.528   4.447
 2046TIP3    H2 6103   3.799   2.457   4.546
 2047TIP3   OH2 6104   4.735   3.697   0.940
 2047TIP3    H1 6105   4.690   3.652   1.011
 2047TIP3    H2 6106   4.792   3.631   0.902
 2048TIP3   OH2 6107   2.391   2.427   1.217
 2048TIP3    H1 6108   2.330   2.357   1.242
 2048TIP3    H2 6109   2.418   2.403   1.128
 2049TIP3   OH2 6110   1.898   0.433   3.391
 2049TIP3    H1 6111   1.887   0.528   3.383
 2049TIP3    H2 6112   1.982   0.422   3.435
 2050TIP3   OH2 6113   5.969   1.237   3.431
 2050TIP3    H1 6114   5.998   1.200   3.348
 2050TIP3    H2 6115   5.924   1.165   3.476
 2051TIP3   OH2 6116   5.940   5.495   5.461
 2051TIP3    H1 6117   5.934   5.476   5.367
 2051TIP3    H2 6118   5.849   5.504   5.490
 2052TIP3   OH2 6119   6.358   4.249   2.988
 2052TIP3    H1 6120   6.429   4.306   3.018
 2052TIP3    H2 6121   6.388   4.161   3.008
 2053TIP3   OH2 6122   5.975   5.643   1.148
 2053TIP3    H1 6123   6.017   5.561   1.174
 2053TIP3    H2 6124   5.953   5.687   1.230
 2054TIP3   OH2 6125   4.907   2.870   2.740
 2054TIP3    H1 6126   4.910   2.952   2.789
 2054TIP3    H2 6127   4.943   2.804   2.800
 2055TIP3   OH2 6128   2.674   5.948   1.170
 2055TIP3    H1 6129   2.580   5.945   1.154
 2055TIP3    H2 6130   2.686   5.904   1.254
 2056TIP3   OH2 6131   6.381   4.163   0.585
 2056TIP3    H1 6132   6.432   4.241   0.565
 2056TIP3    H2 6133   6.378   4.160   0.681
 2057TIP3   OH2 6134   4.931   4.149   2.831
 2057TIP3    H1 6135   4.977   4.162   2.748
 2057TIP3    H2 6136   4.892   4.062   2.824
 2058TIP3   OH2 6137   2.045   6.716   4.455
 2058TIP3    H1 6138   2.047   6.778   4.528
 2058TIP3    H2 6139   2.119   6.741   4.400
 2059TIP3   OH2 6140   5.299   3.520   0.432
 2059TIP3    H1 6141   5.238   3.475   0.373
 2059TIP3    H2 6142   5.334   3.450   0.488
 2060TIP3   OH2 6143   6.695   0.754   1.882
 2060TIP3    H1 6144   6.704   0.749   1.787
 2060TIP3    H2 6145   6.783   0.742   1.916
 2061TIP3   OH2 6146   1.663   4.212   0.000
 2061TIP3    H1 6147   1.742   4.161  -0.015
 2061TIP3    H2 6148   1.644   4.253  -0.084
 2062TIP3   OH2 6149   1.582   0.295   5.458
 2062TIP3    H1 6150   1.583   0.216   5.512
 2062TIP3    H2 6151   1.498   0.292   5.412
 2063TIP3   OH2 6152   6.953   0.856   1.022
 2063TIP3    H1 6153   7.043   0.833   1.001
 2063TIP3    H2 6154   6.904   0.775   1.010
 2064TIP3   OH2 6155   2.059   2.569   0.487
 2064TIP3    H1 6156   2.140   2.615   0.508
 2064TIP3    H2 6157   2.014   2.627   0.425
 2065TIP3   OH2 6158   6.444   6.226   1.268
 2065TIP3    H1 6159   6.390   6.295   1.228
 2065TIP3    H2 6160   6.392   6.147   1.258
 2066TIP3   OH2 6161   6.289   3.833   3.327
 2066TIP3    H1 6162   6.360   3.886   3.363
 2066TIP3    H2 6163   6.246   3.796   3.403
 2067TIP3   OH2 6164   7.088   1.282   5.260
 2067TIP3    H1 6165   7.011   1.234   5.230
 2067TIP3    H2 6166   7.157   1.216   5.263
 2068TIP3   OH2 6167   5.159   1.170   2.310
 2068TIP3    H1 6168   5.221   1.103   2.339
 2068TIP3    H2 6169   5.214   1.244   2.284
 2069TIP3   OH2 6170   1.050   4.755   5.470
 2069TIP3    H1 6171   1.057   4.709   5.387
 2069TIP3    H2 6172   0.956   4.761   5.487
 2070TIP3   OH2 6173   0.103   2.667   2.964
 2070TIP3    H1 6174   0.187   2.621   2.953
 2070TIP3    H2 6175   0.111   2.745   2.909
 2071TIP3   OH2 6176   5.189   6.596   2.039
 2071TIP3    H1 6177   5.198   6.688   2.015
 2071TIP3    H2 6178   5.232   6.549   1.968
 2072TIP3   OH2 6179   6.280   6.243   3.160
 2072TIP3    H1 6180   6.249   6.312   3.218
 2072TIP3    H2 6181   6.308   6.290   3.081
 2073TIP3   OH2 6182   1.924   1.705   0.741
 2073TIP3    H1 6183   1.830   1.718   0.729
 2073TIP3    H2 6184   1.964   1.752   0.667
 2074TIP3   OH2 6185   6.536   1.205   5.694
 2074TIP3    H1 6186   6.534   1.219   5.788
 2074TIP3    H2 6187   6.487   1.279   5.658
 2075TIP3   OH2 6188   6.200   2.909   0.696
 2075TIP3    H1 6189   6.109   2.935   0.713
 2075TIP3    H2 6190   6.194   2.855   0.618
 2076TIP3   OH2 6191   6.586   4.391   4.451
 2076TIP3    H1 6192   6.514   4.328   4.449
 2076TIP3    H2 6193   6.631   4.374   4.534
 2077TIP3   OH2 6194   0.845   5.191   5.588
 2077TIP3    H1 6195   0.912   5.259   5.581
 2077TIP3    H2 6196   0.820   5.174   5.497
 2078TIP3   OH2 6197   2.978   4.573   5.633
 2078TIP3    H1 6198   2.988   4.606   5.722
 2078TIP3    H2 6199   2.928   4.492   5.642
 2079TIP3   OH2 6200   4.768   4.481   2.556
 2079TIP3    H1 6201   4.742   4.430   2.479
 2079TIP3    H2 6202   4.694   4.474   2.616
 2080TIP3   OH2 6203   1.017   0.248   2.609
 2080TIP3    H1 6204   0.945   0.191   2.636
 2080TIP3    H2 6205   0.993   0.334   2.643
 2081TIP3   OH2 6206   2.114   6.313   2.947
 2081TIP3    H1 6207   2.167   6.320   2.868
 2081TIP3    H2 6208   2.103   6.404   2.977
 2082TIP3   OH2 6209   3.097   3.965   3.326
 2082TIP3    H1 6210   3.003   3.946   3.323
 2082TIP3    H2 6211   3.118   3.995   3.237
 2083TIP3   OH2 6212   2.604   6.446   1.734
 2083TIP3    H1 6213   2.625   6.533   1.768
 2083TIP3    H2 6214   2.689   6.403   1.726
 2084TIP3   OH2 6215   4.149   1.345   4.482
 2084TIP3    H1 6216   4.108   1.385   4.405
 2084TIP3    H2 6217   4.238   1.323   4.452
 2085TIP3   OH2 6218   1.621   4.301   0.956
 2085TIP3    H1 6219   1.538   4.257   0.973
 2085TIP3    H2 6220   1.676   4.234   0.915
 2086TIP3   OH2 6221   3.877   4.738   0.417
 2086TIP3    H1 6222   3.902   4.711   0.328
 2086TIP3    H2 6223   3.942   4.804   0.441
 2087TIP3   OH2 6224   5.630   3.787   0.510
 2087TIP3    H1 6225   5.619   3.882   0.501
 2087TIP3    H2 6226   5.549   3.757   0.550
 2088TIP3   OH2 6227   2.462   2.704   3.502
 2088TIP3    H1 6228   2.393   2.698   3.436
 2088TIP3    H2 6229   2.483   2.613   3.522
 2089TIP3   OH2 6230   3.936   0.057   1.026
 2089TIP3    H1 6231   3.879   0.132   1.044
 2089TIP3    H2 6232   4.003   0.091   0.967
 2090TIP3   OH2 6233   2.340   5.915   1.097
 2090TIP3    H1 6234   2.342   6.001   1.054
 2090TIP3    H2 6235   2.326   5.853   1.026
 2091TIP3   OH2 6236   6.212   5.113   1.791
 2091TIP3    H1 6237   6.150   5.066   1.847
 2091TIP3    H2 6238   6.162   5.133   1.712
 2092TIP3   OH2 6239   3.600   0.715   0.553
 2092TIP3    H1 6240   3.687   0.731   0.591
 2092TIP3    H2 6241   3.616   0.699   0.460
 2093TIP3   OH2 6242   1.359   4.005   1.597
 2093TIP3    H1 6243   1.444   4.046   1.608
 2093TIP3    H2 6244   1.378   3.911   1.595
 2094TIP3   OH2 6245   7.036   1.471   1.466
 2094TIP3    H1 6246   7.078   1.443   1.547
 2094TIP3    H2 6247   7.076   1.556   1.446
 2095TIP3   OH2 6248   1.325   5.915   0.807
 2095TIP3    H1 6249   1.315   5.985   0.872
 2095TIP3    H2 6250   1.374   5.846   0.853
 2096TIP3   OH2 6251   6.468   2.808   1.200
 2096TIP3    H1 6252   6.537   2.750   1.169
 2096TIP3    H2 6253   6.387   2.759   1.183
 2097TIP3   OH2 6254   4.835   1.169   4.277
 2097TIP3    H1 6255   4.928   1.145   4.275
 2097TIP3    H2 6256   4.830   1.248   4.224
 2098TIP3   OH2 6257   0.906   2.878   2.844
 2098TIP3    H1 6258   0.898   2.855   2.751
 2098TIP3    H2 6259   0.879   2.799   2.890
 2099TIP3   OH2 6260   4.860   0.065   1.065
 2099TIP3    H1 6261   4.846   0.154   1.100
 2099TIP3    H2 6262   4.817   0.066   0.980
 2100TIP3   OH2 6263   2.959   1.519   0.385
 2100TIP3    H1 6264   2.951   1.597   0.440
 2100TIP3    H2 6265   3.049   1.490   0.398
 2101TIP3   OH2 6266   2.452   3.832   2.045
 2101TIP3    H1 6267   2.468   3.889   2.120
 2101TIP3    H2 6268   2.423   3.891   1.976
 2102TIP3   OH2 6269   7.185   0.228   1.625
 2102TIP3    H1 6270   7.167   0.142   1.664
 2102TIP3    H2 6271   7.260   0.213   1.568
 2103TIP3   OH2 6272   0.050   3.295   4.505
 2103TIP3    H1 6273   0.114   3.254   4.445
 2103TIP3    H2 6274   0.034   3.381   4.467
 2104TIP3   OH2 6275   5.702   0.911   1.533
 2104TIP3    H1 6276   5.695   0.816   1.535
 2104TIP3    H2 6277   5.796   0.928   1.533
 2105TIP3   OH2 6278   1.392   6.251   2.345
 2105TIP3    H1 6279   1.345   6.328   2.377
 2105TIP3    H2 6280   1.465   6.287   2.295
 2106TIP3   OH2 6281   0.505   1.936   4.705
 2106TIP3    H1 6282   0.446   1.948   4.630
 2106TIP3    H2 6283   0.533   1.845   4.699
 2107TIP3   OH2 6284   3.004   6.416   1.888
 2107TIP3    H1 6285   3.097   6.396   1.901
 2107TIP3    H2 6286   2.962   6.330   1.882
 2108TIP3   OH2 6287   3.633   3.721   0.430
 2108TIP3    H1 6288   3.670   3.768   0.356
 2108TIP3    H2 6289   3.679   3.755   0.507
 2109TIP3   OH2 6290   2.079   4.710   4.428
 2109TIP3    H1 6291   2.137   4.646   4.470
 2109TIP3    H2 6292   2.089   4.790   4.479
 2110TIP3   OH2 6293   5.215   5.311   0.225
 2110TIP3    H1 6294   5.208   5.401   0.255
 2110TIP3    H2 6295   5.227   5.260   0.305
 2111TIP3   OH2 6296   3.240   1.887   2.402
 2111TIP3    H1 6297   3.272   1.927   2.482
 2111TIP3    H2 6298   3.317   1.848   2.361
 2112TIP3   OH2 6299   3.230   4.363   5.125
 2112TIP3    H1 6300   3.292   4.431   5.152
 2112TIP3    H2 6301   3.282   4.284   5.115
 2113TIP3   OH2 6302   1.676   5.486   0.485
 2113TIP3    H1 6303   1.602   5.441   0.444
 2113TIP3    H2 6304   1.734   5.416   0.513
 2114TIP3   OH2 6305   4.467   2.640   1.257
 2114TIP3    H1 6306   4.490   2.714   1.312
 2114TIP3    H2 6307   4.498   2.664   1.170
 2115TIP3   OH2 6308   0.896   1.442   1.458
 2115TIP3    H1 6309   0.946   1.496   1.518
 2115TIP3    H2 6310   0.862   1.503   1.392
 2116TIP3   OH2 6311   0.768   2.277   4.080
 2116TIP3    H1 6312   0.805   2.204   4.130
 2116TIP3    H2 6313   0.707   2.319   4.141
 2117TIP3   OH2 6314   4.004   1.438   0.124
 2117TIP3    H1 6315   4.025   1.348   0.101
 2117TIP3    H2 6316   4.088   1.484   0.118
 2118TIP3   OH2 6317   3.786   5.024   3.227
 2118TIP3    H1 6318   3.836   4.985   3.155
 2118TIP3    H2 6319   3.808   4.972   3.304
 2119TIP3   OH2 6320   5.847   5.573   0.077
 2119TIP3    H1 6321   5.818   5.492   0.035
 2119TIP3    H2 6322   5.864   5.633   0.005
 2120TIP3   OH2 6323   2.063   3.306   3.498
 2120TIP3    H1 6324   2.132   3.371   3.488
 2120TIP3    H2 6325   2.106   3.222   3.477
 2121TIP3   OH2 6326   5.727   6.598   5.312
 2121TIP3    H1 6327   5.658   6.622   5.250
 2121TIP3    H2 6328   5.739   6.675   5.367
 2122TIP3   OH2 6329   0.828   1.228   5.761
 2122TIP3    H1 6330   0.916   1.192   5.750
 2122TIP3    H2 6331   0.770   1.164   5.718
 2123TIP3   OH2 6332   0.964   3.091   1.278
 2123TIP3    H1 6333   1.035   3.126   1.224
 2123TIP3    H2 6334   1.008   3.036   1.343
 2124TIP3   OH2 6335   4.284   1.526   1.340
 2124TIP3    H1 6336   4.370   1.483   1.348
 2124TIP3    H2 6337   4.221   1.460   1.369
 2125TIP3   OH2 6338   3.902   1.557   0.980
 2125TIP3    H1 6339   3.892   1.633   1.038
 2125TIP3    H2 6340   3.826   1.502   0.999
 2126TIP3   OH2 6341   2.716   4.855   0.341
 2126TIP3    H1 6342   2.659   4.898   0.278
 2126TIP3    H2 6343   2.799   4.841   0.294
 2127TIP3   OH2 6344   3.708   5.890   1.304
 2127TIP3    H1 6345   3.682   5.932   1.387
 2127TIP3    H2 6346   3.762   5.815   1.331
 2128TIP3   OH2 6347   2.408   6.397   5.386
 2128TIP3    H1 6348   2.458   6.398   5.304
 2128TIP3    H2 6349   2.444   6.324   5.435
 2129TIP3   OH2 6350   7.203   2.079   0.308
 2129TIP3    H1 6351   7.149   2.046   0.379
 2129TIP3    H2 6352   7.211   2.004   0.247
 2130TIP3   OH2 6353   4.883   0.884   0.109
 2130TIP3    H1 6354   4.871   0.908   0.201
 2130TIP3    H2 6355   4.929   0.958   0.070
 2131TIP3   OH2 6356   3.683   0.286   0.713
 2131TIP3    H1 6357   3.680   0.221   0.643
 2131TIP3    H2 6358   3.617   0.351   0.690
 2132TIP3   OH2 6359   6.307   1.115   4.987
 2132TIP3    H1 6360   6.234   1.177   4.981
 2132TIP3    H2 6361   6.384   1.170   4.999
 2133TIP3   OH2 6362   2.640   1.202   5.359
 2133TIP3    H1 6363   2.729   1.187   5.328
 2133TIP3    H2 6364   2.640   1.167   5.448
 2134TIP3   OH2 6365   0.705   0.425   0.517
 2134TIP3    H1 6366   0.696   0.369   0.594
 2134TIP3    H2 6367   0.636   0.396   0.457
 2135TIP3   OH2 6368   7.113   2.640   3.504
 2135TIP3    H1 6369   7.090   2.568   3.563
 2135TIP3    H2 6370   7.106   2.603   3.416
 2136TIP3   OH2 6371   1.935   1.099   4.771
 2136TIP3    H1 6372   1.958   1.033   4.705
 2136TIP3    H2 6373   1.845   1.124   4.749
 2137TIP3   OH2 6374   6.995   6.188   3.465
 2137TIP3    H1 6375   6.956   6.262   3.419
 2137TIP3    H2 6376   7.032   6.226   3.545
 2138TIP3   OH2 6377   0.176   4.775   0.702
 2138TIP3    H1 6378   0.233   4.720   0.649
 2138TIP3    H2 6379   0.217   4.777   0.788
 2139TIP3   OH2 6380   4.350   1.153   4.225
 2139TIP3    H1 6381   4.395   1.175   4.307
 2139TIP3    H2 6382   4.402   1.196   4.157
 2140TIP3   OH2 6383   2.630   2.528   3.269
 2140TIP3    H1 6384   2.575   2.556   3.195
 2140TIP3    H2 6385   2.569   2.522   3.342
 2141TIP3   OH2 6386   1.850   0.166   1.920
 2141TIP3    H1 6387   1.894   0.151   1.836
 2141TIP3    H2 6388   1.920   0.165   1.985
 2142TIP3   OH2 6389   3.151   6.365   2.226
 2142TIP3    H1 6390   3.209   6.299   2.262
 2142TIP3    H2 6391   3.158   6.355   2.132
 2143TIP3   OH2 6392   7.046   0.878   4.292
 2143TIP3    H1 6393   7.016   0.806   4.347
 2143TIP3    H2 6394   7.040   0.955   4.349
 2144TIP3   OH2 6395   0.133   1.921   5.155
 2144TIP3    H1 6396   0.195   1.852   5.131
 2144TIP3    H2 6397   0.126   1.975   5.076
 2145TIP3   OH2 6398   6.851   2.527   0.477
 2145TIP3    H1 6399   6.874   2.440   0.508
 2145TIP3    H2 6400   6.812   2.513   0.391
 2146TIP3   OH2 6401   6.121   3.602   2.137
 2146TIP3    H1 6402   6.198   3.659   2.148
 2146TIP3    H2 6403   6.093   3.584   2.226
 2147TIP3   OH2 6404   2.914   1.676   4.482
 2147TIP3    H1 6405   3.002   1.712   4.473
 2147TIP3    H2 6406   2.919   1.617   4.557
 2148TIP3   OH2 6407   6.618   0.189   2.187
 2148TIP3    H1 6408   6.535   0.142   2.182
 2148TIP3    H2 6409   6.622   0.238   2.105
 2149TIP3   OH2 6410   2.620   0.126   3.315
 2149TIP3    H1 6411   2.612   0.222   3.311
 2149TIP3    H2 6412   2.559   0.094   3.249
 2150TIP3   OH2 6413   1.154   5.733   0.260
 2150TIP3    H1 6414   1.183   5.759   0.348
 2150TIP3    H2 6415   1.174   5.640   0.255
 2151TIP3   OH2 6416   1.985   5.732   0.254
 2151TIP3    H1 6417   1.987   5.636   0.258
 2151TIP3    H2 6418   1.905   5.752   0.205
 2152TIP3   OH2 6419   0.386   2.824   2.234
 2152TIP3    H1 6420   0.299   2.811   2.198
 2152TIP3    H2 6421   0.412   2.738   2.267
 2153TIP3   OH2 6422   1.725   5.467   3.233
 2153TIP3    H1 6423   1.814   5.503   3.235
 2153TIP3    H2 6424   1.689   5.496   3.150
 2154TIP3   OH2 6425   0.544   4.345   2.011
 2154TIP3    H1 6426   0.618   4.379   1.960
 2154TIP3    H2 6427   0.520   4.265   1.965
 2155TIP3   OH2 6428   3.454   3.620   1.483
 2155TIP3    H1 6429   3.401   3.574   1.418
 2155TIP3    H2 6430   3.414   3.595   1.567
 2156TIP3   OH2 6431   3.881   2.622   3.677
 2156TIP3    H1 6432   3.925   2.653   3.597
 2156TIP3    H2 6433   3.806   2.571   3.644
 2157TIP3   OH2 6434   3.433   2.006   4.102
 2157TIP3    H1 6435   3.369   2.051   4.158
 2157TIP3    H2 6436   3.440   1.918   4.141
 2158TIP3   OH2 6437   0.797   1.882   0.120
 2158TIP3    H1 6438   0.712   1.925   0.106
 2158TIP3    H2 6439   0.861   1.941   0.080
 2159TIP3   OH2 6440   1.721   6.058   2.498
 2159TIP3    H1 6441   1.747   6.018   2.414
 2159TIP3    H2 6442   1.632   6.027   2.513
 2160TIP3   OH2 6443   2.344   1.684   2.673
 2160TIP3    H1 6444   2.316   1.769   2.706
 2160TIP3    H2 6445   2.318   1.685   2.581
 2161TIP3   OH2 6446   3.008   1.667   2.416
 2161TIP3    H1 6447   2.989   1.646   2.508
 2161TIP3    H2 6448   3.020   1.582   2.374
 2162TIP3   OH2 6449   2.332   4.512   0.772
 2162TIP3    H1 6450   2.293   4.523   0.685
 2162TIP3    H2 6451   2.258   4.488   0.828
 2163TIP3   OH2 6452   4.917   2.094   5.645
 2163TIP3    H1 6453   4.919   2.097   5.549
 2163TIP3    H2 6454   5.008   2.108   5.671
 2164TIP3   OH2 6455   5.748   6.490   1.253
 2164TIP3    H1 6456   5.656   6.512   1.237
 2164TIP3    H2 6457   5.793   6.513   1.172
 2165TIP3   OH2 6458   5.870   0.444   4.102
 2165TIP3    H1 6459   5.823   0.397   4.035
 2165TIP3    H2 6460   5.951   0.473   4.060
 2166TIP3   OH2 6461   3.624   4.907   0.423
 2166TIP3    H1 6462   3.586   4.874   0.505
 2166TIP3    H2 6463   3.674   4.833   0.388
 2167TIP3   OH2 6464   0.857   5.295   1.922
 2167TIP3    H1 6465   0.789   5.324   1.861
 2167TIP3    H2 6466   0.812   5.239   1.985
 2168TIP3   OH2 6467   4.787   4.063   0.655
 2168TIP3    H1 6468   4.825   4.144   0.690
 2168TIP3    H2 6469   4.857   4.023   0.603
 2169TIP3   OH2 6470   2.977   5.416   5.865
 2169TIP3    H1 6471   2.883   5.419   5.883
 2169TIP3    H2 6472   2.983   5.422   5.770
 2170TIP3   OH2 6473   5.846   1.859   0.964
 2170TIP3    H1 6474   5.787   1.868   1.039
 2170TIP3    H2 6475   5.922   1.813   0.998
 2171TIP3   OH2 6476   2.616   2.459   1.383
 2171TIP3    H1 6477   2.534   2.447   1.335
 2171TIP3    H2 6478   2.590   2.469   1.474
 2172TIP3   OH2 6479   7.127   4.626   2.879
 2172TIP3    H1 6480   7.145   4.563   2.809
 2172TIP3    H2 6481   7.039   4.659   2.860
 2173TIP3   OH2 6482   5.955   1.340   4.049
 2173TIP3    H1 6483   5.991   1.343   4.138
 2173TIP3    H2 6484   5.861   1.358   4.062
 2174TIP3   OH2 6485   4.600   2.505   2.821
 2174TIP3    H1 6486   4.545   2.461   2.885
 2174TIP3    H2 6487   4.636   2.580   2.868
 2175TIP3   OH2 6488   2.630   0.381   1.909
 2175TIP3    H1 6489   2.584   0.436   1.972
 2175TIP3    H2 6490   2.691   0.441   1.865
 2176TIP3   OH2 6491   5.027   4.798   3.672
 2176TIP3    H1 6492   5.086   4.750   3.730
 2176TIP3    H2 6493   5.085   4.844   3.612
 2177TIP3   OH2 6494   5.219   6.741   1.450
 2177TIP3    H1 6495   5.173   6.760   1.532
 2177TIP3    H2 6496   5.219   6.645   1.445
 2178TIP3   OH2 6497   4.207   3.499   0.429
 2178TIP3    H1 6498   4.283   3.442   0.445
 2178TIP3    H2 6499   4.202   3.554   0.507
 2179TIP3   OH2 6500   6.703   4.838   4.325
 2179TIP3    H1 6501   6.636   4.772   4.337
 2179TIP3    H2 6502   6.759   4.805   4.255
 2180TIP3   OH2 6503   4.675   0.961   1.367
 2180TIP3    H1 6504   4.726   0.993   1.441
 2180TIP3    H2 6505   4.703   0.871   1.355
 2181TIP3   OH2 6506   2.220   3.755   2.183
 2181TIP3    H1 6507   2.304   3.757   2.138
 2181TIP3    H2 6508   2.200   3.662   2.192
 2182TIP3   OH2 6509   0.879   6.320   5.610
 2182TIP3    H1 6510   0.812   6.290   5.549
 2182TIP3    H2 6511   0.943   6.248   5.611
 2183TIP3   OH2 6512   5.898   1.973   3.256
 2183TIP3    H1 6513   5.927   1.883   3.270
 2183TIP3    H2 6514   5.861   2.000   3.340
 2184TIP3   OH2 6515   6.989   3.494   5.062
 2184TIP3    H1 6516   6.927   3.423   5.042
 2184TIP3    H2 6517   6.936   3.574   5.058
 2185TIP3   OH2 6518   4.483   3.136   1.940
 2185TIP3    H1 6519   4.457   3.091   1.859
 2185TIP3    H2 6520   4.573   3.108   1.955
 2186TIP3   OH2 6521   5.534   0.996   2.425
 2186TIP3    H1 6522   5.522   1.032   2.338
 2186TIP3    H2 6523   5.606   1.046   2.463
 2187TIP3   OH2 6524   4.919   5.825   4.519
 2187TIP3    H1 6525   4.825   5.809   4.520
 2187TIP3    H2 6526   4.955   5.754   4.466
 2188TIP3   OH2 6527   0.710   6.591   0.675
 2188TIP3    H1 6528   0.636   6.553   0.629
 2188TIP3    H2 6529   0.685   6.682   0.691
 2189TIP3   OH2 6530   3.635   2.872   1.673
 2189TIP3    H1 6531   3.647   2.965   1.693
 2189TIP3    H2 6532   3.706   2.828   1.720
 2190TIP3   OH2 6533   2.999   1.173   2.581
 2190TIP3    H1 6534   2.931   1.232   2.548
 2190TIP3    H2 6535   3.079   1.201   2.537
 2191TIP3   OH2 6536   0.666   2.987   5.395
 2191TIP3    H1 6537   0.749   3.024   5.425
 2191TIP3    H2 6538   0.604   3.009   5.465
 2192TIP3   OH2 6539   4.483   6.157   0.701
 2192TIP3    H1 6540   4.420   6.220   0.667
 2192TIP3    H2 6541   4.549   6.210   0.746
 2193TIP3   OH2 6542   6.607  -0.003   0.940
 2193TIP3    H1 6543   6.518   0.001   0.975
 2193TIP3    H2 6544   6.659  -0.040   1.010
 2194TIP3   OH2 6545   1.770   0.235   5.104
 2194TIP3    H1 6546   1.710   0.160   5.104
 2194TIP3    H2 6547   1.802   0.240   5.194
 2195TIP3   OH2 6548   2.279   0.070   5.510
 2195TIP3    H1 6549   2.209   0.064   5.575
 2195TIP3    H2 6550   2.308   0.161   5.515
 2196TIP3   OH2 6551   0.548   2.357   3.637
 2196TIP3    H1 6552   0.587   2.371   3.723
 2196TIP3    H2 6553   0.589   2.277   3.604
 2197TIP3   OH2 6554   4.847   0.264   0.113
 2197TIP3    H1 6555   4.854   0.317   0.192
 2197TIP3    H2 6556   4.882   0.179   0.138
 2198TIP3   OH2 6557   1.925   3.302   4.353
 2198TIP3    H1 6558   1.856   3.243   4.321
 2198TIP3    H2 6559   1.878   3.367   4.406
 2199TIP3   OH2 6560   3.895   2.929   5.829
 2199TIP3    H1 6561   3.987   2.943   5.852
 2199TIP3    H2 6562   3.862   3.016   5.807
 2200TIP3   OH2 6563   0.731   2.511   4.730
 2200TIP3    H1 6564   0.818   2.551   4.732
 2200TIP3    H2 6565   0.724   2.465   4.813
 2201TIP3   OH2 6566   0.077   1.511   2.428
 2201TIP3    H1 6567   0.014   1.537   2.496
 2201TIP3    H2 6568   0.123   1.592   2.406
 2202TIP3   OH2 6569   3.065   5.889   1.663
 2202TIP3    H1 6570   3.079   5.819   1.599
 2202TIP3    H2 6571   3.146   5.891   1.714
 2203TIP3   OH2 6572   1.131   5.277   1.400
 2203TIP3    H1 6573   1.217   5.319   1.402
 2203TIP3    H2 6574   1.069   5.350   1.403
 2204TIP3   OH2 6575   2.994   3.746   5.338
 2204TIP3    H1 6576   2.981   3.740   5.432
 2204TIP3    H2 6577   2.920   3.799   5.307
 2205TIP3   OH2 6578   4.099   0.631   3.030
 2205TIP3    H1 6579   4.054   0.577   2.965
 2205TIP3    H2 6580   4.029   0.664   3.087
 2206TIP3   OH2 6581   7.182   5.220   2.344
 2206TIP3    H1 6582   7.161   5.182   2.429
 2206TIP3    H2 6583   7.277   5.223   2.342
 2207TIP3   OH2 6584   0.999   2.392   3.995
 2207TIP3    H1 6585   0.908   2.365   4.007
 2207TIP3    H2 6586   1.037   2.324   3.939
 2208TIP3   OH2 6587   5.288   6.543   0.682
 2208TIP3    H1 6588   5.211   6.561   0.737
 2208TIP3    H2 6589   5.311   6.627   0.644
 2209TIP3   OH2 6590   4.800   1.755   2.888
 2209TIP3    H1 6591   4.855   1.780   2.963
 2209TIP3    H2 6592   4.755   1.676   2.917
 2210TIP3   OH2 6593   2.866   3.548   4.832
 2210TIP3    H1 6594   2.867   3.452   4.834
 2210TIP3    H2 6595   2.912   3.574   4.912
 2211TIP3   OH2 6596   3.370   6.837   1.566
 2211TIP3    H1 6597   3.352   6.744   1.575
 2211TIP3    H2 6598   3.284   6.878   1.558
 2212TIP3   OH2 6599   3.054   0.392   4.834
 2212TIP3    H1 6600   3.069   0.452   4.907
 2212TIP3    H2 6601   2.962   0.367   4.842
 2213TIP3   OH2 6602   3.316   3.685   5.556
 2213TIP3    H1 6603   3.274   3.771   5.569
 2213TIP3    H2 6604   3.390   3.703   5.498
 2214TIP3   OH2 6605   4.991   5.200   2.462
 2214TIP3    H1 6606   5.017   5.136   2.528
 2214TIP3    H2 6607   4.953   5.272   2.513
 2215TIP3   OH2 6608   4.994   2.946   3.916
 2215TIP3    H1 6609   4.942   2.920   3.992
 2215TIP3    H2 6610   4.976   2.879   3.850
 2216TIP3   OH2 6611   5.062   3.600   2.940
 2216TIP3    H1 6612   5.090   3.572   2.853
 2216TIP3    H2 6613   4.980   3.648   2.924
 2217TIP3   OH2 6614   4.478   5.050   5.806
 2217TIP3    H1 6615   4.561   5.097   5.808
 2217TIP3    H2 6616   4.461   5.027   5.897
 2218TIP3   OH2 6617   6.293   3.274   5.754
 2218TIP3    H1 6618   6.199   3.262   5.770
 2218TIP3    H2 6619   6.325   3.186   5.736
 2219TIP3   OH2 6620   4.868   2.270   1.835
 2219TIP3    H1 6621   4.817   2.275   1.755
 2219TIP3    H2 6622   4.938   2.334   1.823
 2220TIP3   OH2 6623   4.851   6.552   2.032
 2220TIP3    H1 6624   4.765   6.562   2.074
 2220TIP3    H2 6625   4.894   6.484   2.083
 2221TIP3   OH2 6626   5.898   3.836   5.261
 2221TIP3    H1 6627   5.846   3.909   5.296
 2221TIP3    H2 6628   5.850   3.758   5.287
 2222TIP3   OH2 6629   6.488   1.925   4.322
 2222TIP3    H1 6630   6.489   1.907   4.228
 2222TIP3    H2 6631   6.404   1.890   4.352
 2223TIP3   OH2 6632   6.324   1.136   1.319
 2223TIP3    H1 6633   6.391   1.194   1.355
 2223TIP3    H2 6634   6.362   1.103   1.238
 2224TIP3   OH2 6635   0.301   1.003   1.073
 2224TIP3    H1 6636   0.341   1.072   1.125
 2224TIP3    H2 6637   0.349   1.004   0.990
 2225TIP3   OH2 6638   3.573   3.463   1.845
 2225TIP3    H1 6639   3.523   3.405   1.787
 2225TIP3    H2 6640   3.529   3.548   1.838
 2226TIP3   OH2 6641   3.482   2.702   4.404
 2226TIP3    H1 6642   3.565   2.706   4.451
 2226TIP3    H2 6643   3.426   2.647   4.458
 2227TIP3   OH2 6644   7.170   5.893   3.257
 2227TIP3    H1 6645   7.156   5.836   3.181
 2227TIP3    H2 6646   7.185   5.979   3.220
 2228TIP3   OH2 6647   6.884   5.104   4.720
 2228TIP3    H1 6648   6.799   5.142   4.745
 2228TIP3    H2 6649   6.879   5.096   4.625
 2229TIP3   OH2 6650   7.108   6.449   0.165
 2229TIP3    H1 6651   7.049   6.498   0.223
 2229TIP3    H2 6652   7.162   6.516   0.124
 2230TIP3   OH2 6653   1.327   3.414   3.216
 2230TIP3    H1 6654   1.306   3.328   3.180
 2230TIP3    H2 6655   1.283   3.476   3.158
 2231TIP3   OH2 6656   0.149   6.194   1.014
 2231TIP3    H1 6657   0.178   6.284   0.998
 2231TIP3    H2 6658   0.055   6.200   1.026
 2232TIP3   OH2 6659   2.055   0.662   4.202
 2232TIP3    H1 6660   2.038   0.657   4.297
 2232TIP3    H2 6661   1.969   0.649   4.162
 2233TIP3   OH2 6662   2.862   3.842   3.306
 2233TIP3    H1 6663   2.799   3.890   3.360
 2233TIP3    H2 6664   2.837   3.862   3.216
 2234TIP3   OH2 6665   5.771   0.179   5.473
 2234TIP3    H1 6666   5.721   0.100   5.456
 2234TIP3    H2 6667   5.841   0.179   5.408
 2235TIP3   OH2 6668   5.899   4.544   2.375
 2235TIP3    H1 6669   5.955   4.475   2.340
 2235TIP3    H2 6670   5.859   4.506   2.453
 2236TIP3   OH2 6671   3.550   0.282   1.618
 2236TIP3    H1 6672   3.498   0.305   1.695
 2236TIP3    H2 6673   3.546   0.187   1.613
 2237TIP3   OH2 6674   1.820   2.053   5.286
 2237TIP3    H1 6675   1.742   1.998   5.276
 2237TIP3    H2 6676   1.892   1.991   5.297
 2238TIP3   OH2 6677   0.350   6.266   4.221
 2238TIP3    H1 6678   0.361   6.174   4.197
 2238TIP3    H2 6679   0.259   6.286   4.200
 2239TIP3   OH2 6680   4.747   6.192   0.113
 2239TIP3    H1 6681   4.731   6.098   0.116
 2239TIP3    H2 6682   4.812   6.208   0.181
 2240TIP3   OH2 6683   5.808   1.470   3.536
 2240TIP3    H1 6684   5.823   1.396   3.477
 2240TIP3    H2 6685   5.860   1.450   3.614
 2241TIP3   OH2 6686   6.854   2.020   1.222
 2241TIP3    H1 6687   6.763   2.049   1.213
 2241TIP3    H2 6688   6.862   1.994   1.313
 2242TIP3   OH2 6689   3.861   1.871   4.586
 2242TIP3    H1 6690   3.850   1.961   4.554
 2242TIP3    H2 6691   3.914   1.881   4.665
 2243TIP3   OH2 6692   1.696   1.852   2.087
 2243TIP3    H1 6693   1.638   1.920   2.120
 2243TIP3    H2 6694   1.638   1.794   2.036
 2244TIP3   OH2 6695   2.672   6.427   2.823
 2244TIP3    H1 6696   2.603   6.447   2.886
 2244TIP3    H2 6697   2.752   6.461   2.863
 2245TIP3   OH2 6698   4.274   2.100   1.401
 2245TIP3    H1 6699   4.325   2.054   1.468
 2245TIP3    H2 6700   4.215   2.156   1.450
 2246TIP3   OH2 6701   1.996   0.562   0.210
 2246TIP3    H1 6702   1.920   0.586   0.263
 2246TIP3    H2 6703   1.964   0.494   0.152
 2247TIP3   OH2 6704   5.624   1.332   5.491
 2247TIP3    H1 6705   5.718   1.318   5.479
 2247TIP3    H2 6706   5.616   1.426   5.507
 2248TIP3   OH2 6707   0.546   6.237   2.977
 2248TIP3    H1 6708   0.552   6.193   3.062
 2248TIP3    H2 6709   0.633   6.228   2.939
 2249TIP3   OH2 6710   1.923   2.612   2.250
 2249TIP3    H1 6711   1.872   2.531   2.253
 2249TIP3    H2 6712   1.949   2.620   2.158
 2250TIP3   OH2 6713   5.299   0.361   1.032
 2250TIP3    H1 6714   5.228   0.382   0.971
 2250TIP3    H2 6715   5.283   0.420   1.106
 2251TIP3   OH2 6716   6.310   3.635   3.698
 2251TIP3    H1 6717   6.399   3.668   3.687
 2251TIP3    H2 6718   6.287   3.599   3.612
 2252TIP3   OH2 6719   6.155   6.050   4.870
 2252TIP3    H1 6720   6.229   6.013   4.918
 2252TIP3    H2 6721   6.079   6.037   4.927
 2253TIP3   OH2 6722   5.102   0.873   3.435
 2253TIP3    H1 6723   5.090   0.967   3.421
 2253TIP3    H2 6724   5.187   0.853   3.395
 2254TIP3   OH2 6725   3.115   2.044   4.541
 2254TIP3    H1 6726   3.185   1.978   4.547
 2254TIP3    H2 6727   3.087   2.056   4.632
 2255TIP3   OH2 6728   3.541   2.598   4.687
 2255TIP3    H1 6729   3.604   2.561   4.748
 2255TIP3    H2 6730   3.503   2.522   4.643
 2256TIP3   OH2 6731   1.301   4.996   4.183
 2256TIP3    H1 6732   1.211   4.964   4.195
 2256TIP3    H2 6733   1.332   4.949   4.105
 2257TIP3   OH2 6734   3.006   0.438   5.503
 2257TIP3    H1 6735   2.946   0.402   5.569
 2257TIP3    H2 6736   3.093   0.428   5.543
 2258TIP3   OH2 6737   2.790   5.992   4.260
 2258TIP3    H1 6738   2.801   5.897   4.253
 2258TIP3    H2 6739   2.703   6.009   4.222
 2259TIP3   OH2 6740   6.792   3.309   3.627
 2259TIP3    H1 6741   6.815   3.244   3.561
 2259TIP3    H2 6742   6.697   3.315   3.622
 2260TIP3   OH2 6743   2.175   5.010   3.771
 2260TIP3    H1 6744   2.192   4.963   3.853
 2260TIP3    H2 6745   2.186   4.944   3.702
 2261TIP3   OH2 6746   5.494   0.834   1.943
 2261TIP3    H1 6747   5.563   0.824   2.009
 2261TIP3    H2 6748   5.528   0.900   1.883
 2262TIP3   OH2 6749   2.359   4.106   3.168
 2262TIP3    H1 6750   2.405   4.156   3.100
 2262TIP3    H2 6751   2.323   4.031   3.122
 2263TIP3   OH2 6752   4.564   0.826   1.067
 2263TIP3    H1 6753   4.480   0.870   1.056
 2263TIP3    H2 6754   4.557   0.778   1.149
 2264TIP3   OH2 6755   1.697   5.823   3.787
 2264TIP3    H1 6756   1.624   5.877   3.818
 2264TIP3    H2 6757   1.751   5.809   3.864
 2265TIP3   OH2 6758   1.155   4.784   4.353
 2265TIP3    H1 6759   1.230   4.763   4.407
 2265TIP3    H2 6760   1.092   4.824   4.413
 2266TIP3   OH2 6761   2.814   5.265   0.767
 2266TIP3    H1 6762   2.765   5.337   0.727
 2266TIP3    H2 6763   2.893   5.257   0.713
 2267TIP3   OH2 6764   7.114   4.789   4.639
 2267TIP3    H1 6765   7.114   4.820   4.729
 2267TIP3    H2 6766   7.164   4.707   4.642
 2268TIP3   OH2 6767   2.198   6.101   3.125
 2268TIP3    H1 6768   2.135   6.028   3.124
 2268TIP3    H2 6769   2.147   6.177   3.153
 2269TIP3   OH2 6770   5.823   4.882   0.809
 2269TIP3    H1 6771   5.773   4.843   0.882
 2269TIP3    H2 6772   5.771   4.861   0.731
 2270TIP3   OH2 6773   0.093   4.295   4.958
 2270TIP3    H1 6774   0.187   4.277   4.965
 2270TIP3    H2 6775   0.069   4.328   5.045
 2271TIP3   OH2 6776   4.551   3.091   3.069
 2271TIP3    H1 6777   4.458   3.107   3.053
 2271TIP3    H2 6778   4.578   3.164   3.125
 2272TIP3   OH2 6779   4.032   2.827   0.165
 2272TIP3    H1 6780   3.940   2.823   0.191
 2272TIP3    H2 6781   4.053   2.920   0.166
 2273TIP3   OH2 6782   4.426   1.243   4.496
 2273TIP3    H1 6783   4.444   1.194   4.577
 2273TIP3    H2 6784   4.483   1.320   4.502
 2274TIP3   OH2 6785   4.129   1.154   0.171
 2274TIP3    H1 6786   4.063   1.085   0.185
 2274TIP3    H2 6787   4.210   1.106   0.155
 2275TIP3   OH2 6788   3.747   5.004   2.309
 2275TIP3    H1 6789   3.759   5.092   2.273
 2275TIP3    H2 6790   3.781   5.010   2.398
 2276TIP3   OH2 6791   7.080   3.751   2.800
 2276TIP3    H1 6792   7.088   3.699   2.880
 2276TIP3    H2 6793   7.005   3.713   2.754
 2277TIP3   OH2 6794   4.076   0.217   4.131
 2277TIP3    H1 6795   4.089   0.122   4.136
 2277TIP3    H2 6796   3.983   0.227   4.110
 2278TIP3   OH2 6797   3.970   3.160   2.439
 2278TIP3    H1 6798   3.969   3.251   2.410
 2278TIP3    H2 6799   3.895   3.120   2.395
 2279TIP3   OH2 6800   2.786   5.834   1.654
 2279TIP3    H1 6801   2.856   5.893   1.683
 2279TIP3    H2 6802   2.819   5.746   1.676
 2280TIP3   OH2 6803   3.771   0.172   4.500
 2280TIP3    H1 6804   3.716   0.249   4.516
 2280TIP3    H2 6805   3.857   0.207   4.478
 2281TIP3   OH2 6806   2.264   4.684   1.666
 2281TIP3    H1 6807   2.284   4.776   1.649
 2281TIP3    H2 6808   2.204   4.658   1.596
 2282TIP3   OH2 6809   4.680   1.202   2.882
 2282TIP3    H1 6810   4.636   1.151   2.814
 2282TIP3    H2 6811   4.767   1.220   2.846
 2283TIP3   OH2 6812   5.217   4.322   5.254
 2283TIP3    H1 6813   5.250   4.401   5.296
 2283TIP3    H2 6814   5.201   4.347   5.163
 2284TIP3   OH2 6815   6.951   0.097   5.463
 2284TIP3    H1 6816   6.861   0.073   5.484
 2284TIP3    H2 6817   6.947   0.191   5.441
 2285TIP3   OH2 6818   4.180   3.445   3.461
 2285TIP3    H1 6819   4.238   3.516   3.435
 2285TIP3    H2 6820   4.117   3.438   3.390
 2286TIP3   OH2 6821   1.496   2.866   2.668
 2286TIP3    H1 6822   1.433   2.826   2.608
 2286TIP3    H2 6823   1.451   2.867   2.752
 2287TIP3   OH2 6824   6.544   2.139   0.864
 2287TIP3    H1 6825   6.474   2.195   0.832
 2287TIP3    H2 6826   6.510   2.050   0.854
 2288TIP3   OH2 6827   1.560   6.787   0.347
 2288TIP3    H1 6828   1.595   6.713   0.398
 2288TIP3    H2 6829   1.503   6.745   0.282
 2289TIP3   OH2 6830   0.479   0.021   4.785
 2289TIP3    H1 6831   0.402  -0.036   4.783
 2289TIP3    H2 6832   0.453   0.097   4.732
 2290TIP3   OH2 6833   0.479   4.089   1.639
 2290TIP3    H1 6834   0.546   4.077   1.571
 2290TIP3    H2 6835   0.412   4.025   1.617
 2291TIP3   OH2 6836   3.612   0.760   4.948
 2291TIP3    H1 6837   3.596   0.749   5.042
 2291TIP3    H2 6838   3.706   0.743   4.938
 2292TIP3   OH2 6839   4.952   2.109   3.298
 2292TIP3    H1 6840   4.945   2.038   3.234
 2292TIP3    H2 6841   4.986   2.184   3.248
 2293TIP3   OH2 6842   3.950   6.042   4.204
 2293TIP3    H1 6843   3.963   5.970   4.265
 2293TIP3    H2 6844   4.011   6.110   4.232
 2294TIP3   OH2 6845   4.448   2.160   1.899
 2294TIP3    H1 6846   4.357   2.167   1.928
 2294TIP3    H2 6847   4.495   2.225   1.952
 2295TIP3   OH2 6848   4.634   6.452   3.047
 2295TIP3    H1 6849   4.618   6.404   3.128
 2295TIP3    H2 6850   4.647   6.383   2.981
 2296TIP3   OH2 6851   2.935   0.284   1.203
 2296TIP3    H1 6852   2.903   0.244   1.284
 2296TIP3    H2 6853   3.030   0.293   1.217
 2297TIP3   OH2 6854   5.507   0.616   1.667
 2297TIP3    H1 6855   5.589   0.663   1.683
 2297TIP3    H2 6856   5.533   0.538   1.618
 2298TIP3   OH2 6857   0.721   6.309   1.381
 2298TIP3    H1 6858   0.698   6.350   1.298
 2298TIP3    H2 6859   0.642   6.264   1.409
 2299TIP3   OH2 6860   5.293   4.889   3.587
 2299TIP3    H1 6861   5.307   4.807   3.634
 2299TIP3    H2 6862   5.339   4.877   3.504
 2300TIP3   OH2 6863   1.461   6.786   3.665
 2300TIP3    H1 6864   1.483   6.842   3.590
 2300TIP3    H2 6865   1.430   6.705   3.625
 2301TIP3   OH2 6866   2.006   5.011   0.515
 2301TIP3    H1 6867   1.968   5.064   0.585
 2301TIP3    H2 6868   2.098   5.005   0.537
 2302TIP3   OH2 6869   3.833   5.717   5.170
 2302TIP3    H1 6870   3.870   5.710   5.258
 2302TIP3    H2 6871   3.738   5.713   5.184
 2303TIP3   OH2 6872   5.119   2.754   4.918
 2303TIP3    H1 6873   5.186   2.686   4.923
 2303TIP3    H2 6874   5.126   2.801   5.001
 2304TIP3   OH2 6875   3.629   5.258   2.556
 2304TIP3    H1 6876   3.659   5.283   2.468
 2304TIP3    H2 6877   3.697   5.291   2.615
 2305TIP3   OH2 6878   5.062   0.718   0.210
 2305TIP3    H1 6879   5.058   0.744   0.302
 2305TIP3    H2 6880   5.001   0.777   0.166
 2306TIP3   OH2 6881   0.134   5.552   2.728
 2306TIP3    H1 6882   0.213   5.523   2.681
 2306TIP3    H2 6883   0.096   5.619   2.671
 2307TIP3   OH2 6884   4.406   2.865   5.765
 2307TIP3    H1 6885   4.400   2.782   5.812
 2307TIP3    H2 6886   4.349   2.854   5.689
 2308TIP3   OH2 6887   5.712   5.862   1.781
 2308TIP3    H1 6888   5.662   5.797   1.732
 2308TIP3    H2 6889   5.778   5.893   1.719
 2309TIP3   OH2 6890   6.586   4.643   0.978
 2309TIP3    H1 6891   6.550   4.725   1.012
 2309TIP3    H2 6892   6.519   4.577   0.997
 2310TIP3   OH2 6893   2.994   1.119   5.846
 2310TIP3    H1 6894   2.914   1.170   5.859
 2310TIP3    H2 6895   3.018   1.089   5.933
 2311TIP3   OH2 6896   0.222   0.391   0.048
 2311TIP3    H1 6897   0.132   0.366   0.070
 2311TIP3    H2 6898   0.275   0.315   0.071
 2312TIP3   OH2 6899   2.094   3.781   4.861
 2312TIP3    H1 6900   2.027   3.717   4.839
 2312TIP3    H2 6901   2.172   3.729   4.880
 2313TIP3   OH2 6902   6.899   4.240   2.189
 2313TIP3    H1 6903   6.972   4.180   2.174
 2313TIP3    H2 6904   6.827   4.204   2.137
 2314TIP3   OH2 6905   1.111   3.889   1.974
 2314TIP3    H1 6906   1.073   3.802   1.983
 2314TIP3    H2 6907   1.098   3.911   1.882
 2315TIP3   OH2 6908   0.366   5.544   1.086
 2315TIP3    H1 6909   0.378   5.623   1.034
 2315TIP3    H2 6910   0.334   5.576   1.170
 2316TIP3   OH2 6911   4.284   4.368   2.095
 2316TIP3    H1 6912   4.197   4.344   2.126
 2316TIP3    H2 6913   4.272   4.455   2.057
 2317TIP3   OH2 6914   6.271   2.941   3.447
 2317TIP3    H1 6915   6.229   2.937   3.361
 2317TIP3    H2 6916   6.300   2.851   3.464
 2318TIP3   OH2 6917   3.971   0.424   2.900
 2318TIP3    H1 6918   4.024   0.344   2.907
 2318TIP3    H2 6919   3.929   0.416   2.814
 2319TIP3   OH2 6920   4.866   1.821   1.661
 2319TIP3    H1 6921   4.842   1.867   1.741
 2319TIP3    H2 6922   4.834   1.732   1.674
 2320TIP3   OH2 6923   0.920   1.169   1.386
 2320TIP3    H1 6924   0.931   1.263   1.397
 2320TIP3    H2 6925   0.937   1.154   1.293
 2321TIP3   OH2 6926   5.638   5.947   2.367
 2321TIP3    H1 6927   5.574   5.901   2.312
 2321TIP3    H2 6928   5.687   6.002   2.305
 2322TIP3   OH2 6929   6.588   2.469   3.538
 2322TIP3    H1 6930   6.655   2.422   3.489
 2322TIP3    H2 6931   6.510   2.413   3.532
 2323TIP3   OH2 6932   1.070   5.551   3.743
 2323TIP3    H1 6933   1.059   5.643   3.719
 2323TIP3    H2 6934   1.018   5.503   3.678
 2324TIP3   OH2 6935   7.217   1.851   2.746
 2324TIP3    H1 6936   7.140   1.817   2.700
 2324TIP3    H2 6937   7.249   1.777   2.798
 2325TIP3   OH2 6938   3.702   6.763   3.061
 2325TIP3    H1 6939   3.695   6.851   3.099
 2325TIP3    H2 6940   3.615   6.746   3.024
 2326TIP3   OH2 6941   4.601   1.091   2.626
 2326TIP3    H1 6942   4.689   1.087   2.591
 2326TIP3    H2 6943   4.552   1.145   2.565
 2327TIP3   OH2 6944   6.010   3.598   1.509
 2327TIP3    H1 6945   6.063   3.671   1.479
 2327TIP3    H2 6946   6.053   3.520   1.472
 2328TIP3   OH2 6947   5.746   6.674   4.286
 2328TIP3    H1 6948   5.675   6.737   4.271
 2328TIP3    H2 6949   5.703   6.589   4.287
 2329TIP3   OH2 6950   1.498   0.848   2.071
 2329TIP3    H1 6951   1.578   0.808   2.104
 2329TIP3    H2 6952   1.462   0.782   2.011
 2330TIP3   OH2 6953   6.811   6.041   2.796
 2330TIP3    H1 6954   6.825   6.047   2.702
 2330TIP3    H2 6955   6.900   6.034   2.833
 2331TIP3   OH2 6956   2.155   0.913   4.093
 2331TIP3    H1 6957   2.183   0.850   4.158
 2331TIP3    H2 6958   2.081   0.870   4.048
 2332TIP3   OH2 6959   4.576   5.556   2.057
 2332TIP3    H1 6960   4.622   5.600   2.127
 2332TIP3    H2 6961   4.634   5.562   1.981
 2333TIP3   OH2 6962   2.336   1.684   2.233
 2333TIP3    H1 6963   2.389   1.624   2.285
 2333TIP3    H2 6964   2.391   1.762   2.223
 2334TIP3   OH2 6965   1.590   2.130   4.690
 2334TIP3    H1 6966   1.642   2.069   4.638
 2334TIP3    H2 6967   1.633   2.131   4.776
 2335TIP3   OH2 6968   3.924   6.362   0.995
 2335TIP3    H1 6969   3.871   6.284   1.012
 2335TIP3    H2 6970   3.868   6.418   0.941
 2336TIP3   OH2 6971   4.871   4.380   1.949
 2336TIP3    H1 6972   4.886   4.332   1.868
 2336TIP3    H2 6973   4.815   4.453   1.924
 2337TIP3   OH2 6974   6.024   6.252   3.851
 2337TIP3    H1 6975   5.956   6.260   3.918
 2337TIP3    H2 6976   6.067   6.169   3.871
 2338TIP3   OH2 6977   1.135   6.216   3.342
 2338TIP3    H1 6978   1.070   6.169   3.290
 2338TIP3    H2 6979   1.217   6.168   3.325
 2339TIP3   OH2 6980   1.550   0.561   2.542
 2339TIP3    H1 6981   1.487   0.519   2.484
 2339TIP3    H2 6982   1.625   0.501   2.543
 2340TIP3   OH2 6983   3.697   2.396   2.267
 2340TIP3    H1 6984   3.717   2.426   2.178
 2340TIP3    H2 6985   3.620   2.447   2.293
 2341TIP3   OH2 6986   6.205   2.498   1.417
 2341TIP3    H1 6987   6.130   2.450   1.452
 2341TIP3    H2 6988   6.242   2.543   1.493
 2342TIP3   OH2 6989   7.123   6.200   5.237
 2342TIP3    H1 6990   7.034   6.181   5.208
 2342TIP3    H2 6991   7.171   6.119   5.221
 2343TIP3   OH2 6992   4.669   2.571   1.897
 2343TIP3    H1 6993   4.755   2.557   1.936
 2343TIP3    H2 6994   4.630   2.484   1.892
 2344TIP3   OH2 6995   2.777   3.141   1.382
 2344TIP3    H1 6996   2.697   3.173   1.339
 2344TIP3    H2 6997   2.759   3.150   1.476
 2345TIP3   OH2 6998   6.156   6.298   2.001
 2345TIP3    H1 6999   6.069   6.318   2.036
 2345TIP3    H2 7000   6.169   6.363   1.932
 2346TIP3   OH2 7001   5.913   5.104   2.791
 2346TIP3    H1 7002   5.861   5.024   2.780
 2346TIP3    H2 7003   5.991   5.076   2.838
 2347TIP3   OH2 7004   4.450   4.870   1.779
 2347TIP3    H1 7005   4.460   4.826   1.864
 2347TIP3    H2 7006   4.514   4.941   1.781
 2348TIP3   OH2 7007   4.530   5.622   0.709
 2348TIP3    H1 7008   4.619   5.586   0.715
 2348TIP3    H2 7009   4.542   5.716   0.719
 2349TIP3   OH2 7010   6.421   3.309   3.644
 2349TIP3    H1 7011   6.402   3.309   3.551
 2349TIP3    H2 7012   6.377   3.231   3.678
 2350TIP3   OH2 7013   1.309   4.152   1.867
 2350TIP3    H1 7014   1.403   4.168   1.877
 2350TIP3    H2 7015   1.294   4.069   1.913
 2351TIP3   OH2 7016   5.374   1.507   0.599
 2351TIP3    H1 7017   5.415   1.431   0.641
 2351TIP3    H2 7018   5.419   1.515   0.515
 2352TIP3   OH2 7019   5.694   0.950   4.704
 2352TIP3    H1 7020   5.727   0.936   4.615
 2352TIP3    H2 7021   5.623   0.886   4.713
 2353TIP3   OH2 7022   6.736   5.082   3.715
 2353TIP3    H1 7023   6.787   5.117   3.642
 2353TIP3    H2 7024   6.651   5.126   3.708
 2354TIP3   OH2 7025   6.600   3.181   2.169
 2354TIP3    H1 7026   6.617   3.265   2.210
 2354TIP3    H2 7027   6.687   3.151   2.140
 2355TIP3   OH2 7028   0.397   3.261   3.059
 2355TIP3    H1 7029   0.489   3.285   3.048
 2355TIP3    H2 7030   0.350   3.344   3.050
 2356TIP3   OH2 7031   5.238   3.998   1.857
 2356TIP3    H1 7032   5.253   3.906   1.837
 2356TIP3    H2 7033   5.142   4.006   1.860
 2357TIP3   OH2 7034   3.496   6.546   1.583
 2357TIP3    H1 7035   3.507   6.578   1.672
 2357TIP3    H2 7036   3.568   6.483   1.571
 2358TIP3   OH2 7037   0.633   1.091   5.605
 2358TIP3    H1 7038   0.570   1.162   5.594
 2358TIP3    H2 7039   0.616   1.058   5.693
 2359TIP3   OH2 7040   1.080   6.497   4.422
 2359TIP3    H1 7041   1.105   6.520   4.332
 2359TIP3    H2 7042   1.058   6.405   4.418
 2360TIP3   OH2 7043   3.613   6.088   1.782
 2360TIP3    H1 7044   3.616   6.069   1.876
 2360TIP3    H2 7045   3.676   6.158   1.769
 2361TIP3   OH2 7046   6.540   3.929   3.474
 2361TIP3    H1 7047   6.610   3.994   3.468
 2361TIP3    H2 7048   6.585   3.845   3.481
 2362TIP3   OH2 7049   2.516   4.542   1.300
 2362TIP3    H1 7050   2.423   4.562   1.292
 2362TIP3    H2 7051   2.558   4.626   1.315
 2363TIP3   OH2 7052   1.307   3.599   2.984
 2363TIP3    H1 7053   1.270   3.686   2.973
 2363TIP3    H2 7054   1.397   3.614   3.013
 2364TIP3   OH2 7055   3.659   1.459   0.997
 2364TIP3    H1 7056   3.580   1.512   1.006
 2364TIP3    H2 7057   3.627   1.368   0.999
 2365TIP3   OH2 7058   1.561   6.502   5.106
 2365TIP3    H1 7059   1.485   6.546   5.067
 2365TIP3    H2 7060   1.524   6.429   5.156
 2366TIP3   OH2 7061   4.134   2.082   1.137
 2366TIP3    H1 7062   4.203   2.065   1.073
 2366TIP3    H2 7063   4.181   2.096   1.220
 2367TIP3   OH2 7064   2.026   4.301   5.774
 2367TIP3    H1 7065   1.992   4.319   5.862
 2367TIP3    H2 7066   2.067   4.384   5.747
 2368TIP3   OH2 7067   4.664   0.373   1.575
 2368TIP3    H1 7068   4.613   0.293   1.585
 2368TIP3    H2 7069   4.713   0.381   1.657
 2369TIP3   OH2 7070   0.089   6.135   0.557
 2369TIP3    H1 7071   0.005   6.141   0.512
 2369TIP3    H2 7072   0.149   6.189   0.505
 2370TIP3   OH2 7073   1.439   0.066   0.353
 2370TIP3    H1 7074   1.396   0.088   0.435
 2370TIP3    H2 7075   1.371   0.023   0.301
 2371TIP3   OH2 7076   3.487   2.285   5.684
 2371TIP3    H1 7077   3.565   2.304   5.631
 2371TIP3    H2 7078   3.454   2.371   5.710
 2372TIP3   OH2 7079   3.971   2.302   5.499
 2372TIP3    H1 7080   3.922   2.286   5.580
 2372TIP3    H2 7081   4.040   2.364   5.524
 2373TIP3   OH2 7082   3.806   2.908   0.618
 2373TIP3    H1 7083   3.796   2.981   0.556
 2373TIP3    H2 7084   3.822   2.951   0.702
 2374TIP3   OH2 7085   2.025   1.870   3.267
 2374TIP3    H1 7086   1.974   1.932   3.319
 2374TIP3    H2 7087   2.016   1.901   3.177
 2375TIP3   OH2 7088   2.302   4.074   3.907
 2375TIP3    H1 7089   2.386   4.031   3.891
 2375TIP3    H2 7090   2.321   4.167   3.896
 2376TIP3   OH2 7091   0.365   2.012   2.017
 2376TIP3    H1 7092   0.428   2.018   2.089
 2376TIP3    H2 7093   0.326   2.099   2.013
 2377TIP3   OH2 7094   4.037   0.029   5.287
 2377TIP3    H1 7095   3.961   0.073   5.249
 2377TIP3    H2 7096   4.006  -0.006   5.370
 2378TIP3   OH2 7097   3.448   1.699   1.598
 2378TIP3    H1 7098   3.368   1.733   1.559
 2378TIP3    H2 7099   3.483   1.772   1.650
 2379TIP3   OH2 7100   4.908   1.327   3.799
 2379TIP3    H1 7101   4.880   1.247   3.756
 2379TIP3    H2 7102   5.004   1.326   3.792
 2380TIP3   OH2 7103   3.802   0.954   1.411
 2380TIP3    H1 7104   3.779   0.903   1.488
 2380TIP3    H2 7105   3.735   0.932   1.346
 2381TIP3   OH2 7106   5.828   1.400   0.176
 2381TIP3    H1 7107   5.772   1.476   0.158
 2381TIP3    H2 7108   5.809   1.339   0.104
 2382TIP3   OH2 7109   6.615   3.185   1.795
 2382TIP3    H1 7110   6.661   3.147   1.720
 2382TIP3    H2 7111   6.638   3.128   1.868
 2383TIP3   OH2 7112   5.775   2.018   4.420
 2383TIP3    H1 7113   5.782   1.989   4.511
 2383TIP3    H2 7114   5.796   1.940   4.369
 2384TIP3   OH2 7115   0.819   6.826   1.491
 2384TIP3    H1 7116   0.883   6.784   1.434
 2384TIP3    H2 7117   0.858   6.821   1.578
 2385TIP3   OH2 7118   2.994   6.696   1.968
 2385TIP3    H1 7119   2.994   6.600   1.962
 2385TIP3    H2 7120   2.902   6.721   1.965
 2386TIP3   OH2 7121   6.079   5.968   4.609
 2386TIP3    H1 7122   6.150   6.026   4.581
 2386TIP3    H2 7123   6.076   5.979   4.704
 2387TIP3   OH2 7124   2.600   6.145   0.339
 2387TIP3    H1 7125   2.578   6.234   0.364
 2387TIP3    H2 7126   2.595   6.144   0.243
 2388TIP3   OH2 7127   2.061   5.944   1.230
 2388TIP3    H1 7128   2.025   6.014   1.176
 2388TIP3    H2 7129   2.146   5.925   1.190
 2389TIP3   OH2 7130   3.349   6.653   2.458
 2389TIP3    H1 7131   3.364   6.602   2.538
 2389TIP3    H2 7132   3.265   6.696   2.472
 2390TIP3   OH2 7133   0.837   6.192   2.620
 2390TIP3    H1 7134   0.827   6.251   2.695
 2390TIP3    H2 7135   0.812   6.106   2.654
 2391TIP3   OH2 7136   0.747   2.542   0.147
 2391TIP3    H1 7137   0.722   2.485   0.074
 2391TIP3    H2 7138   0.800   2.486   0.204
 2392TIP3   OH2 7139   5.677   0.953   4.255
 2392TIP3    H1 7140   5.594   0.973   4.298
 2392TIP3    H2 7141   5.739   0.941   4.327
 2393TIP3   OH2 7142   1.782   0.499   1.476
 2393TIP3    H1 7143   1.810   0.425   1.423
 2393TIP3    H2 7144   1.813   0.479   1.564
 2394TIP3   OH2 7145   2.250   4.257   4.775
 2394TIP3    H1 7146   2.226   4.185   4.833
 2394TIP3    H2 7147   2.221   4.229   4.689
 2395TIP3   OH2 7148   1.944   1.675   1.079
 2395TIP3    H1 7149   1.957   1.603   1.018
 2395TIP3    H2 7150   1.911   1.747   1.025
 2396TIP3   OH2 7151   6.784   3.508   4.007
 2396TIP3    H1 7152   6.820   3.435   3.956
 2396TIP3    H2 7153   6.807   3.487   4.098
 2397TIP3   OH2 7154   5.055   4.366   0.510
 2397TIP3    H1 7155   5.048   4.461   0.500
 2397TIP3    H2 7156   4.982   4.331   0.458
 2398TIP3   OH2 7157   4.000   2.290   2.757
 2398TIP3    H1 7158   4.020   2.314   2.847
 2398TIP3    H2 7159   3.920   2.239   2.763
 2399TIP3   OH2 7160   1.715   4.856   2.818
 2399TIP3    H1 7161   1.803   4.873   2.784
 2399TIP3    H2 7162   1.661   4.925   2.779
 2400TIP3   OH2 7163   2.489   5.534   5.673
 2400TIP3    H1 7164   2.428   5.562   5.605
 2400TIP3    H2 7165   2.528   5.454   5.638
 2401TIP3   OH2 7166   5.377   4.763   4.076
 2401TIP3    H1 7167   5.312   4.828   4.103
 2401TIP3    H2 7168   5.327   4.681   4.071
 2402TIP3   OH2 7169   6.054   5.162   0.003
 2402TIP3    H1 7170   6.132   5.188  -0.045
 2402TIP3    H2 7171   6.082   5.154   0.094
 2403TIP3   OH2 7172   1.647   1.305   5.513
 2403TIP3    H1 7173   1.636   1.293   5.608
 2403TIP3    H2 7174   1.557   1.311   5.479
 2404TIP3   OH2 7175   2.909   5.547   4.139
 2404TIP3    H1 7176   2.943   5.589   4.061
 2404TIP3    H2 7177   2.848   5.611   4.176
 2405TIP3   OH2 7178   5.811   3.295   4.475
 2405TIP3    H1 7179   5.819   3.348   4.555
 2405TIP3    H2 7180   5.810   3.359   4.404
 2406TIP3   OH2 7181   4.733   5.846   0.362
 2406TIP3    H1 7182   4.783   5.764   0.367
 2406TIP3    H2 7183   4.730   5.867   0.269
 2407TIP3   OH2 7184   0.850   3.842   5.808
 2407TIP3    H1 7185   0.833   3.890   5.890
 2407TIP3    H2 7186   0.940   3.812   5.816
 2408TIP3   OH2 7187   5.771   6.298   2.386
 2408TIP3    H1 7188   5.682   6.264   2.397
 2408TIP3    H2 7189   5.800   6.319   2.475
 2409TIP3   OH2 7190   0.741   6.656   5.361
 2409TIP3    H1 7191   0.818   6.706   5.336
 2409TIP3    H2 7192   0.771   6.600   5.433
 2410TIP3   OH2 7193   4.548   6.067   0.440
 2410TIP3    H1 7194   4.580   5.977   0.441
 2410TIP3    H2 7195   4.532   6.088   0.532
 2411TIP3   OH2 7196   2.473   2.511   5.669
 2411TIP3    H1 7197   2.378   2.525   5.664
 2411TIP3    H2 7198   2.487   2.476   5.757
 2412TIP3   OH2 7199   6.540   4.922   3.559
 2412TIP3    H1 7200   6.447   4.899   3.571
 2412TIP3    H2 7201   6.538   5.007   3.516
 2413TIP3   OH2 7202   4.434   3.010   2.299
 2413TIP3    H1 7203   4.465   3.041   2.383
 2413TIP3    H2 7204   4.507   3.023   2.239
 2414TIP3   OH2 7205   3.209   1.722   3.399
 2414TIP3    H1 7206   3.134   1.739   3.456
 2414TIP3    H2 7207   3.267   1.666   3.451
 2415TIP3   OH2 7208   6.975   2.732   2.212
 2415TIP3    H1 7209   6.942   2.779   2.135
 2415TIP3    H2 7210   6.952   2.787   2.286
 2416TIP3   OH2 7211   1.472   4.012   2.796
 2416TIP3    H1 7212   1.481   3.918   2.809
 2416TIP3    H2 7213   1.386   4.023   2.753
 2417TIP3   OH2 7214   3.902   3.856   1.757
 2417TIP3    H1 7215   3.922   3.783   1.698
 2417TIP3    H2 7216   3.984   3.873   1.803
 2418TIP3   OH2 7217   6.892   0.081   4.641
 2418TIP3    H1 7218   6.968   0.118   4.595
 2418TIP3    H2 7219   6.896  -0.013   4.620
 2419TIP3   OH2 7220   3.214   6.459   5.817
 2419TIP3    H1 7221   3.221   6.497   5.905
 2419TIP3    H2 7222   3.134   6.496   5.781
 2420TIP3   OH2 7223   6.565   4.515   0.633
 2420TIP3    H1 7224   6.616   4.595   0.646
 2420TIP3    H2 7225   6.528   4.497   0.720
 2421TIP3   OH2 7226   3.152   5.359   4.382
 2421TIP3    H1 7227   3.242   5.327   4.395
 2421TIP3    H2 7228   3.139   5.423   4.452
 2422TIP3   OH2 7229   2.589   0.361   3.180
 2422TIP3    H1 7230   2.621   0.406   3.101
 2422TIP3    H2 7231   2.502   0.329   3.156
 2423TIP3   OH2 7232   0.054   2.397   0.221
 2423TIP3    H1 7233   0.069   2.490   0.236
 2423TIP3    H2 7234   0.101   2.354   0.293
 2424TIP3   OH2 7235   6.062   1.511   2.468
 2424TIP3    H1 7236   5.988   1.450   2.461
 2424TIP3    H2 7237   6.042   1.580   2.405
 2425TIP3   OH2 7238   5.237   3.839   1.343
 2425TIP3    H1 7239   5.205   3.771   1.401
 2425TIP3    H2 7240   5.289   3.897   1.400
 2426TIP3   OH2 7241   3.319   0.130   2.478
 2426TIP3    H1 7242   3.413   0.114   2.486
 2426TIP3    H2 7243   3.294   0.085   2.397
 2427TIP3   OH2 7244   0.972   3.413   0.373
 2427TIP3    H1 7245   0.915   3.459   0.312
 2427TIP3    H2 7246   0.924   3.334   0.397
 2428TIP3   OH2 7247   6.276   4.573   5.238
 2428TIP3    H1 7248   6.237   4.604   5.156
 2428TIP3    H2 7249   6.324   4.648   5.271
 2429TIP3   OH2 7250   3.155   1.363   4.060
 2429TIP3    H1 7251   3.116   1.447   4.035
 2429TIP3    H2 7252   3.150   1.310   3.980
 2430TIP3   OH2 7253   2.749   5.349   4.000
 2430TIP3    H1 7254   2.686   5.314   4.063
 2430TIP3    H2 7255   2.780   5.430   4.040
 2431TIP3   OH2 7256   6.084   6.417   3.248
 2431TIP3    H1 7257   6.066   6.493   3.194
 2431TIP3    H2 7258   6.042   6.436   3.332
 2432TIP3   OH2 7259   2.241   3.998   4.183
 2432TIP3    H1 7260   2.274   4.047   4.108
 2432TIP3    H2 7261   2.320   3.961   4.224
 2433TIP3   OH2 7262   5.040   4.695   4.736
 2433TIP3    H1 7263   4.966   4.666   4.789
 2433TIP3    H2 7264   5.061   4.782   4.769
 2434TIP3   OH2 7265   0.845   6.404   3.067
 2434TIP3    H1 7266   0.910   6.407   3.137
 2434TIP3    H2 7267   0.762   6.423   3.112
 2435TIP3   OH2 7268   0.041   4.836   4.958
 2435TIP3    H1 7269   0.095   4.870   4.887
 2435TIP3    H2 7270  -0.040   4.888   4.953
 2436TIP3   OH2 7271   0.857   3.091   4.601
 2436TIP3    H1 7272   0.855   3.102   4.697
 2436TIP3    H2 7273   0.827   3.002   4.586
 2437TIP3   OH2 7274   1.981   4.144   5.158
 2437TIP3    H1 7275   2.040   4.195   5.102
 2437TIP3    H2 7276   1.960   4.067   5.106
 2438TIP3   OH2 7277   2.695   5.145   2.167
 2438TIP3    H1 7278   2.669   5.206   2.098
 2438TIP3    H2 7279   2.660   5.182   2.248
 2439TIP3   OH2 7280   1.957   3.892   5.078
 2439TIP3    H1 7281   1.920   3.813   5.118
 2439TIP3    H2 7282   1.993   3.863   4.995
 2440TIP3   OH2 7283   6.786   6.060   0.879
 2440TIP3    H1 7284   6.805   6.151   0.902
 2440TIP3    H2 7285   6.807   6.054   0.785
 2441TIP3   OH2 7286   7.049   0.499   1.162
 2441TIP3    H1 7287   6.969   0.550   1.150
 2441TIP3    H2 7288   7.092   0.538   1.237
 2442TIP3   OH2 7289   2.782   0.543   0.102
 2442TIP3    H1 7290   2.713   0.477   0.101
 2442TIP3    H2 7291   2.864   0.493   0.102
 2443TIP3   OH2 7292   1.899   0.701   3.466
 2443TIP3    H1 7293   1.975   0.668   3.513
 2443TIP3    H2 7294   1.933   0.770   3.409
 2444TIP3   OH2 7295   6.242   6.495   5.603
 2444TIP3    H1 7296   6.306   6.443   5.650
 2444TIP3    H2 7297   6.200   6.549   5.670
 2445TIP3   OH2 7298   5.655   4.424   4.521
 2445TIP3    H1 7299   5.617   4.358   4.578
 2445TIP3    H2 7300   5.585   4.489   4.510
 2446TIP3   OH2 7301   1.062   5.778   5.663
 2446TIP3    H1 7302   1.108   5.698   5.635
 2446TIP3    H2 7303   1.107   5.805   5.742
 2447TIP3   OH2 7304   5.752   3.795   1.165
 2447TIP3    H1 7305   5.754   3.718   1.222
 2447TIP3    H2 7306   5.662   3.827   1.172
 2448TIP3   OH2 7307   4.704   1.009   4.908
 2448TIP3    H1 7308   4.772   1.074   4.926
 2448TIP3    H2 7309   4.695   1.011   4.813
 2449TIP3   OH2 7310   6.234   3.507   4.151
 2449TIP3    H1 7311   6.142   3.498   4.174
 2449TIP3    H2 7312   6.268   3.418   4.154
 2450TIP3   OH2 7313   0.195   1.181   0.792
 2450TIP3    H1 7314   0.133   1.188   0.864
 2450TIP3    H2 7315   0.275   1.222   0.825
 2451TIP3   OH2 7316   3.451   6.013   4.783
 2451TIP3    H1 7317   3.420   6.079   4.722
 2451TIP3    H2 7318   3.488   5.945   4.727
 2452TIP3   OH2 7319   6.446   5.542   1.326
 2452TIP3    H1 7320   6.429   5.614   1.386
 2452TIP3    H2 7321   6.429   5.463   1.377
 2453TIP3   OH2 7322   0.797   1.026   0.395
 2453TIP3    H1 7323   0.847   1.011   0.476
 2453TIP3    H2 7324   0.850   1.090   0.346
 2454TIP3   OH2 7325   4.360   3.638   5.665
 2454TIP3    H1 7326   4.448   3.660   5.634
 2454TIP3    H2 7327   4.301   3.669   5.596
 2455TIP3   OH2 7328   2.926   2.779   3.688
 2455TIP3    H1 7329   2.900   2.704   3.635
 2455TIP3    H2 7330   2.844   2.819   3.716
 2456TIP3   OH2 7331   4.823   6.126   2.657
 2456TIP3    H1 7332   4.751   6.063   2.651
 2456TIP3    H2 7333   4.886   6.095   2.592
 2457TIP3   OH2 7334   0.201   3.733   5.101
 2457TIP3    H1 7335   0.196   3.825   5.124
 2457TIP3    H2 7336   0.149   3.724   5.021
 2458TIP3   OH2 7337   1.454   5.194   1.858
 2458TIP3    H1 7338   1.416   5.106   1.852
 2458TIP3    H2 7339   1.379   5.251   1.876
 2459TIP3   OH2 7340   1.031   2.173   1.779
 2459TIP3    H1 7341   1.058   2.258   1.744
 2459TIP3    H2 7342   0.940   2.186   1.805
 2460TIP3   OH2 7343   3.741   0.809   1.655
 2460TIP3    H1 7344   3.801   0.768   1.717
 2460TIP3    H2 7345   3.684   0.738   1.627
 2461TIP3   OH2 7346   6.032   2.931   4.653
 2461TIP3    H1 7347   6.085   2.974   4.585
 2461TIP3    H2 7348   5.969   2.998   4.679
 2462TIP3   OH2 7349   6.786   0.634   0.428
 2462TIP3    H1 7350   6.778   0.540   0.447
 2462TIP3    H2 7351   6.695   0.664   0.419
 2463TIP3   OH2 7352   0.038   5.381   3.766
 2463TIP3    H1 7353   0.010   5.433   3.841
 2463TIP3    H2 7354   0.004   5.428   3.690
 2464TIP3   OH2 7355   5.511   4.182   1.633
 2464TIP3    H1 7356   5.448   4.253   1.629
 2464TIP3    H2 7357   5.574   4.209   1.700
 2465TIP3   OH2 7358   0.476   2.163   4.222
 2465TIP3    H1 7359   0.534   2.119   4.284
 2465TIP3    H2 7360   0.451   2.245   4.265
 2466TIP3   OH2 7361   4.970   0.905   4.611
 2466TIP3    H1 7362   4.893   0.940   4.566
 2466TIP3    H2 7363   4.995   0.973   4.673
 2467TIP3   OH2 7364   5.777   6.221   0.781
 2467TIP3    H1 7365   5.725   6.255   0.708
 2467TIP3    H2 7366   5.841   6.163   0.740
 2468TIP3   OH2 7367   4.953   0.315   1.203
 2468TIP3    H1 7368   5.010   0.373   1.152
 2468TIP3    H2 7369   4.894   0.373   1.249
 2469TIP3   OH2 7370   6.606   4.152   5.547
 2469TIP3    H1 7371   6.629   4.223   5.606
 2469TIP3    H2 7372   6.664   4.162   5.472
 2470TIP3   OH2 7373   4.052   0.037   1.741
 2470TIP3    H1 7374   4.060   0.101   1.812
 2470TIP3    H2 7375   3.958   0.036   1.720
 2471TIP3   OH2 7376   6.965   4.017   3.341
 2471TIP3    H1 7377   6.883   4.050   3.377
 2471TIP3    H2 7378   6.968   4.053   3.252
 2472TIP3   OH2 7379   3.550   2.937   2.086
 2472TIP3    H1 7380   3.488   2.867   2.106
 2472TIP3    H2 7381   3.497   3.017   2.094
 2473TIP3   OH2 7382   3.706   5.213   5.690
 2473TIP3    H1 7383   3.736   5.164   5.613
 2473TIP3    H2 7384   3.625   5.169   5.716
 2474TIP3   OH2 7385   5.703   3.307   2.365
 2474TIP3    H1 7386   5.736   3.392   2.337
 2474TIP3    H2 7387   5.628   3.290   2.307
 2475TIP3   OH2 7388   3.647   4.778   3.152
 2475TIP3    H1 7389   3.712   4.722   3.108
 2475TIP3    H2 7390   3.566   4.727   3.151
 2476TIP3   OH2 7391   7.053   4.074   4.594
 2476TIP3    H1 7392   6.979   4.072   4.655
 2476TIP3    H2 7393   7.099   3.992   4.610
 2477TIP3   OH2 7394   4.550   4.745   5.366
 2477TIP3    H1 7395   4.456   4.733   5.354
 2477TIP3    H2 7396   4.568   4.711   5.453
 2478TIP3   OH2 7397   6.537   2.741   5.020
 2478TIP3    H1 7398   6.630   2.750   4.996
 2478TIP3    H2 7399   6.527   2.796   5.097
 2479TIP3   OH2 7400   2.259   2.614   1.360
 2479TIP3    H1 7401   2.209   2.547   1.406
 2479TIP3    H2 7402   2.328   2.566   1.314
 2480TIP3   OH2 7403   5.621   5.482   2.024
 2480TIP3    H1 7404   5.537   5.514   1.992
 2480TIP3    H2 7405   5.601   5.395   2.059
 2481TIP3   OH2 7406   5.362   4.079   2.964
 2481TIP3    H1 7407   5.295   4.113   3.023
 2481TIP3    H2 7408   5.318   4.009   2.915
 2482TIP3   OH2 7409   0.354   0.806   2.684
 2482TIP3    H1 7410   0.439   0.846   2.661
 2482TIP3    H2 7411   0.290   0.873   2.661
 2483TIP3   OH2 7412   4.438   5.314   5.312
 2483TIP3    H1 7413   4.511   5.375   5.308
 2483TIP3    H2 7414   4.473   5.237   5.357
 2484TIP3   OH2 7415   2.448   0.989   1.884
 2484TIP3    H1 7416   2.531   1.032   1.869
 2484TIP3    H2 7417   2.403   1.045   1.947
 2485TIP3   OH2 7418   4.980   5.653   2.137
 2485TIP3    H1 7419   4.994   5.625   2.227
 2485TIP3    H2 7420   4.996   5.574   2.085
 2486TIP3   OH2 7421   6.511   0.584   1.035
 2486TIP3    H1 7422   6.586   0.598   1.093
 2486TIP3    H2 7423   6.548   0.590   0.946
 2487TIP3   OH2 7424   2.788   2.752   4.794
 2487TIP3    H1 7425   2.698   2.786   4.797
 2487TIP3    H2 7426   2.840   2.825   4.762
 2488TIP3   OH2 7427   7.182   0.610   3.539
 2488TIP3    H1 7428   7.093   0.577   3.527
 2488TIP3    H2 7429   7.239   0.538   3.512
 2489TIP3   OH2 7430   0.566   5.815   4.505
 2489TIP3    H1 7431   0.500   5.803   4.573
 2489TIP3    H2 7432   0.520   5.795   4.423
 2490TIP3   OH2 7433   0.548   4.396   3.128
 2490TIP3    H1 7434   0.641   4.403   3.150
 2490TIP3    H2 7435   0.521   4.311   3.164
 2491TIP3   OH2 7436   2.393   1.842   5.612
 2491TIP3    H1 7437   2.457   1.818   5.546
 2491TIP3    H2 7438   2.341   1.763   5.626
 2492TIP3   OH2 7439   5.562   3.599   4.043
 2492TIP3    H1 7440   5.539   3.664   3.976
 2492TIP3    H2 7441   5.478   3.568   4.077
 2493TIP3   OH2 7442   6.380   4.880   0.517
 2493TIP3    H1 7443   6.427   4.860   0.436
 2493TIP3    H2 7444   6.322   4.804   0.530
 2494TIP3   OH2 7445   0.668   5.486   0.035
 2494TIP3    H1 7446   0.653   5.395   0.061
 2494TIP3    H2 7447   0.637   5.491  -0.055
 2495TIP3   OH2 7448   2.268   0.437   1.956
 2495TIP3    H1 7449   2.311   0.508   1.907
 2495TIP3    H2 7450   2.241   0.374   1.889
 2496TIP3   OH2 7451   5.551   3.802   3.177
 2496TIP3    H1 7452   5.464   3.775   3.206
 2496TIP3    H2 7453   5.554   3.777   3.085
 2497TIP3   OH2 7454   6.580   0.640   3.161
 2497TIP3    H1 7455   6.556   0.728   3.131
 2497TIP3    H2 7456   6.602   0.592   3.081
 2498TIP3   OH2 7457   1.821   6.316   5.135
 2498TIP3    H1 7458   1.763   6.355   5.069
 2498TIP3    H2 7459   1.826   6.224   5.111
 2499TIP3   OH2 7460   5.959   1.130   1.667
 2499TIP3    H1 7461   5.909   1.180   1.732
 2499TIP3    H2 7462   6.003   1.197   1.615
 2500TIP3   OH2 7463   4.270   4.606   5.356
 2500TIP3    H1 7464   4.191   4.553   5.346
 2500TIP3    H2 7465   4.341   4.547   5.329
 2501TIP3   OH2 7466   4.368   3.740   4.741
 2501TIP3    H1 7467   4.464   3.736   4.740
 2501TIP3    H2 7468   4.341   3.675   4.676
 2502TIP3   OH2 7469   0.105   3.742   2.427
 2502TIP3    H1 7470   0.103   3.819   2.371
 2502TIP3    H2 7471   0.178   3.689   2.394
 2503TIP3   OH2 7472   6.019   0.439   4.651
 2503TIP3    H1 7473   5.999   0.363   4.707
 2503TIP3    H2 7474   6.011   0.406   4.562
 2504TIP3   OH2 7475   3.970   6.407   0.205
 2504TIP3    H1 7476   4.005   6.355   0.277
 2504TIP3    H2 7477   4.008   6.494   0.218
 2505TIP3   OH2 7478   6.985   4.732   2.208
 2505TIP3    H1 7479   7.032   4.656   2.173
 2505TIP3    H2 7480   6.907   4.739   2.153
 2506TIP3   OH2 7481   6.645   6.623   1.011
 2506TIP3    H1 7482   6.673   6.536   0.983
 2506TIP3    H2 7483   6.697   6.683   0.957
 2507TIP3   OH2 7484   6.598   2.814   1.899
 2507TIP3    H1 7485   6.533   2.780   1.838
 2507TIP3    H2 7486   6.567   2.787   1.986
 2508TIP3   OH2 7487   0.265   3.035   5.807
 2508TIP3    H1 7488   0.336   3.057   5.868
 2508TIP3    H2 7489   0.245   3.118   5.763
 2509TIP3   OH2 7490   6.551   1.473   5.576
 2509TIP3    H1 7491   6.540   1.508   5.665
 2509TIP3    H2 7492   6.495   1.527   5.521
 2510TIP3   OH2 7493   0.021   1.339   4.468
 2510TIP3    H1 7494  -0.039   1.412   4.486
 2510TIP3    H2 7495   0.048   1.309   4.554
 2511TIP3   OH2 7496   3.305   5.067   1.606
 2511TIP3    H1 7497   3.290   4.997   1.543
 2511TIP3    H2 7498   3.398   5.059   1.629
 2512TIP3   OH2 7499   2.640   1.435   4.588
 2512TIP3    H1 7500   2.734   1.455   4.594
 2512TIP3    H2 7501   2.605   1.499   4.527
 2513TIP3   OH2 7502   7.020   1.903   5.735
 2513TIP3    H1 7503   7.088   1.914   5.801
 2513TIP3    H2 7504   7.067   1.876   5.656
 2514TIP3   OH2 7505   5.091   1.397   4.746
 2514TIP3    H1 7506   5.128   1.418   4.832
 2514TIP3    H2 7507   5.077   1.483   4.706
 2515TIP3   OH2 7508   6.095   6.595   0.776
 2515TIP3    H1 7509   6.180   6.591   0.732
 2515TIP3    H2 7510   6.044   6.524   0.738
 2516TIP3   OH2 7511   4.551   3.452   0.159
 2516TIP3    H1 7512   4.579   3.496   0.078
 2516TIP3    H2 7513   4.492   3.383   0.128
 2517TIP3   OH2 7514   3.145   4.319   0.184
 2517TIP3    H1 7515   3.162   4.227   0.200
 2517TIP3    H2 7516   3.135   4.358   0.271
 2518TIP3   OH2 7517   2.821   1.911   0.406
 2518TIP3    H1 7518   2.812   1.992   0.456
 2518TIP3    H2 7519   2.869   1.937   0.327
 2519TIP3   OH2 7520   4.683   0.400   5.455
 2519TIP3    H1 7521   4.748   0.444   5.509
 2519TIP3    H2 7522   4.730   0.324   5.419
 2520TIP3   OH2 7523   1.928   5.842   3.954
 2520TIP3    H1 7524   1.981   5.884   3.886
 2520TIP3    H2 7525   1.878   5.914   3.993
 2521TIP3   OH2 7526   2.625   6.049   3.418
 2521TIP3    H1 7527   2.557   6.081   3.479
 2521TIP3    H2 7528   2.646   6.125   3.364
 2522TIP3   OH2 7529   1.998   0.245   0.210
 2522TIP3    H1 7530   1.965   0.160   0.182
 2522TIP3    H2 7531   2.009   0.237   0.305
 2523TIP3   OH2 7532   6.624   0.251   3.256
 2523TIP3    H1 7533   6.701   0.304   3.277
 2523TIP3    H2 7534   6.638   0.223   3.166
 2524TIP3   OH2 7535   5.785   5.135   3.753
 2524TIP3    H1 7536   5.787   5.043   3.726
 2524TIP3    H2 7537   5.834   5.181   3.685
 2525TIP3   OH2 7538   3.875   4.920   1.794
 2525TIP3    H1 7539   3.955   4.969   1.815
 2525TIP3    H2 7540   3.901   4.862   1.722
 2526TIP3   OH2 7541   0.830   2.024   2.877
 2526TIP3    H1 7542   0.782   2.060   2.952
 2526TIP3    H2 7543   0.770   2.035   2.803
 2527TIP3   OH2 7544   1.589   2.636   5.230
 2527TIP3    H1 7545   1.535   2.687   5.169
 2527TIP3    H2 7546   1.527   2.604   5.295
 2528TIP3   OH2 7547   3.806   1.253   4.567
 2528TIP3    H1 7548   3.802   1.161   4.540
 2528TIP3    H2 7549   3.888   1.260   4.616
 2529TIP3   OH2 7550   5.371   0.552   2.133
 2529TIP3    H1 7551   5.316   0.628   2.119
 2529TIP3    H2 7552   5.459   0.588   2.147
 2530TIP3   OH2 7553   1.147   2.424   5.188
 2530TIP3    H1 7554   1.240   2.418   5.169
 2530TIP3    H2 7555   1.141   2.416   5.284
 2531TIP3   OH2 7556   3.880   1.126   0.819
 2531TIP3    H1 7557   3.805   1.074   0.848
 2531TIP3    H2 7558   3.863   1.142   0.726
 2532TIP3   OH2 7559   3.202   6.480   5.204
 2532TIP3    H1 7560   3.127   6.528   5.169
 2532TIP3    H2 7561   3.177   6.458   5.294
 2533TIP3   OH2 7562   0.071   0.289   5.734
 2533TIP3    H1 7563   0.079   0.322   5.645
 2533TIP3    H2 7564   0.006   0.218   5.728
 2534TIP3   OH2 7565   6.608   1.169   4.008
 2534TIP3    H1 7566   6.636   1.252   3.970
 2534TIP3    H2 7567   6.581   1.191   4.097
 2535TIP3   OH2 7568   3.057   5.902   3.538
 2535TIP3    H1 7569   3.007   5.820   3.533
 2535TIP3    H2 7570   3.102   5.897   3.622
 2536TIP3   OH2 7571   6.618   3.229   3.321
 2536TIP3    H1 7572   6.523   3.237   3.334
 2536TIP3    H2 7573   6.637   3.137   3.341
 2537TIP3   OH2 7574   6.121   4.251   4.363
 2537TIP3    H1 7575   6.107   4.344   4.342
 2537TIP3    H2 7576   6.174   4.253   4.442
 2538TIP3   OH2 7577   5.252   2.850   0.310
 2538TIP3    H1 7578   5.191   2.924   0.313
 2538TIP3    H2 7579   5.235   2.802   0.391
 2539TIP3   OH2 7580   2.743   3.908   2.872
 2539TIP3    H1 7581   2.779   3.896   2.784
 2539TIP3    H2 7582   2.804   3.860   2.929
 2540TIP3   OH2 7583   5.872   3.433   1.669
 2540TIP3    H1 7584   5.815   3.510   1.659
 2540TIP3    H2 7585   5.955   3.459   1.629
 2541TIP3   OH2 7586   1.906   2.616   3.765
 2541TIP3    H1 7587   1.864   2.606   3.850
 2541TIP3    H2 7588   1.986   2.564   3.772
 2542TIP3   OH2 7589   1.285   3.264   5.332
 2542TIP3    H1 7590   1.243   3.178   5.323
 2542TIP3    H2 7591   1.361   3.260   5.274
 2543TIP3   OH2 7592   2.524   6.124   5.387
 2543TIP3    H1 7593   2.505   6.062   5.457
 2543TIP3    H2 7594   2.506   6.075   5.307
 2544TIP3   OH2 7595   4.987   1.867   2.268
 2544TIP3    H1 7596   4.914   1.890   2.324
 2544TIP3    H2 7597   5.063   1.868   2.326
 2545TIP3   OH2 7598   0.847   2.633   3.150
 2545TIP3    H1 7599   0.932   2.677   3.155
 2545TIP3    H2 7600   0.832   2.600   3.238
 2546TIP3   OH2 7601   2.022   6.044   5.431
 2546TIP3    H1 7602   2.024   6.045   5.527
 2546TIP3    H2 7603   2.036   6.136   5.406
 2547TIP3   OH2 7604   1.232   6.039   1.865
 2547TIP3    H1 7605   1.236   6.134   1.875
 2547TIP3    H2 7606   1.247   6.005   1.954
 2548TIP3   OH2 7607   1.357   5.881   4.879
 2548TIP3    H1 7608   1.328   5.797   4.844
 2548TIP3    H2 7609   1.279   5.935   4.881
 2549TIP3   OH2 7610   1.385   3.843   0.021
 2549TIP3    H1 7611   1.449   3.772   0.012
 2549TIP3    H2 7612   1.302   3.803  -0.005
 2550TIP3   OH2 7613   0.612   4.046   2.464
 2550TIP3    H1 7614   0.533   4.010   2.502
 2550TIP3    H2 7615   0.628   4.127   2.512
 2551TIP3   OH2 7616   1.483   0.276   2.629
 2551TIP3    H1 7617   1.429   0.353   2.644
 2551TIP3    H2 7618   1.423   0.202   2.641
 2552TIP3   OH2 7619   1.385   1.314   4.525
 2552TIP3    H1 7620   1.313   1.305   4.462
 2552TIP3    H2 7621   1.345   1.291   4.609
 2553TIP3   OH2 7622   5.769   3.971   2.686
 2553TIP3    H1 7623   5.807   3.886   2.664
 2553TIP3    H2 7624   5.726   3.957   2.770
 2554TIP3   OH2 7625   4.990   0.611   1.668
 2554TIP3    H1 7626   4.907   0.655   1.686
 2554TIP3    H2 7627   5.054   0.683   1.664
 2555TIP3   OH2 7628   0.514   3.213   1.616
 2555TIP3    H1 7629   0.542   3.281   1.554
 2555TIP3    H2 7630   0.580   3.144   1.608
 2556TIP3   OH2 7631   6.649   2.609   5.870
 2556TIP3    H1 7632   6.605   2.643   5.948
 2556TIP3    H2 7633   6.673   2.519   5.894
 2557TIP3   OH2 7634   5.421   6.156   2.744
 2557TIP3    H1 7635   5.394   6.237   2.787
 2557TIP3    H2 7636   5.453   6.101   2.815
 2558TIP3   OH2 7637   0.877   3.621   4.910
 2558TIP3    H1 7638   0.815   3.613   4.838
 2558TIP3    H2 7639   0.822   3.639   4.987
 2559TIP3   OH2 7640   7.161   6.671   1.581
 2559TIP3    H1 7641   7.196   6.736   1.642
 2559TIP3    H2 7642   7.070   6.659   1.608
 2560TIP3   OH2 7643   0.146   5.075   1.490
 2560TIP3    H1 7644   0.146   4.992   1.442
 2560TIP3    H2 7645   0.236   5.106   1.483
 2561TIP3   OH2 7646   4.680   4.608   0.356
 2561TIP3    H1 7647   4.702   4.700   0.343
 2561TIP3    H2 7648   4.668   4.573   0.267
 2562TIP3   OH2 7649   0.456   3.408   4.433
 2562TIP3    H1 7650   0.395   3.473   4.469
 2562TIP3    H2 7651   0.401   3.348   4.383
 2563TIP3   OH2 7652   0.953   4.637   3.149
 2563TIP3    H1 7653   0.999   4.600   3.225
 2563TIP3    H2 7654   0.985   4.727   3.144
 2564TIP3   OH2 7655   4.200   4.059   2.917
 2564TIP3    H1 7656   4.108   4.032   2.912
 2564TIP3    H2 7657   4.236   4.008   2.989
 2565TIP3   OH2 7658   4.341   5.396   0.814
 2565TIP3    H1 7659   4.374   5.381   0.902
 2565TIP3    H2 7660   4.352   5.490   0.800
 2566TIP3   OH2 7661   2.416   1.280   1.222
 2566TIP3    H1 7662   2.455   1.337   1.155
 2566TIP3    H2 7663   2.491   1.244   1.269
 2567TIP3   OH2 7664   4.090   6.074   4.793
 2567TIP3    H1 7665   4.047   5.995   4.762
 2567TIP3    H2 7666   4.019   6.127   4.831
 2568TIP3   OH2 7667   3.593   0.228   5.497
 2568TIP3    H1 7668   3.590   0.140   5.458
 2568TIP3    H2 7669   3.595   0.287   5.422
 2569TIP3   OH2 7670   6.442   1.248   0.349
 2569TIP3    H1 7671   6.536   1.231   0.357
 2569TIP3    H2 7672   6.425   1.248   0.255
 2570TIP3   OH2 7673   0.270   3.500   3.076
 2570TIP3    H1 7674   0.236   3.555   3.006
 2570TIP3    H2 7675   0.319   3.559   3.132
 2571TIP3   OH2 7676   2.905   4.069   4.188
 2571TIP3    H1 7677   2.942   3.990   4.149
 2571TIP3    H2 7678   2.912   4.135   4.119
 2572TIP3   OH2 7679   4.080   4.710   5.615
 2572TIP3    H1 7680   4.043   4.673   5.535
 2572TIP3    H2 7681   4.167   4.740   5.588
 2573TIP3   OH2 7682   2.255   6.425   4.886
 2573TIP3    H1 7683   2.253   6.481   4.963
 2573TIP3    H2 7684   2.165   6.395   4.875
 2574TIP3   OH2 7685   2.680   6.170   0.783
 2574TIP3    H1 7686   2.598   6.196   0.743
 2574TIP3    H2 7687   2.661   6.168   0.877
 2575TIP3   OH2 7688   4.731   3.095   5.322
 2575TIP3    H1 7689   4.815   3.131   5.295
 2575TIP3    H2 7690   4.749   3.053   5.406
 2576TIP3   OH2 7691   5.482   5.372   0.167
 2576TIP3    H1 7692   5.387   5.362   0.172
 2576TIP3    H2 7693   5.496   5.467   0.162
 2577TIP3   OH2 7694   5.149   1.148   3.412
 2577TIP3    H1 7695   5.214   1.204   3.454
 2577TIP3    H2 7696   5.078   1.208   3.388
 2578TIP3   OH2 7697   6.180   2.989   0.299
 2578TIP3    H1 7698   6.275   2.983   0.285
 2578TIP3    H2 7699   6.157   3.077   0.268
 2579TIP3   OH2 7700   3.253   4.286   3.757
 2579TIP3    H1 7701   3.205   4.280   3.674
 2579TIP3    H2 7702   3.334   4.332   3.734
 2580TIP3   OH2 7703   2.641   1.100   2.616
 2580TIP3    H1 7704   2.597   1.016   2.604
 2580TIP3    H2 7705   2.583   1.164   2.574
 2581TIP3   OH2 7706   0.149   1.818   1.826
 2581TIP3    H1 7707   0.151   1.854   1.738
 2581TIP3    H2 7708   0.101   1.736   1.817
 2582TIP3   OH2 7709   2.012   0.244   4.954
 2582TIP3    H1 7710   2.023   0.336   4.930
 2582TIP3    H2 7711   1.923   0.238   4.988
 2583TIP3   OH2 7712   3.200   5.346   0.938
 2583TIP3    H1 7713   3.118   5.297   0.941
 2583TIP3    H2 7714   3.183   5.425   0.991
 2584TIP3   OH2 7715   5.741   1.525   3.059
 2584TIP3    H1 7716   5.746   1.440   3.016
 2584TIP3    H2 7717   5.798   1.518   3.135
 2585TIP3   OH2 7718  -0.044   4.452   2.660
 2585TIP3    H1 7719  -0.095   4.377   2.692
 2585TIP3    H2 7720   0.044   4.417   2.647
 2586TIP3   OH2 7721   5.069   0.369   3.248
 2586TIP3    H1 7722   5.005   0.424   3.293
 2586TIP3    H2 7723   5.098   0.307   3.315
 2587TIP3   OH2 7724   0.402   1.451   0.206
 2587TIP3    H1 7725   0.438   1.532   0.169
 2587TIP3    H2 7726   0.475   1.413   0.254
 2588TIP3   OH2 7727   4.885   5.486   4.776
 2588TIP3    H1 7728   4.979   5.483   4.762
 2588TIP3    H2 7729   4.874   5.540   4.855
 2589TIP3   OH2 7730   2.040   4.462   1.190
 2589TIP3    H1 7731   1.956   4.504   1.171
 2589TIP3    H2 7732   2.019   4.394   1.253
 2590TIP3   OH2 7733   0.581   1.725   5.385
 2590TIP3    H1 7734   0.497   1.680   5.385
 2590TIP3    H2 7735   0.621   1.701   5.469
 2591TIP3   OH2 7736   2.278   3.444   3.086
 2591TIP3    H1 7737   2.232   3.366   3.117
 2591TIP3    H2 7738   2.321   3.416   3.006
 2592TIP3   OH2 7739   7.065   4.898   3.765
 2592TIP3    H1 7740   7.079   4.978   3.815
 2592TIP3    H2 7741   6.985   4.860   3.801
 2593TIP3   OH2 7742   5.782   1.520   1.777
 2593TIP3    H1 7743   5.722   1.497   1.848
 2593TIP3    H2 7744   5.868   1.491   1.807
 2594TIP3   OH2 7745   5.954   5.340   1.001
 2594TIP3    H1 7746   5.891   5.299   0.943
 2594TIP3    H2 7747   5.916   5.426   1.022
 2595TIP3   OH2 7748   4.763   4.004   4.926
 2595TIP3    H1 7749   4.810   3.981   5.006
 2595TIP3    H2 7750   4.785   4.096   4.912
 2596TIP3   OH2 7751   2.347   4.276   5.830
 2596TIP3    H1 7752   2.423   4.331   5.812
 2596TIP3    H2 7753   2.283   4.301   5.763
 2597TIP3   OH2 7754   6.745   0.350   3.681
 2597TIP3    H1 7755   6.696   0.299   3.617
 2597TIP3    H2 7756   6.707   0.326   3.765
 2598TIP3   OH2 7757   3.446   2.457   4.079
 2598TIP3    H1 7758   3.515   2.409   4.033
 2598TIP3    H2 7759   3.491   2.529   4.123
 2599TIP3   OH2 7760   1.247   2.762   2.021
 2599TIP3    H1 7761   1.300   2.812   1.959
 2599TIP3    H2 7762   1.228   2.824   2.092
 2600TIP3   OH2 7763   3.747   1.621   1.368
 2600TIP3    H1 7764   3.744   1.655   1.279
 2600TIP3    H2 7765   3.687   1.547   1.367
 2601TIP3   OH2 7766   4.306   1.637   5.857
 2601TIP3    H1 7767   4.303   1.677   5.944
 2601TIP3    H2 7768   4.256   1.556   5.867
 2602TIP3   OH2 7769   1.036   2.491   2.881
 2602TIP3    H1 7770   1.086   2.571   2.866
 2602TIP3    H2 7771   1.097   2.420   2.858
 2603TIP3   OH2 7772   5.543   4.075   5.864
 2603TIP3    H1 7773   5.477   4.067   5.932
 2603TIP3    H2 7774   5.555   4.170   5.854
 2604TIP3   OH2 7775   5.850   4.920   2.178
 2604TIP3    H1 7776   5.844   4.968   2.260
 2604TIP3    H2 7777   5.802   4.839   2.194
 2605TIP3   OH2 7778   1.243   4.462   0.263
 2605TIP3    H1 7779   1.302   4.402   0.309
 2605TIP3    H2 7780   1.208   4.411   0.191
 2606TIP3   OH2 7781   3.777   5.633   1.682
 2606TIP3    H1 7782   3.772   5.676   1.768
 2606TIP3    H2 7783   3.870   5.632   1.662
 2607TIP3   OH2 7784   3.257   4.262   2.560
 2607TIP3    H1 7785   3.185   4.306   2.605
 2607TIP3    H2 7786   3.335   4.288   2.609
 2608TIP3   OH2 7787   5.036   6.716   5.077
 2608TIP3    H1 7788   4.978   6.786   5.048
 2608TIP3    H2 7789   5.122   6.757   5.082
 2609TIP3   OH2 7790   6.377   4.819   2.093
 2609TIP3    H1 7791   6.391   4.779   2.179
 2609TIP3    H2 7792   6.454   4.794   2.042
 2610TIP3   OH2 7793   2.659   1.647   3.942
 2610TIP3    H1 7794   2.704   1.652   3.857
 2610TIP3    H2 7795   2.572   1.615   3.920
 2611TIP3   OH2 7796   5.225   0.707   5.621
 2611TIP3    H1 7797   5.156   0.773   5.617
 2611TIP3    H2 7798   5.286   0.731   5.551
 2612TIP3   OH2 7799   5.454   4.254   3.746
 2612TIP3    H1 7800   5.457   4.200   3.667
 2612TIP3    H2 7801   5.361   4.273   3.758
 2613TIP3   OH2 7802   5.915   0.114   0.922
 2613TIP3    H1 7803   5.935   0.072   0.838
 2613TIP3    H2 7804   5.901   0.041   0.982
 2614TIP3   OH2 7805   0.231   1.417   1.404
 2614TIP3    H1 7806   0.160   1.369   1.361
 2614TIP3    H2 7807   0.292   1.349   1.434
 2615TIP3   OH2 7808   4.521   4.060   0.526
 2615TIP3    H1 7809   4.446   4.111   0.555
 2615TIP3    H2 7810   4.595   4.095   0.576
 2616TIP3   OH2 7811   3.897   6.775   2.573
 2616TIP3    H1 7812   3.859   6.747   2.657
 2616TIP3    H2 7813   3.961   6.842   2.597
 2617TIP3   OH2 7814   3.585   0.443   2.331
 2617TIP3    H1 7815   3.517   0.502   2.300
 2617TIP3    H2 7816   3.538   0.371   2.372
 2618TIP3   OH2 7817   4.217   2.543   3.392
 2618TIP3    H1 7818   4.257   2.577   3.312
 2618TIP3    H2 7819   4.288   2.541   3.456
 2619TIP3   OH2 7820   4.618   0.884   2.288
 2619TIP3    H1 7821   4.620   0.883   2.192
 2619TIP3    H2 7822   4.671   0.959   2.313
 2620TIP3   OH2 7823   6.896   0.990   1.981
 2620TIP3    H1 7824   6.817   1.042   1.969
 2620TIP3    H2 7825   6.903   0.979   2.076
 2621TIP3   OH2 7826   3.451   1.605   5.799
 2621TIP3    H1 7827   3.535   1.629   5.839
 2621TIP3    H2 7828   3.389   1.667   5.836
 2622TIP3   OH2 7829   6.629   4.796   1.307
 2622TIP3    H1 7830   6.718   4.789   1.273
 2622TIP3    H2 7831   6.637   4.782   1.401
 2623TIP3   OH2 7832   0.787   1.911   2.140
 2623TIP3    H1 7833   0.827   1.935   2.224
 2623TIP3    H2 7834   0.706   1.866   2.165
 2624TIP3   OH2 7835   1.956   0.866   5.443
 2624TIP3    H1 7836   1.948   0.887   5.536
 2624TIP3    H2 7837   1.883   0.912   5.402
 2625TIP3   OH2 7838   4.140   4.887   1.103
 2625TIP3    H1 7839   4.073   4.825   1.076
 2625TIP3    H2 7840   4.095   4.949   1.161
 2626TIP3   OH2 7841   1.063   3.868   4.376
 2626TIP3    H1 7842   1.125   3.850   4.447
 2626TIP3    H2 7843   0.977   3.855   4.415
 2627TIP3   OH2 7844   1.674   6.370   2.280
 2627TIP3    H1 7845   1.669   6.372   2.376
 2627TIP3    H2 7846   1.732   6.442   2.258
 2628TIP3   OH2 7847   2.280   1.243   2.488
 2628TIP3    H1 7848   2.202   1.269   2.439
 2628TIP3    H2 7849   2.266   1.151   2.508
 2629TIP3   OH2 7850   6.099   0.285   0.482
 2629TIP3    H1 7851   6.191   0.260   0.478
 2629TIP3    H2 7852   6.100   0.381   0.477
 2630TIP3   OH2 7853   0.218   6.109   1.670
 2630TIP3    H1 7854   0.306   6.123   1.703
 2630TIP3    H2 7855   0.165   6.091   1.748
 2631TIP3   OH2 7856   2.468   5.542   1.346
 2631TIP3    H1 7857   2.438   5.457   1.379
 2631TIP3    H2 7858   2.500   5.588   1.424
 2632TIP3   OH2 7859   7.020   3.169   4.409
 2632TIP3    H1 7860   7.038   3.157   4.502
 2632TIP3    H2 7861   7.106   3.183   4.370
 2633TIP3   OH2 7862   0.297   2.102   5.862
 2633TIP3    H1 7863   0.367   2.167   5.863
 2633TIP3    H2 7864   0.222   2.147   5.823
 2634TIP3   OH2 7865   4.256   6.655   5.885
 2634TIP3    H1 7866   4.304   6.600   5.946
 2634TIP3    H2 7867   4.271   6.616   5.799
 2635TIP3   OH2 7868   7.210   0.372   4.996
 2635TIP3    H1 7869   7.211   0.423   4.915
 2635TIP3    H2 7870   7.122   0.386   5.031
 2636TIP3   OH2 7871   5.617   0.479   5.199
 2636TIP3    H1 7872   5.649   0.464   5.110
 2636TIP3    H2 7873   5.644   0.568   5.220
 2637TIP3   OH2 7874   3.131   0.639   5.813
 2637TIP3    H1 7875   3.098   0.639   5.903
 2637TIP3    H2 7876   3.054   0.620   5.760
 2638TIP3   OH2 7877   2.413   5.607   1.009
 2638TIP3    H1 7878   2.397   5.634   1.100
 2638TIP3    H2 7879   2.504   5.578   1.008
 2639TIP3   OH2 7880   0.466   2.441   1.092
 2639TIP3    H1 7881   0.464   2.465   1.000
 2639TIP3    H2 7882   0.495   2.520   1.138
 2640TIP3   OH2 7883   4.771   1.012   4.063
 2640TIP3    H1 7884   4.702   1.041   4.003
 2640TIP3    H2 7885   4.759   1.065   4.142
 2641TIP3   OH2 7886   1.616   1.911   3.668
 2641TIP3    H1 7887   1.682   1.842   3.660
 2641TIP3    H2 7888   1.576   1.916   3.581
 2642TIP3   OH2 7889   5.585   3.584   5.542
 2642TIP3    H1 7890   5.605   3.664   5.590
 2642TIP3    H2 7891   5.537   3.530   5.605
 2643TIP3   OH2 7892   6.373   1.292   3.224
 2643TIP3    H1 7893   6.412   1.206   3.237
 2643TIP3    H2 7894   6.331   1.312   3.308
 2644TIP3   OH2 7895   5.449   6.585   1.237
 2644TIP3    H1 7896   5.372   6.528   1.244
 2644TIP3    H2 7897   5.429   6.642   1.162
 2645TIP3   OH2 7898   2.598   1.344   0.801
 2645TIP3    H1 7899   2.640   1.260   0.779
 2645TIP3    H2 7900   2.506   1.329   0.781
 2646TIP3   OH2 7901   4.373   3.269   0.352
 2646TIP3    H1 7902   4.402   3.224   0.273
 2646TIP3    H2 7903   4.415   3.221   0.423
 2647TIP3   OH2 7904   6.019   3.984   3.909
 2647TIP3    H1 7905   6.093   3.925   3.923
 2647TIP3    H2 7906   6.033   4.020   3.821
 2648TIP3   OH2 7907   5.811   2.174   4.923
 2648TIP3    H1 7908   5.738   2.113   4.931
 2648TIP3    H2 7909   5.831   2.174   4.829
 2649TIP3   OH2 7910   2.765   2.441   5.845
 2649TIP3    H1 7911   2.821   2.459   5.769
 2649TIP3    H2 7912   2.816   2.471   5.920
 2650TIP3   OH2 7913   5.679   2.996   0.454
 2650TIP3    H1 7914   5.683   3.082   0.495
 2650TIP3    H2 7915   5.770   2.968   0.447
 2651TIP3   OH2 7916   4.499   6.802   4.192
 2651TIP3    H1 7917   4.499   6.707   4.182
 2651TIP3    H2 7918   4.506   6.836   4.102
 2652TIP3   OH2 7919   5.023   4.435   3.255
 2652TIP3    H1 7920   4.973   4.427   3.174
 2652TIP3    H2 7921   5.098   4.376   3.243
 2653TIP3   OH2 7922   3.253   0.599   0.555
 2653TIP3    H1 7923   3.267   0.682   0.509
 2653TIP3    H2 7924   3.195   0.621   0.628
 2654TIP3   OH2 7925   6.083   5.681   2.604
 2654TIP3    H1 7926   6.067   5.588   2.624
 2654TIP3    H2 7927   6.056   5.691   2.513
 2655TIP3   OH2 7928   6.370   2.714   3.559
 2655TIP3    H1 7929   6.350   2.706   3.652
 2655TIP3    H2 7930   6.424   2.638   3.539
 2656TIP3   OH2 7931   6.929   5.789   0.939
 2656TIP3    H1 7932   6.886   5.874   0.930
 2656TIP3    H2 7933   7.022   5.807   0.924
 2657TIP3   OH2 7934   4.811   6.015   3.933
 2657TIP3    H1 7935   4.896   6.052   3.907
 2657TIP3    H2 7936   4.808   6.026   4.028
 2658TIP3   OH2 7937   4.346   3.707   2.390
 2658TIP3    H1 7938   4.334   3.628   2.337
 2658TIP3    H2 7939   4.390   3.769   2.331
 2659TIP3   OH2 7940   2.609   2.095   4.129
 2659TIP3    H1 7941   2.627   2.101   4.223
 2659TIP3    H2 7942   2.652   2.014   4.102
 2660TIP3   OH2 7943   4.599   1.411   3.640
 2660TIP3    H1 7944   4.687   1.440   3.615
 2660TIP3    H2 7945   4.573   1.351   3.571
 2661TIP3   OH2 7946   2.301   5.312   0.722
 2661TIP3    H1 7947   2.390   5.301   0.758
 2661TIP3    H2 7948   2.278   5.225   0.690
 2662TIP3   OH2 7949   5.217   1.489   1.898
 2662TIP3    H1 7950   5.257   1.577   1.892
 2662TIP3    H2 7951   5.286   1.430   1.868
 2663TIP3   OH2 7952   6.956   4.685   3.387
 2663TIP3    H1 7953   7.016   4.755   3.411
 2663TIP3    H2 7954   6.869   4.719   3.408
 2664TIP3   OH2 7955   0.981   0.573   4.571
 2664TIP3    H1 7956   1.065   0.568   4.618
 2664TIP3    H2 7957   0.951   0.662   4.585
 2665TIP3   OH2 7958   6.386   5.070   3.909
 2665TIP3    H1 7959   6.317   5.136   3.914
 2665TIP3    H2 7960   6.436   5.093   3.830
 2666TIP3   OH2 7961   2.455   6.192   5.656
 2666TIP3    H1 7962   2.542   6.226   5.672
 2666TIP3    H2 7963   2.396   6.263   5.683
 2667TIP3   OH2 7964   6.114   2.797   0.125
 2667TIP3    H1 7965   6.028   2.827   0.096
 2667TIP3    H2 7966   6.135   2.854   0.199
 2668TIP3   OH2 7967   6.610   4.262   0.285
 2668TIP3    H1 7968   6.517   4.239   0.282
 2668TIP3    H2 7969   6.641   4.227   0.369
 2669TIP3   OH2 7970   4.597   1.791   5.425
 2669TIP3    H1 7971   4.571   1.807   5.515
 2669TIP3    H2 7972   4.559   1.864   5.375
 2670TIP3   OH2 7973   0.695   1.323   2.852
 2670TIP3    H1 7974   0.772   1.328   2.796
 2670TIP3    H2 7975   0.641   1.397   2.824
 2671TIP3   OH2 7976   6.035   1.777   5.039
 2671TIP3    H1 7977   6.035   1.839   5.112
 2671TIP3    H2 7978   5.995   1.698   5.075
 2672TIP3   OH2 7979   6.209   6.001   0.967
 2672TIP3    H1 7980   6.129   5.956   0.943
 2672TIP3    H2 7981   6.249   6.025   0.883
 2673TIP3   OH2 7982   2.844   1.023   3.747
 2673TIP3    H1 7983   2.939   1.025   3.738
 2673TIP3    H2 7984   2.824   1.095   3.807
 2674TIP3   OH2 7985   4.611   0.712   3.277
 2674TIP3    H1 7986   4.540   0.724   3.340
 2674TIP3    H2 7987   4.569   0.718   3.191
 2675TIP3   OH2 7988   5.932   3.546   4.053
 2675TIP3    H1 7989   5.877   3.612   4.010
 2675TIP3    H2 7990   6.014   3.548   4.004
 2676TIP3   OH2 7991   2.045   1.032   2.242
 2676TIP3    H1 7992   2.107   0.987   2.300
 2676TIP3    H2 7993   2.063   0.997   2.155
 2677TIP3   OH2 7994   2.479   1.695   5.891
 2677TIP3    H1 7995   2.533   1.770   5.916
 2677TIP3    H2 7996   2.389   1.728   5.892
 2678TIP3   OH2 7997   3.745   0.945   4.017
 2678TIP3    H1 7998   3.720   1.010   3.952
 2678TIP3    H2 7999   3.737   0.990   4.101
 2679TIP3   OH2 8000   3.387   6.323   2.556
 2679TIP3    H1 8001   3.469   6.292   2.518
 2679TIP3    H2 8002   3.409   6.343   2.648
 2680TIP3   OH2 8003   3.919   6.599   4.218
 2680TIP3    H1 8004   3.838   6.569   4.178
 2680TIP3    H2 8005   3.960   6.519   4.251
 2681TIP3   OH2 8006   4.872   5.428   2.588
 2681TIP3    H1 8007   4.932   5.494   2.554
 2681TIP3    H2 8008   4.797   5.429   2.528
 2682TIP3   OH2 8009   3.270   0.405   2.472
 2682TIP3    H1 8010   3.330   0.457   2.525
 2682TIP3    H2 8011   3.305   0.316   2.476
 2683TIP3   OH2 8012   1.186   0.265   2.105
 2683TIP3    H1 8013   1.161   0.268   2.197
 2683TIP3    H2 8014   1.278   0.291   2.104
 2684TIP3   OH2 8015   6.211   4.703   3.289
 2684TIP3    H1 8016   6.297   4.686   3.327
 2684TIP3    H2 8017   6.151   4.702   3.364
 2685TIP3   OH2 8018   6.564   0.563   5.417
 2685TIP3    H1 8019   6.561   0.478   5.462
 2685TIP3    H2 8020   6.602   0.623   5.481
 2686TIP3   OH2 8021   0.584   6.408   5.608
 2686TIP3    H1 8022   0.519   6.344   5.637
 2686TIP3    H2 8023   0.614   6.376   5.523
 2687TIP3   OH2 8024   5.652   1.471   0.838
 2687TIP3    H1 8025   5.614   1.539   0.893
 2687TIP3    H2 8026   5.576   1.423   0.804
 2688TIP3   OH2 8027   6.540   3.137   2.834
 2688TIP3    H1 8028   6.607   3.072   2.857
 2688TIP3    H2 8029   6.480   3.090   2.777
 2689TIP3   OH2 8030   4.333   0.469   4.507
 2689TIP3    H1 8031   4.325   0.564   4.519
 2689TIP3    H2 8032   4.298   0.453   4.419
 2690TIP3   OH2 8033   5.712   4.222   1.434
 2690TIP3    H1 8034   5.636   4.192   1.484
 2690TIP3    H2 8035   5.785   4.214   1.495
 2691TIP3   OH2 8036   2.104   0.505   3.888
 2691TIP3    H1 8037   2.035   0.540   3.831
 2691TIP3    H2 8038   2.056   0.471   3.964
 2692TIP3   OH2 8039   1.805   5.083   2.477
 2692TIP3    H1 8040   1.723   5.034   2.475
 2692TIP3    H2 8041   1.811   5.116   2.567
 2693TIP3   OH2 8042   2.361   1.758   4.253
 2693TIP3    H1 8043   2.300   1.831   4.243
 2693TIP3    H2 8044   2.326   1.691   4.194
 2694TIP3   OH2 8045   3.108   4.563   3.245
 2694TIP3    H1 8046   3.184   4.563   3.303
 2694TIP3    H2 8047   3.058   4.640   3.270
 2695TIP3   OH2 8048   1.871   0.262   4.295
 2695TIP3    H1 8049   1.948   0.205   4.289
 2695TIP3    H2 8050   1.861   0.280   4.388
 2696TIP3   OH2 8051   2.867   6.414   0.530
 2696TIP3    H1 8052   2.814   6.381   0.458
 2696TIP3    H2 8053   2.903   6.497   0.498
 2697TIP3   OH2 8054   7.040   6.740   3.517
 2697TIP3    H1 8055   7.033   6.691   3.435
 2697TIP3    H2 8056   6.950   6.762   3.539
 2698TIP3   OH2 8057   3.766   3.430   4.877
 2698TIP3    H1 8058   3.844   3.451   4.825
 2698TIP3    H2 8059   3.783   3.470   4.962
 2699TIP3   OH2 8060   5.819   4.184   5.928
 2699TIP3    H1 8061   5.833   4.094   5.899
 2699TIP3    H2 8062   5.751   4.219   5.871
 2700TIP3   OH2 8063   5.030   1.043   0.954
 2700TIP3    H1 8064   4.982   1.125   0.969
 2700TIP3    H2 8065   4.972   0.975   0.989
 2701TIP3   OH2 8066   1.923   5.914   5.163
 2701TIP3    H1 8067   1.861   5.964   5.109
 2701TIP3    H2 8068   1.988   5.979   5.191
 2702TIP3   OH2 8069   4.514   4.074   0.244
 2702TIP3    H1 8070   4.486   4.076   0.335
 2702TIP3    H2 8071   4.437   4.043   0.196
 2703TIP3   OH2 8072   2.221   2.685   3.887
 2703TIP3    H1 8073   2.170   2.695   3.968
 2703TIP3    H2 8074   2.201   2.764   3.837
 2704TIP3   OH2 8075   4.978   4.393   2.199
 2704TIP3    H1 8076   4.934   4.376   2.115
 2704TIP3    H2 8077   5.049   4.453   2.177
 2705TIP3   OH2 8078   6.026   1.614   5.623
 2705TIP3    H1 8079   6.009   1.699   5.581
 2705TIP3    H2 8080   6.118   1.620   5.651
 2706TIP3   OH2 8081   1.779   2.504   4.566
 2706TIP3    H1 8082   1.690   2.470   4.566
 2706TIP3    H2 8083   1.773   2.590   4.523
 2707TIP3   OH2 8084   6.024   3.341   4.831
 2707TIP3    H1 8085   6.091   3.409   4.825
 2707TIP3    H2 8086   6.028   3.311   4.922
 2708TIP3   OH2 8087   4.443   0.409   1.221
 2708TIP3    H1 8088   4.400   0.352   1.284
 2708TIP3    H2 8089   4.496   0.349   1.167
 2709TIP3   OH2 8090   3.376   5.254   4.009
 2709TIP3    H1 8091   3.295   5.229   4.054
 2709TIP3    H2 8092   3.346   5.295   3.928
 2710TIP3   OH2 8093   3.596   4.795   1.849
 2710TIP3    H1 8094   3.627   4.744   1.775
 2710TIP3    H2 8095   3.671   4.797   1.909
 2711TIP3   OH2 8096   6.448   2.912   0.233
 2711TIP3    H1 8097   6.508   2.960   0.290
 2711TIP3    H2 8098   6.454   2.821   0.263
 2712TIP3   OH2 8099   4.110   1.903   3.078
 2712TIP3    H1 8100   4.126   1.997   3.080
 2712TIP3    H2 8101   4.016   1.894   3.063
 2713TIP3   OH2 8102   1.365   4.007   0.235
 2713TIP3    H1 8103   1.367   3.951   0.157
 2713TIP3    H2 8104   1.443   3.981   0.285
 2714TIP3   OH2 8105   0.663   1.485   2.611
 2714TIP3    H1 8106   0.729   1.482   2.542
 2714TIP3    H2 8107   0.580   1.492   2.564
 2715TIP3   OH2 8108   4.648   5.162   3.452
 2715TIP3    H1 8109   4.633   5.256   3.460
 2715TIP3    H2 8110   4.736   5.148   3.486
 2716TIP3   OH2 8111   2.593   6.412   0.419
 2716TIP3    H1 8112   2.610   6.472   0.346
 2716TIP3    H2 8113   2.572   6.470   0.492
 2717TIP3   OH2 8114   0.548   3.745   2.948
 2717TIP3    H1 8115   0.523   3.700   3.029
 2717TIP3    H2 8116   0.596   3.680   2.897
 2718TIP3   OH2 8117   6.739   2.381   2.093
 2718TIP3    H1 8118   6.709   2.430   2.016
 2718TIP3    H2 8119   6.814   2.431   2.126
 2719TIP3   OH2 8120   6.269   5.042   4.841
 2719TIP3    H1 8121   6.218   4.989   4.780
 2719TIP3    H2 8122   6.264   5.131   4.806
 2720TIP3   OH2 8123   4.270   2.751   4.512
 2720TIP3    H1 8124   4.277   2.827   4.455
 2720TIP3    H2 8125   4.268   2.787   4.601
 2721TIP3   OH2 8126   3.262   6.567   2.964
 2721TIP3    H1 8127   3.191   6.629   2.978
 2721TIP3    H2 8128   3.308   6.563   3.048
 2722TIP3   OH2 8129   5.428   2.307   2.379
 2722TIP3    H1 8130   5.443   2.396   2.410
 2722TIP3    H2 8131   5.354   2.316   2.318
 2723TIP3   OH2 8132   7.186   6.560   4.123
 2723TIP3    H1 8133   7.092   6.563   4.141
 2723TIP3    H2 8134   7.227   6.587   4.206
 2724TIP3   OH2 8135   4.300   2.778   0.482
 2724TIP3    H1 8136   4.212   2.812   0.468
 2724TIP3    H2 8137   4.293   2.685   0.464
 2725TIP3   OH2 8138   1.051   6.531   2.891
 2725TIP3    H1 8139   0.992   6.479   2.945
 2725TIP3    H2 8140   0.994   6.590   2.842
 2726TIP3   OH2 8141   4.512   1.347   1.366
 2726TIP3    H1 8142   4.451   1.287   1.323
 2726TIP3    H2 8143   4.549   1.297   1.438
 2727TIP3   OH2 8144   2.446   2.807   4.465
 2727TIP3    H1 8145   2.526   2.857   4.451
 2727TIP3    H2 8146   2.451   2.734   4.404
 2728TIP3   OH2 8147   3.241   5.674   3.414
 2728TIP3    H1 8148   3.215   5.628   3.334
 2728TIP3    H2 8149   3.282   5.754   3.382
 2729TIP3   OH2 8150   5.095   3.396   1.707
 2729TIP3    H1 8151   5.125   3.413   1.618
 2729TIP3    H2 8152   5.163   3.341   1.745
 2730TIP3   OH2 8153   2.686   2.292   2.321
 2730TIP3    H1 8154   2.673   2.218   2.261
 2730TIP3    H2 8155   2.630   2.273   2.396
 2731TIP3   OH2 8156   1.644   1.725   4.326
 2731TIP3    H1 8157   1.602   1.692   4.246
 2731TIP3    H2 8158   1.609   1.670   4.396
 2732TIP3   OH2 8159   1.907   1.524   5.767
 2732TIP3    H1 8160   1.878   1.444   5.811
 2732TIP3    H2 8161   1.998   1.535   5.795
 2733TIP3   OH2 8162   7.128   6.830   2.398
 2733TIP3    H1 8163   7.207   6.807   2.349
 2733TIP3    H2 8164   7.058   6.781   2.355
 2734TIP3   OH2 8165   4.247   1.794   3.284
 2734TIP3    H1 8166   4.314   1.860   3.306
 2734TIP3    H2 8167   4.180   1.843   3.236
 2735TIP3   OH2 8168   2.918   6.785   2.751
 2735TIP3    H1 8169   2.936   6.772   2.844
 2735TIP3    H2 8170   2.823   6.777   2.744
 2736TIP3   OH2 8171   5.596   3.411   1.930
 2736TIP3    H1 8172   5.536   3.459   1.988
 2736TIP3    H2 8173   5.557   3.420   1.843
 2737TIP3   OH2 8174   6.466   6.115   2.844
 2737TIP3    H1 8175   6.502   6.131   2.931
 2737TIP3    H2 8176   6.371   6.121   2.855
 2738TIP3   OH2 8177   6.277   5.720   0.506
 2738TIP3    H1 8178   6.369   5.739   0.488
 2738TIP3    H2 8179   6.244   5.800   0.548
 2739TIP3   OH2 8180   2.718   3.128   5.572
 2739TIP3    H1 8181   2.746   3.134   5.481
 2739TIP3    H2 8182   2.798   3.146   5.623
 2740TIP3   OH2 8183   4.600   6.761   1.457
 2740TIP3    H1 8184   4.691   6.731   1.458
 2740TIP3    H2 8185   4.605   6.851   1.426
 2741TIP3   OH2 8186   3.443   6.650   5.193
 2741TIP3    H1 8187   3.417   6.731   5.236
 2741TIP3    H2 8188   3.370   6.591   5.206
 2742TIP3   OH2 8189   3.870   4.700   2.999
 2742TIP3    H1 8190   3.895   4.792   3.009
 2742TIP3    H2 8191   3.954   4.653   2.998
 2743TIP3   OH2 8192   2.875   5.336   3.763
 2743TIP3    H1 8193   2.844   5.336   3.854
 2743TIP3    H2 8194   2.960   5.292   3.766
 2744TIP3   OH2 8195   4.883   0.198   4.105
 2744TIP3    H1 8196   4.797   0.206   4.145
 2744TIP3    H2 8197   4.871   0.225   4.014
 2745TIP3   OH2 8198   6.038   2.211   5.876
 2745TIP3    H1 8199   6.008   2.143   5.936
 2745TIP3    H2 8200   6.018   2.175   5.789
 2746TIP3   OH2 8201   7.088   4.897   5.307
 2746TIP3    H1 8202   7.076   4.803   5.299
 2746TIP3    H2 8203   7.005   4.929   5.344
 2747TIP3   OH2 8204   1.722   5.212   4.907
 2747TIP3    H1 8205   1.766   5.144   4.957
 2747TIP3    H2 8206   1.704   5.282   4.970
 2748TIP3   OH2 8207   1.153   4.038   2.742
 2748TIP3    H1 8208   1.063   4.061   2.717
 2748TIP3    H2 8209   1.206   4.063   2.666
 2749TIP3   OH2 8210   4.904   6.230   4.820
 2749TIP3    H1 8211   4.952   6.286   4.758
 2749TIP3    H2 8212   4.812   6.244   4.799
 2750TIP3   OH2 8213   6.640   4.435   3.588
 2750TIP3    H1 8214   6.670   4.526   3.596
 2750TIP3    H2 8215   6.701   4.385   3.641
 2751TIP3   OH2 8216   6.959   4.714   1.191
 2751TIP3    H1 8217   6.960   4.809   1.195
 2751TIP3    H2 8218   7.051   4.690   1.178
 2752TIP3   OH2 8219   0.751   4.852   5.528
 2752TIP3    H1 8220   0.662   4.873   5.557
 2752TIP3    H2 8221   0.739   4.792   5.455
 2753TIP3   OH2 8222   4.484   5.886   2.978
 2753TIP3    H1 8223   4.408   5.942   2.960
 2753TIP3    H2 8224   4.448   5.813   3.028
 2754TIP3   OH2 8225   5.754   4.232   1.132
 2754TIP3    H1 8226   5.842   4.254   1.101
 2754TIP3    H2 8227   5.764   4.224   1.227
 2755TIP3   OH2 8228   5.655   2.387   1.186
 2755TIP3    H1 8229   5.673   2.333   1.108
 2755TIP3    H2 8230   5.559   2.388   1.193
 2756TIP3   OH2 8231   6.094   4.830   1.645
 2756TIP3    H1 8232   6.177   4.838   1.693
 2756TIP3    H2 8233   6.037   4.781   1.704
 2757TIP3   OH2 8234   5.001   1.727   3.117
 2757TIP3    H1 8235   5.078   1.745   3.172
 2757TIP3    H2 8236   5.031   1.744   3.028
 2758TIP3   OH2 8237   7.185   0.694   1.771
 2758TIP3    H1 8238   7.264   0.647   1.745
 2758TIP3    H2 8239   7.136   0.705   1.690
 2759TIP3   OH2 8240   3.419   5.832   0.685
 2759TIP3    H1 8241   3.350   5.824   0.750
 2759TIP3    H2 8242   3.493   5.872   0.732
 2760TIP3   OH2 8243   1.731   1.872   0.985
 2760TIP3    H1 8244   1.724   1.874   0.890
 2760TIP3    H2 8245   1.646   1.903   1.016
 2761TIP3   OH2 8246   4.365   0.876   3.866
 2761TIP3    H1 8247   4.343   0.784   3.880
 2761TIP3    H2 8248   4.286   0.915   3.828
 2762TIP3   OH2 8249   3.616   6.488   3.020
 2762TIP3    H1 8250   3.544   6.503   3.081
 2762TIP3    H2 8251   3.677   6.560   3.036
 2763TIP3   OH2 8252   2.105   1.286   1.913
 2763TIP3    H1 8253   2.070   1.360   1.863
 2763TIP3    H2 8254   2.034   1.262   1.973
 2764TIP3   OH2 8255   7.124   5.985   0.206
 2764TIP3    H1 8256   7.156   5.925   0.273
 2764TIP3    H2 8257   7.202   6.016   0.161
 2765TIP3   OH2 8258   1.972   2.414   4.879
 2765TIP3    H1 8259   1.926   2.497   4.865
 2765TIP3    H2 8260   1.923   2.351   4.826
 2766TIP3   OH2 8261   3.622   0.257   1.225
 2766TIP3    H1 8262   3.674   0.255   1.145
 2766TIP3    H2 8263   3.634   0.170   1.264
 2767TIP3   OH2 8264   3.773   3.604   3.742
 2767TIP3    H1 8265   3.770   3.591   3.647
 2767TIP3    H2 8266   3.744   3.694   3.755
 2768TIP3   OH2 8267   2.042   2.916   3.065
 2768TIP3    H1 8268   2.134   2.888   3.063
 2768TIP3    H2 8269   1.997   2.847   3.114
 2769TIP3   OH2 8270   0.617   4.644   1.439
 2769TIP3    H1 8271   0.571   4.687   1.366
 2769TIP3    H2 8272   0.638   4.557   1.405
 2770TIP3   OH2 8273   4.234   5.694   2.919
 2770TIP3    H1 8274   4.160   5.702   2.859
 2770TIP3    H2 8275   4.194   5.687   3.006
 2771TIP3   OH2 8276   2.072   1.256   5.623
 2771TIP3    H1 8277   2.111   1.194   5.684
 2771TIP3    H2 8278   2.111   1.340   5.646
 2772TIP3   OH2 8279   6.932   0.475   0.677
 2772TIP3    H1 8280   6.931   0.423   0.596
 2772TIP3    H2 8281   6.914   0.411   0.746
 2773TIP3   OH2 8282   4.860   4.838   3.414
 2773TIP3    H1 8283   4.821   4.837   3.501
 2773TIP3    H2 8284   4.786   4.832   3.354
 2774TIP3   OH2 8285   2.115   0.441   0.726
 2774TIP3    H1 8286   2.075   0.421   0.811
 2774TIP3    H2 8287   2.043   0.437   0.664
 2775TIP3   OH2 8288   4.607   3.352   0.847
 2775TIP3    H1 8289   4.567   3.429   0.807
 2775TIP3    H2 8290   4.701   3.369   0.842
 2776TIP3   OH2 8291   2.435   5.644   0.551
 2776TIP3    H1 8292   2.414   5.551   0.553
 2776TIP3    H2 8293   2.415   5.671   0.462
 2777TIP3   OH2 8294   2.516   5.297   4.141
 2777TIP3    H1 8295   2.490   5.389   4.132
 2777TIP3    H2 8296   2.444   5.248   4.099
 2778TIP3   OH2 8297   5.081   5.092   1.169
 2778TIP3    H1 8298   5.153   5.133   1.218
 2778TIP3    H2 8299   5.017   5.162   1.157
 2779TIP3   OH2 8300   4.311   4.909   0.870
 2779TIP3    H1 8301   4.388   4.871   0.912
 2779TIP3    H2 8302   4.241   4.898   0.935
 2780TIP3   OH2 8303   3.174   1.737   1.260
 2780TIP3    H1 8304   3.210   1.809   1.207
 2780TIP3    H2 8305   3.177   1.661   1.202
 2781TIP3   OH2 8306   4.134   3.758   5.201
 2781TIP3    H1 8307   4.162   3.847   5.223
 2781TIP3    H2 8308   4.200   3.727   5.138
 2782TIP3   OH2 8309   0.030   0.337   0.687
 2782TIP3    H1 8310  -0.044   0.278   0.675
 2782TIP3    H2 8311   0.040   0.345   0.782
 2783TIP3   OH2 8312   5.063   4.657   2.292
 2783TIP3    H1 8313   4.979   4.650   2.337
 2783TIP3    H2 8314   5.051   4.728   2.229
 2784TIP3   OH2 8315   0.310   0.915   5.164
 2784TIP3    H1 8316   0.238   0.856   5.141
 2784TIP3    H2 8317   0.291   0.943   5.254
 2785TIP3   OH2 8318   2.518   2.066   2.783
 2785TIP3    H1 8319   2.532   2.070   2.877
 2785TIP3    H2 8320   2.518   1.973   2.762
 2786TIP3   OH2 8321   6.694   0.074   5.599
 2786TIP3    H1 8322   6.668   0.080   5.691
 2786TIP3    H2 8323   6.630   0.128   5.553
 2787TIP3   OH2 8324   0.198   5.446   4.188
 2787TIP3    H1 8325   0.142   5.369   4.198
 2787TIP3    H2 8326   0.260   5.440   4.261
 2788TIP3   OH2 8327   4.403   1.995   1.602
 2788TIP3    H1 8328   4.400   1.905   1.632
 2788TIP3    H2 8329   4.373   2.047   1.677
 2789TIP3   OH2 8330   6.043   4.296   2.358
 2789TIP3    H1 8331   6.017   4.232   2.292
 2789TIP3    H2 8332   6.058   4.245   2.437
 2790TIP3   OH2 8333   3.225   0.833   2.443
 2790TIP3    H1 8334   3.203   0.744   2.471
 2790TIP3    H2 8335   3.145   0.884   2.460
 2791TIP3   OH2 8336   5.024   0.088   5.687
 2791TIP3    H1 8337   5.012   0.019   5.622
 2791TIP3    H2 8338   4.962   0.066   5.757
 2792TIP3   OH2 8339   0.493   4.467   3.442
 2792TIP3    H1 8340   0.417   4.437   3.492
 2792TIP3    H2 8341   0.499   4.561   3.462
 2793TIP3   OH2 8342   1.240   2.395   0.799
 2793TIP3    H1 8343   1.218   2.359   0.713
 2793TIP3    H2 8344   1.172   2.459   0.816
 2794TIP3   OH2 8345   5.755   3.098   2.968
 2794TIP3    H1 8346   5.703   3.019   2.977
 2794TIP3    H2 8347   5.717   3.159   3.032
 2795TIP3   OH2 8348   5.047   1.301   0.597
 2795TIP3    H1 8349   5.118   1.356   0.563
 2795TIP3    H2 8350   5.031   1.333   0.685
 2796TIP3   OH2 8351   3.054   2.616   1.398
 2796TIP3    H1 8352   2.974   2.567   1.377
 2796TIP3    H2 8353   3.094   2.634   1.313
 2797TIP3   OH2 8354   1.151   0.094   5.167
 2797TIP3    H1 8355   1.219   0.109   5.101
 2797TIP3    H2 8356   1.197   0.051   5.239
 2798TIP3   OH2 8357   4.345   4.302   2.911
 2798TIP3    H1 8358   4.278   4.357   2.953
 2798TIP3    H2 8359   4.296   4.244   2.854
 2799TIP3   OH2 8360   1.835   4.392   3.508
 2799TIP3    H1 8361   1.927   4.372   3.489
 2799TIP3    H2 8362   1.818   4.350   3.593
 2800TIP3   OH2 8363   5.200   6.863   3.249
 2800TIP3    H1 8364   5.183   6.844   3.157
 2800TIP3    H2 8365   5.236   6.782   3.284
 2801TIP3   OH2 8366   5.275   6.596   3.301
 2801TIP3    H1 8367   5.209   6.527   3.289
 2801TIP3    H2 8368   5.339   6.580   3.232
 2802TIP3   OH2 8369   0.848   1.712   4.105
 2802TIP3    H1 8370   0.818   1.675   4.188
 2802TIP3    H2 8371   0.785   1.781   4.085
 2803TIP3   OH2 8372   1.263   0.969   4.939
 2803TIP3    H1 8373   1.218   0.959   4.855
 2803TIP3    H2 8374   1.272   0.879   4.972
 2804TIP3   OH2 8375   0.591   5.582   0.567
 2804TIP3    H1 8376   0.506   5.559   0.605
 2804TIP3    H2 8377   0.621   5.656   0.621
 2805TIP3   OH2 8378   1.574   3.573   3.718
 2805TIP3    H1 8379   1.498   3.589   3.663
 2805TIP3    H2 8380   1.645   3.621   3.676
 2806TIP3   OH2 8381   1.665   6.749   4.430
 2806TIP3    H1 8382   1.730   6.818   4.444
 2806TIP3    H2 8383   1.683   6.685   4.498
 2807TIP3   OH2 8384   5.601   5.015   4.900
 2807TIP3    H1 8385   5.647   4.950   4.954
 2807TIP3    H2 8386   5.669   5.056   4.848
 2808TIP3   OH2 8387   5.568   0.061   5.798
 2808TIP3    H1 8388   5.525   0.142   5.772
 2808TIP3    H2 8389   5.506  -0.008   5.775
 2809TIP3   OH2 8390   0.120   3.236   2.818
 2809TIP3    H1 8391   0.161   3.198   2.896
 2809TIP3    H2 8392   0.180   3.306   2.792
 2810TIP3   OH2 8393   2.191   1.475   1.030
 2810TIP3    H1 8394   2.227   1.561   1.007
 2810TIP3    H2 8395   2.185   1.429   0.946
 2811TIP3   OH2 8396   0.119   4.999   1.871
 2811TIP3    H1 8397   0.208   4.970   1.892
 2811TIP3    H2 8398   0.114   5.088   1.908
 2812TIP3   OH2 8399   5.671   5.521   0.670
 2812TIP3    H1 8400   5.663   5.616   0.679
 2812TIP3    H2 8401   5.741   5.509   0.605
 2813TIP3   OH2 8402   7.021   3.014   4.699
 2813TIP3    H1 8403   7.069   2.938   4.668
 2813TIP3    H2 8404   6.941   2.979   4.738
 2814TIP3   OH2 8405   0.921   6.027   3.503
 2814TIP3    H1 8406   0.979   6.099   3.529
 2814TIP3    H2 8407   0.917   5.970   3.580
 2815TIP3   OH2 8408   0.768   4.742   3.664
 2815TIP3    H1 8409   0.767   4.820   3.609
 2815TIP3    H2 8410   0.687   4.748   3.715
 2816TIP3   OH2 8411   0.580   5.518   3.203
 2816TIP3    H1 8412   0.663   5.470   3.205
 2816TIP3    H2 8413   0.528   5.475   3.136
 2817TIP3   OH2 8414   6.092   3.146   2.829
 2817TIP3    H1 8415   6.004   3.164   2.796
 2817TIP3    H2 8416   6.125   3.076   2.772
 2818TIP3   OH2 8417   0.982   5.898   3.732
 2818TIP3    H1 8418   0.905   5.921   3.785
 2818TIP3    H2 8419   1.055   5.936   3.780
 2819TIP3   OH2 8420   3.203   4.894   2.541
 2819TIP3    H1 8421   3.204   4.924   2.632
 2819TIP3    H2 8422   3.280   4.935   2.502
 2820TIP3   OH2 8423   3.802   4.976   5.874
 2820TIP3    H1 8424   3.812   4.956   5.781
 2820TIP3    H2 8425   3.708   4.991   5.886
 2821TIP3   OH2 8426   1.840   2.010   3.435
 2821TIP3    H1 8427   1.769   2.073   3.429
 2821TIP3    H2 8428   1.819   1.956   3.511
 2822TIP3   OH2 8429   3.167   4.736   2.162
 2822TIP3    H1 8430   3.233   4.773   2.103
 2822TIP3    H2 8431   3.096   4.801   2.162
 2823TIP3   OH2 8432   0.220   4.687   2.163
 2823TIP3    H1 8433   0.205   4.654   2.251
 2823TIP3    H2 8434   0.245   4.778   2.175
 2824TIP3   OH2 8435   2.014   0.992   0.260
 2824TIP3    H1 8436   2.065   0.936   0.201
 2824TIP3    H2 8437   2.040   0.965   0.348
 2825TIP3   OH2 8438   2.196   5.121   1.733
 2825TIP3    H1 8439   2.202   5.211   1.765
 2825TIP3    H2 8440   2.143   5.127   1.654
 2826TIP3   OH2 8441   6.548   0.144   2.563
 2826TIP3    H1 8442   6.604   0.199   2.508
 2826TIP3    H2 8443   6.609   0.084   2.607
 2827TIP3   OH2 8444   5.838   4.442   4.269
 2827TIP3    H1 8445   5.793   4.419   4.187
 2827TIP3    H2 8446   5.768   4.471   4.327
 2828TIP3   OH2 8447   5.458   4.685   5.026
 2828TIP3    H1 8448   5.397   4.652   4.959
 2828TIP3    H2 8449   5.456   4.618   5.094
 2829TIP3   OH2 8450   3.881   5.066   1.040
 2829TIP3    H1 8451   3.930   5.103   0.966
 2829TIP3    H2 8452   3.789   5.084   1.019
 2830TIP3   OH2 8453   5.093   2.936   0.977
 2830TIP3    H1 8454   5.067   2.941   0.885
 2830TIP3    H2 8455   5.081   2.844   1.001
 2831TIP3   OH2 8456   6.143   1.499   1.263
 2831TIP3    H1 8457   6.123   1.408   1.240
 2831TIP3    H2 8458   6.181   1.494   1.351
 2832TIP3   OH2 8459   5.624   2.577   3.950
 2832TIP3    H1 8460   5.575   2.626   3.884
 2832TIP3    H2 8461   5.681   2.519   3.900
 2833TIP3   OH2 8462   4.410   6.171   1.145
 2833TIP3    H1 8463   4.413   6.075   1.141
 2833TIP3    H2 8464   4.458   6.200   1.067
 2834TIP3   OH2 8465   0.510   2.385   2.106
 2834TIP3    H1 8466   0.542   2.422   2.024
 2834TIP3    H2 8467   0.560   2.304   2.117
 2835TIP3   OH2 8468   5.517   2.826   5.332
 2835TIP3    H1 8469   5.486   2.904   5.377
 2835TIP3    H2 8470   5.576   2.859   5.265
 2836TIP3   OH2 8471   3.057   3.605   1.121
 2836TIP3    H1 8472   3.023   3.533   1.174
 2836TIP3    H2 8473   2.981   3.637   1.072
 2837TIP3   OH2 8474   5.393   4.344   4.652
 2837TIP3    H1 8475   5.382   4.250   4.633
 2837TIP3    H2 8476   5.451   4.345   4.728
 2838TIP3   OH2 8477   3.443   3.121   4.622
 2838TIP3    H1 8478   3.439   3.118   4.527
 2838TIP3    H2 8479   3.435   3.030   4.650
 2839TIP3   OH2 8480   2.476   4.406   4.179
 2839TIP3    H1 8481   2.552   4.376   4.128
 2839TIP3    H2 8482   2.462   4.337   4.244
 2840TIP3   OH2 8483   1.404   3.263   2.343
 2840TIP3    H1 8484   1.399   3.226   2.431
 2840TIP3    H2 8485   1.486   3.312   2.342
 2841TIP3   OH2 8486   4.758   0.407   3.614
 2841TIP3    H1 8487   4.762   0.500   3.592
 2841TIP3    H2 8488   4.668   0.392   3.641
 2842TIP3   OH2 8489   1.437   0.973   5.248
 2842TIP3    H1 8490   1.395   0.917   5.182
 2842TIP3    H2 8491   1.507   1.018   5.201
 2843TIP3   OH2 8492   2.388   4.344   2.271
 2843TIP3    H1 8493   2.370   4.435   2.248
 2843TIP3    H2 8494   2.448   4.314   2.203
 2844TIP3   OH2 8495   5.298   6.477   2.583
 2844TIP3    H1 8496   5.386   6.498   2.614
 2844TIP3    H2 8497   5.305   6.388   2.550
 2845TIP3   OH2 8498   4.353   1.390   3.829
 2845TIP3    H1 8499   4.436   1.410   3.786
 2845TIP3    H2 8500   4.325   1.308   3.790
 2846TIP3   OH2 8501   1.205   5.258   0.096
 2846TIP3    H1 8502   1.138   5.239   0.030
 2846TIP3    H2 8503   1.287   5.261   0.046
 2847TIP3   OH2 8504   4.971   0.904   0.395
 2847TIP3    H1 8505   4.901   0.863   0.445
 2847TIP3    H2 8506   4.990   0.986   0.441
 2848TIP3   OH2 8507   5.803   0.358   4.961
 2848TIP3    H1 8508   5.858   0.424   5.005
 2848TIP3    H2 8509   5.866   0.296   4.923
 2849TIP3   OH2 8510   6.647   3.738   4.089
 2849TIP3    H1 8511   6.556   3.712   4.081
 2849TIP3    H2 8512   6.697   3.659   4.065
 2850TIP3   OH2 8513   2.520   3.700   2.728
 2850TIP3    H1 8514   2.491   3.667   2.643
 2850TIP3    H2 8515   2.475   3.784   2.737
 2851TIP3   OH2 8516   4.543   3.135   4.915
 2851TIP3    H1 8517   4.518   3.100   5.001
 2851TIP3    H2 8518   4.459   3.161   4.876
 2852TIP3   OH2 8519   4.477   3.098   5.188
 2852TIP3    H1 8520   4.431   3.182   5.193
 2852TIP3    H2 8521   4.558   3.111   5.237
 2853TIP3   OH2 8522   0.699   0.751   3.839
 2853TIP3    H1 8523   0.630   0.764   3.903
 2853TIP3    H2 8524   0.735   0.838   3.824
 2854TIP3   OH2 8525   0.818   2.625   1.762
 2854TIP3    H1 8526   0.848   2.667   1.843
 2854TIP3    H2 8527   0.786   2.698   1.708
 2855TIP3   OH2 8528   5.042   1.210   1.483
 2855TIP3    H1 8529   4.975   1.259   1.435
 2855TIP3    H2 8530   5.093   1.277   1.529
 2856TIP3   OH2 8531   2.397   2.220   2.256
 2856TIP3    H1 8532   2.308   2.253   2.248
 2856TIP3    H2 8533   2.427   2.250   2.342
 2857TIP3   OH2 8534   1.601   4.184   5.163
 2857TIP3    H1 8535   1.666   4.231   5.214
 2857TIP3    H2 8536   1.554   4.252   5.114
 2858TIP3   OH2 8537   4.102   1.878   2.434
 2858TIP3    H1 8538   4.045   1.809   2.401
 2858TIP3    H2 8539   4.191   1.844   2.422
 2859TIP3   OH2 8540   6.449   1.319   1.834
 2859TIP3    H1 8541   6.461   1.404   1.791
 2859TIP3    H2 8542   6.360   1.293   1.811
 2860TIP3   OH2 8543   1.818   4.619   4.347
 2860TIP3    H1 8544   1.906   4.643   4.376
 2860TIP3    H2 8545   1.770   4.702   4.347
 2861TIP3   OH2 8546   6.166   6.242   4.175
 2861TIP3    H1 8547   6.223   6.237   4.098
 2861TIP3    H2 8548   6.202   6.176   4.235
 2862TIP3   OH2 8549   4.098   4.319   0.048
 2862TIP3    H1 8550   4.143   4.341   0.130
 2862TIP3    H2 8551   4.127   4.386  -0.013
 2863TIP3   OH2 8552   2.629   4.722   4.980
 2863TIP3    H1 8553   2.696   4.785   4.953
 2863TIP3    H2 8554   2.620   4.736   5.074
 2864TIP3   OH2 8555   2.175   1.688   5.372
 2864TIP3    H1 8556   2.136   1.634   5.303
 2864TIP3    H2 8557   2.227   1.627   5.423
 2865TIP3   OH2 8558   1.313   3.503   2.153
 2865TIP3    H1 8559   1.325   3.409   2.166
 2865TIP3    H2 8560   1.227   3.511   2.113
 2866TIP3   OH2 8561   6.452   1.138   3.776
 2866TIP3    H1 8562   6.503   1.152   3.856
 2866TIP3    H2 8563   6.389   1.070   3.800
 2867TIP3   OH2 8564   3.902   6.650   4.991
 2867TIP3    H1 8565   3.996   6.656   4.977
 2867TIP3    H2 8566   3.890   6.566   5.036
 2868TIP3   OH2 8567   6.767   5.049   5.091
 2868TIP3    H1 8568   6.730   5.034   5.004
 2868TIP3    H2 8569   6.693   5.042   5.151
 2869TIP3   OH2 8570   1.794   1.122   5.816
 2869TIP3    H1 8571   1.872   1.158   5.773
 2869TIP3    H2 8572   1.799   1.155   5.906
 2870TIP3   OH2 8573   4.815   3.612   1.471
 2870TIP3    H1 8574   4.829   3.523   1.439
 2870TIP3    H2 8575   4.887   3.662   1.434
 2871TIP3   OH2 8576   6.211   6.030   4.330
 2871TIP3    H1 8577   6.131   5.984   4.305
 2871TIP3    H2 8578   6.261   5.966   4.381
 2872TIP3   OH2 8579   0.306   3.484   2.790
 2872TIP3    H1 8580   0.343   3.570   2.775
 2872TIP3    H2 8581   0.380   3.429   2.814
 2873TIP3   OH2 8582   4.677   2.191   2.538
 2873TIP3    H1 8583   4.711   2.274   2.573
 2873TIP3    H2 8584   4.605   2.168   2.597
 2874TIP3   OH2 8585   1.349   5.148   2.943
 2874TIP3    H1 8586   1.310   5.166   3.028
 2874TIP3    H2 8587   1.443   5.157   2.957
 2875TIP3   OH2 8588   2.955   3.818   2.123
 2875TIP3    H1 8589   2.886   3.875   2.159
 2875TIP3    H2 8590   2.907   3.750   2.075
 2876TIP3   OH2 8591   6.457   0.136   1.378
 2876TIP3    H1 8592   6.388   0.071   1.365
 2876TIP3    H2 8593   6.474   0.134   1.473
 2877TIP3   OH2 8594   3.120   6.053   4.669
 2877TIP3    H1 8595   3.145   5.996   4.742
 2877TIP3    H2 8596   3.024   6.055   4.672
 2878TIP3   OH2 8597   4.878   6.697   1.458
 2878TIP3    H1 8598   4.909   6.787   1.465
 2878TIP3    H2 8599   4.876   6.664   1.548
 2879TIP3   OH2 8600   1.118   3.748   5.813
 2879TIP3    H1 8601   1.146   3.692   5.742
 2879TIP3    H2 8602   1.196   3.760   5.867
 2880TIP3   OH2 8603   4.450   3.387   5.252
 2880TIP3    H1 8604   4.471   3.360   5.342
 2880TIP3    H2 8605   4.532   3.423   5.218
 2881TIP3   OH2 8606   3.105   5.248   0.364
 2881TIP3    H1 8607   3.097   5.332   0.409
 2881TIP3    H2 8608   3.141   5.270   0.278
 2882TIP3   OH2 8609   4.969   0.588   3.386
 2882TIP3    H1 8610   5.003   0.593   3.475
 2882TIP3    H2 8611   4.889   0.640   3.387
 2883TIP3   OH2 8612   2.600   3.518   2.949
 2883TIP3    H1 8613   2.575   3.591   2.891
 2883TIP3    H2 8614   2.551   3.443   2.916
 2884TIP3   OH2 8615   5.158   1.910   0.106
 2884TIP3    H1 8616   5.089   1.970   0.134
 2884TIP3    H2 8617   5.198   1.880   0.187
 2885TIP3   OH2 8618   4.436   6.267   5.304
 2885TIP3    H1 8619   4.525   6.299   5.320
 2885TIP3    H2 8620   4.425   6.194   5.365
 2886TIP3   OH2 8621   6.445   0.553   2.248
 2886TIP3    H1 8622   6.443   0.487   2.317
 2886TIP3    H2 8623   6.522   0.606   2.267
 2887TIP3   OH2 8624   1.607   4.332   3.326
 2887TIP3    H1 8625   1.589   4.238   3.321
 2887TIP3    H2 8626   1.621   4.349   3.419
 2888TIP3   OH2 8627   0.616   3.351   3.626
 2888TIP3    H1 8628   0.582   3.298   3.555
 2888TIP3    H2 8629   0.681   3.295   3.669
 2889TIP3   OH2 8630   5.963   2.189   4.092
 2889TIP3    H1 8631   6.052   2.161   4.116
 2889TIP3    H2 8632   5.935   2.126   4.027
 2890TIP3   OH2 8633   3.843   2.024   2.026
 2890TIP3    H1 8634   3.816   2.083   1.956
 2890TIP3    H2 8635   3.827   2.074   2.106
 2891TIP3   OH2 8636   1.759   3.886   3.249
 2891TIP3    H1 8637   1.830   3.855   3.305
 2891TIP3    H2 8638   1.801   3.947   3.188
 2892TIP3   OH2 8639   6.994   2.421   0.791
 2892TIP3    H1 8640   7.086   2.432   0.813
 2892TIP3    H2 8641   6.957   2.372   0.864
 2893TIP3   OH2 8642   6.896   0.415   4.509
 2893TIP3    H1 8643   6.904   0.372   4.423
 2893TIP3    H2 8644   6.939   0.356   4.570
 2894TIP3   OH2 8645   6.519   4.566   4.875
 2894TIP3    H1 8646   6.550   4.494   4.820
 2894TIP3    H2 8647   6.444   4.601   4.827
 2895TIP3   OH2 8648   4.479   5.412   0.257
 2895TIP3    H1 8649   4.423   5.366   0.195
 2895TIP3    H2 8650   4.419   5.463   0.311
 2896TIP3   OH2 8651   3.200   6.219   4.474
 2896TIP3    H1 8652   3.177   6.158   4.544
 2896TIP3    H2 8653   3.289   6.195   4.450
 2897TIP3   OH2 8654   2.196   3.877   0.292
 2897TIP3    H1 8655   2.238   3.842   0.370
 2897TIP3    H2 8656   2.257   3.942   0.258
 2898TIP3   OH2 8657   3.256   0.880   2.161
 2898TIP3    H1 8658   3.240   0.864   2.254
 2898TIP3    H2 8659   3.351   0.886   2.153
 2899TIP3   OH2 8660   6.355   1.738   4.756
 2899TIP3    H1 8661   6.275   1.791   4.761
 2899TIP3    H2 8662   6.423   1.793   4.795
 2900TIP3   OH2 8663   5.052   6.205   5.037
 2900TIP3    H1 8664   5.050   6.295   5.071
 2900TIP3    H2 8665   5.009   6.210   4.952
 2901TIP3   OH2 8666   2.259   5.422   2.361
 2901TIP3    H1 8667   2.322   5.423   2.289
 2901TIP3    H2 8668   2.286   5.495   2.417
 2902TIP3   OH2 8669   5.126   4.375   4.568
 2902TIP3    H1 8670   5.141   4.410   4.480
 2902TIP3    H2 8671   5.209   4.390   4.614
 2903TIP3   OH2 8672   7.165   0.870   3.437
 2903TIP3    H1 8673   7.189   0.780   3.461
 2903TIP3    H2 8674   7.167   0.919   3.519
 2904TIP3   OH2 8675   4.967   5.137   1.503
 2904TIP3    H1 8676   4.908   5.192   1.554
 2904TIP3    H2 8677   4.910   5.082   1.450
 2905TIP3   OH2 8678   1.363   6.336   0.403
 2905TIP3    H1 8679   1.386   6.314   0.313
 2905TIP3    H2 8680   1.441   6.314   0.454
 2906TIP3   OH2 8681   5.850   3.150   1.680
 2906TIP3    H1 8682   5.938   3.114   1.666
 2906TIP3    H2 8683   5.864   3.244   1.694
 2907TIP3   OH2 8684   1.026   0.372   4.193
 2907TIP3    H1 8685   0.974   0.340   4.119
 2907TIP3    H2 8686   1.063   0.293   4.232
 2908TIP3   OH2 8687   3.029   3.411   3.611
 2908TIP3    H1 8688   3.055   3.502   3.599
 2908TIP3    H2 8689   3.104   3.360   3.580
 2909TIP3   OH2 8690   3.027   6.766   0.887
 2909TIP3    H1 8691   3.043   6.840   0.945
 2909TIP3    H2 8692   3.113   6.744   0.852
 2910TIP3   OH2 8693   4.211   5.962   5.150
 2910TIP3    H1 8694   4.121   5.961   5.118
 2910TIP3    H2 8695   4.261   5.917   5.081
 2911TIP3   OH2 8696   6.425   6.341   2.601
 2911TIP3    H1 8697   6.514   6.365   2.628
 2911TIP3    H2 8698   6.427   6.246   2.595
 2912TIP3   OH2 8699   6.122   1.860   1.957
 2912TIP3    H1 8700   6.195   1.803   1.981
 2912TIP3    H2 8701   6.161   1.947   1.953
 2913TIP3   OH2 8702   4.168   6.591   4.985
 2913TIP3    H1 8703   4.182   6.594   4.890
 2913TIP3    H2 8704   4.224   6.519   5.014
 2914TIP3   OH2 8705   2.743   3.936   0.205
 2914TIP3    H1 8706   2.832   3.951   0.236
 2914TIP3    H2 8707   2.724   3.845   0.229
 2915TIP3   OH2 8708   6.327   2.814   1.506
 2915TIP3    H1 8709   6.411   2.782   1.474
 2915TIP3    H2 8710   6.325   2.907   1.482
 2916TIP3   OH2 8711   5.726   4.128   5.586
 2916TIP3    H1 8712   5.758   4.065   5.651
 2916TIP3    H2 8713   5.780   4.206   5.601
 2917TIP3   OH2 8714   7.101   5.473   5.279
 2917TIP3    H1 8715   7.144   5.440   5.359
 2917TIP3    H2 8716   7.028   5.413   5.266
 2918TIP3   OH2 8717   0.326   5.128   4.100
 2918TIP3    H1 8718   0.249   5.152   4.150
 2918TIP3    H2 8719   0.400   5.160   4.153
 2919TIP3   OH2 8720   0.507   0.057   3.613
 2919TIP3    H1 8721   0.506  -0.029   3.655
 2919TIP3    H2 8722   0.532   0.117   3.684
 2920TIP3   OH2 8723   1.429   2.712   4.986
 2920TIP3    H1 8724   1.448   2.681   4.898
 2920TIP3    H2 8725   1.344   2.674   5.008
 2921TIP3   OH2 8726   2.804   5.861   0.950
 2921TIP3    H1 8727   2.749   5.895   1.020
 2921TIP3    H2 8728   2.744   5.843   0.878
 2922TIP3   OH2 8729   5.296   1.837   2.351
 2922TIP3    H1 8730   5.308   1.742   2.354
 2922TIP3    H2 8731   5.332   1.868   2.435
 2923TIP3   OH2 8732   6.486   5.062   1.733
 2923TIP3    H1 8733   6.393   5.083   1.744
 2923TIP3    H2 8734   6.498   5.055   1.638
 2924TIP3   OH2 8735   4.852   6.506   0.861
 2924TIP3    H1 8736   4.931   6.558   0.845
 2924TIP3    H2 8737   4.838   6.459   0.779
 2925TIP3   OH2 8738   1.344   6.529   2.103
 2925TIP3    H1 8739   1.254   6.504   2.083
 2925TIP3    H2 8740   1.361   6.493   2.190
 2926TIP3   OH2 8741   5.252   5.666   4.891
 2926TIP3    H1 8742   5.306   5.720   4.948
 2926TIP3    H2 8743   5.252   5.711   4.806
 2927TIP3   OH2 8744   2.789   3.520   3.466
 2927TIP3    H1 8745   2.730   3.535   3.540
 2927TIP3    H2 8746   2.731   3.496   3.394
 2928TIP3   OH2 8747   5.618   4.831   1.365
 2928TIP3    H1 8748   5.526   4.809   1.354
 2928TIP3    H2 8749   5.618   4.894   1.437
 2929TIP3   OH2 8750   1.346   0.229   5.345
 2929TIP3    H1 8751   1.310   0.165   5.406
 2929TIP3    H2 8752   1.269   0.274   5.310
 2930TIP3   OH2 8753   6.097   5.525   5.740
 2930TIP3    H1 8754   6.079   5.517   5.646
 2930TIP3    H2 8755   6.025   5.477   5.781
 2931TIP3   OH2 8756   1.367   1.817   5.756
 2931TIP3    H1 8757   1.354   1.756   5.683
 2931TIP3    H2 8758   1.281   1.855   5.771
 2932TIP3   OH2 8759   3.321   1.482   3.034
 2932TIP3    H1 8760   3.284   1.413   2.979
 2932TIP3    H2 8761   3.286   1.563   2.997
 2933TIP3   OH2 8762   2.336   5.583   1.678
 2933TIP3    H1 8763   2.397   5.657   1.682
 2933TIP3    H2 8764   2.250   5.623   1.671
 2934TIP3   OH2 8765   6.035   1.448   3.148
 2934TIP3    H1 8766   6.044   1.385   3.077
 2934TIP3    H2 8767   6.070   1.404   3.225
 2935TIP3   OH2 8768   2.886   3.310   5.799
 2935TIP3    H1 8769   2.870   3.402   5.820
 2935TIP3    H2 8770   2.981   3.304   5.787
 2936TIP3   OH2 8771   2.427   0.840   4.292
 2936TIP3    H1 8772   2.500   0.848   4.230
 2936TIP3    H2 8773   2.368   0.777   4.250
 2937TIP3   OH2 8774   0.491   1.195   3.290
 2937TIP3    H1 8775   0.417   1.250   3.316
 2937TIP3    H2 8776   0.504   1.214   3.197
 2938TIP3   OH2 8777   3.124   2.130   3.542
 2938TIP3    H1 8778   3.034   2.098   3.530
 2938TIP3    H2 8779   3.157   2.143   3.453
 2939TIP3   OH2 8780   2.310   3.621   4.102
 2939TIP3    H1 8781   2.403   3.643   4.103
 2939TIP3    H2 8782   2.300   3.562   4.028
 2940TIP3   OH2 8783   2.688   1.101   0.669
 2940TIP3    H1 8784   2.644   1.104   0.585
 2940TIP3    H2 8785   2.733   1.016   0.669
 2941TIP3   OH2 8786   5.134   2.452   5.564
 2941TIP3    H1 8787   5.162   2.433   5.654
 2941TIP3    H2 8788   5.205   2.418   5.510
 2942TIP3   OH2 8789   1.320   5.710   0.500
 2942TIP3    H1 8790   1.310   5.618   0.523
 2942TIP3    H2 8791   1.414   5.723   0.493
 2943TIP3   OH2 8792   2.495   3.994   4.285
 2943TIP3    H1 8793   2.473   4.081   4.318
 2943TIP3    H2 8794   2.581   3.975   4.322
 2944TIP3   OH2 8795   5.818   4.120   5.317
 2944TIP3    H1 8796   5.909   4.146   5.328
 2944TIP3    H2 8797   5.780   4.127   5.405
 2945TIP3   OH2 8798   4.018   2.632   5.798
 2945TIP3    H1 8799   3.975   2.660   5.878
 2945TIP3    H2 8800   4.022   2.711   5.744
 2946TIP3   OH2 8801   5.440   1.897   4.370
 2946TIP3    H1 8802   5.457   1.982   4.412
 2946TIP3    H2 8803   5.467   1.910   4.279
 2947TIP3   OH2 8804   0.619   3.814   3.374
 2947TIP3    H1 8805   0.565   3.847   3.446
 2947TIP3    H2 8806   0.691   3.878   3.368
 2948TIP3   OH2 8807   3.706   0.187   4.810
 2948TIP3    H1 8808   3.674   0.133   4.738
 2948TIP3    H2 8809   3.631   0.193   4.870
 2949TIP3   OH2 8810   5.815   5.153   0.825
 2949TIP3    H1 8811   5.726   5.118   0.827
 2949TIP3    H2 8812   5.871   5.079   0.847
 2950TIP3   OH2 8813   3.466   2.179   3.881
 2950TIP3    H1 8814   3.386   2.211   3.839
 2950TIP3    H2 8815   3.435   2.129   3.956
 2951TIP3   OH2 8816   0.737   5.081   2.659
 2951TIP3    H1 8817   0.740   5.009   2.722
 2951TIP3    H2 8818   0.817   5.131   2.676
 2952TIP3   OH2 8819   2.670   0.362   2.894
 2952TIP3    H1 8820   2.750   0.322   2.861
 2952TIP3    H2 8821   2.605   0.292   2.890
 2953TIP3   OH2 8822   2.624   0.422   2.325
 2953TIP3    H1 8823   2.706   0.375   2.341
 2953TIP3    H2 8824   2.580   0.372   2.257
 2954TIP3   OH2 8825   0.785   5.540   2.237
 2954TIP3    H1 8826   0.758   5.624   2.201
 2954TIP3    H2 8827   0.874   5.528   2.205
 2955TIP3   OH2 8828   5.924   2.706   4.128
 2955TIP3    H1 8829   5.842   2.688   4.174
 2955TIP3    H2 8830   5.983   2.635   4.156
 2956TIP3   OH2 8831   2.702   3.452   1.333
 2956TIP3    H1 8832   2.681   3.536   1.292
 2956TIP3    H2 8833   2.790   3.432   1.303
 2957TIP3   OH2 8834   2.238   1.949   1.453
 2957TIP3    H1 8835   2.159   1.995   1.425
 2957TIP3    H2 8836   2.217   1.916   1.540
 2958TIP3   OH2 8837   5.795   1.446   0.588
 2958TIP3    H1 8838   5.766   1.457   0.679
 2958TIP3    H2 8839   5.715   1.460   0.536
 2959TIP3   OH2 8840   3.854   6.832   4.421
 2959TIP3    H1 8841   3.815   6.920   4.420
 2959TIP3    H2 8842   3.812   6.786   4.349
 2960TIP3   OH2 8843   5.325   4.936   1.948
 2960TIP3    H1 8844   5.257   4.987   1.904
 2960TIP3    H2 8845   5.391   5.001   1.973
 2961TIP3   OH2 8846   6.826   1.546   2.164
 2961TIP3    H1 8847   6.818   1.603   2.087
 2961TIP3    H2 8848   6.900   1.582   2.213
 2962TIP3   OH2 8849   6.239   1.439   0.525
 2962TIP3    H1 8850   6.155   1.466   0.487
 2962TIP3    H2 8851   6.298   1.512   0.505
 2963TIP3   OH2 8852   4.766   3.845   3.866
 2963TIP3    H1 8853   4.671   3.846   3.873
 2963TIP3    H2 8854   4.787   3.760   3.827
 2964TIP3   OH2 8855   3.524   1.287   5.356
 2964TIP3    H1 8856   3.533   1.351   5.427
 2964TIP3    H2 8857   3.562   1.207   5.391
 2965TIP3   OH2 8858   3.579   1.147   2.741
 2965TIP3    H1 8859   3.523   1.204   2.688
 2965TIP3    H2 8860   3.533   1.139   2.825
 2966TIP3   OH2 8861   0.773   1.547   2.020
 2966TIP3    H1 8862   0.757   1.562   1.926
 2966TIP3    H2 8863   0.831   1.471   2.023
 2967TIP3   OH2 8864   5.287   0.370   5.070
 2967TIP3    H1 8865   5.362   0.422   5.099
 2967TIP3    H2 8866   5.260   0.321   5.148
 2968TIP3   OH2 8867   3.263   3.778   3.004
 2968TIP3    H1 8868   3.334   3.764   2.941
 2968TIP3    H2 8869   3.260   3.872   3.016
 2969TIP3   OH2 8870   6.260   1.533   4.002
 2969TIP3    H1 8871   6.246   1.612   4.053
 2969TIP3    H2 8872   6.198   1.540   3.929
 2970TIP3   OH2 8873   0.806   4.354   3.229
 2970TIP3    H1 8874   0.856   4.328   3.306
 2970TIP3    H2 8875   0.873   4.368   3.161
 2971TIP3   OH2 8876   7.134   5.520   0.354
 2971TIP3    H1 8877   7.153   5.454   0.422
 2971TIP3    H2 8878   7.051   5.559   0.382
 2972TIP3   OH2 8879   1.879   6.441   2.765
 2972TIP3    H1 8880   1.845   6.430   2.853
 2972TIP3    H2 8881   1.873   6.535   2.748
 2973TIP3   OH2 8882   1.056   2.363   4.421
 2973TIP3    H1 8883   1.083   2.393   4.335
 2973TIP3    H2 8884   1.086   2.432   4.481
 2974TIP3   OH2 8885   3.938   2.042   3.381
 2974TIP3    H1 8886   3.846   2.057   3.405
 2974TIP3    H2 8887   3.974   2.130   3.368
 2975TIP3   OH2 8888   5.420   0.675   0.342
 2975TIP3    H1 8889   5.369   0.742   0.388
 2975TIP3    H2 8890   5.442   0.611   0.410
 2976TIP3   OH2 8891   1.743   4.844   1.011
 2976TIP3    H1 8892   1.794   4.900   1.070
 2976TIP3    H2 8893   1.660   4.890   1.001
 2977TIP3   OH2 8894   2.262   5.181   4.123
 2977TIP3    H1 8895   2.235   5.158   4.212
 2977TIP3    H2 8896   2.201   5.133   4.067
 2978TIP3   OH2 8897   6.431   6.330   0.891
 2978TIP3    H1 8898   6.367   6.281   0.839
 2978TIP3    H2 8899   6.385   6.351   0.972
 2979TIP3   OH2 8900   0.473   5.178   2.443
 2979TIP3    H1 8901   0.422   5.104   2.475
 2979TIP3    H2 8902   0.558   5.170   2.485
 2980TIP3   OH2 8903   6.740   3.594   3.036
 2980TIP3    H1 8904   6.697   3.525   2.985
 2980TIP3    H2 8905   6.668   3.649   3.066
 2981TIP3   OH2 8906   6.878   5.367   4.402
 2981TIP3    H1 8907   6.834   5.415   4.331
 2981TIP3    H2 8908   6.840   5.403   4.482
 2982TIP3   OH2 8909   6.978   6.520   4.887
 2982TIP3    H1 8910   6.930   6.445   4.924
 2982TIP3    H2 8911   6.951   6.522   4.795
 2983TIP3   OH2 8912   0.423   0.962   1.950
 2983TIP3    H1 8913   0.344   0.997   1.991
 2983TIP3    H2 8914   0.493   1.018   1.983
 2984TIP3   OH2 8915   4.710   4.951   3.864
 2984TIP3    H1 8916   4.788   5.006   3.861
 2984TIP3    H2 8917   4.717   4.895   3.786
 2985TIP3   OH2 8918   4.942   5.351   0.586
 2985TIP3    H1 8919   5.036   5.361   0.571
 2985TIP3    H2 8920   4.932   5.262   0.620
 2986TIP3   OH2 8921   0.357   1.098   0.248
 2986TIP3    H1 8922   0.331   1.133   0.163
 2986TIP3    H2 8923   0.301   1.144   0.311
 2987TIP3   OH2 8924   6.356   0.087   2.937
 2987TIP3    H1 8925   6.295   0.057   2.869
 2987TIP3    H2 8926   6.312   0.068   3.019
 2988TIP3   OH2 8927   3.439   2.389   5.254
 2988TIP3    H1 8928   3.477   2.354   5.335
 2988TIP3    H2 8929   3.442   2.316   5.192
 2989TIP3   OH2 8930   3.757   6.565   3.514
 2989TIP3    H1 8931   3.731   6.516   3.592
 2989TIP3    H2 8932   3.704   6.529   3.444
 2990TIP3   OH2 8933   2.526   1.570   2.410
 2990TIP3    H1 8934   2.615   1.569   2.375
 2990TIP3    H2 8935   2.521   1.492   2.465
 2991TIP3   OH2 8936   0.421   3.942   4.416
 2991TIP3    H1 8937   0.364   4.018   4.406
 2991TIP3    H2 8938   0.482   3.968   4.485
 2992TIP3   OH2 8939   0.061   5.087   5.218
 2992TIP3    H1 8940   0.039   5.162   5.273
 2992TIP3    H2 8941  -0.016   5.030   5.223
 2993TIP3   OH2 8942   5.191   2.484   3.350
 2993TIP3    H1 8943   5.175   2.576   3.330
 2993TIP3    H2 8944   5.175   2.438   3.267
 2994TIP3   OH2 8945   4.253   5.587   3.189
 2994TIP3    H1 8946   4.225   5.496   3.188
 2994TIP3    H2 8947   4.340   5.585   3.149
 2995TIP3   OH2 8948   2.066   1.899   4.275
 2995TIP3    H1 8949   1.998   1.944   4.325
 2995TIP3    H2 8950   2.030   1.812   4.258
 2996TIP3   OH2 8951   2.133   0.688   2.742
 2996TIP3    H1 8952   2.136   0.615   2.681
 2996TIP3    H2 8953   2.212   0.738   2.725
 2997TIP3   OH2 8954   2.985   4.957   5.169
 2997TIP3    H1 8955   3.070   4.914   5.168
 2997TIP3    H2 8956   2.927   4.896   5.215
 2998TIP3   OH2 8957   2.639   1.195   2.111
 2998TIP3    H1 8958   2.545   1.182   2.117
 2998TIP3    H2 8959   2.676   1.142   2.181
 2999TIP3   OH2 8960   1.608   2.127   2.230
 2999TIP3    H1 8961   1.551   2.195   2.266
 2999TIP3    H2 8962   1.682   2.124   2.290
 3000TIP3   OH2 8963   4.344   4.081   3.829
 3000TIP3    H1 8964   4.345   4.162   3.880
 3000TIP3    H2 8965   4.267   4.033   3.862
 3001TIP3   OH2 8966   5.260   2.090   1.591
 3001TIP3    H1 8967   5.312   2.100   1.510
 3001TIP3    H2 8968   5.170   2.084   1.561
 3002TIP3   OH2 8969   3.051   1.552   3.133
 3002TIP3    H1 8970   3.045   1.501   3.214
 3002TIP3    H2 8971   3.145   1.569   3.122
 3003TIP3   OH2 8972   5.920   2.680   4.540
 3003TIP3    H1 8973   5.829   2.695   4.566
 3003TIP3    H2 8974   5.965   2.761   4.562
 3004TIP3   OH2 8975   2.633   3.498   3.687
 3004TIP3    H1 8976   2.586   3.581   3.696
 3004TIP3    H2 8977   2.670   3.483   3.774
 3005TIP3   OH2 8978   1.468   5.318   0.369
 3005TIP3    H1 8979   1.432   5.251   0.428
 3005TIP3    H2 8980   1.503   5.267   0.295
 3006TIP3   OH2 8981   4.967   5.066   3.275
 3006TIP3    H1 8982   4.922   4.997   3.324
 3006TIP3    H2 8983   4.956   5.144   3.329
 3007TIP3   OH2 8984   3.729   3.550   5.544
 3007TIP3    H1 8985   3.652   3.528   5.492
 3007TIP3    H2 8986   3.803   3.534   5.485
 3008TIP3   OH2 8987   0.082   1.941   2.073
 3008TIP3    H1 8988   0.082   1.968   2.165
 3008TIP3    H2 8989  -0.010   1.935   2.050
 3009TIP3   OH2 8990   0.224   6.461   1.018
 3009TIP3    H1 8991   0.273   6.484   1.097
 3009TIP3    H2 8992   0.283   6.483   0.945
 3010TIP3   OH2 8993   5.868   5.759   5.265
 3010TIP3    H1 8994   5.945   5.794   5.310
 3010TIP3    H2 8995   5.794   5.787   5.320
 3011TIP3   OH2 8996   3.876   6.726   1.441
 3011TIP3    H1 8997   3.905   6.648   1.487
 3011TIP3    H2 8998   3.806   6.696   1.383
 3012TIP3   OH2 8999   6.871   2.703   1.543
 3012TIP3    H1 9000   6.868   2.608   1.532
 3012TIP3    H2 9001   6.780   2.728   1.558
 3013TIP3   OH2 9002   3.589   0.671   5.490
 3013TIP3    H1 9003   3.660   0.640   5.546
 3013TIP3    H2 9004   3.526   0.709   5.550
 3014TIP3   OH2 9005   5.286   1.643   4.291
 3014TIP3    H1 9006   5.345   1.644   4.216
 3014TIP3    H2 9007   5.302   1.727   4.335
 3015TIP3   OH2 9008   3.782   0.421   4.708
 3015TIP3    H1 9009   3.824   0.450   4.789
 3015TIP3    H2 9010   3.742   0.337   4.731
 3016TIP3   OH2 9011   3.100   0.229   1.564
 3016TIP3    H1 9012   3.180   0.274   1.537
 3016TIP3    H2 9013   3.114   0.138   1.536
 3017TIP3   OH2 9014   1.518   5.662   0.174
 3017TIP3    H1 9015   1.425   5.641   0.172
 3017TIP3    H2 9016   1.561   5.586   0.134
 3018TIP3   OH2 9017   4.283   5.850   4.654
 3018TIP3    H1 9018   4.326   5.936   4.656
 3018TIP3    H2 9019   4.304   5.811   4.739
 3019TIP3   OH2 9020   6.146   5.309   3.925
 3019TIP3    H1 9021   6.060   5.336   3.894
 3019TIP3    H2 9022   6.132   5.279   4.014
 3020TIP3   OH2 9023   6.732   5.068   2.330
 3020TIP3    H1 9024   6.708   4.994   2.386
 3020TIP3    H2 9025   6.659   5.076   2.268
 3021TIP3   OH2 9026   0.802   5.607   4.425
 3021TIP3    H1 9027   0.752   5.675   4.470
 3021TIP3    H2 9028   0.842   5.556   4.495
 3022TIP3   OH2 9029   5.086   5.101   4.069
 3022TIP3    H1 9030   5.069   5.079   3.978
 3022TIP3    H2 9031   5.001   5.089   4.113
 3023TIP3   OH2 9032   0.077   5.187   4.575
 3023TIP3    H1 9033   0.095   5.281   4.581
 3023TIP3    H2 9034   0.023   5.178   4.497
 3024TIP3   OH2 9035   0.911   3.311   5.020
 3024TIP3    H1 9036   0.870   3.397   5.021
 3024TIP3    H2 9037   0.902   3.278   5.109
 3025TIP3   OH2 9038   5.799   1.024   4.956
 3025TIP3    H1 9039   5.774   0.987   4.872
 3025TIP3    H2 9040   5.848   0.954   4.999
 3026TIP3   OH2 9041   2.306   4.837   1.190
 3026TIP3    H1 9042   2.235   4.893   1.222
 3026TIP3    H2 9043   2.287   4.751   1.228
 3027TIP3   OH2 9044   6.236   0.948   0.787
 3027TIP3    H1 9045   6.150   0.989   0.794
 3027TIP3    H2 9046   6.242   0.891   0.864
 3028TIP3   OH2 9047   5.265   4.483   2.341
 3028TIP3    H1 9048   5.247   4.430   2.419
 3028TIP3    H2 9049   5.189   4.540   2.332
 3029TIP3   OH2 9050   4.062   3.703   2.792
 3029TIP3    H1 9051   4.123   3.630   2.799
 3029TIP3    H2 9052   4.093   3.753   2.716
 3030TIP3   OH2 9053   1.315   1.023   4.413
 3030TIP3    H1 9054   1.394   1.076   4.427
 3030TIP3    H2 9055   1.343   0.934   4.435
 3031TIP3   OH2 9056   2.763   1.525   4.297
 3031TIP3    H1 9057   2.834   1.559   4.352
 3031TIP3    H2 9058   2.702   1.599   4.288
 3032TIP3   OH2 9059   5.899   0.597   3.709
 3032TIP3    H1 9060   5.868   0.673   3.758
 3032TIP3    H2 9061   5.982   0.627   3.670
 3033TIP3   OH2 9062   1.772   5.880   3.216
 3033TIP3    H1 9063   1.755   5.968   3.249
 3033TIP3    H2 9064   1.716   5.873   3.139
 3034TIP3   OH2 9065   5.548   1.675   1.026
 3034TIP3    H1 9066   5.631   1.671   1.072
 3034TIP3    H2 9067   5.490   1.724   1.084
 3035TIP3   OH2 9068   3.069   6.493   3.790
 3035TIP3    H1 9069   3.026   6.489   3.704
 3035TIP3    H2 9070   3.056   6.405   3.826
 3036TIP3   OH2 9071   6.958   1.388   1.010
 3036TIP3    H1 9072   6.970   1.295   1.030
 3036TIP3    H2 9073   6.905   1.389   0.930
 3037TIP3   OH2 9074   3.372   5.836   3.059
 3037TIP3    H1 9075   3.285   5.870   3.040
 3037TIP3    H2 9076   3.390   5.865   3.149
 3038TIP3   OH2 9077   3.734   5.618   0.753
 3038TIP3    H1 9078   3.746   5.711   0.731
 3038TIP3    H2 9079   3.812   5.575   0.719
 3039TIP3   OH2 9080   1.996   3.960   5.392
 3039TIP3    H1 9081   1.909   3.980   5.426
 3039TIP3    H2 9082   2.009   4.022   5.320
 3040TIP3   OH2 9083   2.333   1.349   4.534
 3040TIP3    H1 9084   2.390   1.281   4.571
 3040TIP3    H2 9085   2.380   1.431   4.548
 3041TIP3   OH2 9086   2.177   0.411   4.571
 3041TIP3    H1 9087   2.264   0.388   4.605
 3041TIP3    H2 9088   2.160   0.346   4.503
 3042TIP3   OH2 9089   0.602   4.137   5.508
 3042TIP3    H1 9090   0.678   4.098   5.465
 3042TIP3    H2 9091   0.638   4.183   5.584
 3043TIP3   OH2 9092   6.867   6.082   3.246
 3043TIP3    H1 9093   6.918   6.121   3.175
 3043TIP3    H2 9094   6.920   6.097   3.324
 3044TIP3   OH2 9095   2.376   6.420   1.014
 3044TIP3    H1 9096   2.448   6.460   0.965
 3044TIP3    H2 9097   2.325   6.494   1.046
 3045TIP3   OH2 9098   6.170   2.967   2.649
 3045TIP3    H1 9099   6.205   3.037   2.593
 3045TIP3    H2 9100   6.180   2.887   2.597
 3046TIP3   OH2 9101   1.009   3.179   2.658
 3046TIP3    H1 9102   0.986   3.233   2.734
 3046TIP3    H2 9103   1.054   3.104   2.694
 3047TIP3   OH2 9104   0.869   4.745   1.088
 3047TIP3    H1 9105   0.852   4.820   1.145
 3047TIP3    H2 9106   0.783   4.720   1.054
 3048TIP3   OH2 9107   2.746   2.866   1.413
 3048TIP3    H1 9108   2.725   2.814   1.335
 3048TIP3    H2 9109   2.755   2.956   1.380
 3049TIP3   OH2 9110   2.220   3.805   1.591
 3049TIP3    H1 9111   2.307   3.843   1.601
 3049TIP3    H2 9112   2.218   3.733   1.654
 3050TIP3   OH2 9113   0.655   4.863   2.218
 3050TIP3    H1 9114   0.679   4.872   2.310
 3050TIP3    H2 9115   0.659   4.952   2.183
 3051TIP3   OH2 9116   2.690   3.823   2.377
 3051TIP3    H1 9117   2.659   3.896   2.322
 3051TIP3    H2 9118   2.609   3.780   2.406
 3052TIP3   OH2 9119   6.136   3.834   0.357
 3052TIP3    H1 9120   6.069   3.875   0.411
 3052TIP3    H2 9121   6.097   3.828   0.270
 3053TIP3   OH2 9122   4.931   4.231   1.351
 3053TIP3    H1 9123   4.964   4.218   1.262
 3053TIP3    H2 9124   4.977   4.309   1.383
 3054TIP3   OH2 9125   1.670   4.573   3.017
 3054TIP3    H1 9126   1.631   4.501   3.066
 3054TIP3    H2 9127   1.756   4.585   3.056
 3055TIP3   OH2 9128   6.013   4.376   1.128
 3055TIP3    H1 9129   6.064   4.397   1.206
 3055TIP3    H2 9130   6.079   4.351   1.063
 3056TIP3   OH2 9131   5.063   6.291   2.477
 3056TIP3    H1 9132   4.992   6.314   2.537
 3056TIP3    H2 9133   5.065   6.362   2.413
 3057TIP3   OH2 9134   6.763   1.856   5.686
 3057TIP3    H1 9135   6.858   1.863   5.696
 3057TIP3    H2 9136   6.735   1.808   5.764
 3058TIP3   OH2 9137   2.923   0.339   5.136
 3058TIP3    H1 9138   3.009   0.301   5.154
 3058TIP3    H2 9139   2.864   0.264   5.129
 3059TIP3   OH2 9140   4.380   0.617   5.744
 3059TIP3    H1 9141   4.416   0.681   5.805
 3059TIP3    H2 9142   4.444   0.546   5.743
 3060TIP3   OH2 9143   2.238   6.386   3.486
 3060TIP3    H1 9144   2.202   6.395   3.574
 3060TIP3    H2 9145   2.213   6.466   3.441
 3061TIP3   OH2 9146   6.340   4.344   1.516
 3061TIP3    H1 9147   6.397   4.289   1.568
 3061TIP3    H2 9148   6.273   4.375   1.578
 3062TIP3   OH2 9149   4.540   4.546   2.172
 3062TIP3    H1 9150   4.467   4.547   2.235
 3062TIP3    H2 9151   4.546   4.455   2.144
 3063TIP3   OH2 9152   4.563   0.403   4.012
 3063TIP3    H1 9153   4.586   0.388   4.103
 3063TIP3    H2 9154   4.621   0.346   3.962
 3064TIP3   OH2 9155   5.491   3.851   1.983
 3064TIP3    H1 9156   5.532   3.862   1.897
 3064TIP3    H2 9157   5.483   3.940   2.017
 3065TIP3   OH2 9158   1.503   3.574   5.409
 3065TIP3    H1 9159   1.468   3.522   5.481
 3065TIP3    H2 9160   1.442   3.561   5.336
 3066TIP3   OH2 9161   3.687   5.552   0.065
 3066TIP3    H1 9162   3.632   5.498   0.009
 3066TIP3    H2 9163   3.655   5.642   0.051
 3067TIP3   OH2 9164   0.263   3.222   5.120
 3067TIP3    H1 9165   0.330   3.192   5.058
 3067TIP3    H2 9166   0.214   3.288   5.071
 3068TIP3   OH2 9167   6.014   6.396   5.886
 3068TIP3    H1 9168   5.932   6.347   5.902
 3068TIP3    H2 9169   6.009   6.422   5.794
 3069TIP3   OH2 9170   5.456   4.977   0.176
 3069TIP3    H1 9171   5.391   4.956   0.243
 3069TIP3    H2 9172   5.436   4.917   0.104
 3070TIP3   OH2 9173   3.848   3.868   0.911
 3070TIP3    H1 9174   3.797   3.849   0.990
 3070TIP3    H2 9175   3.904   3.941   0.936
 3071TIP3   OH2 9176   1.334   6.096   2.586
 3071TIP3    H1 9177   1.240   6.084   2.575
 3071TIP3    H2 9178   1.361   6.143   2.506
 3072TIP3   OH2 9179   5.249   6.527   1.790
 3072TIP3    H1 9180   5.280   6.614   1.762
 3072TIP3    H2 9181   5.326   6.486   1.829
 3073TIP3   OH2 9182   5.024   2.271   4.139
 3073TIP3    H1 9183   5.104   2.278   4.087
 3073TIP3    H2 9184   5.046   2.210   4.209
 3074TIP3   OH2 9185   5.547   0.326   5.431
 3074TIP3    H1 9186   5.547   0.384   5.356
 3074TIP3    H2 9187   5.632   0.281   5.428
 3075TIP3   OH2 9188   4.802   3.098   2.549
 3075TIP3    H1 9189   4.824   3.037   2.619
 3075TIP3    H2 9190   4.811   3.185   2.589
 3076TIP3   OH2 9191   4.529   4.721   1.129
 3076TIP3    H1 9192   4.577   4.788   1.177
 3076TIP3    H2 9193   4.578   4.709   1.048
 3077TIP3   OH2 9194   3.330   6.054   1.639
 3077TIP3    H1 9195   3.416   6.060   1.680
 3077TIP3    H2 9196   3.273   6.109   1.693
 3078TIP3   OH2 9197   3.828   6.258   2.279
 3078TIP3    H1 9198   3.897   6.218   2.332
 3078TIP3    H2 9199   3.873   6.320   2.223
 3079TIP3   OH2 9200   1.104   2.041   4.044
 3079TIP3    H1 9201   1.045   2.055   4.118
 3079TIP3    H2 9202   1.191   2.057   4.080
 3080TIP3   OH2 9203   5.517   1.090   3.289
 3080TIP3    H1 9204   5.491   1.131   3.372
 3080TIP3    H2 9205   5.437   1.092   3.236
 3081TIP3   OH2 9206   0.580   2.225   2.540
 3081TIP3    H1 9207   0.632   2.148   2.563
 3081TIP3    H2 9208   0.645   2.293   2.521
 3082TIP3   OH2 9209   2.975   5.088   3.259
 3082TIP3    H1 9210   3.039   5.141   3.305
 3082TIP3    H2 9211   2.890   5.118   3.293
 3083TIP3   OH2 9212   0.895   3.672   5.209
 3083TIP3    H1 9213   0.989   3.653   5.202
 3083TIP3    H2 9214   0.874   3.654   5.301
 3084TIP3   OH2 9215   6.272   6.397   2.369
 3084TIP3    H1 9216   6.223   6.475   2.393
 3084TIP3    H2 9217   6.329   6.380   2.444
 3085TIP3   OH2 9218   5.321   0.425   0.484
 3085TIP3    H1 9219   5.252   0.450   0.423
 3085TIP3    H2 9220   5.358   0.345   0.447
 3086TIP3   OH2 9221   3.739   5.765   2.801
 3086TIP3    H1 9222   3.669   5.825   2.777
 3086TIP3    H2 9223   3.797   5.818   2.856
 3087TIP3   OH2 9224   0.707   4.037   0.123
 3087TIP3    H1 9225   0.772   4.095   0.163
 3087TIP3    H2 9226   0.756   3.984   0.062
 3088TIP3   OH2 9227   5.522   1.086   5.147
 3088TIP3    H1 9228   5.569   1.058   5.069
 3088TIP3    H2 9229   5.496   1.005   5.190
 3089TIP3   OH2 9230   3.336   2.760   4.190
 3089TIP3    H1 9231   3.379   2.762   4.276
 3089TIP3    H2 9232   3.275   2.686   4.196
 3090TIP3   OH2 9233   2.755   0.816   0.924
 3090TIP3    H1 9234   2.736   0.832   0.831
 3090TIP3    H2 9235   2.848   0.793   0.925
 3091TIP3   OH2 9236   5.164   1.177   2.007
 3091TIP3    H1 9237   5.216   1.241   2.057
 3091TIP3    H2 9238   5.105   1.139   2.071
 3092TIP3   OH2 9239   6.728   2.957   0.771
 3092TIP3    H1 9240   6.742   2.909   0.689
 3092TIP3    H2 9241   6.778   2.909   0.836
 3093TIP3   OH2 9242   4.817   0.003   3.169
 3093TIP3    H1 9243   4.779   0.089   3.185
 3093TIP3    H2 9244   4.878   0.017   3.097
 3094TIP3   OH2 9245   0.626   0.597   4.385
 3094TIP3    H1 9246   0.548   0.595   4.330
 3094TIP3    H2 9247   0.596   0.563   4.470
 3095TIP3   OH2 9248   4.175   6.584   2.105
 3095TIP3    H1 9249   4.192   6.630   2.023
 3095TIP3    H2 9250   4.164   6.655   2.169
 3096TIP3   OH2 9251   2.209   5.284   5.641
 3096TIP3    H1 9252   2.194   5.241   5.726
 3096TIP3    H2 9253   2.189   5.376   5.657
 3097TIP3   OH2 9254   1.784   3.278   0.249
 3097TIP3    H1 9255   1.693   3.296   0.275
 3097TIP3    H2 9256   1.780   3.275   0.153
 3098TIP3   OH2 9257   0.482   2.218   5.034
 3098TIP3    H1 9258   0.528   2.135   5.043
 3098TIP3    H2 9259   0.465   2.227   4.941
 3099TIP3   OH2 9260   2.172   1.606   3.807
 3099TIP3    H1 9261   2.149   1.696   3.832
 3099TIP3    H2 9262   2.107   1.582   3.741
 3100TIP3   OH2 9263   0.728   3.844   5.069
 3100TIP3    H1 9264   0.785   3.794   5.127
 3100TIP3    H2 9265   0.664   3.885   5.128
 3101TIP3   OH2 9266   3.668   6.033   4.289
 3101TIP3    H1 9267   3.750   6.037   4.239
 3101TIP3    H2 9268   3.672   5.948   4.334
 3102TIP3   OH2 9269   2.010   0.899   1.698
 3102TIP3    H1 9270   1.964   0.831   1.747
 3102TIP3    H2 9271   1.988   0.882   1.607
 3103TIP3   OH2 9272   1.473   1.986   1.079
 3103TIP3    H1 9273   1.426   1.910   1.046
 3103TIP3    H2 9274   1.445   2.058   1.022
 3104TIP3   OH2 9275   0.259   1.528   4.101
 3104TIP3    H1 9276   0.235   1.443   4.063
 3104TIP3    H2 9277   0.249   1.590   4.029
 3105TIP3   OH2 9278   1.018   5.013   4.856
 3105TIP3    H1 9279   0.929   5.028   4.826
 3105TIP3    H2 9280   1.016   4.926   4.897
 3106TIP3   OH2 9281   1.189   1.491   3.309
 3106TIP3    H1 9282   1.113   1.481   3.252
 3106TIP3    H2 9283   1.220   1.401   3.324
 3107TIP3   OH2 9284   1.462   6.447   1.297
 3107TIP3    H1 9285   1.496   6.411   1.215
 3107TIP3    H2 9286   1.387   6.393   1.318
 3108TIP3   OH2 9287   3.534   4.239   1.973
 3108TIP3    H1 9288   3.607   4.298   1.995
 3108TIP3    H2 9289   3.456   4.293   1.983
 3109TIP3   OH2 9290   6.224   6.525   0.439
 3109TIP3    H1 9291   6.135   6.551   0.461
 3109TIP3    H2 9292   6.268   6.517   0.524
 3110TIP3   OH2 9293   4.001   5.168   4.506
 3110TIP3    H1 9294   4.012   5.242   4.566
 3110TIP3    H2 9295   3.946   5.202   4.436
 3111TIP3   OH2 9296   3.557   2.058   0.279
 3111TIP3    H1 9297   3.630   1.998   0.293
 3111TIP3    H2 9298   3.583   2.138   0.324
 3112TIP3   OH2 9299   0.113   3.227   1.133
 3112TIP3    H1 9300   0.167   3.201   1.059
 3112TIP3    H2 9301   0.175   3.239   1.205
 3113TIP3   OH2 9302  -0.015   0.381   0.189
 3113TIP3    H1 9303  -0.079   0.451   0.180
 3113TIP3    H2 9304  -0.062   0.301   0.165
 3114TIP3   OH2 9305   5.516   2.017   4.136
 3114TIP3    H1 9306   5.540   1.955   4.068
 3114TIP3    H2 9307   5.592   2.074   4.146
 3115TIP3   OH2 9308   3.051   5.034   4.926
 3115TIP3    H1 9309   3.042   5.023   5.020
 3115TIP3    H2 9310   3.111   5.107   4.916
 3116TIP3   OH2 9311   5.948   1.071   1.294
 3116TIP3    H1 9312   5.957   0.976   1.284
 3116TIP3    H2 9313   5.863   1.091   1.256
 3117TIP3   OH2 9314   5.704   0.495   0.997
 3117TIP3    H1 9315   5.787   0.499   0.948
 3117TIP3    H2 9316   5.663   0.580   0.981
 3118TIP3   OH2 9317   1.524   2.503   4.477
 3118TIP3    H1 9318   1.552   2.482   4.388
 3118TIP3    H2 9319   1.489   2.420   4.511
 3119TIP3   OH2 9320   6.691   1.752   3.412
 3119TIP3    H1 9321   6.687   1.657   3.401
 3119TIP3    H2 9322   6.600   1.778   3.424
 3120TIP3   OH2 9323   4.825   5.240   1.948
 3120TIP3    H1 9324   4.909   5.285   1.961
 3120TIP3    H2 9325   4.813   5.188   2.028
 3121TIP3   OH2 9326   6.055   3.173   5.828
 3121TIP3    H1 9327   5.980   3.223   5.859
 3121TIP3    H2 9328   6.017   3.097   5.784
 3122TIP3   OH2 9329   3.427   4.165   2.369
 3122TIP3    H1 9330   3.359   4.167   2.436
 3122TIP3    H2 9331   3.407   4.241   2.314
 3123TIP3   OH2 9332   0.339   1.538   5.312
 3123TIP3    H1 9333   0.328   1.446   5.334
 3123TIP3    H2 9334   0.288   1.549   5.231
 3124TIP3   OH2 9335   1.140   0.781   2.807
 3124TIP3    H1 9336   1.197   0.852   2.780
 3124TIP3    H2 9337   1.189   0.734   2.874
 3125TIP3   OH2 9338   1.009   4.737   4.941
 3125TIP3    H1 9339   0.918   4.707   4.948
 3125TIP3    H2 9340   1.060   4.656   4.934
 3126TIP3   OH2 9341   6.600   0.593   3.683
 3126TIP3    H1 9342   6.684   0.547   3.676
 3126TIP3    H2 9343   6.570   0.600   3.592
 3127TIP3   OH2 9344   4.060   6.608   1.623
 3127TIP3    H1 9345   4.149   6.577   1.603
 3127TIP3    H2 9346   4.066   6.703   1.616
 3128TIP3   OH2 9347   0.883   3.615   4.460
 3128TIP3    H1 9348   0.823   3.561   4.409
 3128TIP3    H2 9349   0.860   3.705   4.438
 3129TIP3   OH2 9350   4.851   4.831   0.072
 3129TIP3    H1 9351   4.933   4.797   0.034
 3129TIP3    H2 9352   4.848   4.922   0.043
 3130TIP3   OH2 9353   2.173   2.949   3.856
 3130TIP3    H1 9354   2.173   3.039   3.825
 3130TIP3    H2 9355   2.179   2.956   3.951
 3131TIP3   OH2 9356   3.416   5.879   3.317
 3131TIP3    H1 9357   3.396   5.972   3.306
 3131TIP3    H2 9358   3.512   5.875   3.318
 3132TIP3   OH2 9359   4.164   2.207   3.164
 3132TIP3    H1 9360   4.223   2.233   3.234
 3132TIP3    H2 9361   4.215   2.217   3.084
 3133TIP3   OH2 9362   2.896   5.132   0.207
 3133TIP3    H1 9363   2.983   5.163   0.231
 3133TIP3    H2 9364   2.847   5.132   0.289
 3134TIP3   OH2 9365   0.121   0.225   4.333
 3134TIP3    H1 9366   0.208   0.248   4.300
 3134TIP3    H2 9367   0.134   0.142   4.379
 3135TIP3   OH2 9368   2.083   2.832   0.968
 3135TIP3    H1 9369   2.086   2.887   0.890
 3135TIP3    H2 9370   2.004   2.779   0.958
 3136TIP3   OH2 9371   3.869   1.734   5.260
 3136TIP3    H1 9372   3.811   1.758   5.187
 3136TIP3    H2 9373   3.841   1.646   5.285
 3137TIP3   OH2 9374   2.625   6.681   2.733
 3137TIP3    H1 9375   2.626   6.586   2.724
 3137TIP3    H2 9376   2.608   6.713   2.645
 3138TIP3   OH2 9377   7.065   5.621   2.443
 3138TIP3    H1 9378   7.143   5.674   2.458
 3138TIP3    H2 9379   7.094   5.551   2.384
 3139TIP3   OH2 9380   0.136   4.580   4.921
 3139TIP3    H1 9381   0.080   4.658   4.930
 3139TIP3    H2 9382   0.146   4.548   5.010
 3140TIP3   OH2 9383   3.126   5.535   3.208
 3140TIP3    H1 9384   3.052   5.481   3.239
 3140TIP3    H2 9385   3.168   5.481   3.141
 3141TIP3   OH2 9386   7.206   2.332   2.011
 3141TIP3    H1 9387   7.137   2.336   1.944
 3141TIP3    H2 9388   7.267   2.402   1.986
 3142TIP3   OH2 9389   3.418   4.159   4.571
 3142TIP3    H1 9390   3.449   4.071   4.590
 3142TIP3    H2 9391   3.406   4.161   4.476
 3143TIP3   OH2 9392   0.556   0.553   2.722
 3143TIP3    H1 9393   0.630   0.552   2.782
 3143TIP3    H2 9394   0.496   0.619   2.758
 3144TIP3   OH2 9395   1.210   0.664   4.288
 3144TIP3    H1 9396   1.194   0.742   4.235
 3144TIP3    H2 9397   1.124   0.640   4.323
 3145TIP3   OH2 9398   0.571   0.295   2.030
 3145TIP3    H1 9399   0.644   0.308   1.969
 3145TIP3    H2 9400   0.594   0.348   2.106
 3146TIP3   OH2 9401   1.802   6.788   0.199
 3146TIP3    H1 9402   1.772   6.808   0.110
 3146TIP3    H2 9403   1.722   6.788   0.252
 3147TIP3   OH2 9404   6.919   2.817   3.379
 3147TIP3    H1 9405   6.985   2.878   3.347
 3147TIP3    H2 9406   6.964   2.767   3.447
 3148TIP3   OH2 9407   1.841   4.868   3.939
 3148TIP3    H1 9408   1.760   4.889   3.986
 3148TIP3    H2 9409   1.890   4.811   3.998
 3149TIP3   OH2 9410   4.209   3.914   1.576
 3149TIP3    H1 9411   4.170   3.952   1.498
 3149TIP3    H2 9412   4.167   3.828   1.584
 3150TIP3   OH2 9413   6.023   2.787   1.540
 3150TIP3    H1 9414   5.999   2.796   1.632
 3150TIP3    H2 9415   6.089   2.718   1.540
 3151TIP3   OH2 9416   6.429   6.712   5.861
 3151TIP3    H1 9417   6.363   6.726   5.928
 3151TIP3    H2 9418   6.395   6.755   5.783
 3152TIP3   OH2 9419   4.424   4.050   3.219
 3152TIP3    H1 9420   4.409   4.092   3.304
 3152TIP3    H2 9421   4.490   4.105   3.177
 3153TIP3   OH2 9422   0.167   5.669   0.771
 3153TIP3    H1 9423   0.186   5.758   0.741
 3153TIP3    H2 9424   0.247   5.642   0.817
 3154TIP3   OH2 9425   0.209   3.557   1.291
 3154TIP3    H1 9426   0.246   3.570   1.204
 3154TIP3    H2 9427   0.186   3.645   1.321
 3155TIP3   OH2 9428   0.370   2.243   0.525
 3155TIP3    H1 9429   0.292   2.296   0.513
 3155TIP3    H2 9430   0.406   2.233   0.436
 3156TIP3   OH2 9431   6.495   4.811   2.871
 3156TIP3    H1 9432   6.510   4.894   2.916
 3156TIP3    H2 9433   6.457   4.754   2.938
 3157TIP3   OH2 9434   1.148  -0.032   1.124
 3157TIP3    H1 9435   1.199   0.005   1.052
 3157TIP3    H2 9436   1.205  -0.023   1.201
 3158TIP3   OH2 9437   5.985   5.491   2.979
 3158TIP3    H1 9438   6.056   5.453   2.928
 3158TIP3    H2 9439   5.958   5.421   3.039
 3159TIP3   OH2 9440   1.089   6.206   3.622
 3159TIP3    H1 9441   1.152   6.147   3.662
 3159TIP3    H2 9442   1.120   6.218   3.533
 3160TIP3   OH2 9443   6.911   5.022   1.523
 3160TIP3    H1 9444   6.960   5.003   1.604
 3160TIP3    H2 9445   6.978   5.023   1.455
 3161TIP3   OH2 9446   5.948   2.037   1.744
 3161TIP3    H1 9447   5.987   1.991   1.669
 3161TIP3    H2 9448   5.969   1.981   1.819
 3162TIP3   OH2 9449   2.789   5.152   5.614
 3162TIP3    H1 9450   2.777   5.057   5.612
 3162TIP3    H2 9451   2.701   5.187   5.624
 3163TIP3   OH2 9452   0.728   1.745   4.609
 3163TIP3    H1 9453   0.811   1.699   4.621
 3163TIP3    H2 9454   0.746   1.834   4.639
 3164TIP3   OH2 9455   1.183   3.176   4.689
 3164TIP3    H1 9456   1.095   3.211   4.677
 3164TIP3    H2 9457   1.178   3.087   4.656
 3165TIP3   OH2 9458   0.794   5.010   3.153
 3165TIP3    H1 9459   0.797   5.032   3.246
 3165TIP3    H2 9460   0.733   5.073   3.115
 3166TIP3   OH2 9461   2.659   1.155   1.844
 3166TIP3    H1 9462   2.687   1.181   1.932
 3166TIP3    H2 9463   2.652   1.237   1.796
 3167TIP3   OH2 9464   3.652   3.130   1.852
 3167TIP3    H1 9465   3.582   3.152   1.914
 3167TIP3    H2 9466   3.731   3.168   1.889
 3168TIP3   OH2 9467   6.348   0.708   2.727
 3168TIP3    H1 9468   6.318   0.779   2.670
 3168TIP3    H2 9469   6.440   0.695   2.703
 3169TIP3   OH2 9470   0.117   5.391   4.862
 3169TIP3    H1 9471   0.078   5.464   4.911
 3169TIP3    H2 9472   0.044   5.330   4.848
 3170TIP3   OH2 9473   3.716   3.207   5.572
 3170TIP3    H1 9474   3.687   3.243   5.488
 3170TIP3    H2 9475   3.795   3.157   5.551
 3171TIP3   OH2 9476   6.827   3.425   1.795
 3171TIP3    H1 9477   6.902   3.378   1.831
 3171TIP3    H2 9478   6.753   3.364   1.805
 3172TIP3   OH2 9479   5.035   3.860   5.722
 3172TIP3    H1 9480   5.014   3.844   5.814
 3172TIP3    H2 9481   5.119   3.816   5.708
 3173TIP3   OH2 9482   3.559   5.920   0.113
 3173TIP3    H1 9483   3.636   5.950   0.065
 3173TIP3    H2 9484   3.505   5.998   0.121
 3174TIP3   OH2 9485   6.861   3.915   4.160
 3174TIP3    H1 9486   6.799   3.848   4.132
 3174TIP3    H2 9487   6.810   3.975   4.213
 3175TIP3   OH2 9488   6.683   5.182   0.189
 3175TIP3    H1 9489   6.715   5.116   0.251
 3175TIP3    H2 9490   6.612   5.226   0.236
 3176TIP3   OH2 9491   7.034   3.174   0.820
 3176TIP3    H1 9492   7.025   3.088   0.861
 3176TIP3    H2 9493   7.019   3.158   0.727
 3177TIP3   OH2 9494   0.456   6.003   4.149
 3177TIP3    H1 9495   0.448   5.920   4.195
 3177TIP3    H2 9496   0.547   6.031   4.164
 3178TIP3   OH2 9497   5.193   4.072   5.407
 3178TIP3    H1 9498   5.236   4.100   5.487
 3178TIP3    H2 9499   5.172   4.154   5.362
 3179TIP3   OH2 9500   0.834   1.157   4.197
 3179TIP3    H1 9501   0.906   1.171   4.135
 3179TIP3    H2 9502   0.832   1.062   4.209
 3180TIP3   OH2 9503   3.503   6.012   1.133
 3180TIP3    H1 9504   3.561   5.952   1.181
 3180TIP3    H2 9505   3.447   6.050   1.200
 3181TIP3   OH2 9506   2.407   5.891   4.560
 3181TIP3    H1 9507   2.488   5.937   4.584
 3181TIP3    H2 9508   2.360   5.954   4.505
 3182TIP3   OH2 9509   2.674   1.491   3.417
 3182TIP3    H1 9510   2.596   1.437   3.426
 3182TIP3    H2 9511   2.647   1.564   3.360
 3183TIP3   OH2 9512   6.878   0.662   4.414
 3183TIP3    H1 9513   6.900   0.580   4.459
 3183TIP3    H2 9514   6.784   0.655   4.398
 3184TIP3   OH2 9515   0.783   0.486   2.911
 3184TIP3    H1 9516   0.784   0.489   3.007
 3184TIP3    H2 9517   0.871   0.514   2.885
 3185TIP3   OH2 9518   4.515   3.105   0.502
 3185TIP3    H1 9519   4.600   3.123   0.544
 3185TIP3    H2 9520   4.467   3.055   0.568
 3186TIP3   OH2 9521   7.092   0.810   2.833
 3186TIP3    H1 9522   7.119   0.728   2.874
 3186TIP3    H2 9523   7.003   0.825   2.865
 3187TIP3   OH2 9524   2.581   4.928   2.715
 3187TIP3    H1 9525   2.502   4.927   2.768
 3187TIP3    H2 9526   2.652   4.909   2.777
 3188TIP3   OH2 9527   1.105   5.450   4.993
 3188TIP3    H1 9528   1.101   5.367   4.944
 3188TIP3    H2 9529   1.128   5.424   5.082
 3189TIP3   OH2 9530   3.216   5.855   5.570
 3189TIP3    H1 9531   3.179   5.776   5.531
 3189TIP3    H2 9532   3.225   5.916   5.497
 3190TIP3   OH2 9533   5.882   5.408   3.861
 3190TIP3    H1 9534   5.925   5.493   3.852
 3190TIP3    H2 9535   5.858   5.384   3.771
 3191TIP3   OH2 9536   5.531   6.016   0.838
 3191TIP3    H1 9537   5.488   6.098   0.814
 3191TIP3    H2 9538   5.622   6.040   0.854
 3192TIP3   OH2 9539   3.903   0.658   2.630
 3192TIP3    H1 9540   3.986   0.676   2.588
 3192TIP3    H2 9541   3.894   0.563   2.627
 3193TIP3   OH2 9542   3.678   3.292   4.620
 3193TIP3    H1 9543   3.603   3.234   4.634
 3193TIP3    H2 9544   3.695   3.330   4.706
 3194TIP3   OH2 9545   5.364   2.997   3.941
 3194TIP3    H1 9546   5.313   2.930   3.987
 3194TIP3    H2 9547   5.448   3.000   3.987
 3195TIP3   OH2 9548   5.328   3.451   0.794
 3195TIP3    H1 9549   5.253   3.491   0.749
 3195TIP3    H2 9550   5.347   3.372   0.743
 3196TIP3   OH2 9551   5.728   3.021   3.855
 3196TIP3    H1 9552   5.772   2.967   3.921
 3196TIP3    H2 9553   5.712   3.105   3.899
 3197TIP3   OH2 9554   5.281   3.412   1.075
 3197TIP3    H1 9555   5.351   3.403   1.140
 3197TIP3    H2 9556   5.325   3.440   0.995
 3198TIP3   OH2 9557   0.702   6.697   1.231
 3198TIP3    H1 9558   0.790   6.659   1.230
 3198TIP3    H2 9559   0.685   6.720   1.140
 3199TIP3   OH2 9560   0.979   3.124   0.836
 3199TIP3    H1 9561   0.889   3.105   0.811
 3199TIP3    H2 9562   1.032   3.082   0.769
 3200TIP3   OH2 9563   6.925   0.859   4.628
 3200TIP3    H1 9564   6.882   0.807   4.561
 3200TIP3    H2 9565   7.015   0.825   4.631
 3201TIP3   OH2 9566   1.767   5.773   0.087
 3201TIP3    H1 9567   1.790   5.711   0.018
 3201TIP3    H2 9568   1.682   5.743   0.119
 3202TIP3   OH2 9569   6.051   4.685   3.514
 3202TIP3    H1 9570   6.137   4.686   3.557
 3202TIP3    H2 9571   6.014   4.600   3.538
 3203TIP3   OH2 9572   6.411   3.152   5.459
 3203TIP3    H1 9573   6.383   3.209   5.388
 3203TIP3    H2 9574   6.335   3.145   5.516
 3204TIP3   OH2 9575   4.823   1.066   1.587
 3204TIP3    H1 9576   4.835   1.022   1.671
 3204TIP3    H2 9577   4.908   1.105   1.568
 3205TIP3   OH2 9578   3.769   4.561   4.714
 3205TIP3    H1 9579   3.787   4.538   4.805
 3205TIP3    H2 9580   3.706   4.495   4.685
 3206TIP3   OH2 9581   5.362   1.411   3.953
 3206TIP3    H1 9582   5.412   1.336   3.985
 3206TIP3    H2 9583   5.277   1.375   3.927
 3207TIP3   OH2 9584   4.250   4.088   0.039
 3207TIP3    H1 9585   4.239   4.032   0.116
 3207TIP3    H2 9586   4.210   4.172   0.064
 3208TIP3   OH2 9587   4.542   1.907   1.884
 3208TIP3    H1 9588   4.481   1.837   1.860
 3208TIP3    H2 9589   4.486   1.982   1.905
 3209TIP3   OH2 9590   4.913   5.202   5.588
 3209TIP3    H1 9591   4.979   5.226   5.653
 3209TIP3    H2 9592   4.950   5.124   5.545
 3210TIP3   OH2 9593   1.908   2.880   1.282
 3210TIP3    H1 9594   1.921   2.974   1.270
 3210TIP3    H2 9595   1.888   2.847   1.195
 3211TIP3   OH2 9596   1.569   3.936   0.404
 3211TIP3    H1 9597   1.619   3.907   0.481
 3211TIP3    H2 9598   1.637   3.957   0.340
 3212TIP3   OH2 9599   1.606   4.478   1.658
 3212TIP3    H1 9600   1.524   4.456   1.702
 3212TIP3    H2 9601   1.652   4.394   1.652
 3213TIP3   OH2 9602   0.198   1.872   4.039
 3213TIP3    H1 9603   0.227   1.956   4.003
 3213TIP3    H2 9604   0.215   1.809   3.970
 3214TIP3   OH2 9605   0.701   2.353   4.950
 3214TIP3    H1 9606   0.621   2.314   4.985
 3214TIP3    H2 9607   0.758   2.278   4.932
 3215TIP3   OH2 9608   0.974   5.454   0.103
 3215TIP3    H1 9609   0.890   5.431   0.063
 3215TIP3    H2 9610   0.979   5.401   0.182
 3216TIP3   OH2 9611   2.083   6.173   5.132
 3216TIP3    H1 9612   2.165   6.126   5.144
 3216TIP3    H2 9613   2.078   6.232   5.207
 3217TIP3   OH2 9614   2.861   2.354   1.590
 3217TIP3    H1 9615   2.896   2.303   1.516
 3217TIP3    H2 9616   2.770   2.373   1.565
 3218TIP3   OH2 9617   5.551   0.198   3.747
 3218TIP3    H1 9618   5.575   0.179   3.656
 3218TIP3    H2 9619   5.490   0.128   3.771
 3219TIP3   OH2 9620   0.834   6.351   3.919
 3219TIP3    H1 9621   0.742   6.343   3.893
 3219TIP3    H2 9622   0.832   6.403   3.999
 3220TIP3   OH2 9623   6.547   1.837   0.126
 3220TIP3    H1 9624   6.488   1.762   0.116
 3220TIP3    H2 9625   6.635   1.799   0.119
 3221TIP3   OH2 9626   3.126   1.212   3.828
 3221TIP3    H1 9627   3.197   1.198   3.766
 3221TIP3    H2 9628   3.051   1.238   3.773
 3222TIP3   OH2 9629   6.263   4.155   4.705
 3222TIP3    H1 9630   6.200   4.161   4.776
 3222TIP3    H2 9631   6.268   4.061   4.684
 3223TIP3   OH2 9632   4.626   0.726   4.815
 3223TIP3    H1 9633   4.667   0.802   4.855
 3223TIP3    H2 9634   4.589   0.677   4.889
 3224TIP3   OH2 9635   2.094   1.893   0.185
 3224TIP3    H1 9636   2.186   1.864   0.189
 3224TIP3    H2 9637   2.044   1.819   0.219
 3225TIP3   OH2 9638   0.382   2.491   3.463
 3225TIP3    H1 9639   0.308   2.534   3.504
 3225TIP3    H2 9640   0.412   2.427   3.528
 3226TIP3   OH2 9641   2.061   3.174   2.660
 3226TIP3    H1 9642   2.119   3.132   2.596
 3226TIP3    H2 9643   2.021   3.102   2.708
 3227TIP3   OH2 9644   1.303   0.042   3.679
 3227TIP3    H1 9645   1.284   0.062   3.587
 3227TIP3    H2 9646   1.358  -0.036   3.676
 3228TIP3   OH2 9647   3.072   0.899   4.284
 3228TIP3    H1 9648   3.102   0.826   4.231
 3228TIP3    H2 9649   3.062   0.863   4.372
 3229TIP3   OH2 9650   0.157   3.775   4.506
 3229TIP3    H1 9651   0.161   3.865   4.539
 3229TIP3    H2 9652   0.128   3.784   4.415
 3230TIP3   OH2 9653   4.019   3.716   0.170
 3230TIP3    H1 9654   4.002   3.750   0.082
 3230TIP3    H2 9655   3.933   3.691   0.203
 3231TIP3   OH2 9656   2.082   4.380   4.217
 3231TIP3    H1 9657   2.114   4.415   4.300
 3231TIP3    H2 9658   2.024   4.308   4.243
 3232TIP3   OH2 9659   6.886   0.987   5.878
 3232TIP3    H1 9660   6.959   1.047   5.893
 3232TIP3    H2 9661   6.845   1.019   5.798
 3233TIP3   OH2 9662   6.567   0.337   4.693
 3233TIP3    H1 9663   6.543   0.375   4.608
 3233TIP3    H2 9664   6.498   0.272   4.709
 3234TIP3   OH2 9665   6.210   5.324   2.818
 3234TIP3    H1 9666   6.204   5.229   2.830
 3234TIP3    H2 9667   6.164   5.341   2.736
 3235TIP3   OH2 9668   2.267   4.423   2.893
 3235TIP3    H1 9669   2.254   4.445   2.801
 3235TIP3    H2 9670   2.325   4.346   2.891
 3236TIP3   OH2 9671   7.017   3.490   3.310
 3236TIP3    H1 9672   7.044   3.399   3.302
 3236TIP3    H2 9673   6.921   3.486   3.313
 3237TIP3   OH2 9674   7.223   5.369   2.873
 3237TIP3    H1 9675   7.254   5.447   2.828
 3237TIP3    H2 9676   7.190   5.401   2.957
 3238TIP3   OH2 9677   1.763   5.370   2.237
 3238TIP3    H1 9678   1.756   5.452   2.285
 3238TIP3    H2 9679   1.857   5.353   2.232
 3239TIP3   OH2 9680   2.529   5.514   2.440
 3239TIP3    H1 9681   2.487   5.575   2.380
 3239TIP3    H2 9682   2.507   5.546   2.528
 3240TIP3   OH2 9683   1.556   1.629   4.062
 3240TIP3    H1 9684   1.599   1.607   3.980
 3240TIP3    H2 9685   1.509   1.549   4.087
 3241TIP3   OH2 9686   6.468   2.262   4.796
 3241TIP3    H1 9687   6.427   2.344   4.768
 3241TIP3    H2 9688   6.542   2.251   4.736
 3242TIP3   OH2 9689   0.754   0.796   1.651
 3242TIP3    H1 9690   0.679   0.811   1.709
 3242TIP3    H2 9691   0.728   0.722   1.597
 3243TIP3   OH2 9692   6.529   2.774   4.553
 3243TIP3    H1 9693   6.461   2.796   4.617
 3243TIP3    H2 9694   6.611   2.789   4.598
 3244TIP3   OH2 9695   0.957   4.703   0.684
 3244TIP3    H1 9696   0.873   4.674   0.648
 3244TIP3    H2 9697   0.960   4.797   0.662
 3245TIP3   OH2 9698   4.199   0.394   4.273
 3245TIP3    H1 9699   4.156   0.314   4.242
 3245TIP3    H2 9700   4.162   0.463   4.218
 3246TIP3   OH2 9701   4.727   3.071   3.344
 3246TIP3    H1 9702   4.703   3.043   3.432
 3246TIP3    H2 9703   4.727   3.167   3.349
 3247TIP3   OH2 9704   1.711   4.597   3.809
 3247TIP3    H1 9705   1.688   4.504   3.797
 3247TIP3    H2 9706   1.730   4.605   3.902
 3248TIP3   OH2 9707   0.554   6.348   3.910
 3248TIP3    H1 9708   0.477   6.341   3.854
 3248TIP3    H2 9709   0.519   6.354   3.999
 3249TIP3   OH2 9710   6.194   4.466   1.303
 3249TIP3    H1 9711   6.222   4.390   1.354
 3249TIP3    H2 9712   6.250   4.537   1.334
 3250TIP3   OH2 9713   0.757   3.135   2.563
 3250TIP3    H1 9714   0.706   3.198   2.614
 3250TIP3    H2 9715   0.848   3.155   2.585
 3251TIP3   OH2 9716   5.978   0.702   4.354
 3251TIP3    H1 9717   6.012   0.750   4.279
 3251TIP3    H2 9718   6.049   0.644   4.380
 3252TIP3   OH2 9719   2.675   5.048   1.292
 3252TIP3    H1 9720   2.678   5.136   1.253
 3252TIP3    H2 9721   2.744   5.049   1.357
 3253TIP3   OH2 9722   3.591   1.714   0.094
 3253TIP3    H1 9723   3.674   1.694   0.051
 3253TIP3    H2 9724   3.596   1.669   0.178
 3254TIP3   OH2 9725   7.091   0.308   0.455
 3254TIP3    H1 9726   7.102   0.401   0.471
 3254TIP3    H2 9727   7.045   0.302   0.372
 3255TIP3   OH2 9728   6.743   3.752   3.405
 3255TIP3    H1 9729   6.751   3.657   3.411
 3255TIP3    H2 9730   6.795   3.785   3.479
 3256TIP3   OH2 9731   2.066   1.096   4.523
 3256TIP3    H1 9732   2.077   1.182   4.482
 3256TIP3    H2 9733   2.155   1.067   4.540
 3257TIP3   OH2 9734   2.315   4.544   4.477
 3257TIP3    H1 9735   2.340   4.625   4.523
 3257TIP3    H2 9736   2.377   4.479   4.508
 3258TIP3   OH2 9737   5.042   5.686   5.094
 3258TIP3    H1 9738   5.089   5.683   5.011
 3258TIP3    H2 9739   4.950   5.689   5.070
 3259TIP3   OH2 9740   6.926   5.213   0.917
 3259TIP3    H1 9741   6.990   5.271   0.958
 3259TIP3    H2 9742   6.855   5.270   0.889
 3260TIP3   OH2 9743   0.875   0.703   1.267
 3260TIP3    H1 9744   0.932   0.656   1.206
 3260TIP3    H2 9745   0.831   0.769   1.214
 3261TIP3   OH2 9746   1.762   1.218   0.445
 3261TIP3    H1 9747   1.717   1.247   0.366
 3261TIP3    H2 9748   1.692   1.199   0.507
 3262TIP3   OH2 9749   2.909   0.516   0.666
 3262TIP3    H1 9750   2.852   0.592   0.653
 3262TIP3    H2 9751   2.900   0.466   0.585
 3263TIP3   OH2 9752   1.924   2.704   0.245
 3263TIP3    H1 9753   1.856   2.655   0.197
 3263TIP3    H2 9754   2.005   2.685   0.197
 3264TIP3   OH2 9755   2.647   6.312   4.871
 3264TIP3    H1 9756   2.717   6.369   4.840
 3264TIP3    H2 9757   2.597   6.366   4.932
 3265TIP3   OH2 9758   4.753   2.168   3.483
 3265TIP3    H1 9759   4.751   2.263   3.474
 3265TIP3    H2 9760   4.840   2.142   3.453
 3266TIP3   OH2 9761   4.239   6.182   3.892
 3266TIP3    H1 9762   4.266   6.168   3.802
 3266TIP3    H2 9763   4.147   6.155   3.894
 3267TIP3   OH2 9764   6.344   1.368   0.765
 3267TIP3    H1 9765   6.331   1.322   0.848
 3267TIP3    H2 9766   6.281   1.441   0.768
 3268TIP3   OH2 9767   0.283   1.699   3.842
 3268TIP3    H1 9768   0.377   1.690   3.860
 3268TIP3    H2 9769   0.255   1.612   3.813
 3269TIP3   OH2 9770   1.174   0.867   4.678
 3269TIP3    H1 9771   1.090   0.910   4.660
 3269TIP3    H2 9772   1.157   0.774   4.665
 3270TIP3   OH2 9773   2.950   5.495   5.055
 3270TIP3    H1 9774   2.921   5.407   5.082
 3270TIP3    H2 9775   2.884   5.524   4.992
 3271TIP3   OH2 9776   4.825   1.548   3.560
 3271TIP3    H1 9777   4.842   1.621   3.500
 3271TIP3    H2 9778   4.898   1.551   3.623
 3272TIP3   OH2 9779   4.035   1.321   3.773
 3272TIP3    H1 9780   4.119   1.290   3.739
 3272TIP3    H2 9781   3.970   1.273   3.721
 3273TIP3   OH2 9782   1.487   2.778   0.858
 3273TIP3    H1 9783   1.461   2.845   0.921
 3273TIP3    H2 9784   1.472   2.695   0.903
 3274TIP3   OH2 9785   0.386   6.218   2.359
 3274TIP3    H1 9786   0.466   6.194   2.406
 3274TIP3    H2 9787   0.413   6.220   2.267
 3275TIP3   OH2 9788   0.710   6.238   4.424
 3275TIP3    H1 9789   0.702   6.332   4.408
 3275TIP3    H2 9790   0.673   6.226   4.511
 3276TIP3   OH2 9791   0.431   0.723   0.003
 3276TIP3    H1 9792   0.488   0.740   0.078
 3276TIP3    H2 9793   0.342   0.723   0.040
 3277TIP3   OH2 9794   6.762   3.211   5.768
 3277TIP3    H1 9795   6.845   3.195   5.813
 3277TIP3    H2 9796   6.752   3.137   5.709
 3278TIP3   OH2 9797   3.750   5.720   1.040
 3278TIP3    H1 9798   3.821   5.781   1.063
 3278TIP3    H2 9799   3.786   5.633   1.060
 3279TIP3   OH2 9800   6.634   3.761   5.389
 3279TIP3    H1 9801   6.555   3.810   5.411
 3279TIP3    H2 9802   6.605   3.670   5.385
 3280TIP3   OH2 9803   3.855   5.357   2.717
 3280TIP3    H1 9804   3.823   5.417   2.650
 3280TIP3    H2 9805   3.950   5.361   2.710
 3281TIP3   OH2 9806   5.636   5.842   5.449
 3281TIP3    H1 9807   5.578   5.844   5.373
 3281TIP3    H2 9808   5.578   5.827   5.524
 3282TIP3   OH2 9809   5.813   3.733   1.858
 3282TIP3    H1 9810   5.868   3.811   1.869
 3282TIP3    H2 9811   5.746   3.760   1.795
 3283TIP3   OH2 9812   6.973   6.263   3.069
 3283TIP3    H1 9813   7.051   6.292   3.022
 3283TIP3    H2 9814   6.901   6.282   3.010
 3284TIP3   OH2 9815   3.887   5.929   2.958
 3284TIP3    H1 9816   3.864   5.906   3.048
 3284TIP3    H2 9817   3.969   5.978   2.966
 3285TIP3   OH2 9818   2.211   4.608   0.096
 3285TIP3    H1 9819   2.225   4.661   0.018
 3285TIP3    H2 9820   2.276   4.640   0.159
 3286TIP3   OH2 9821   0.837   4.422   0.231
 3286TIP3    H1 9822   0.857   4.349   0.289
 3286TIP3    H2 9823   0.878   4.399   0.148
 3287TIP3   OH2 9824   3.228   2.364   3.378
 3287TIP3    H1 9825   3.216   2.449   3.337
 3287TIP3    H2 9826   3.313   2.369   3.422
 3288TIP3   OH2 9827   7.116   3.288   3.574
 3288TIP3    H1 9828   7.056   3.234   3.522
 3288TIP3    H2 9829   7.060   3.326   3.642
 3289TIP3   OH2 9830   3.941   4.122   1.022
 3289TIP3    H1 9831   3.951   4.146   1.114
 3289TIP3    H2 9832   3.865   4.172   0.993
 3290TIP3   OH2 9833   2.581   5.761   3.927
 3290TIP3    H1 9834   2.569   5.844   3.881
 3290TIP3    H2 9835   2.624   5.704   3.863
 3291TIP3   OH2 9836   2.024   1.296   2.347
 3291TIP3    H1 9837   1.936   1.330   2.330
 3291TIP3    H2 9838   2.022   1.206   2.313
 3292TIP3   OH2 9839   2.576   5.189   1.743
 3292TIP3    H1 9840   2.503   5.198   1.806
 3292TIP3    H2 9841   2.643   5.142   1.792
 3293TIP3   OH2 9842   3.879   5.160   0.389
 3293TIP3    H1 9843   3.828   5.216   0.330
 3293TIP3    H2 9844   3.823   5.149   0.466
 3294TIP3   OH2 9845   3.454   1.744   2.235
 3294TIP3    H1 9846   3.415   1.683   2.173
 3294TIP3    H2 9847   3.548   1.739   2.218
 3295TIP3   OH2 9848   4.481   6.344   4.480
 3295TIP3    H1 9849   4.413   6.277   4.475
 3295TIP3    H2 9850   4.526   6.339   4.395
 3296TIP3   OH2 9851   0.652   4.985   1.904
 3296TIP3    H1 9852   0.650   4.987   1.809
 3296TIP3    H2 9853   0.595   5.057   1.931
 3297TIP3   OH2 9854   0.155   1.932   3.698
 3297TIP3    H1 9855   0.213   1.945   3.623
 3297TIP3    H2 9856   0.196   1.862   3.748
 3298TIP3   OH2 9857   5.627   2.450   5.808
 3298TIP3    H1 9858   5.659   2.411   5.889
 3298TIP3    H2 9859   5.693   2.428   5.742
 3299TIP3   OH2 9860   6.981   2.060   2.858
 3299TIP3    H1 9861   6.975   2.051   2.763
 3299TIP3    H2 9862   6.998   1.971   2.890
 3300TIP3   OH2 9863   1.667   0.127   4.215
 3300TIP3    H1 9864   1.733   0.090   4.157
 3300TIP3    H2 9865   1.713   0.196   4.263
 3301TIP3   OH2 9866   0.059   5.257   2.029
 3301TIP3    H1 9867   0.111   5.244   2.108
 3301TIP3    H2 9868   0.048   5.352   2.023
 3302TIP3   OH2 9869   2.854   2.710   2.237
 3302TIP3    H1 9870   2.855   2.618   2.210
 3302TIP3    H2 9871   2.807   2.709   2.321
 3303TIP3   OH2 9872   0.156   2.088   4.654
 3303TIP3    H1 9873   0.238   2.055   4.617
 3303TIP3    H2 9874   0.088   2.038   4.609
 3304TIP3   OH2 9875   6.398   1.699   1.325
 3304TIP3    H1 9876   6.380   1.610   1.355
 3304TIP3    H2 9877   6.476   1.692   1.272
 3305TIP3   OH2 9878   3.339   1.524   0.602
 3305TIP3    H1 9879   3.277   1.543   0.672
 3305TIP3    H2 9880   3.365   1.610   0.568
 3306TIP3   OH2 9881   0.657   6.478   3.228
 3306TIP3    H1 9882   0.576   6.510   3.187
 3306TIP3    H2 9883   0.674   6.538   3.300
 3307TIP3   OH2 9884   3.209   2.586   1.663
 3307TIP3    H1 9885   3.181   2.586   1.571
 3307TIP3    H2 9886   3.278   2.520   1.666
 3308TIP3   OH2 9887   4.362   4.744   5.044
 3308TIP3    H1 9888   4.392   4.824   5.089
 3308TIP3    H2 9889   4.343   4.773   4.955
 3309TIP3   OH2 9890   4.593   0.474   2.217
 3309TIP3    H1 9891   4.687   0.479   2.237
 3309TIP3    H2 9892   4.590   0.459   2.122
 3310TIP3   OH2 9893   1.599   5.288   2.912
 3310TIP3    H1 9894   1.629   5.239   2.989
 3310TIP3    H2 9895   1.616   5.379   2.934
 3311TIP3   OH2 9896   4.339   3.761   4.405
 3311TIP3    H1 9897   4.418   3.721   4.370
 3311TIP3    H2 9898   4.282   3.772   4.328
 3312TIP3   OH2 9899   4.245   0.705   0.297
 3312TIP3    H1 9900   4.301   0.780   0.280
 3312TIP3    H2 9901   4.157   0.742   0.306
 3313TIP3   OH2 9902   2.120   5.049   4.882
 3313TIP3    H1 9903   2.142   5.029   4.973
 3313TIP3    H2 9904   2.035   5.007   4.868
 3314TIP3   OH2 9905   4.040   3.142   0.413
 3314TIP3    H1 9906   4.062   3.136   0.320
 3314TIP3    H2 9907   4.059   3.233   0.436
 3315TIP3   OH2 9908   4.200   2.781   2.987
 3315TIP3    H1 9909   4.186   2.747   2.898
 3315TIP3    H2 9910   4.290   2.758   3.008
 3316TIP3   OH2 9911   2.858   3.871   2.609
 3316TIP3    H1 9912   2.928   3.919   2.565
 3316TIP3    H2 9913   2.795   3.852   2.540
 3317TIP3   OH2 9914   7.237   6.127   4.806
 3317TIP3    H1 9915   7.237   6.221   4.792
 3317TIP3    H2 9916   7.149   6.099   4.782
 3318TIP3   OH2 9917   2.901   5.081   2.535
 3318TIP3    H1 9918   2.900   5.169   2.498
 3318TIP3    H2 9919   2.911   5.096   2.629
 3319TIP3   OH2 9920   1.566   6.681   2.764
 3319TIP3    H1 9921   1.650   6.651   2.799
 3319TIP3    H2 9922   1.543   6.757   2.817
 3320TIP3   OH2 9923   6.234   3.533   3.452
 3320TIP3    H1 9924   6.143   3.521   3.425
 3320TIP3    H2 9925   6.283   3.467   3.403
 3321TIP3   OH2 9926   4.670   4.771   3.637
 3321TIP3    H1 9927   4.712   4.685   3.634
 3321TIP3    H2 9928   4.577   4.751   3.642
 3322TIP3   OH2 9929   2.377   0.621   2.556
 3322TIP3    H1 9930   2.453   0.588   2.604
 3322TIP3    H2 9931   2.305   0.565   2.585
 3323TIP3   OH2 9932   0.338   1.926   3.465
 3323TIP3    H1 9933   0.322   1.831   3.471
 3323TIP3    H2 9934   0.430   1.933   3.437
 3324TIP3   OH2 9935   5.269   0.897   3.915
 3324TIP3    H1 9936   5.318   0.966   3.869
 3324TIP3    H2 9937   5.179   0.930   3.918
 3325TIP3   OH2 9938   1.372   3.384   5.560
 3325TIP3    H1 9939   1.445   3.323   5.549
 3325TIP3    H2 9940   1.304   3.350   5.502
 3326TIP3   OH2 9941   6.268   5.089   0.878
 3326TIP3    H1 9942   6.206   5.035   0.830
 3326TIP3    H2 9943   6.335   5.112   0.814
 3327TIP3   OH2 9944   2.605   0.661   1.599
 3327TIP3    H1 9945   2.677   0.702   1.553
 3327TIP3    H2 9946   2.528   0.713   1.576
 3328TIP3   OH2 9947   1.686   3.534   1.089
 3328TIP3    H1 9948   1.732   3.592   1.029
 3328TIP3    H2 9949   1.681   3.582   1.171
 3329TIP3   OH2 9950   4.277   3.024   1.045
 3329TIP3    H1 9951   4.231   3.003   1.127
 3329TIP3    H2 9952   4.224   3.091   1.004
 3330TIP3   OH2 9953   1.555   3.948   2.387
 3330TIP3    H1 9954   1.505   3.891   2.328
 3330TIP3    H2 9955   1.613   3.888   2.434
 3331TIP3   OH2 9956   0.449   2.542   2.306
 3331TIP3    H1 9957   0.465   2.485   2.230
 3331TIP3    H2 9958   0.536   2.571   2.334
 3332TIP3   OH2 9959   6.285   0.693   2.062
 3332TIP3    H1 9960   6.312   0.638   2.136
 3332TIP3    H2 9961   6.341   0.770   2.069
 3333TIP3   OH2 9962   5.074   2.651   2.885
 3333TIP3    H1 9963   5.047   2.560   2.874
 3333TIP3    H2 9964   5.069   2.666   2.980
 3334TIP3   OH2 9965   6.568   4.316   3.374
 3334TIP3    H1 9966   6.599   4.366   3.450
 3334TIP3    H2 9967   6.473   4.314   3.383
 3335TIP3   OH2 9968   4.342   5.160   2.872
 3335TIP3    H1 9969   4.355   5.163   2.966
 3335TIP3    H2 9970   4.428   5.179   2.835
 3336TIP3   OH2 9971   0.265   4.358   1.898
 3336TIP3    H1 9972   0.187   4.359   1.843
 3336TIP3    H2 9973   0.241   4.409   1.976
 3337TIP3   OH2 9974   7.224   3.461   5.810
 3337TIP3    H1 9975   7.192   3.453   5.720
 3337TIP3    H2 9976   7.233   3.371   5.840
 3338TIP3   OH2 9977   4.036   1.508   4.306
 3338TIP3    H1 9978   3.968   1.574   4.299
 3338TIP3    H2 9979   4.039   1.467   4.220
 3339TIP3   OH2 9980   6.455   6.242   5.213
 3339TIP3    H1 9981   6.545   6.254   5.246
 3339TIP3    H2 9982   6.423   6.165   5.259
 3340TIP3   OH2 9983   2.928   0.839   1.630
 3340TIP3    H1 9984   2.885   0.910   1.676
 3340TIP3    H2 9985   2.873   0.822   1.554
 3341TIP3   OH2 9986   6.375   2.784   5.412
 3341TIP3    H1 9987   6.326   2.843   5.469
 3341TIP3    H2 9988   6.360   2.697   5.450
 3342TIP3   OH2 9989   5.771   6.652   1.639
 3342TIP3    H1 9990   5.691   6.680   1.596
 3342TIP3    H2 9991   5.773   6.700   1.722
 3343TIP3   OH2 9992   3.994   2.552   0.460
 3343TIP3    H1 9993   3.981   2.634   0.411
 3343TIP3    H2 9994   3.971   2.483   0.398
 3344TIP3   OH2 9995   3.091   5.072   5.657
 3344TIP3    H1 9996   3.113   4.990   5.614
 3344TIP3    H2 9997   3.003   5.057   5.691
 3345TIP3   OH2 9998   0.591   1.199   1.775
 3345TIP3    H1 9999   0.650   1.143   1.725
 3345TIP3    H210000   0.521   1.141   1.805
 3346TIP3   OH210001   1.717   3.821   1.944
 3346TIP3    H110002   1.644   3.758   1.940
 3346TIP3    H210003   1.701   3.869   2.025
 3347TIP3   OH210004   0.300   5.903   3.236
 3347TIP3    H110005   0.388   5.867   3.236
 3347TIP3    H210006   0.252   5.850   3.300
 3348TIP3   OH210007   7.114   1.728   4.297
 3348TIP3    H110008   7.047   1.785   4.258
 3348TIP3    H210009   7.189   1.786   4.311
 3349TIP3   OH210010   2.276   6.745   4.334
 3349TIP3    H110011   2.354   6.778   4.378
 3349TIP3    H210012   2.255   6.812   4.269
 3350TIP3   OH210013   2.102   0.325   5.358
 3350TIP3    H110014   2.007   0.313   5.355
 3350TIP3    H210015   2.116   0.415   5.326
 3351TIP3   OH210016   1.159   0.059   5.448
 3351TIP3    H110017   1.129  -0.022   5.490
 3351TIP3    H210018   1.100   0.126   5.483
 3352TIP3   OH210019   6.198   0.633   4.655
 3352TIP3    H110020   6.138   0.558   4.657
 3352TIP3    H210021   6.243   0.630   4.739
 3353TIP3   OH210022   5.608   4.891   3.658
 3353TIP3    H110023   5.619   4.867   3.750
 3353TIP3    H210024   5.660   4.826   3.610
 3354TIP3   OH210025   2.422   5.133   0.399
 3354TIP3    H110026   2.403   5.076   0.474
 3354TIP3    H210027   2.349   5.118   0.339
 3355TIP3   OH210028   3.012   3.605   3.349
 3355TIP3    H110029   2.964   3.679   3.313
 3355TIP3    H210030   2.945   3.551   3.391
 3356TIP3   OH210031   5.290   0.010   0.344
 3356TIP3    H110032   5.291   0.083   0.282
 3356TIP3    H210033   5.238  -0.057   0.299
 3357TIP3   OH210034   0.157   1.719   3.538
 3357TIP3    H110035   0.176   1.662   3.612
 3357TIP3    H210036   0.085   1.675   3.492
 3358TIP3   OH210037   5.106   3.423   0.232
 3358TIP3    H110038   5.055   3.418   0.312
 3358TIP3    H210039   5.055   3.373   0.168
 3359TIP3   OH210040   4.097   4.047   5.307
 3359TIP3    H110041   4.050   4.120   5.348
 3359TIP3    H210042   4.168   4.027   5.368
 3360TIP3   OH210043   0.878   2.799   0.148
 3360TIP3    H110044   0.833   2.715   0.145
 3360TIP3    H210045   0.876   2.830   0.057
 3361TIP3   OH210046   3.782   3.823   2.061
 3361TIP3    H110047   3.813   3.790   2.146
 3361TIP3    H210048   3.802   3.752   1.999
 3362TIP3   OH210049   6.857   2.704   0.850
 3362TIP3    H110050   6.898   2.618   0.851
 3362TIP3    H210051   6.846   2.725   0.757
 3363TIP3   OH210052   0.889   4.954   5.758
 3363TIP3    H110053   0.865   4.895   5.686
 3363TIP3    H210054   0.901   5.039   5.717
 3364TIP3   OH210055   0.793   4.885   1.489
 3364TIP3    H110056   0.733   4.813   1.469
 3364TIP3    H210057   0.804   4.930   1.405
 3365TIP3   OH210058   2.453   1.574   0.571
 3365TIP3    H110059   2.360   1.597   0.570
 3365TIP3    H210060   2.495   1.640   0.517
 3366TIP3   OH210061   0.683   0.742   5.842
 3366TIP3    H110062   0.749   0.678   5.869
 3366TIP3    H210063   0.691   0.812   5.906
 3367TIP3   OH210064   2.254   5.853   4.055
 3367TIP3    H110065   2.186   5.839   3.989
 3367TIP3    H210066   2.213   5.828   4.138
 3368TIP3   OH210067   1.893   4.308   3.249
 3368TIP3    H110068   1.837   4.366   3.301
 3368TIP3    H210069   1.833   4.251   3.202
 3369TIP3   OH210070   0.259   1.442   1.675
 3369TIP3    H110071   0.214   1.472   1.596
 3369TIP3    H210072   0.262   1.347   1.666
 3370TIP3   OH210073   6.534   3.538   0.623
 3370TIP3    H110074   6.508   3.628   0.643
 3370TIP3    H210075   6.452   3.490   0.619
 3371TIP3   OH210076   2.491   0.813   5.751
 3371TIP3    H110077   2.563   0.752   5.735
 3371TIP3    H210078   2.480   0.811   5.846
 3372TIP3   OH210079   0.910   6.476   1.557
 3372TIP3    H110080   0.961   6.402   1.590
 3372TIP3    H210081   0.820   6.454   1.579
 3373TIP3   OH210082   6.757   0.937   3.918
 3373TIP3    H110083   6.711   0.880   3.857
 3373TIP3    H210084   6.690   0.997   3.952
 3374TIP3   OH210085   2.845   6.769   1.294
 3374TIP3    H110086   2.882   6.712   1.226
 3374TIP3    H210087   2.751   6.749   1.293
 3375TIP3   OH210088   3.345   1.634   2.628
 3375TIP3    H110089   3.370   1.724   2.608
 3375TIP3    H210090   3.359   1.586   2.546
 3376TIP3   OH210091   0.095   1.654   2.906
 3376TIP3    H110092   0.033   1.633   2.976
 3376TIP3    H210093   0.175   1.681   2.952
 3377TIP3   OH210094   2.724   5.553   3.086
 3377TIP3    H110095   2.705   5.623   3.148
 3377TIP3    H210096   2.642   5.503   3.081
 3378TIP3   OH210097   4.327   2.077   4.119
 3378TIP3    H110098   4.284   2.154   4.082
 3378TIP3    H210099   4.417   2.083   4.088
 3379TIP3   OH210100   4.702   3.891   5.835
 3379TIP3    H110101   4.702   3.979   5.797
 3379TIP3    H210102   4.783   3.851   5.803
 3380TIP3   OH210103   4.165   0.695   3.788
 3380TIP3    H110104   4.090   0.723   3.840
 3380TIP3    H210105   4.173   0.602   3.805
 3381TIP3   OH210106   4.910   4.245   0.811
 3381TIP3    H110107   4.818   4.271   0.818
 3381TIP3    H210108   4.957   4.327   0.800
 3382TIP3   OH210109   6.776   1.245   2.839
 3382TIP3    H110110   6.825   1.191   2.776
 3382TIP3    H210111   6.841   1.307   2.873
 3383TIP3   OH210112   2.827   4.105   0.519
 3383TIP3    H110113   2.877   4.057   0.453
 3383TIP3    H210114   2.835   4.197   0.494
 3384TIP3   OH210115   0.019   3.067   3.041
 3384TIP3    H110116  -0.017   3.044   2.955
 3384TIP3    H210117   0.109   3.035   3.037
 3385TIP3   OH210118   6.723   2.435   1.544
 3385TIP3    H110119   6.656   2.419   1.478
 3385TIP3    H210120   6.796   2.377   1.518
 3386TIP3   OH210121   4.046   6.108   0.955
 3386TIP3    H110122   4.111   6.178   0.953
 3386TIP3    H210123   4.084   6.039   0.900
 3387TIP3   OH210124   4.573   5.380   4.017
 3387TIP3    H110125   4.571   5.335   3.933
 3387TIP3    H210126   4.486   5.418   4.025
 3388TIP3   OH210127   3.938   6.725   1.038
 3388TIP3    H110128   3.892   6.796   0.992
 3388TIP3    H210129   3.890   6.715   1.120
 3389TIP3   OH210130   1.505   2.370   0.178
 3389TIP3    H110131   1.448   2.403   0.109
 3389TIP3    H210132   1.485   2.424   0.254
 3390TIP3   OH210133   5.595   3.315   3.924
 3390TIP3    H110134   5.529   3.383   3.908
 3390TIP3    H210135   5.577   3.284   4.013
 3391TIP3   OH210136   6.505   3.380   4.711
 3391TIP3    H110137   6.468   3.388   4.799
 3391TIP3    H210138   6.579   3.440   4.711
 3392TIP3   OH210139   1.294   2.352   1.928
 3392TIP3    H110140   1.359   2.365   1.997
 3392TIP3    H210141   1.212   2.386   1.965
 3393TIP3   OH210142   0.845   2.525   1.116
 3393TIP3    H110143   0.929   2.554   1.081
 3393TIP3    H210144   0.868   2.472   1.193
 3394TIP3   OH210145   0.363   1.242   2.279
 3394TIP3    H110146   0.424   1.169   2.266
 3394TIP3    H210147   0.312   1.217   2.356
 3395TIP3   OH210148   7.169   0.772   0.602
 3395TIP3    H110149   7.082   0.799   0.631
 3395TIP3    H210150   7.228   0.805   0.670
 3396TIP3   OH210151   1.018   6.730   2.208
 3396TIP3    H110152   0.967   6.649   2.204
 3396TIP3    H210153   0.962   6.795   2.164
 3397TIP3   OH210154   7.119   1.659   3.130
 3397TIP3    H110155   7.032   1.669   3.092
 3397TIP3    H210156   7.148   1.749   3.147
 3398TIP3   OH210157   2.658   1.555   2.996
 3398TIP3    H110158   2.697   1.481   3.042
 3398TIP3    H210159   2.589   1.517   2.942
 3399TIP3   OH210160   5.732   1.532   4.734
 3399TIP3    H110161   5.781   1.453   4.756
 3399TIP3    H210162   5.709   1.520   4.641
 3400TIP3   OH210163   3.754   2.983   4.022
 3400TIP3    H110164   3.799   3.033   3.953
 3400TIP3    H210165   3.671   3.029   4.035
 3401TIP3   OH210166   1.364   3.130   0.875
 3401TIP3    H110167   1.430   3.129   0.944
 3401TIP3    H210168   1.330   3.041   0.874
 3402TIP3   OH210169   1.096   5.566   2.352
 3402TIP3    H110170   1.118   5.503   2.283
 3402TIP3    H210171   1.063   5.512   2.424
 3403TIP3   OH210172   2.864   3.588   5.841
 3403TIP3    H110173   2.884   3.653   5.773
 3403TIP3    H210174   2.896   3.628   5.922
 3404TIP3   OH210175   4.319   5.553   2.087
 3404TIP3    H110176   4.399   5.507   2.061
 3404TIP3    H210177   4.256   5.483   2.107
 3405TIP3   OH210178   3.348   6.129   1.315
 3405TIP3    H110179   3.346   6.065   1.386
 3405TIP3    H210180   3.256   6.149   1.298
 3406TIP3   OH210181   0.864   2.124   0.883
 3406TIP3    H110182   0.850   2.214   0.854
 3406TIP3    H210183   0.835   2.123   0.974
 3407TIP3   OH210184   1.200   5.079   2.375
 3407TIP3    H110185   1.121   5.107   2.329
 3407TIP3    H210186   1.232   5.004   2.325
 3408TIP3   OH210187   3.465   5.368   1.584
 3408TIP3    H110188   3.451   5.440   1.523
 3408TIP3    H210189   3.405   5.299   1.554
 3409TIP3   OH210190   4.865   3.459   0.843
 3409TIP3    H110191   4.898   3.502   0.765
 3409TIP3    H210192   4.941   3.413   0.880
 3410TIP3   OH210193   5.539   4.302   2.036
 3410TIP3    H110194   5.543   4.378   2.094
 3410TIP3    H210195   5.608   4.243   2.068
 3411TIP3   OH210196   6.552   3.916   2.135
 3411TIP3    H110197   6.618   3.982   2.110
 3411TIP3    H210198   6.599   3.857   2.194
 3412TIP3   OH210199   4.061   2.448   2.259
 3412TIP3    H110200   4.088   2.357   2.268
 3412TIP3    H210201   4.046   2.459   2.165
 3413TIP3   OH210202   6.649   1.324   1.169
 3413TIP3    H110203   6.660   1.243   1.119
 3413TIP3    H210204   6.720   1.322   1.233
 3414TIP3   OH210205   0.883   4.276   1.160
 3414TIP3    H110206   0.884   4.192   1.206
 3414TIP3    H210207   0.974   4.306   1.161
 3415TIP3   OH210208   7.222   4.741   0.184
 3415TIP3    H110209   7.133   4.760   0.156
 3415TIP3    H210210   7.260   4.826   0.207
 3416TIP3   OH210211   6.919   4.583   0.220
 3416TIP3    H110212   6.901   4.542   0.305
 3416TIP3    H210213   7.012   4.565   0.204
 3417TIP3   OH210214   3.002   2.654   3.951
 3417TIP3    H110215   3.098   2.650   3.948
 3417TIP3    H210216   2.978   2.692   3.866
 3418TIP3   OH210217   0.155   2.781   3.478
 3418TIP3    H110218   0.087   2.752   3.418
 3418TIP3    H210219   0.161   2.712   3.544
 3419TIP3   OH210220   4.708   1.826   0.170
 3419TIP3    H110221   4.719   1.903   0.226
 3419TIP3    H210222   4.631   1.846   0.117
 3420TIP3   OH210223   2.005   6.685   0.617
 3420TIP3    H110224   2.073   6.711   0.555
 3420TIP3    H210225   2.035   6.720   0.701
 3421TIP3   OH210226   4.639   6.289   4.685
 3421TIP3    H110227   4.587   6.349   4.738
 3421TIP3    H210228   4.612   6.307   4.595
 3422TIP3   OH210229   5.944   5.887   4.375
 3422TIP3    H110230   5.908   5.971   4.403
 3422TIP3    H210231   6.002   5.861   4.446
 3423TIP3   OH210232   0.013   6.365   2.966
 3423TIP3    H110233   0.033   6.457   2.954
 3423TIP3    H210234   0.089   6.319   2.929
 3424TIP3   OH210235   6.267   4.625   1.929
 3424TIP3    H110236   6.261   4.709   1.973
 3424TIP3    H210237   6.275   4.561   2.000
 3425TIP3   OH210238   0.327   0.751   3.390
 3425TIP3    H110239   0.406   0.807   3.387
 3425TIP3    H210240   0.256   0.810   3.366
 3426TIP3   OH210241   4.141   0.995   1.199
 3426TIP3    H110242   4.083   0.920   1.186
 3426TIP3    H210243   4.149   1.002   1.295
 3427TIP3   OH210244   1.952   2.716   5.469
 3427TIP3    H110245   1.961   2.627   5.434
 3427TIP3    H210246   2.027   2.764   5.433
 3428TIP3   OH210247   4.504   2.452   2.532
 3428TIP3    H110248   4.486   2.361   2.508
 3428TIP3    H210249   4.515   2.450   2.627
 3429TIP3   OH210250   2.858   2.341   5.546
 3429TIP3    H110251   2.813   2.260   5.521
 3429TIP3    H210252   2.904   2.318   5.627
 3430TIP3   OH210253   4.891   5.596   0.393
 3430TIP3    H110254   4.887   5.509   0.433
 3430TIP3    H210255   4.971   5.594   0.341
 3431TIP3   OH210256   6.340   0.698   4.899
 3431TIP3    H110257   6.351   0.748   4.980
 3431TIP3    H210258   6.349   0.606   4.927
 3432TIP3   OH210259   4.540   2.728   3.500
 3432TIP3    H110260   4.544   2.798   3.434
 3432TIP3    H210261   4.449   2.728   3.530
 3433TIP3   OH210262   0.894   2.489   5.090
 3433TIP3    H110263   0.844   2.436   5.028
 3433TIP3    H210264   0.977   2.443   5.100
 3434TIP3   OH210265   5.569   2.909   3.221
 3434TIP3    H110266   5.625   2.980   3.253
 3434TIP3    H210267   5.612   2.829   3.249
 3435TIP3   OH210268   3.655   0.412   0.348
 3435TIP3    H110269   3.711   0.357   0.402
 3435TIP3    H210270   3.702   0.495   0.341
 3436TIP3   OH210271   0.252   4.360   1.419
 3436TIP3    H110272   0.187   4.293   1.441
 3436TIP3    H210273   0.314   4.357   1.492
 3437TIP3   OH210274   1.574   2.790   1.193
 3437TIP3    H110275   1.665   2.799   1.165
 3437TIP3    H210276   1.531   2.869   1.161
 3438TIP3   OH210277   1.250   0.087   2.708
 3438TIP3    H110278   1.254   0.030   2.631
 3438TIP3    H210279   1.177   0.146   2.690
 3439TIP3   OH210280   2.511   0.267   2.557
 3439TIP3    H110281   2.561   0.311   2.488
 3439TIP3    H210282   2.425   0.310   2.555
 3440TIP3   OH210283   3.101   1.165   4.335
 3440TIP3    H110284   3.031   1.188   4.396
 3440TIP3    H210285   3.112   1.071   4.344
 3441TIP3   OH210286   4.623   0.240   4.243
 3441TIP3    H110287   4.634   0.269   4.334
 3441TIP3    H210288   4.531   0.218   4.236
 3442TIP3   OH210289   4.769   4.179   1.586
 3442TIP3    H110290   4.699   4.114   1.585
 3442TIP3    H210291   4.810   4.172   1.499
 3443TIP3   OH210292   5.756   2.220   5.525
 3443TIP3    H110293   5.780   2.312   5.537
 3443TIP3    H210294   5.685   2.222   5.461
 3444TIP3   OH210295   4.018   2.340   3.392
 3444TIP3    H110296   4.096   2.394   3.387
 3444TIP3    H210297   3.951   2.391   3.346
 3445TIP3   OH210298   3.195   4.042   1.754
 3445TIP3    H110299   3.165   3.951   1.746
 3445TIP3    H210300   3.201   4.057   1.848
 3446TIP3   OH210301   4.902   5.184   3.552
 3446TIP3    H110302   4.929   5.175   3.643
 3446TIP3    H210303   4.941   5.267   3.524
 3447TIP3   OH210304   2.672   0.729   1.175
 3447TIP3    H110305   2.610   0.657   1.189
 3447TIP3    H210306   2.663   0.750   1.082
 3448TIP3   OH210307   2.007   5.579   4.941
 3448TIP3    H110308   2.034   5.670   4.930
 3448TIP3    H210309   2.089   5.529   4.937
 3449TIP3   OH210310   6.676   3.455   0.129
 3449TIP3    H110311   6.620   3.428   0.057
 3449TIP3    H210312   6.616   3.469   0.203
 3450TIP3   OH210313   4.637   1.629   1.730
 3450TIP3    H110314   4.548   1.655   1.755
 3450TIP3    H210315   4.635   1.625   1.635
 3451TIP3   OH210316   4.444   6.403   0.857
 3451TIP3    H110317   4.352   6.405   0.883
 3451TIP3    H210318   4.470   6.495   0.852
 3452TIP3   OH210319   0.247   6.492   5.341
 3452TIP3    H110320   0.175   6.471   5.281
 3452TIP3    H210321   0.306   6.546   5.289
 3453TIP3   OH210322   3.187   4.759   5.773
 3453TIP3    H110323   3.247   4.687   5.790
 3453TIP3    H210324   3.201   4.780   5.681
 3454TIP3   OH210325   5.539   6.757   1.439
 3454TIP3    H110326   5.528   6.687   1.374
 3454TIP3    H210327   5.577   6.829   1.390
 3455TIP3   OH210328   6.752   2.512   3.125
 3455TIP3    H110329   6.690   2.577   3.093
 3455TIP3    H210330   6.750   2.443   3.058
 3456TIP3   OH210331   1.419   4.101   3.859
 3456TIP3    H110332   1.327   4.119   3.877
 3456TIP3    H210333   1.428   4.007   3.871
 3457TIP3   OH210334   5.437   0.656   4.974
 3457TIP3    H110335   5.518   0.645   4.923
 3457TIP3    H210336   5.370   0.614   4.920
 3458TIP3   OH210337   0.702   2.805   4.815
 3458TIP3    H110338   0.656   2.770   4.892
 3458TIP3    H210339   0.657   2.887   4.796
 3459TIP3   OH210340   2.623   1.918   0.685
 3459TIP3    H110341   2.542   1.887   0.726
 3459TIP3    H210342   2.693   1.879   0.737
 3460TIP3   OH210343   7.098   0.005   0.442
 3460TIP3    H110344   7.111   0.089   0.485
 3460TIP3    H210345   7.108   0.024   0.349
 3461TIP3   OH210346   3.482   4.585   3.014
 3461TIP3    H110347   3.531   4.558   2.936
 3461TIP3    H210348   3.406   4.632   2.980
 3462TIP3   OH210349   5.602   4.458   4.100
 3462TIP3    H110350   5.580   4.450   4.008
 3462TIP3    H210351   5.595   4.552   4.119
 3463TIP3   OH210352   0.542   0.312   5.824
 3463TIP3    H110353   0.451   0.288   5.843
 3463TIP3    H210354   0.538   0.405   5.802
 3464TIP3   OH210355   6.325   3.511   2.383
 3464TIP3    H110356   6.324   3.544   2.293
 3464TIP3    H210357   6.235   3.524   2.414
 3465TIP3   OH210358   2.693   5.329   2.758
 3465TIP3    H110359   2.628   5.375   2.811
 3465TIP3    H210360   2.738   5.398   2.709
 3466TIP3   OH210361   4.012   2.682   1.296
 3466TIP3    H110362   4.067   2.753   1.331
 3466TIP3    H210363   3.964   2.723   1.224
 3467TIP3   OH210364   7.076   3.121   4.074
 3467TIP3    H110365   7.001   3.103   4.018
 3467TIP3    H210366   7.060   3.068   4.153
 3468TIP3   OH210367   6.420   6.452   4.530
 3468TIP3    H110368   6.333   6.490   4.522
 3468TIP3    H210369   6.473   6.521   4.571
 3469TIP3   OH210370   2.164   3.547   5.141
 3469TIP3    H110371   2.084   3.567   5.190
 3469TIP3    H210372   2.134   3.494   5.068
 3470TIP3   OH210373   3.650   3.392   0.685
 3470TIP3    H110374   3.584   3.324   0.696
 3470TIP3    H210375   3.611   3.470   0.723
 3471TIP3   OH210376   2.580   4.056   0.410
 3471TIP3    H110377   2.609   4.005   0.334
 3471TIP3    H210378   2.659   4.071   0.461
 3472TIP3   OH210379   1.526   1.622   4.551
 3472TIP3    H110380   1.550   1.549   4.608
 3472TIP3    H210381   1.486   1.686   4.609
 3473TIP3   OH210382   1.574   2.301   5.410
 3473TIP3    H110383   1.636   2.266   5.474
 3473TIP3    H210384   1.626   2.317   5.332
 3474TIP3   OH210385   1.166   4.625   4.133
 3474TIP3    H110386   1.163   4.681   4.211
 3474TIP3    H210387   1.225   4.670   4.073
 3475TIP3   OH210388   6.729   2.568   0.237
 3475TIP3    H110389   6.739   2.485   0.189
 3475TIP3    H210390   6.689   2.627   0.173
 3476TIP3   OH210391   2.957   2.851   1.624
 3476TIP3    H110392   2.903   2.839   1.545
 3476TIP3    H210393   2.926   2.784   1.685
 3477TIP3   OH210394   1.823   0.855   0.885
 3477TIP3    H110395   1.890   0.789   0.868
 3477TIP3    H210396   1.828   0.871   0.979
 3478TIP3   OH210397   2.086   0.938   1.998
 3478TIP3    H110398   2.161   0.951   1.941
 3478TIP3    H210399   2.012   0.978   1.952
 3479TIP3   OH210400   2.813   6.229   2.006
 3479TIP3    H110401   2.820   6.283   2.085
 3479TIP3    H210402   2.813   6.139   2.038
 3480TIP3   OH210403   2.039   1.449   3.981
 3480TIP3    H110404   2.095   1.385   4.025
 3480TIP3    H210405   2.086   1.472   3.901
 3481TIP3   OH210406   2.218   0.177   1.117
 3481TIP3    H110407   2.303   0.218   1.106
 3481TIP3    H210408   2.226   0.127   1.198
 3482TIP3   OH210409   4.037   3.615   4.184
 3482TIP3    H110410   4.080   3.545   4.134
 3482TIP3    H210411   3.944   3.598   4.175
 3483TIP3   OH210412   6.940   0.829   0.317
 3483TIP3    H110413   7.019   0.784   0.286
 3483TIP3    H210414   6.885   0.759   0.351
 3484TIP3   OH210415   3.386   5.011   3.854
 3484TIP3    H110416   3.335   4.968   3.922
 3484TIP3    H210417   3.397   5.101   3.886
 3485TIP3   OH210418   0.052   4.582   4.651
 3485TIP3    H110419   0.093   4.577   4.738
 3485TIP3    H210420   0.023   4.492   4.634
 3486TIP3   OH210421   0.114   4.239   0.572
 3486TIP3    H110422   0.064   4.197   0.642
 3486TIP3    H210423   0.050   4.256   0.504
 3487TIP3   OH210424   4.989   6.082   0.657
 3487TIP3    H110425   5.049   6.076   0.582
 3487TIP3    H210426   5.045   6.069   0.734
 3488TIP3   OH210427   1.061   6.035   2.514
 3488TIP3    H110428   1.053   5.952   2.467
 3488TIP3    H210429   0.971   6.068   2.519
 3489TIP3   OH210430   2.465   4.239   0.650
 3489TIP3    H110431   2.466   4.201   0.738
 3489TIP3    H210432   2.518   4.318   0.658
 3490TIP3   OH210433   5.339   5.469   3.190
 3490TIP3    H110434   5.422   5.448   3.147
 3490TIP3    H210435   5.273   5.456   3.122
 3491TIP3   OH210436   5.158   4.396   1.822
 3491TIP3    H110437   5.131   4.308   1.848
 3491TIP3    H210438   5.190   4.386   1.732
 3492TIP3   OH210439   5.044   6.670   0.787
 3492TIP3    H110440   5.048   6.722   0.707
 3492TIP3    H210441   5.019   6.733   0.855
 3493TIP3   OH210442   0.472   0.360   5.078
 3493TIP3    H110443   0.433   0.381   4.993
 3493TIP3    H210444   0.421   0.412   5.140
 3494TIP3   OH210445   2.159   6.692   0.100
 3494TIP3    H110446   2.144   6.784   0.082
 3494TIP3    H210447   2.239   6.671   0.051
 3495TIP3   OH210448   4.262   3.506   2.827
 3495TIP3    H110449   4.304   3.421   2.814
 3495TIP3    H210450   4.328   3.570   2.800
 3496TIP3   OH210451   5.236   0.594   3.317
 3496TIP3    H110452   5.166   0.590   3.381
 3496TIP3    H210453   5.208   0.535   3.246
 3497TIP3   OH210454   2.028   5.151   1.536
 3497TIP3    H110455   1.973   5.222   1.567
 3497TIP3    H210456   2.001   5.075   1.588
 3498TIP3   OH210457   4.497   0.381   4.725
 3498TIP3    H110458   4.425   0.400   4.664
 3498TIP3    H210459   4.564   0.446   4.704
 3499TIP3   OH210460   0.370   4.129   0.588
 3499TIP3    H110461   0.350   4.037   0.602
 3499TIP3    H210462   0.286   4.168   0.561
 3500TIP3   OH210463   3.961   5.861   5.453
 3500TIP3    H110464   3.991   5.793   5.513
 3500TIP3    H210465   4.003   5.941   5.485
 3501TIP3   OH210466   5.249   2.992   1.876
 3501TIP3    H110467   5.314   3.061   1.868
 3501TIP3    H210468   5.256   2.943   1.794
 3502TIP3   OH210469   2.145   0.528   5.102
 3502TIP3    H110470   2.062   0.546   5.058
 3502TIP3    H210471   2.134   0.565   5.189
 3503TIP3   OH210472   3.885   2.542   3.206
 3503TIP3    H110473   3.845   2.514   3.288
 3503TIP3    H210474   3.895   2.637   3.215
 3504TIP3   OH210475   2.165   0.815   1.177
 3504TIP3    H110476   2.085   0.794   1.224
 3504TIP3    H210477   2.187   0.904   1.205
 3505TIP3   OH210478   6.738   3.791   5.847
 3505TIP3    H110479   6.795   3.861   5.817
 3505TIP3    H210480   6.651   3.818   5.819
 3506TIP3   OH210481   1.726   5.719   1.987
 3506TIP3    H110482   1.676   5.801   1.991
 3506TIP3    H210483   1.661   5.651   1.999
 3507TIP3   OH210484   3.041   4.753   1.755
 3507TIP3    H110485   3.006   4.723   1.840
 3507TIP3    H210486   3.132   4.723   1.755
 3508TIP3   OH210487   3.257   5.191   1.864
 3508TIP3    H110488   3.313   5.199   1.787
 3508TIP3    H210489   3.317   5.198   1.938
 3509TIP3   OH210490   1.009   1.682   5.375
 3509TIP3    H110491   0.994   1.649   5.464
 3509TIP3    H210492   1.066   1.758   5.388
 3510TIP3   OH210493   6.695   1.828   1.714
 3510TIP3    H110494   6.618   1.825   1.658
 3510TIP3    H210495   6.660   1.827   1.803
 3511TIP3   OH210496   3.208   2.247   3.771
 3511TIP3    H110497   3.189   2.341   3.769
 3511TIP3    H210498   3.195   2.217   3.681
 3512TIP3   OH210499   3.817   0.086   3.201
 3512TIP3    H110500   3.783   0.020   3.263
 3512TIP3    H210501   3.739   0.125   3.162
 3513TIP3   OH210502   6.685   0.006   5.053
 3513TIP3    H110503   6.625  -0.062   5.022
 3513TIP3    H210504   6.643   0.040   5.132
 3514TIP3   OH210505   2.765   4.810   2.534
 3514TIP3    H110506   2.682   4.830   2.579
 3514TIP3    H210507   2.807   4.895   2.522
 3515TIP3   OH210508   5.976   1.465   4.525
 3515TIP3    H110509   6.014   1.381   4.501
 3515TIP3    H210510   5.885   1.459   4.497
 3516TIP3   OH210511   0.562   4.609   1.047
 3516TIP3    H110512   0.553   4.687   1.101
 3516TIP3    H210513   0.477   4.598   1.004
 3517TIP3   OH210514   5.505   1.142   1.004
 3517TIP3    H110515   5.452   1.222   1.007
 3517TIP3    H210516   5.444   1.073   0.980
 3518TIP3   OH210517   1.013   1.665   2.112
 3518TIP3    H110518   1.011   1.581   2.065
 3518TIP3    H210519   0.921   1.687   2.125
 3519TIP3   OH210520   5.274   0.848   0.562
 3519TIP3    H110521   5.208   0.853   0.631
 3519TIP3    H210522   5.260   0.926   0.510
 3520TIP3   OH210523   2.455   5.469   3.054
 3520TIP3    H110524   2.435   5.555   3.090
 3520TIP3    H210525   2.425   5.407   3.121
 3521TIP3   OH210526   1.705   2.212   5.622
 3521TIP3    H110527   1.639   2.175   5.681
 3521TIP3    H210528   1.715   2.302   5.650
 3522TIP3   OH210529   3.379   4.062   4.207
 3522TIP3    H110530   3.434   4.140   4.217
 3522TIP3    H210531   3.365   4.055   4.113
 3523TIP3   OH210532   5.091   3.627   1.042
 3523TIP3    H110533   5.114   3.538   1.072
 3523TIP3    H210534   5.166   3.653   0.988
 3524TIP3   OH210535   6.989   3.567   0.679
 3524TIP3    H110536   6.949   3.634   0.734
 3524TIP3    H210537   7.083   3.584   0.684
 3525TIP3   OH210538   2.382   1.961   4.513
 3525TIP3    H110539   2.386   1.921   4.599
 3525TIP3    H210540   2.321   2.035   4.524
 3526TIP3   OH210541   0.565   1.666   3.841
 3526TIP3    H110542   0.610   1.724   3.902
 3526TIP3    H210543   0.622   1.663   3.764
 3527TIP3   OH210544   2.243   1.375   2.967
 3527TIP3    H110545   2.159   1.337   2.992
 3527TIP3    H210546   2.307   1.327   3.019
 3528TIP3   OH210547   7.043   2.593   3.216
 3528TIP3    H110548   6.987   2.522   3.244
 3528TIP3    H210549   6.996   2.633   3.143
 3529TIP3   OH210550   1.837   6.662   3.862
 3529TIP3    H110551   1.813   6.571   3.845
 3529TIP3    H210552   1.926   6.657   3.896
 3530TIP3   OH210553   1.726   3.175   0.878
 3530TIP3    H110554   1.661   3.239   0.907
 3530TIP3    H210555   1.710   3.165   0.784
 3531TIP3   OH210556   4.608   4.319   2.060
 3531TIP3    H110557   4.552   4.275   1.996
 3531TIP3    H210558   4.696   4.314   2.022
 3532TIP3   OH210559   0.343   3.240   1.260
 3532TIP3    H110560   0.387   3.159   1.235
 3532TIP3    H210561   0.393   3.309   1.216
 3533TIP3   OH210562   6.056   6.310   5.515
 3533TIP3    H110563   6.111   6.387   5.533
 3533TIP3    H210564   6.004   6.336   5.438
 3534TIP3   OH210565   1.307   0.707   1.176
 3534TIP3    H110566   1.308   0.795   1.215
 3534TIP3    H210567   1.399   0.683   1.169
 3535TIP3   OH210568   6.111   0.196   2.489
 3535TIP3    H110569   6.106   0.107   2.456
 3535TIP3    H210570   6.181   0.237   2.437
 3536TIP3   OH210571   6.726   0.276   1.073
 3536TIP3    H110572   6.749   0.194   1.118
 3536TIP3    H210573   6.631   0.271   1.061
 3537TIP3   OH210574   6.506   1.047   2.703
 3537TIP3    H110575   6.600   1.041   2.723
 3537TIP3    H210576   6.485   1.139   2.715
 3538TIP3   OH210577   4.993   6.455   3.924
 3538TIP3    H110578   4.992   6.550   3.914
 3538TIP3    H210579   5.049   6.424   3.853
 3539TIP3   OH210580   0.880   4.041   1.299
 3539TIP3    H110581   0.897   3.957   1.255
 3539TIP3    H210582   0.954   4.053   1.357
 3540TIP3   OH210583   4.481   3.180   0.066
 3540TIP3    H110584   4.424   3.106   0.085
 3540TIP3    H210585   4.429   3.238   0.010
 3541TIP3   OH210586   3.382   1.326   0.273
 3541TIP3    H110587   3.460   1.297   0.320
 3541TIP3    H210588   3.313   1.328   0.339
 3542TIP3   OH210589   6.819   2.951   3.669
 3542TIP3    H110590   6.820   2.858   3.648
 3542TIP3    H210591   6.727   2.971   3.688
 3543TIP3   OH210592   2.189   1.454   5.829
 3543TIP3    H110593   2.277   1.475   5.859
 3543TIP3    H210594   2.156   1.391   5.894
 3544TIP3   OH210595   5.586   2.976   3.634
 3544TIP3    H110596   5.620   2.984   3.723
 3544TIP3    H210597   5.581   3.066   3.602
 3545TIP3   OH210598   2.916   6.504   2.860
 3545TIP3    H110599   2.979   6.552   2.914
 3545TIP3    H210600   2.956   6.501   2.773
 3546TIP3   OH210601   5.583   1.525   0.406
 3546TIP3    H110602   5.588   1.503   0.313
 3546TIP3    H210603   5.620   1.613   0.412
 3547TIP3   OH210604   5.566   5.655   0.171
 3547TIP3    H110605   5.658   5.638   0.150
 3547TIP3    H210606   5.568   5.700   0.255
 3548TIP3   OH210607   5.723   6.606   4.727
 3548TIP3    H110608   5.762   6.659   4.658
 3548TIP3    H210609   5.775   6.624   4.804
 3549TIP3   OH210610   5.435   2.411   5.615
 3549TIP3    H110611   5.498   2.411   5.688
 3549TIP3    H210612   5.431   2.502   5.587
 3550TIP3   OH210613   5.174   2.262   0.600
 3550TIP3    H110614   5.206   2.347   0.630
 3550TIP3    H210615   5.206   2.254   0.510
 3551TIP3   OH210616   0.578   6.197   4.674
 3551TIP3    H110617   0.613   6.109   4.687
 3551TIP3    H210618   0.483   6.187   4.683
 3552TIP3   OH210619   2.993   0.890   2.705
 3552TIP3    H110620   2.913   0.838   2.707
 3552TIP3    H210621   2.968   0.974   2.745
 3553TIP3   OH210622   5.363   5.858   1.001
 3553TIP3    H110623   5.417   5.781   1.018
 3553TIP3    H210624   5.414   5.911   0.940
 3554TIP3   OH210625   1.359   5.604   1.819
 3554TIP3    H110626   1.397   5.540   1.759
 3554TIP3    H210627   1.361   5.686   1.769
 3555TIP3   OH210628   2.528   2.653   5.438
 3555TIP3    H110629   2.508   2.567   5.476
 3555TIP3    H210630   2.600   2.687   5.491
 3556TIP3   OH210631   3.468   2.244   4.329
 3556TIP3    H110632   3.399   2.254   4.263
 3556TIP3    H210633   3.549   2.268   4.284
 3557TIP3   OH210634   1.593   2.765   2.211
 3557TIP3    H110635   1.567   2.852   2.241
 3557TIP3    H210636   1.649   2.781   2.134
 3558TIP3   OH210637   0.790   3.540   0.188
 3558TIP3    H110638   0.716   3.580   0.233
 3558TIP3    H210639   0.753   3.506   0.106
 3559TIP3   OH210640   0.379   5.104   5.820
 3559TIP3    H110641   0.367   5.182   5.875
 3559TIP3    H210642   0.469   5.110   5.789
 3560TIP3   OH210643   6.755   4.860   3.391
 3560TIP3    H110644   6.800   4.942   3.372
 3560TIP3    H210645   6.678   4.886   3.441
 3561TIP3   OH210646   3.204   2.861   1.422
 3561TIP3    H110647   3.159   2.778   1.433
 3561TIP3    H210648   3.135   2.925   1.407
 3562TIP3   OH210649   6.313   1.092   1.987
 3562TIP3    H110650   6.241   1.070   1.928
 3562TIP3    H210651   6.367   1.014   1.989
 3563TIP3   OH210652   6.854   1.804   1.374
 3563TIP3    H110653   6.935   1.835   1.415
 3563TIP3    H210654   6.869   1.819   1.280
 3564TIP3   OH210655   4.317   1.591   2.506
 3564TIP3    H110656   4.236   1.604   2.554
 3564TIP3    H210657   4.291   1.593   2.414
 3565TIP3   OH210658   5.505   5.374   3.851
 3565TIP3    H110659   5.540   5.333   3.772
 3565TIP3    H210660   5.569   5.355   3.919
 3566TIP3   OH210661   6.005   0.051   1.887
 3566TIP3    H110662   5.970  -0.038   1.885
 3566TIP3    H210663   5.931   0.106   1.860
 3567TIP3   OH210664   3.609   6.423   1.895
 3567TIP3    H110665   3.603   6.369   1.975
 3567TIP3    H210666   3.671   6.377   1.840
 3568TIP3   OH210667   2.117   5.669   3.804
 3568TIP3    H110668   2.055   5.694   3.735
 3568TIP3    H210669   2.079   5.591   3.845
 3569TIP3   OH210670   4.062   3.713   3.571
 3569TIP3    H110671   4.005   3.656   3.518
 3569TIP3    H210672   4.137   3.731   3.514
 3570TIP3   OH210673   5.686   2.682   3.359
 3570TIP3    H110674   5.719   2.640   3.279
 3570TIP3    H210675   5.713   2.623   3.429
 3571TIP3   OH210676   2.385   6.085   3.898
 3571TIP3    H110677   2.457   6.051   3.844
 3571TIP3    H210678   2.344   6.008   3.936
 3572TIP3   OH210679   4.268   5.843   0.921
 3572TIP3    H110680   4.340   5.815   0.865
 3572TIP3    H210681   4.305   5.847   1.009
 3573TIP3   OH210682   3.490   3.710   0.784
 3573TIP3    H110683   3.565   3.768   0.768
 3573TIP3    H210684   3.453   3.695   0.697
 3574TIP3   OH210685   0.517   3.039   2.450
 3574TIP3    H110686   0.539   2.946   2.452
 3574TIP3    H210687   0.584   3.080   2.505
 3575TIP3   OH210688   6.442   6.737   4.910
 3575TIP3    H110689   6.453   6.726   5.005
 3575TIP3    H210690   6.494   6.814   4.889
 3576TIP3   OH210691   1.586   5.434   4.391
 3576TIP3    H110692   1.587   5.410   4.484
 3576TIP3    H210693   1.616   5.525   4.389
 3577TIP3   OH210694   1.900   2.028   1.608
 3577TIP3    H110695   1.844   1.951   1.621
 3577TIP3    H210696   1.844   2.090   1.561
 3578TIP3   OH210697   4.217   2.810   1.504
 3578TIP3    H110698   4.206   2.853   1.419
 3578TIP3    H210699   4.293   2.853   1.543
 3579TIP3   OH210700   4.244   1.184   3.664
 3579TIP3    H110701   4.241   1.239   3.586
 3579TIP3    H210702   4.238   1.095   3.631
 3580TIP3   OH210703   2.139   1.925   1.715
 3580TIP3    H110704   2.067   1.987   1.701
 3580TIP3    H210705   2.165   1.938   1.806
 3581TIP3   OH210706   5.559   1.362   5.137
 3581TIP3    H110707   5.646   1.332   5.113
 3581TIP3    H210708   5.535   1.311   5.214
 3582TIP3   OH210709   7.217   1.058   3.663
 3582TIP3    H110710   7.138   1.079   3.712
 3582TIP3    H210711   7.255   1.143   3.641
 3583TIP3   OH210712   1.997   0.272   3.678
 3583TIP3    H110713   1.919   0.309   3.637
 3583TIP3    H210714   2.068   0.328   3.648
 3584TIP3   OH210715   5.067   1.340   0.136
 3584TIP3    H110716   5.058   1.249   0.106
 3584TIP3    H210717   4.996   1.351   0.199
 3585TIP3   OH210718   3.674   1.852   5.108
 3585TIP3    H110719   3.607   1.790   5.138
 3585TIP3    H210720   3.641   1.937   5.137
 3586TIP3   OH210721   7.146   1.392   1.701
 3586TIP3    H110722   7.169   1.303   1.673
 3586TIP3    H210723   7.093   1.379   1.780
 3587TIP3   OH210724   2.541   0.532   3.949
 3587TIP3    H110725   2.553   0.563   3.859
 3587TIP3    H210726   2.506   0.607   3.996
 3588TIP3   OH210727   2.434   6.633   2.216
 3588TIP3    H110728   2.341   6.621   2.237
 3588TIP3    H210729   2.449   6.578   2.140
 3589TIP3   OH210730   0.612   4.535   0.751
 3589TIP3    H110731   0.558   4.603   0.792
 3589TIP3    H210732   0.623   4.468   0.819
 3590TIP3   OH210733   6.210   5.484   4.257
 3590TIP3    H110734   6.197   5.431   4.179
 3590TIP3    H210735   6.246   5.422   4.322
 3591TIP3   OH210736   6.565   3.728   1.104
 3591TIP3    H110737   6.521   3.667   1.163
 3591TIP3    H210738   6.501   3.798   1.090
 3592TIP3   OH210739   7.038   3.046   2.821
 3592TIP3    H110740   6.965   3.048   2.883
 3592TIP3    H210741   7.025   2.964   2.771
 3593TIP3   OH210742   1.476   5.590   4.054
 3593TIP3    H110743   1.518   5.539   3.984
 3593TIP3    H210744   1.386   5.604   4.022
 3594TIP3   OH210745   3.183   1.367   0.462
 3594TIP3    H110746   3.235   1.434   0.508
 3594TIP3    H210747   3.141   1.318   0.533
 3595TIP3   OH210748   3.307   4.879   0.817
 3595TIP3    H110749   3.227   4.916   0.856
 3595TIP3    H210750   3.308   4.914   0.728
 3596TIP3   OH210751   2.590   0.331   5.420
 3596TIP3    H110752   2.621   0.421   5.412
 3596TIP3    H210753   2.666   0.282   5.453
 3597TIP3   OH210754   4.816   1.704   5.273
 3597TIP3    H110755   4.830   1.769   5.204
 3597TIP3    H210756   4.742   1.739   5.323
 3598TIP3   OH210757   6.667   3.157   0.572
 3598TIP3    H110758   6.577   3.157   0.603
 3598TIP3    H210759   6.717   3.202   0.640
 3599TIP3   OH210760   4.797   3.618   0.227
 3599TIP3    H110761   4.777   3.585   0.139
 3599TIP3    H210762   4.724   3.676   0.248
 3600TIP3   OH210763   1.426   6.522   4.473
 3600TIP3    H110764   1.365   6.591   4.447
 3600TIP3    H210765   1.415   6.454   4.407
 3601TIP3   OH210766   5.325   4.127   2.169
 3601TIP3    H110767   5.255   4.095   2.111
 3601TIP3    H210768   5.370   4.194   2.118
 3602TIP3   OH210769   5.933   6.009   0.687
 3602TIP3    H110770   5.984   5.999   0.606
 3602TIP3    H210771   5.957   5.932   0.740
 3603TIP3   OH210772   3.255   0.488   3.017
 3603TIP3    H110773   3.349   0.494   3.003
 3603TIP3    H210774   3.218   0.561   2.967
 3604TIP3   OH210775   7.063   5.815   0.670
 3604TIP3    H110776   7.104   5.759   0.604
 3604TIP3    H210777   7.136   5.849   0.721
 3605TIP3   OH210778   1.305   1.775   1.431
 3605TIP3    H110779   1.395   1.765   1.460
 3605TIP3    H210780   1.303   1.862   1.390
 3606TIP3   OH210781   6.012   0.531   5.050
 3606TIP3    H110782   6.010   0.583   4.969
 3606TIP3    H210783   6.098   0.489   5.049
 3607TIP3   OH210784   2.260   2.453   0.345
 3607TIP3    H110785   2.238   2.521   0.282
 3607TIP3    H210786   2.178   2.434   0.391
 3608TIP3   OH210787   1.645   4.206   2.824
 3608TIP3    H110788   1.627   4.213   2.918
 3608TIP3    H210789   1.573   4.153   2.791
 3609TIP3   OH210790   3.730   2.848   4.547
 3609TIP3    H110791   3.740   2.908   4.473
 3609TIP3    H210792   3.646   2.872   4.586
 3610TIP3   OH210793   2.032   1.626   4.201
 3610TIP3    H110794   1.976   1.561   4.243
 3610TIP3    H210795   2.057   1.587   4.118
 3611TIP3   OH210796   4.166   3.277   2.569
 3611TIP3    H110797   4.227   3.206   2.590
 3611TIP3    H210798   4.087   3.233   2.539
 3612TIP3   OH210799   2.917   6.465   0.029
 3612TIP3    H110800   2.923   6.559   0.045
 3612TIP3    H210801   3.004   6.441  -0.002
 3613TIP3   OH210802   3.834   5.851   0.194
 3613TIP3    H110803   3.791   5.897   0.122
 3613TIP3    H210804   3.854   5.764   0.159
 3614TIP3   OH210805   3.672   4.639   1.620
 3614TIP3    H110806   3.666   4.713   1.560
 3614TIP3    H210807   3.721   4.573   1.571
 3615TIP3   OH210808   4.562   2.693   1.013
 3615TIP3    H110809   4.592   2.784   1.003
 3615TIP3    H210810   4.623   2.642   0.960
 3616TIP3   OH210811   1.806   2.787   4.532
 3616TIP3    H110812   1.826   2.869   4.488
 3616TIP3    H210813   1.812   2.808   4.625
 3617TIP3   OH210814   6.383   0.904   3.564
 3617TIP3    H110815   6.333   0.902   3.646
 3617TIP3    H210816   6.474   0.920   3.592
 3618TIP3   OH210817   6.448   1.029   3.314
 3618TIP3    H110818   6.427   1.018   3.407
 3618TIP3    H210819   6.371   0.994   3.268
 3619TIP3   OH210820   1.299   2.899   1.065
 3619TIP3    H110821   1.315   2.942   1.149
 3619TIP3    H210822   1.204   2.889   1.061
 3620TIP3   OH210823   3.086   2.711   4.937
 3620TIP3    H110824   3.063   2.801   4.957
 3620TIP3    H210825   3.057   2.697   4.847
 3621TIP3   OH210826   2.941   4.657   3.522
 3621TIP3    H110827   2.948   4.746   3.486
 3621TIP3    H210828   2.885   4.667   3.599
 3622TIP3   OH210829   3.029   2.285   5.759
 3622TIP3    H110830   3.049   2.377   5.778
 3622TIP3    H210831   3.101   2.257   5.703
 3623TIP3   OH210832   0.488   3.716   4.566
 3623TIP3    H110833   0.479   3.754   4.478
 3623TIP3    H210834   0.406   3.670   4.581
 3624TIP3   OH210835   0.248   6.331   0.101
 3624TIP3    H110836   0.282   6.244   0.121
 3624TIP3    H210837   0.202   6.320   0.017
 3625TIP3   OH210838   4.237   4.868   5.377
 3625TIP3    H110839   4.228   4.778   5.345
 3625TIP3    H210840   4.182   4.920   5.319
 3626TIP3   OH210841   5.328   5.638   4.446
 3626TIP3    H110842   5.413   5.609   4.412
 3626TIP3    H210843   5.350   5.693   4.522
 3627TIP3   OH210844   7.062   1.852   5.076
 3627TIP3    H110845   7.152   1.833   5.105
 3627TIP3    H210846   7.073   1.902   4.995
 3628TIP3   OH210847   1.215   4.260   0.079
 3628TIP3    H110848   1.154   4.191   0.055
 3628TIP3    H210849   1.288   4.214   0.121
 3629TIP3   OH210850   2.263   5.675   4.714
 3629TIP3    H110851   2.202   5.711   4.779
 3629TIP3    H210852   2.319   5.748   4.691
 3630TIP3   OH210853   3.418   5.564   1.388
 3630TIP3    H110854   3.420   5.568   1.292
 3630TIP3    H210855   3.449   5.650   1.416
 3631TIP3   OH210856   7.241   4.918   4.169
 3631TIP3    H110857   7.215   4.886   4.255
 3631TIP3    H210858   7.247   4.840   4.114
 3632TIP3   OH210859   4.106   6.770   3.584
 3632TIP3    H110860   4.084   6.699   3.644
 3632TIP3    H210861   4.201   6.764   3.574
 3633TIP3   OH210862   0.257   4.342   2.964
 3633TIP3    H110863   0.318   4.359   2.892
 3633TIP3    H210864   0.297   4.385   3.039
 3634TIP3   OH210865   0.289   3.855   1.592
 3634TIP3    H110866   0.337   3.783   1.633
 3634TIP3    H210867   0.227   3.884   1.659
 3635TIP3   OH210868   5.968   1.912   1.456
 3635TIP3    H110869   5.985   1.998   1.418
 3635TIP3    H210870   5.892   1.879   1.408
 3636TIP3   OH210871   3.553   0.364   2.679
 3636TIP3    H110872   3.490   0.341   2.748
 3636TIP3    H210873   3.520   0.447   2.644
 3637TIP3   OH210874   3.683   4.653   4.412
 3637TIP3    H110875   3.690   4.581   4.474
 3637TIP3    H210876   3.733   4.623   4.336
 3638TIP3   OH210877   6.731   0.308   2.416
 3638TIP3    H110878   6.702   0.284   2.328
 3638TIP3    H210879   6.825   0.324   2.407
 3639TIP3   OH210880   6.122   3.619   1.857
 3639TIP3    H110881   6.141   3.623   1.950
 3639TIP3    H210882   6.038   3.664   1.847
 3640TIP3   OH210883   3.372   2.990   2.402
 3640TIP3    H110884   3.466   2.984   2.381
 3640TIP3    H210885   3.368   2.978   2.497
 3641TIP3   OH210886   0.840   5.843   0.554
 3641TIP3    H110887   0.823   5.760   0.598
 3641TIP3    H210888   0.904   5.887   0.609
 3642TIP3   OH210889   4.039   0.906   2.347
 3642TIP3    H110890   4.100   0.858   2.291
 3642TIP3    H210891   3.952   0.885   2.312
 3643TIP3   OH210892   1.436   6.386   4.753
 3643TIP3    H110893   1.494   6.345   4.689
 3643TIP3    H210894   1.479   6.373   4.837
 3644TIP3   OH210895   0.940   2.998   4.860
 3644TIP3    H110896   0.894   2.919   4.888
 3644TIP3    H210897   1.032   2.974   4.859
 3645TIP3   OH210898   3.109   5.294   2.692
 3645TIP3    H110899   3.140   5.368   2.744
 3645TIP3    H210900   3.181   5.232   2.693
 3646TIP3   OH210901   5.411   5.173   5.428
 3646TIP3    H110902   5.417   5.252   5.483
 3646TIP3    H210903   5.334   5.188   5.374
 3647TIP3   OH210904   2.224   6.083   2.367
 3647TIP3    H110905   2.250   5.995   2.342
 3647TIP3    H210906   2.143   6.072   2.416
 3648TIP3   OH210907   6.310   3.058   3.694
 3648TIP3    H110908   6.307   3.006   3.614
 3648TIP3    H210909   6.227   3.039   3.738
 3649TIP3   OH210910   7.115   0.208   4.546
 3649TIP3    H110911   7.165   0.208   4.627
 3649TIP3    H210912   7.161   0.146   4.489
 3650TIP3   OH210913   5.232   0.020   3.298
 3650TIP3    H110914   5.191   0.067   3.371
 3650TIP3    H210915   5.279   0.088   3.249
 3651TIP3   OH210916   4.027   3.208   1.086
 3651TIP3    H110917   3.981   3.213   1.170
 3651TIP3    H210918   3.975   3.262   1.027
 3652TIP3   OH210919   6.308   5.178   5.118
 3652TIP3    H110920   6.261   5.109   5.071
 3652TIP3    H210921   6.331   5.242   5.050
 3653TIP3   OH210922   0.521   4.825   1.236
 3653TIP3    H110923   0.465   4.874   1.176
 3653TIP3    H210924   0.545   4.889   1.303
 3654TIP3   OH210925   6.391   5.774   0.183
 3654TIP3    H110926   6.378   5.683   0.211
 3654TIP3    H210927   6.304   5.805   0.159
 3655TIP3   OH210928   4.300   6.749   3.929
 3655TIP3    H110929   4.316   6.691   4.003
 3655TIP3    H210930   4.324   6.697   3.852
 3656TIP3   OH210931   5.704   6.609   2.926
 3656TIP3    H110932   5.762   6.537   2.902
 3656TIP3    H210933   5.727   6.679   2.866
 3657TIP3   OH210934   6.989   1.468   5.013
 3657TIP3    H110935   7.023   1.401   5.072
 3657TIP3    H210936   6.903   1.434   4.986
 3658TIP3   OH210937   0.662   6.052   0.024
 3658TIP3    H110938   0.707   5.978  -0.017
 3658TIP3    H210939   0.646   6.023   0.114
 3659TIP3   OH210940   3.051   3.076   1.327
 3659TIP3    H110941   2.964   3.108   1.348
 3659TIP3    H210942   3.110   3.148   1.349
 3660TIP3   OH210943   1.247   0.609   0.719
 3660TIP3    H110944   1.261   0.514   0.720
 3660TIP3    H210945   1.293   0.640   0.797
 3661TIP3   OH210946   4.855   3.765   5.518
 3661TIP3    H110947   4.904   3.692   5.479
 3661TIP3    H210948   4.910   3.796   5.590
 3662TIP3   OH210949   1.715   5.286   1.813
 3662TIP3    H110950   1.722   5.256   1.903
 3662TIP3    H210951   1.637   5.243   1.778
 3663TIP3   OH210952   3.959   0.740   4.704
 3663TIP3    H110953   4.042   0.744   4.658
 3663TIP3    H210954   3.958   0.820   4.757
 3664TIP3   OH210955   1.970   0.965   5.078
 3664TIP3    H110956   1.889   0.916   5.097
 3664TIP3    H210957   2.039   0.898   5.082
 3665TIP3   OH210958   0.453   0.165   1.346
 3665TIP3    H110959   0.501   0.222   1.406
 3665TIP3    H210960   0.450   0.081   1.392
 3666TIP3   OH210961   7.014   4.941   0.764
 3666TIP3    H110962   7.071   5.018   0.756
 3666TIP3    H210963   6.958   4.960   0.839
 3667TIP3   OH210964   6.822   1.771   0.200
 3667TIP3    H110965   6.829   1.793   0.293
 3667TIP3    H210966   6.776   1.687   0.198
 3668TIP3   OH210967   4.699   5.598   0.114
 3668TIP3    H110968   4.786   5.609   0.075
 3668TIP3    H210969   4.645   5.567   0.041
 3669TIP3   OH210970   2.923   1.575   1.873
 3669TIP3    H110971   2.990   1.576   1.805
 3669TIP3    H210972   2.921   1.484   1.904
 3670TIP3   OH210973   3.216   2.665   2.857
 3670TIP3    H110974   3.247   2.675   2.948
 3670TIP3    H210975   3.126   2.697   2.859
 3671TIP3   OH210976   1.778   5.368   3.661
 3671TIP3    H110977   1.838   5.298   3.635
 3671TIP3    H210978   1.786   5.371   3.757
 3672TIP3   OH210979   0.644   0.807   5.243
 3672TIP3    H110980   0.695   0.887   5.256
 3672TIP3    H210981   0.610   0.786   5.330
 3673TIP3   OH210982   5.448   1.093   2.161
 3673TIP3    H110983   5.489   1.169   2.120
 3673TIP3    H210984   5.426   1.036   2.088
 3674TIP3   OH210985   1.205   6.201  -0.028
 3674TIP3    H110986   1.148   6.126  -0.046
 3674TIP3    H210987   1.233   6.189   0.063
 3675TIP3   OH210988   1.337   6.790   4.254
 3675TIP3    H110989   1.411   6.777   4.195
 3675TIP3    H210990   1.371   6.844   4.325
 3676TIP3   OH210991   6.516   2.481   1.342
 3676TIP3    H110992   6.438   2.428   1.359
 3676TIP3    H210993   6.530   2.474   1.247
 3677TIP3   OH210994   1.526   4.178   3.620
 3677TIP3    H110995   1.448   4.176   3.565
 3677TIP3    H210996   1.495   4.153   3.707
 3678TIP3   OH210997   0.615   5.760   2.074
 3678TIP3    H110998   0.557   5.684   2.066
 3678TIP3    H210999   0.595   5.795   2.161
 3679TIP3   OH211000   4.045   6.673   0.212
 3679TIP3    H111001   4.015   6.756   0.174
 3679TIP3    H211002   4.084   6.698   0.296
 3680TIP3   OH211003   4.480   1.496   2.875
 3680TIP3    H111004   4.569   1.477   2.904
 3680TIP3    H211005   4.443   1.549   2.945
 3681TIP3   OH211006   4.828   4.240   5.200
 3681TIP3    H111007   4.858   4.330   5.219
 3681TIP3    H211008   4.846   4.228   5.107
 3682TIP3   OH211009   4.873   0.406   0.859
 3682TIP3    H111010   4.821   0.461   0.800
 3682TIP3    H211011   4.918   0.468   0.916
 3683TIP3   OH211012   3.218   0.134   0.934
 3683TIP3    H111013   3.298   0.083   0.947
 3683TIP3    H211014   3.211   0.188   1.013
 3684TIP3   OH211015   4.835   3.528   4.030
 3684TIP3    H111016   4.828   3.474   3.952
 3684TIP3    H211017   4.840   3.465   4.102
 3685TIP3   OH211018   2.887   0.853   5.278
 3685TIP3    H111019   2.861   0.781   5.221
 3685TIP3    H211020   2.832   0.843   5.356
 3686TIP3   OH211021   0.989   0.976   0.591
 3686TIP3    H111022   1.009   0.897   0.542
 3686TIP3    H211023   1.064   1.033   0.576
 3687TIP3   OH211024   4.577   5.119   1.533
 3687TIP3    H111025   4.597   5.090   1.622
 3687TIP3    H211026   4.621   5.055   1.477
 3688TIP3   OH211027   2.624   1.666   1.919
 3688TIP3    H111028   2.600   1.757   1.901
 3688TIP3    H211029   2.706   1.653   1.872
 3689TIP3   OH211030   4.406   5.046   3.563
 3689TIP3    H111031   4.476   5.096   3.521
 3689TIP3    H211032   4.444   4.960   3.579
 3690TIP3   OH211033   1.361   4.549   4.478
 3690TIP3    H111034   1.451   4.517   4.482
 3690TIP3    H211035   1.363   4.634   4.521
 3691TIP3   OH211036   2.213   4.028   2.929
 3691TIP3    H111037   2.202   3.969   3.003
 3691TIP3    H211038   2.201   4.116   2.965
 3692TIP3   OH211039   6.363   2.339   0.644
 3692TIP3    H111040   6.299   2.273   0.615
 3692TIP3    H211041   6.433   2.334   0.579
 3693TIP3   OH211042   7.102   4.020   5.516
 3693TIP3    H111043   7.068   4.067   5.440
 3693TIP3    H211044   7.154   3.949   5.480
 3694TIP3   OH211045   5.828   4.012   0.813
 3694TIP3    H111046   5.733   4.014   0.799
 3694TIP3    H211047   5.845   3.925   0.850
 3695TIP3   OH211048   3.541   5.659   4.118
 3695TIP3    H111049   3.547   5.567   4.146
 3695TIP3    H211050   3.462   5.663   4.065
 3696TIP3   OH211051   3.713   2.322   4.229
 3696TIP3    H111052   3.731   2.365   4.146
 3696TIP3    H211053   3.750   2.380   4.295
 3697TIP3   OH211054   5.071   5.940   3.140
 3697TIP3    H111055   5.071   5.900   3.227
 3697TIP3    H211056   5.082   5.867   3.079
 3698TIP3   OH211057   6.343   0.873   5.091
 3698TIP3    H111058   6.391   0.901   5.169
 3698TIP3    H211059   6.334   0.952   5.038
 3699TIP3   OH211060   7.199   1.104   1.673
 3699TIP3    H111061   7.219   1.043   1.744
 3699TIP3    H211062   7.180   1.048   1.598
 3700TIP3   OH211063   3.781   3.500   5.191
 3700TIP3    H111064   3.848   3.534   5.249
 3700TIP3    H211065   3.736   3.433   5.242
 3701TIP3   OH211066   3.593   3.960   3.553
 3701TIP3    H111067   3.598   3.901   3.478
 3701TIP3    H211068   3.596   3.902   3.629
 3702TIP3   OH211069   0.047   6.260   4.414
 3702TIP3    H111070   0.093   6.329   4.462
 3702TIP3    H211071   0.042   6.292   4.324
 3703TIP3   OH211072   5.637   2.798   0.263
 3703TIP3    H111073   5.558   2.829   0.219
 3703TIP3    H211074   5.661   2.869   0.322
 3704TIP3   OH211075   0.989   2.325   4.750
 3704TIP3    H111076   0.911   2.350   4.699
 3704TIP3    H211077   1.034   2.407   4.768
 3705TIP3   OH211078   3.845   4.311   0.167
 3705TIP3    H111079   3.842   4.343   0.257
 3705TIP3    H211080   3.938   4.296   0.150
 3706TIP3   OH211081   4.662   0.437   3.225
 3706TIP3    H111082   4.671   0.516   3.279
 3706TIP3    H211083   4.718   0.372   3.268
 3707TIP3   OH211084   6.049   1.046   4.046
 3707TIP3    H111085   6.017   1.134   4.025
 3707TIP3    H211086   6.124   1.061   4.102
 3708TIP3   OH211087   4.656   4.365   0.823
 3708TIP3    H111088   4.610   4.435   0.870
 3708TIP3    H211089   4.604   4.287   0.840
 3709TIP3   OH211090   2.453   2.380   0.006
 3709TIP3    H111091   2.456   2.471   0.036
 3709TIP3    H211092   2.411   2.333   0.079
 3710TIP3   OH211093   5.398   2.135   0.139
 3710TIP3    H111094   5.437   2.125   0.052
 3710TIP3    H211095   5.465   2.182   0.189
 3711TIP3   OH211096   5.640   1.939   1.429
 3711TIP3    H111097   5.557   1.906   1.463
 3711TIP3    H211098   5.656   2.019   1.479
 3712TIP3   OH211099   6.359   6.197   3.987
 3712TIP3    H111100   6.368   6.110   3.948
 3712TIP3    H211101   6.435   6.205   4.045
 3713TIP3   OH211102   5.159   5.072   3.061
 3713TIP3    H111103   5.104   5.024   3.122
 3713TIP3    H211104   5.241   5.085   3.109
 3714TIP3   OH211105   2.232   4.600   1.319
 3714TIP3    H111106   2.233   4.550   1.401
 3714TIP3    H211107   2.182   4.545   1.259
 3715TIP3   OH211108   4.473   1.793   5.679
 3715TIP3    H111109   4.560   1.802   5.717
 3715TIP3    H211110   4.419   1.757   5.750
 3716TIP3   OH211111   2.257   4.015   4.937
 3716TIP3    H111112   2.335   3.961   4.949
 3716TIP3    H211113   2.186   3.951   4.928
 3717TIP3   OH211114   2.953   2.234   2.331
 3717TIP3    H111115   2.868   2.279   2.330
 3717TIP3    H211116   3.003   2.276   2.261
 3718TIP3   OH211117   5.582   1.992   3.282
 3718TIP3    H111118   5.499   1.946   3.277
 3718TIP3    H211119   5.640   1.945   3.221
 3719TIP3   OH211120   4.070   0.692   3.345
 3719TIP3    H111121   4.145   0.731   3.300
 3719TIP3    H211122   4.108   0.633   3.409
 3720TIP3   OH211123   4.013   2.864   4.771
 3720TIP3    H111124   4.017   2.930   4.703
 3720TIP3    H211125   4.032   2.781   4.727
 3721TIP3   OH211126   3.685   5.014   4.688
 3721TIP3    H111127   3.725   5.082   4.741
 3721TIP3    H211128   3.665   4.944   4.750
 3722TIP3   OH211129   2.126   3.443   1.489
 3722TIP3    H111130   2.088   3.375   1.433
 3722TIP3    H211131   2.221   3.433   1.476
 3723TIP3   OH211132   4.471   3.523   4.055
 3723TIP3    H111133   4.494   3.609   4.021
 3723TIP3    H211134   4.386   3.503   4.017
 3724TIP3   OH211135   4.814   0.828   0.597
 3724TIP3    H111136   4.767   0.883   0.659
 3724TIP3    H211137   4.762   0.747   0.593
 3725TIP3   OH211138   2.497   1.865   3.774
 3725TIP3    H111139   2.565   1.922   3.739
 3725TIP3    H211140   2.538   1.779   3.779
 3726TIP3   OH211141   2.206   2.053   5.771
 3726TIP3    H111142   2.154   2.062   5.690
 3726TIP3    H211143   2.274   1.990   5.748
 3727TIP3   OH211144   2.318   5.627   0.239
 3727TIP3    H111145   2.310   5.617   0.144
 3727TIP3    H211146   2.300   5.539   0.274
 3728TIP3   OH211147   6.656   3.456   2.200
 3728TIP3    H111148   6.592   3.459   2.129
 3728TIP3    H211149   6.664   3.546   2.230
 3729TIP3   OH211150   5.221   3.223   5.654
 3729TIP3    H111151   5.146   3.210   5.595
 3729TIP3    H211152   5.262   3.137   5.659
 3730TIP3   OH211153   4.310   4.009   4.213
 3730TIP3    H111154   4.331   4.076   4.148
 3730TIP3    H211155   4.224   3.977   4.188
 3731TIP3   OH211156   2.210   4.168   0.583
 3731TIP3    H111157   2.263   4.169   0.504
 3731TIP3    H211158   2.268   4.200   0.652
 3732TIP3   OH211159   0.825   4.147   2.920
 3732TIP3    H111160   0.842   4.241   2.930
 3732TIP3    H211161   0.849   4.128   2.830
 3733TIP3   OH211162   3.564   5.285   0.527
 3733TIP3    H111163   3.537   5.376   0.517
 3733TIP3    H211164   3.513   5.237   0.461
 3734TIP3   OH211165   2.600   1.972   4.372
 3734TIP3    H111166   2.585   1.885   4.337
 3734TIP3    H211167   2.526   1.988   4.430
 3735TIP3   OH211168   1.969   3.027   4.491
 3735TIP3    H111169   1.984   3.085   4.417
 3735TIP3    H211170   2.057   3.007   4.524
 3736TIP3   OH211171   4.032   2.812   3.185
 3736TIP3    H111172   4.016   2.906   3.195
 3736TIP3    H211173   4.101   2.806   3.119
 3737TIP3   OH211174   1.817   2.731   3.030
 3737TIP3    H111175   1.814   2.827   3.036
 3737TIP3    H211176   1.726   2.704   3.027
 3738TIP3   OH211177   4.729   1.185   5.837
 3738TIP3    H111178   4.670   1.109   5.833
 3738TIP3    H211179   4.691   1.248   5.775
 3739TIP3   OH211180   3.905   1.840   5.602
 3739TIP3    H111181   3.872   1.927   5.623
 3739TIP3    H211182   3.836   1.801   5.548
 3740TIP3   OH211183   3.243   1.977   2.934
 3740TIP3    H111184   3.326   2.020   2.953
 3740TIP3    H211185   3.215   1.940   3.018
 3741TIP3   OH211186   6.399   4.206   2.720
 3741TIP3    H111187   6.469   4.142   2.728
 3741TIP3    H211188   6.377   4.229   2.810
 3742TIP3   OH211189   1.201   2.588   1.797
 3742TIP3    H111190   1.218   2.616   1.887
 3742TIP3    H211191   1.210   2.493   1.799
 3743TIP3   OH211192   0.614   0.732   5.505
 3743TIP3    H111193   0.576   0.770   5.583
 3743TIP3    H211194   0.573   0.645   5.498
 3744TIP3   OH211195   3.598   5.525   2.844
 3744TIP3    H111196   3.645   5.608   2.836
 3744TIP3    H211197   3.664   5.464   2.878
 3745TIP3   OH211198   3.091   6.656   0.444
 3745TIP3    H111199   3.030   6.716   0.401
 3745TIP3    H211200   3.103   6.692   0.532
 3746TIP3   OH211201   1.304   1.238   4.965
 3746TIP3    H111202   1.302   1.143   4.978
 3746TIP3    H211203   1.258   1.252   4.882
 3747TIP3   OH211204   4.581   0.253   0.317
 3747TIP3    H111205   4.638   0.303   0.258
 3747TIP3    H211206   4.607   0.280   0.405
 3748TIP3   OH211207   2.316   4.908   5.694
 3748TIP3    H111208   2.279   4.967   5.629
 3748TIP3    H211209   2.244   4.848   5.715
 3749TIP3   OH211210   4.754   4.954   1.387
 3749TIP3    H111211   4.766   4.859   1.391
 3749TIP3    H211212   4.728   4.970   1.296
 3750TIP3   OH211213   4.917   5.352   1.085
 3750TIP3    H111214   4.835   5.325   1.042
 3750TIP3    H211215   4.926   5.445   1.064
 3751TIP3   OH211216   3.223   5.463   5.093
 3751TIP3    H111217   3.257   5.545   5.059
 3751TIP3    H211218   3.128   5.474   5.094
 3752TIP3   OH211219   4.922   2.564   0.683
 3752TIP3    H111220   4.872   2.520   0.614
 3752TIP3    H211221   4.857   2.584   0.750
 3753TIP3   OH211222   0.672   3.405   3.105
 3753TIP3    H111223   0.727   3.327   3.099
 3753TIP3    H211224   0.675   3.430   3.198
 3754TIP3   OH211225   1.554   3.040   3.487
 3754TIP3    H111226   1.513   3.125   3.502
 3754TIP3    H211227   1.648   3.056   3.497
 3755TIP3   OH211228   0.365   5.508   5.530
 3755TIP3    H111229   0.350   5.414   5.526
 3755TIP3    H211230   0.399   5.531   5.443
 3756TIP3   OH211231   2.701   3.638   0.007
 3756TIP3    H111232   2.694   3.689   0.087
 3756TIP3    H211233   2.633   3.674  -0.051
 3757TIP3   OH211234   3.916   2.449   1.691
 3757TIP3    H111235   3.901   2.496   1.609
 3757TIP3    H211236   3.959   2.368   1.665
 3758TIP3   OH211237   4.619   6.703   3.103
 3758TIP3    H111238   4.555   6.700   3.175
 3758TIP3    H211239   4.620   6.613   3.070
 3759TIP3   OH211240   2.323   6.525   4.632
 3759TIP3    H111241   2.418   6.534   4.640
 3759TIP3    H211242   2.297   6.476   4.709
 3760TIP3   OH211243   6.079   4.686   2.250
 3760TIP3    H111244   6.059   4.648   2.165
 3760TIP3    H211245   6.015   4.648   2.310
 3761TIP3   OH211246   0.209   0.655   0.160
 3761TIP3    H111247   0.203   0.574   0.110
 3761TIP3    H211248   0.246   0.630   0.244
 3762TIP3   OH211249   1.440   0.746   4.418
 3762TIP3    H111250   1.390   0.686   4.362
 3762TIP3    H211251   1.486   0.688   4.480
 3763TIP3   OH211252   5.670   0.896   5.872
 3763TIP3    H111253   5.582   0.862   5.856
 3763TIP3    H211254   5.728   0.835   5.826
 3764TIP3   OH211255   0.546   1.938   5.012
 3764TIP3    H111256   0.568   1.940   4.919
 3764TIP3    H211257   0.607   1.875   5.050
 3765TIP3   OH211258   5.705   5.981   3.424
 3765TIP3    H111259   5.764   5.910   3.449
 3765TIP3    H211260   5.630   5.937   3.384
 3766TIP3   OH211261   0.415   4.300   1.211
 3766TIP3    H111262   0.503   4.335   1.226
 3766TIP3    H211263   0.364   4.329   1.286
 3767TIP3   OH211264   3.791   1.393   4.049
 3767TIP3    H111265   3.881   1.381   4.078
 3767TIP3    H211266   3.797   1.406   3.955
 3768TIP3   OH211267   6.393   2.328   2.021
 3768TIP3    H111268   6.469   2.379   2.050
 3768TIP3    H211269   6.364   2.372   1.941
 3769TIP3   OH211270   5.847   0.659   2.637
 3769TIP3    H111271   5.938   0.636   2.656
 3769TIP3    H211272   5.797   0.582   2.664
 3770TIP3   OH211273   6.203   2.673   1.184
 3770TIP3    H111274   6.192   2.592   1.235
 3770TIP3    H211275   6.129   2.727   1.210
 3771TIP3   OH211276   5.620   2.591   0.450
 3771TIP3    H111277   5.632   2.648   0.374
 3771TIP3    H211278   5.676   2.630   0.518
 3772TIP3   OH211279   5.497   1.308   4.847
 3772TIP3    H111280   5.486   1.331   4.940
 3772TIP3    H211281   5.590   1.324   4.830
 3773TIP3   OH211282   0.960   1.487   4.878
 3773TIP3    H111283   0.942   1.511   4.969
 3773TIP3    H211284   0.878   1.450   4.847
 3774TIP3   OH211285   7.034   1.465   3.642
 3774TIP3    H111286   6.992   1.544   3.607
 3774TIP3    H211287   6.993   1.393   3.593
 3775TIP3   OH211288   5.819   3.933   5.791
 3775TIP3    H111289   5.743   3.878   5.775
 3775TIP3    H211290   5.893   3.883   5.756
 3776TIP3   OH211291   3.387   1.191   3.340
 3776TIP3    H111292   3.321   1.151   3.398
 3776TIP3    H211293   3.394   1.131   3.267
 3777TIP3   OH211294   1.923   5.111   1.044
 3777TIP3    H111295   1.967   5.143   1.123
 3777TIP3    H211296   1.957   5.165   0.973
 3778TIP3   OH211297   1.313   3.156   2.591
 3778TIP3    H111298   1.249   3.129   2.657
 3778TIP3    H211299   1.393   3.173   2.640
 3779TIP3   OH211300   4.971   6.203   0.292
 3779TIP3    H111301   5.040   6.259   0.256
 3779TIP3    H211302   5.018   6.133   0.338
 3780TIP3   OH211303   6.283   2.547   4.060
 3780TIP3    H111304   6.259   2.620   4.116
 3780TIP3    H211305   6.292   2.472   4.119
 3781TIP3   OH211306   4.849   5.849   0.620
 3781TIP3    H111307   4.891   5.935   0.627
 3781TIP3    H211308   4.802   5.852   0.537
 3782TIP3   OH211309   6.647   1.093   1.909
 3782TIP3    H111310   6.600   1.166   1.868
 3782TIP3    H211311   6.580   1.026   1.924
 3783TIP3   OH211312   4.082   5.361   4.712
 3783TIP3    H111313   4.053   5.450   4.733
 3783TIP3    H211314   4.174   5.372   4.685
 3784TIP3   OH211315   3.876   0.609   5.633
 3784TIP3    H111316   3.963   0.647   5.645
 3784TIP3    H211317   3.818   0.669   5.679
 3785TIP3   OH211318   5.390   5.744   4.094
 3785TIP3    H111319   5.439   5.666   4.117
 3785TIP3    H211320   5.301   5.726   4.123
 3786TIP3   OH211321   3.600   5.897   0.888
 3786TIP3    H111322   3.560   5.934   0.967
 3786TIP3    H211323   3.653   5.824   0.920
 3787TIP3   OH211324   6.356   6.522   2.076
 3787TIP3    H111325   6.410   6.574   2.136
 3787TIP3    H211326   6.406   6.442   2.063
 3788TIP3   OH211327   3.480   5.092   4.911
 3788TIP3    H111328   3.433   5.124   4.833
 3788TIP3    H211329   3.448   5.003   4.924
 3789TIP3   OH211330   3.550   3.704   3.444
 3789TIP3    H111331   3.510   3.679   3.527
 3789TIP3    H211332   3.476   3.730   3.389
 3790TIP3   OH211333   2.627   0.809   2.115
 3790TIP3    H111334   2.554   0.855   2.073
 3790TIP3    H211335   2.701   0.823   2.056
 3791TIP3   OH211336   2.961   5.079   5.900
 3791TIP3    H111337   2.963   5.168   5.864
 3791TIP3    H211338   2.998   5.089   5.988
 3792TIP3   OH211339   0.405   5.767   4.291
 3792TIP3    H111340   0.320   5.775   4.333
 3792TIP3    H211341   0.403   5.682   4.248
 3793TIP3   OH211342   6.477   3.788   0.703
 3793TIP3    H111343   6.461   3.813   0.612
 3793TIP3    H211344   6.390   3.785   0.743
 3794TIP3   OH211345   5.519   0.348   5.700
 3794TIP3    H111346   5.526   0.361   5.605
 3794TIP3    H211347   5.433   0.383   5.723
 3795TIP3   OH211348   3.583   5.148   3.048
 3795TIP3    H111349   3.513   5.093   3.084
 3795TIP3    H211350   3.659   5.127   3.102
 3796TIP3   OH211351   1.839   2.729   5.132
 3796TIP3    H111352   1.830   2.823   5.145
 3796TIP3    H211353   1.766   2.691   5.180
 3797TIP3   OH211354   6.164   4.417   3.999
 3797TIP3    H111355   6.151   4.372   3.916
 3797TIP3    H211356   6.201   4.350   4.057
 3798TIP3   OH211357   2.173   0.445   2.214
 3798TIP3    H111358   2.229   0.438   2.137
 3798TIP3    H211359   2.155   0.539   2.223
 3799TIP3   OH211360   6.917   2.271   5.433
 3799TIP3    H111361   6.857   2.196   5.440
 3799TIP3    H211362   6.983   2.243   5.370
 3800TIP3   OH211363   1.996   4.230   5.535
 3800TIP3    H111364   2.019   4.235   5.628
 3800TIP3    H211365   2.078   4.206   5.491
 3801TIP3   OH211366   4.501   4.129   1.889
 3801TIP3    H111367   4.490   4.116   1.795
 3801TIP3    H211368   4.419   4.099   1.927
 3802TIP3   OH211369   0.596   5.473   1.599
 3802TIP3    H111370   0.536   5.525   1.652
 3802TIP3    H211371   0.563   5.481   1.510
 3803TIP3   OH211372   2.505   5.382   3.794
 3803TIP3    H111373   2.463   5.463   3.768
 3803TIP3    H211374   2.572   5.408   3.857
 3804TIP3   OH211375   1.884   4.393   0.767
 3804TIP3    H111376   1.797   4.354   0.759
 3804TIP3    H211377   1.931   4.365   0.688
 3805TIP3   OH211378   2.853   4.716   1.980
 3805TIP3    H111379   2.763   4.708   1.950
 3805TIP3    H211380   2.847   4.771   2.059
 3806TIP3   OH211381   7.167   5.502   3.107
 3806TIP3    H111382   7.199   5.573   3.052
 3806TIP3    H211383   7.145   5.544   3.190
 3807TIP3   OH211384   4.413   6.625   4.570
 3807TIP3    H111385   4.466   6.576   4.507
 3807TIP3    H211386   4.359   6.683   4.517
 3808TIP3   OH211387   6.977   2.002   3.579
 3808TIP3    H111388   7.019   2.049   3.506
 3808TIP3    H211389   6.888   2.036   3.582
 3809TIP3   OH211390   5.656   1.573   5.621
 3809TIP3    H111391   5.689   1.547   5.707
 3809TIP3    H211392   5.684   1.664   5.611
 3810TIP3   OH211393   0.871   0.653   0.202
 3810TIP3    H111394   0.777   0.668   0.192
 3810TIP3    H211395   0.879   0.610   0.287
 3811TIP3   OH211396   1.465   0.281   5.734
 3811TIP3    H111397   1.519   0.351   5.770
 3811TIP3    H211398   1.394   0.326   5.689
 3812TIP3   OH211399   0.124   0.226   3.920
 3812TIP3    H111400   0.172   0.159   3.968
 3812TIP3    H211401   0.103   0.292   3.986
 3813TIP3   OH211402   4.782   6.001   4.220
 3813TIP3    H111403   4.810   5.912   4.239
 3813TIP3    H211404   4.845   6.057   4.264
 3814TIP3   OH211405   5.925   4.433   4.631
 3814TIP3    H111406   5.966   4.507   4.585
 3814TIP3    H211407   5.838   4.426   4.590
 3815TIP3   OH211408   4.976   5.021   3.830
 3815TIP3    H111409   5.000   4.934   3.796
 3815TIP3    H211410   5.039   5.080   3.788
 3816TIP3   OH211411   1.684   4.458   5.765
 3816TIP3    H111412   1.669   4.506   5.684
 3816TIP3    H211413   1.628   4.380   5.757
 3817TIP3   OH211414   0.546   3.504   2.158
 3817TIP3    H111415   0.583   3.587   2.127
 3817TIP3    H211416   0.484   3.478   2.090
 3818TIP3   OH211417   5.053   3.574   3.672
 3818TIP3    H111418   5.055   3.669   3.661
 3818TIP3    H211419   5.004   3.542   3.597
 3819TIP3   OH211420   3.102   5.571   4.549
 3819TIP3    H111421   3.114   5.568   4.644
 3819TIP3    H211422   3.167   5.634   4.518
 3820TIP3   OH211423   5.931   4.219   1.604
 3820TIP3    H111424   5.924   4.231   1.698
 3820TIP3    H211425   5.943   4.124   1.592
 3821TIP3   OH211426   0.635   1.137   3.039
 3821TIP3    H111427   0.591   1.067   2.990
 3821TIP3    H211428   0.671   1.194   2.971
 3822TIP3   OH211429   2.187   5.688   2.017
 3822TIP3    H111430   2.209   5.728   1.933
 3822TIP3    H211431   2.105   5.641   2.002
 3823TIP3   OH211432   0.773   0.873   2.044
 3823TIP3    H111433   0.820   0.909   2.119
 3823TIP3    H211434   0.835   0.811   2.005
 3824TIP3   OH211435   3.272   1.344   1.748
 3824TIP3    H111436   3.228   1.365   1.830
 3824TIP3    H211437   3.260   1.250   1.737
 3825TIP3   OH211438   3.030   0.049   0.758
 3825TIP3    H111439   3.028   0.136   0.718
 3825TIP3    H211440   3.087   0.060   0.834
 3826TIP3   OH211441   3.716   0.470   3.974
 3826TIP3    H111442   3.643   0.519   4.012
 3826TIP3    H211443   3.787   0.481   4.036
 3827TIP3   OH211444   0.458   5.024   2.789
 3827TIP3    H111445   0.393   4.998   2.855
 3827TIP3    H211446   0.540   4.984   2.818
 3828TIP3   OH211447   2.273   2.748   4.744
 3828TIP3    H111448   2.241   2.705   4.823
 3828TIP3    H211449   2.331   2.683   4.704
 3829TIP3   OH211450   1.397   6.583   5.435
 3829TIP3    H111451   1.453   6.588   5.512
 3829TIP3    H211452   1.415   6.498   5.397
 3830TIP3   OH211453   1.650   2.209   3.368
 3830TIP3    H111454   1.564   2.181   3.337
 3830TIP3    H211455   1.634   2.238   3.458
 3831TIP3   OH211456   2.109   5.299   2.559
 3831TIP3    H111457   2.115   5.205   2.542
 3831TIP3    H211458   2.164   5.340   2.492
 3832TIP3   OH211459   4.089   0.588   5.071
 3832TIP3    H111460   4.084   0.500   5.035
 3832TIP3    H211461   4.175   0.592   5.113
 3833TIP3   OH211462   3.525   0.249   5.008
 3833TIP3    H111463   3.470   0.282   4.936
 3833TIP3    H211464   3.550   0.328   5.057
 3834TIP3   OH211465   5.433   0.501   0.754
 3834TIP3    H111466   5.440   0.431   0.819
 3834TIP3    H211467   5.425   0.455   0.670
 3835TIP3   OH211468   7.228   4.467   0.215
 3835TIP3    H111469   7.234   4.478   0.310
 3835TIP3    H211470   7.236   4.556   0.180
 3836TIP3   OH211471   2.292   3.814   0.924
 3836TIP3    H111472   2.201   3.789   0.910
 3836TIP3    H211473   2.304   3.893   0.870
 3837TIP3   OH211474   5.467   3.915   3.958
 3837TIP3    H111475   5.398   3.921   3.892
 3837TIP3    H211476   5.523   3.991   3.941
 3838TIP3   OH211477   2.389   1.077   0.335
 3838TIP3    H111478   2.481   1.059   0.321
 3838TIP3    H211479   2.374   1.057   0.428
 3839TIP3   OH211480   5.421   2.748   1.694
 3839TIP3    H111481   5.352   2.702   1.742
 3839TIP3    H211482   5.415   2.713   1.605
 3840TIP3   OH211483  -0.019   1.044   3.227
 3840TIP3    H111484  -0.011   0.979   3.296
 3840TIP3    H211485  -0.037   1.126   3.274
 3841TIP3   OH211486   5.998   1.972   0.586
 3841TIP3    H111487   5.915   2.019   0.593
 3841TIP3    H211488   5.976   1.890   0.542
 3842TIP3   OH211489   5.038   1.603   3.718
 3842TIP3    H111490   5.019   1.573   3.806
 3842TIP3    H211491   5.001   1.692   3.714
 3843TIP3   OH211492   4.423   4.199   2.279
 3843TIP3    H111493   4.387   4.258   2.213
 3843TIP3    H211494   4.448   4.120   2.230
 3844TIP3   OH211495   6.025   1.741   4.520
 3844TIP3    H111496   6.025   1.646   4.531
 3844TIP3    H211497   5.975   1.774   4.594
 3845TIP3   OH211498   6.333   4.224   0.843
 3845TIP3    H111499   6.295   4.183   0.920
 3845TIP3    H211500   6.301   4.315   0.846
 3846TIP3   OH211501   1.229   2.752   1.551
 3846TIP3    H111502   1.318   2.759   1.517
 3846TIP3    H211503   1.240   2.725   1.643
 3847TIP3   OH211504   0.175   4.934   0.968
 3847TIP3    H111505   0.183   5.003   1.034
 3847TIP3    H211506   0.104   4.963   0.911
 3848TIP3   OH211507   1.468   3.292   0.239
 3848TIP3    H111508   1.435   3.362   0.183
 3848TIP3    H211509   1.393   3.269   0.295
 3849TIP3   OH211510   6.322   2.892   4.429
 3849TIP3    H111511   6.389   2.829   4.454
 3849TIP3    H211512   6.243   2.840   4.418
 3850TIP3   OH211513   0.267   1.166   5.658
 3850TIP3    H111514   0.279   1.143   5.750
 3850TIP3    H211515   0.325   1.241   5.644
 3851TIP3   OH211516   0.953   0.730   5.184
 3851TIP3    H111517   0.993   0.694   5.105
 3851TIP3    H211518   0.890   0.664   5.212
 3852TIP3   OH211519   0.653   4.316   0.959
 3852TIP3    H111520   0.562   4.300   0.935
 3852TIP3    H211521   0.672   4.251   1.026
 3853TIP3   OH211522   0.953   2.840   2.339
 3853TIP3    H111523   1.040   2.876   2.352
 3853TIP3    H211524   0.900   2.914   2.309
 3854TIP3   OH211525   2.742   3.981   1.455
 3854TIP3    H111526   2.707   4.042   1.520
 3854TIP3    H211527   2.809   4.032   1.408
 3855TIP3   OH211528   2.952   0.896   1.955
 3855TIP3    H111529   2.975   0.986   1.978
 3855TIP3    H211530   3.020   0.869   1.892
 3856TIP3   OH211531   1.397   3.660   1.909
 3856TIP3    H111532   1.373   3.595   1.975
 3856TIP3    H211533   1.318   3.671   1.855
 3857TIP3   OH211534   7.059   1.953   1.911
 3857TIP3    H111535   6.968   1.966   1.936
 3857TIP3    H211536   7.064   1.863   1.880
 3858TIP3   OH211537   1.491   4.350   3.080
 3858TIP3    H111538   1.400   4.326   3.095
 3858TIP3    H211539   1.535   4.335   3.164
 3859TIP3   OH211540   5.594   0.650   0.119
 3859TIP3    H111541   5.519   0.645   0.177
 3859TIP3    H211542   5.666   0.680   0.175
 3860TIP3   OH211543   1.283   0.503   5.731
 3860TIP3    H111544   1.189   0.520   5.723
 3860TIP3    H211545   1.325   0.584   5.703
 3861TIP3   OH211546   2.694   5.391   5.203
 3861TIP3    H111547   2.768   5.332   5.214
 3861TIP3    H211548   2.636   5.347   5.141
 3862TIP3   OH211549   3.103   2.350   5.389
 3862TIP3    H111550   3.036   2.392   5.444
 3862TIP3    H211551   3.150   2.291   5.449
 3863TIP3   OH211552   3.757   2.210   2.841
 3863TIP3    H111553   3.812   2.258   2.902
 3863TIP3    H211554   3.772   2.118   2.862
 3864TIP3   OH211555   3.185   0.186   1.260
 3864TIP3    H111556   3.240   0.232   1.323
 3864TIP3    H211557   3.144   0.115   1.310
 3865TIP3   OH211558   2.719   3.887   1.799
 3865TIP3    H111559   2.788   3.910   1.737
 3865TIP3    H211560   2.757   3.819   1.854
 3866TIP3   OH211561   1.134   0.449   3.680
 3866TIP3    H111562   1.059   0.502   3.708
 3866TIP3    H211563   1.112   0.360   3.707
 3867TIP3   OH211564   4.934   0.761   5.766
 3867TIP3    H111565   4.936   0.799   5.854
 3867TIP3    H211566   4.971   0.829   5.709
 3868TIP3   OH211567   0.150   3.545   2.075
 3868TIP3    H111568   0.162   3.556   2.169
 3868TIP3    H211569   0.239   3.537   2.040
 3869TIP3   OH211570   4.726   3.418   5.193
 3869TIP3    H111571   4.743   3.349   5.256
 3869TIP3    H211572   4.794   3.484   5.210
 3870TIP3   OH211573   1.014   1.183   0.268
 3870TIP3    H111574   1.084   1.125   0.242
 3870TIP3    H211575   1.055   1.270   0.275
 3871TIP3   OH211576   5.814   1.129   0.602
 3871TIP3    H111577   5.788   1.221   0.612
 3871TIP3    H211578   5.766   1.083   0.671
 3872TIP3   OH211579   3.714   4.318   3.775
 3872TIP3    H111580   3.793   4.269   3.750
 3872TIP3    H211581   3.645   4.282   3.720
 3873TIP3   OH211582   2.483   3.990   2.272
 3873TIP3    H111583   2.512   4.082   2.275
 3873TIP3    H211584   2.419   3.983   2.343
 3874TIP3   OH211585   6.554   4.611   1.887
 3874TIP3    H111586   6.497   4.576   1.818
 3874TIP3    H211587   6.633   4.556   1.883
 3875TIP3   OH211588   2.105   0.092   4.746
 3875TIP3    H111589   2.062   0.110   4.830
 3875TIP3    H211590   2.195   0.122   4.759
 3876TIP3   OH211591   4.856   0.795   2.910
 3876TIP3    H111592   4.772   0.750   2.903
 3876TIP3    H211593   4.838   0.869   2.968
 3877TIP3   OH211594   0.959   2.754   5.704
 3877TIP3    H111595   0.904   2.676   5.704
 3877TIP3    H211596   0.984   2.765   5.796
 3878TIP3   OH211597   2.844   3.755   5.604
 3878TIP3    H111598   2.792   3.695   5.551
 3878TIP3    H211599   2.780   3.813   5.645
 3879TIP3   OH211600   4.441   3.463   1.442
 3879TIP3    H111601   4.411   3.383   1.486
 3879TIP3    H211602   4.462   3.434   1.353
 3880TIP3   OH211603   5.488   1.323   1.398
 3880TIP3    H111604   5.487   1.229   1.380
 3880TIP3    H211605   5.490   1.329   1.494
 3881TIP3   OH211606   0.426   0.371   0.614
 3881TIP3    H111607   0.344   0.334   0.582
 3881TIP3    H211608   0.399   0.437   0.678
 3882TIP3   OH211609   3.385   3.117   5.288
 3882TIP3    H111610   3.456   3.068   5.329
 3882TIP3    H211611   3.425   3.160   5.213
 3883TIP3   OH211612   6.621   5.278   3.156
 3883TIP3    H111613   6.653   5.360   3.194
 3883TIP3    H211614   6.642   5.284   3.063
 3884TIP3   OH211615   6.532   2.318   0.412
 3884TIP3    H111616   6.580   2.317   0.329
 3884TIP3    H211617   6.501   2.229   0.423
 3885TIP3   OH211618   3.795   5.583   4.008
 3885TIP3    H111619   3.756   5.529   3.939
 3885TIP3    H211620   3.720   5.615   4.059
 3886TIP3   OH211621   3.322   4.982   3.587
 3886TIP3    H111622   3.275   4.899   3.599
 3886TIP3    H211623   3.337   5.014   3.676
 3887TIP3   OH211624   4.211   4.304   0.323
 3887TIP3    H111625   4.129   4.333   0.364
 3887TIP3    H211626   4.256   4.253   0.391
 3888TIP3   OH211627   6.170   2.544   2.935
 3888TIP3    H111628   6.220   2.464   2.951
 3888TIP3    H211629   6.097   2.516   2.879
 3889TIP3   OH211630   5.712   5.016   0.320
 3889TIP3    H111631   5.670   4.934   0.345
 3889TIP3    H211632   5.673   5.038   0.236
 3890TIP3   OH211633   3.005   2.650   4.669
 3890TIP3    H111634   2.969   2.586   4.607
 3890TIP3    H211635   2.929   2.679   4.719
 3891TIP3   OH211636   3.010   4.998   1.844
 3891TIP3    H111637   3.054   4.918   1.814
 3891TIP3    H211638   3.081   5.056   1.870
 3892TIP3   OH211639   0.141   3.054   4.728
 3892TIP3    H111640   0.196   3.119   4.685
 3892TIP3    H211641   0.171   2.970   4.694
 3893TIP3   OH211642   3.537   1.802   2.934
 3893TIP3    H111643   3.449   1.770   2.917
 3893TIP3    H211644   3.591   1.761   2.867
 3894TIP3   OH211645   1.972   5.734   2.546
 3894TIP3    H111646   1.972   5.682   2.465
 3894TIP3    H211647   1.889   5.711   2.588
 3895TIP3   OH211648   1.476   2.498   0.913
 3895TIP3    H111649   1.556   2.456   0.882
 3895TIP3    H211650   1.405   2.457   0.862
 3896TIP3   OH211651   6.111   4.832   1.212
 3896TIP3    H111652   6.077   4.788   1.134
 3896TIP3    H211653   6.043   4.819   1.278
 3897TIP3   OH211654   4.664   4.436   1.517
 3897TIP3    H111655   4.600   4.473   1.577
 3897TIP3    H211656   4.689   4.353   1.556
 3898TIP3   OH211657   4.053   4.258   3.221
 3898TIP3    H111658   4.100   4.327   3.174
 3898TIP3    H211659   4.063   4.181   3.165
 3899TIP3   OH211660   3.464   3.781   5.835
 3899TIP3    H111661   3.545   3.731   5.831
 3899TIP3    H211662   3.454   3.818   5.747
 3900TIP3   OH211663   0.640   2.527   0.460
 3900TIP3    H111664   0.575   2.517   0.390
 3900TIP3    H211665   0.639   2.443   0.506
 3901TIP3   OH211666   0.177   1.953   0.453
 3901TIP3    H111667   0.195   1.986   0.541
 3901TIP3    H211668   0.112   2.012   0.417
 3902TIP3   OH211669   6.748   0.952   2.376
 3902TIP3    H111670   6.770   1.033   2.422
 3902TIP3    H211671   6.656   0.960   2.355
 3903TIP3   OH211672   5.202   4.549   4.018
 3903TIP3    H111673   5.141   4.543   4.091
 3903TIP3    H211674   5.234   4.460   4.005
 3904TIP3   OH211675   0.138   3.093   1.742
 3904TIP3    H111676   0.228   3.123   1.726
 3904TIP3    H211677   0.083   3.160   1.701
 3905TIP3   OH211678   0.309   0.895   5.653
 3905TIP3    H111679   0.287   0.864   5.741
 3905TIP3    H211680   0.328   0.988   5.665
 3906TIP3   OH211681   3.003   0.117   4.604
 3906TIP3    H111682   2.988   0.181   4.534
 3906TIP3    H211683   2.949   0.042   4.579
 3907TIP3   OH211684   5.032   3.125   1.308
 3907TIP3    H111685   4.990   3.049   1.268
 3907TIP3    H211686   4.964   3.165   1.362
 3908TIP3   OH211687   0.161   3.507   0.079
 3908TIP3    H111688   0.189   3.596   0.097
 3908TIP3    H211689   0.206   3.454   0.146
 3909TIP3   OH211690   0.301   0.950   3.136
 3909TIP3    H111691   0.266   1.034   3.165
 3909TIP3    H211692   0.381   0.973   3.088
 3910TIP3   OH211693   7.143   5.656   2.131
 3910TIP3    H111694   7.067   5.599   2.140
 3910TIP3    H211695   7.116   5.739   2.169
 3911TIP3   OH211696   2.624   4.780   5.249
 3911TIP3    H111697   2.569   4.824   5.314
 3911TIP3    H211698   2.693   4.738   5.301
 3912TIP3   OH211699   1.319   6.066   3.701
 3912TIP3    H111700   1.367   6.001   3.650
 3912TIP3    H211701   1.299   6.021   3.783
 3913TIP3   OH211702   2.876   6.230   2.447
 3913TIP3    H111703   2.964   6.218   2.482
 3913TIP3    H211704   2.821   6.241   2.524
 3914TIP3   OH211705   1.544   3.407   0.485
 3914TIP3    H111706   1.509   3.496   0.483
 3914TIP3    H211707   1.510   3.367   0.405
 3915TIP3   OH211708   3.876   6.217   4.905
 3915TIP3    H111709   3.785   6.206   4.877
 3915TIP3    H211710   3.870   6.236   4.999
 3916TIP3   OH211711   2.998   3.219   1.036
 3916TIP3    H111712   3.017   3.233   0.943
 3916TIP3    H211713   2.960   3.131   1.040
 3917TIP3   OH211714   5.301   0.989   3.119
 3917TIP3    H111715   5.245   1.062   3.092
 3917TIP3    H211716   5.328   0.948   3.036
 3918TIP3   OH211717   0.996   3.999   4.789
 3918TIP3    H111718   0.985   3.916   4.743
 3918TIP3    H211719   1.021   4.061   4.720
 3919TIP3   OH211720   0.873   0.265   2.093
 3919TIP3    H111721   0.941   0.290   2.030
 3919TIP3    H211722   0.826   0.346   2.112
 3920TIP3   OH211723   3.267   0.062   5.014
 3920TIP3    H111724   3.258   0.094   5.104
 3920TIP3    H211725   3.339   0.000   5.018
 3921TIP3   OH211726   1.826   3.448   3.733
 3921TIP3    H111727   1.826   3.379   3.799
 3921TIP3    H211728   1.734   3.471   3.722
 3922TIP3   OH211729   2.170   2.595   1.086
 3922TIP3    H111730   2.128   2.675   1.053
 3922TIP3    H211731   2.181   2.611   1.180
 3923TIP3   OH211732   5.862   2.279   3.414
 3923TIP3    H111733   5.865   2.355   3.356
 3923TIP3    H211734   5.771   2.249   3.409
 3924TIP3   OH211735   4.271   0.336   2.350
 3924TIP3    H111736   4.208   0.402   2.320
 3924TIP3    H211737   4.345   0.387   2.382
 3925TIP3   OH211738   2.492   3.997   1.317
 3925TIP3    H111739   2.575   4.007   1.362
 3925TIP3    H211740   2.516   3.987   1.224
 3926TIP3   OH211741   3.598   2.860   0.358
 3926TIP3    H111742   3.526   2.908   0.317
 3926TIP3    H211743   3.580   2.865   0.452
 3927TIP3   OH211744   2.171   4.455   3.562
 3927TIP3    H111745   2.252   4.426   3.605
 3927TIP3    H211746   2.187   4.439   3.469
 3928TIP3   OH211747   3.707   2.460   1.957
 3928TIP3    H111748   3.795   2.484   1.987
 3928TIP3    H211749   3.670   2.542   1.924
 3929TIP3   OH211750   4.137   1.884   4.168
 3929TIP3    H111751   4.069   1.918   4.109
 3929TIP3    H211752   4.210   1.944   4.156
 3930TIP3   OH211753   5.070   2.672   1.092
 3930TIP3    H111754   5.089   2.585   1.129
 3930TIP3    H211755   4.982   2.693   1.126
 3931TIP3   OH211756   5.093   6.148   2.815
 3931TIP3    H111757   5.012   6.107   2.785
 3931TIP3    H211758   5.154   6.135   2.743
 3932TIP3   OH211759   2.056   1.401   3.307
 3932TIP3    H111760   1.985   1.416   3.370
 3932TIP3    H211761   2.131   1.448   3.343
 3933TIP3   OH211762   5.775   1.606   1.515
 3933TIP3    H111763   5.857   1.648   1.490
 3933TIP3    H211764   5.789   1.579   1.606
 3934TIP3   OH211765   2.684   1.336   1.075
 3934TIP3    H111766   2.689   1.244   1.052
 3934TIP3    H211767   2.649   1.379   0.997
 3935TIP3   OH211768   2.307   5.118   4.654
 3935TIP3    H111769   2.324   5.207   4.682
 3935TIP3    H211770   2.299   5.068   4.735
 3936TIP3   OH211771   4.646   0.097   5.352
 3936TIP3    H111772   4.740   0.112   5.354
 3936TIP3    H211773   4.637   0.002   5.356
 3937TIP3   OH211774   3.239   2.202   5.572
 3937TIP3    H111775   3.245   2.118   5.527
 3937TIP3    H211776   3.324   2.213   5.615
 3938TIP3   OH211777   2.640   4.394   1.503
 3938TIP3    H111778   2.609   4.428   1.419
 3938TIP3    H211779   2.717   4.447   1.523
 3939TIP3   OH211780   5.760   3.074   1.101
 3939TIP3    H111781   5.690   3.138   1.086
 3939TIP3    H211782   5.714   2.996   1.133
 3940TIP3   OH211783   6.139   0.666   3.606
 3940TIP3    H111784   6.191   0.712   3.539
 3940TIP3    H211785   6.204   0.620   3.659
 3941TIP3   OH211786   6.560   3.431   0.368
 3941TIP3    H111787   6.586   3.483   0.444
 3941TIP3    H211788   6.465   3.424   0.375
 3942TIP3   OH211789   0.107   5.485   2.280
 3942TIP3    H111790   0.032   5.537   2.251
 3942TIP3    H211791   0.069   5.414   2.331
 3943TIP3   OH211792   6.409   1.314   2.741
 3943TIP3    H111793   6.463   1.393   2.755
 3943TIP3    H211794   6.328   1.347   2.703
 3944TIP3   OH211795   3.541   1.400   2.187
 3944TIP3    H111796   3.506   1.455   2.118
 3944TIP3    H211797   3.636   1.412   2.181
 3945TIP3   OH211798   2.682   6.712   3.744
 3945TIP3    H111799   2.684   6.638   3.683
 3945TIP3    H211800   2.660   6.673   3.828
 3946TIP3   OH211801   1.869   6.792   1.579
 3946TIP3    H111802   1.787   6.829   1.612
 3946TIP3    H211803   1.841   6.722   1.520
 3947TIP3   OH211804   2.190   0.198   4.423
 3947TIP3    H111805   2.214   0.136   4.492
 3947TIP3    H211806   2.140   0.147   4.360
 3948TIP3   OH211807   0.460   4.352   1.605
 3948TIP3    H111808   0.521   4.395   1.665
 3948TIP3    H211809   0.455   4.262   1.635
 3949TIP3   OH211810   4.689   6.635   1.047
 3949TIP3    H111811   4.684   6.589   1.130
 3949TIP3    H211812   4.734   6.574   0.988
 3950TIP3   OH211813   4.531   2.637   3.774
 3950TIP3    H111814   4.548   2.658   3.682
 3950TIP3    H211815   4.437   2.620   3.778
 3951TIP3   OH211816   0.088   5.991   3.638
 3951TIP3    H111817   0.134   5.985   3.722
 3951TIP3    H211818   0.132   5.926   3.582
 3952TIP3   OH211819   6.073   6.667   5.781
 3952TIP3    H111820   6.052   6.634   5.868
 3952TIP3    H211821   5.997   6.643   5.728
 3953TIP3   OH211822   4.067   1.012   4.518
 3953TIP3    H111823   4.126   1.026   4.444
 3953TIP3    H211824   3.981   0.999   4.479
 3954TIP3   OH211825   2.067   4.005   5.865
 3954TIP3    H111826   2.069   4.098   5.844
 3954TIP3    H211827   1.978   3.978   5.844
 3955TIP3   OH211828   2.560   2.375   0.682
 3955TIP3    H111829   2.648   2.370   0.644
 3955TIP3    H211830   2.502   2.347   0.611
 3956TIP3   OH211831   7.203   4.306   4.693
 3956TIP3    H111832   7.212   4.290   4.787
 3956TIP3    H211833   7.164   4.226   4.659
 3957TIP3   OH211834   0.393   6.698   4.550
 3957TIP3    H111835   0.399   6.649   4.468
 3957TIP3    H211836   0.447   6.648   4.612
 3958TIP3   OH211837   4.040   3.110   3.210
 3958TIP3    H111838   4.058   3.197   3.245
 3958TIP3    H211839   4.029   3.124   3.116
 3959TIP3   OH211840   0.265   4.024   2.102
 3959TIP3    H111841   0.261   3.971   2.182
 3959TIP3    H211842   0.306   4.106   2.129
 3960TIP3   OH211843   2.989   1.978   0.747
 3960TIP3    H111844   3.025   2.021   0.669
 3960TIP3    H211845   2.973   2.049   0.809
 3961TIP3   OH211846   3.495   0.399   1.882
 3961TIP3    H111847   3.419   0.347   1.909
 3961TIP3    H211848   3.567   0.366   1.936
 3962TIP3   OH211849   4.853   1.032   5.442
 3962TIP3    H111850   4.908   0.980   5.384
 3962TIP3    H211851   4.763   1.007   5.419
 3963TIP3   OH211852   6.512   0.839   0.721
 3963TIP3    H111853   6.540   0.832   0.813
 3963TIP3    H211854   6.418   0.857   0.726
 3964TIP3   OH211855   4.471   2.598   0.157
 3964TIP3    H111856   4.459   2.560   0.244
 3964TIP3    H211857   4.426   2.537   0.098
 3965TIP3   OH211858   4.598   6.017   5.473
 3965TIP3    H111859   4.508   5.985   5.465
 3965TIP3    H211860   4.622   6.044   5.385
 3966TIP3   OH211861   3.114   1.936   5.438
 3966TIP3    H111862   3.059   2.002   5.397
 3966TIP3    H211863   3.190   1.927   5.380
 3967TIP3   OH211864   2.451   3.313   0.205
 3967TIP3    H111865   2.375   3.345   0.254
 3967TIP3    H211866   2.418   3.301   0.116
 3968TIP3   OH211867   5.354   4.809   3.326
 3968TIP3    H111868   5.263   4.777   3.328
 3968TIP3    H211869   5.375   4.815   3.233
 3969TIP3   OH211870   0.534   0.638   3.027
 3969TIP3    H111871   0.598   0.624   3.097
 3969TIP3    H211872   0.490   0.554   3.019
 3970TIP3   OH211873   2.614   0.035   4.671
 3970TIP3    H111874   2.675  -0.005   4.609
 3970TIP3    H211875   2.628  -0.012   4.753
 3971TIP3   OH211876   1.319   2.117   0.899
 3971TIP3    H111877   1.248   2.087   0.842
 3971TIP3    H211878   1.307   2.212   0.904
 3972TIP3   OH211879   4.774   4.501   3.666
 3972TIP3    H111880   4.801   4.455   3.587
 3972TIP3    H211881   4.689   4.464   3.688
 3973TIP3   OH211882   0.165   2.614   1.471
 3973TIP3    H111883   0.203   2.699   1.453
 3973TIP3    H211884   0.223   2.551   1.428
 3974TIP3   OH211885   1.770   1.608   2.457
 3974TIP3    H111886   1.802   1.670   2.391
 3974TIP3    H211887   1.704   1.656   2.506
 3975TIP3   OH211888   5.241   1.574   1.013
 3975TIP3    H111889   5.183   1.643   1.046
 3975TIP3    H211890   5.318   1.621   0.980
 3976TIP3   OH211891   6.820   3.292   4.998
 3976TIP3    H111892   6.806   3.313   4.906
 3976TIP3    H211893   6.864   3.207   4.997
 3977TIP3   OH211894   0.053   3.835   5.417
 3977TIP3    H111895   0.062   3.771   5.488
 3977TIP3    H211896   0.047   3.782   5.338
 3978TIP3   OH211897   4.346   0.984   0.173
 3978TIP3    H111898   4.398   0.903   0.175
 3978TIP3    H211899   4.411   1.053   0.162
 3979TIP3   OH211900   4.261   1.070   2.246
 3979TIP3    H111901   4.304   1.117   2.318
 3979TIP3    H211902   4.176   1.046   2.281
 3980TIP3   OH211903   5.157   3.881   4.535
 3980TIP3    H111904   5.119   3.905   4.620
 3980TIP3    H211905   5.128   3.791   4.520
 3981TIP3   OH211906   3.958   5.248   0.832
 3981TIP3    H111907   3.914   5.330   0.856
 3981TIP3    H211908   3.892   5.200   0.782
 3982TIP3   OH211909   6.349   6.520   0.676
 3982TIP3    H111910   6.352   6.446   0.737
 3982TIP3    H211911   6.437   6.557   0.680
 3983TIP3   OH211912   3.635   5.362   5.248
 3983TIP3    H111913   3.554   5.401   5.283
 3983TIP3    H211914   3.607   5.277   5.215
 3984TIP3   OH211915   3.749   2.496   4.027
 3984TIP3    H111916   3.742   2.567   4.090
 3984TIP3    H211917   3.702   2.527   3.950
 3985TIP3   OH211918   5.650   1.804   4.008
 3985TIP3    H111919   5.614   1.717   4.029
 3985TIP3    H211920   5.744   1.790   4.001
 3986TIP3   OH211921   2.715   3.503   3.204
 3986TIP3    H111922   2.767   3.427   3.181
 3986TIP3    H211923   2.662   3.521   3.126
 3987TIP3   OH211924   7.025   3.190   2.298
 3987TIP3    H111925   6.949   3.225   2.344
 3987TIP3    H211926   7.042   3.252   2.227
 3988TIP3   OH211927   4.764   2.130   2.263
 3988TIP3    H111928   4.854   2.162   2.258
 3988TIP3    H211929   4.732   2.161   2.348
 3989TIP3   OH211930   1.737   1.298   3.679
 3989TIP3    H111931   1.782   1.267   3.757
 3989TIP3    H211932   1.780   1.381   3.658
 3990TIP3   OH211933   4.840   0.937   1.847
 3990TIP3    H111934   4.936   0.934   1.846
 3990TIP3    H211935   4.817   0.942   1.940
 3991TIP3   OH211936   5.960   4.763   1.872
 3991TIP3    H111937   5.991   4.690   1.925
 3991TIP3    H211938   6.004   4.840   1.910
 3992TIP3   OH211939   5.536   6.487   5.009
 3992TIP3    H111940   5.616   6.453   4.970
 3992TIP3    H211941   5.556   6.577   5.032
 3993TIP3   OH211942   5.384   4.927   4.647
 3993TIP3    H111943   5.333   4.878   4.583
 3993TIP3    H211944   5.461   4.873   4.662
 3994TIP3   OH211945   1.971   1.955   5.009
 3994TIP3    H111946   2.061   1.923   5.010
 3994TIP3    H211947   1.946   1.959   5.102
 3995TIP3   OH211948   5.618   1.925   0.806
 3995TIP3    H111949   5.674   1.869   0.860
 3995TIP3    H211950   5.529   1.909   0.839
 3996TIP3   OH211951   1.633   6.724   5.605
 3996TIP3    H111952   1.638   6.629   5.611
 3996TIP3    H211953   1.634   6.754   5.695
 3997TIP3   OH211954   1.571   4.890   4.030
 3997TIP3    H111955   1.550   4.964   3.974
 3997TIP3    H211956   1.559   4.813   3.975
 3998TIP3   OH211957   5.402   3.217   1.772
 3998TIP3    H111958   5.404   3.309   1.747
 3998TIP3    H211959   5.394   3.169   1.690
 3999TIP3   OH211960   5.874   4.623   0.684
 3999TIP3    H111961   5.840   4.562   0.750
 3999TIP3    H211962   5.968   4.622   0.698
 4000TIP3   OH211963   3.874   1.996   0.080
 4000TIP3    H111964   3.966   1.980   0.063
 4000TIP3    H211965   3.831   1.912   0.065
 4001TIP3   OH211966   5.307   4.340   5.732
 4001TIP3    H111967   5.263   4.260   5.760
 4001TIP3    H211968   5.237   4.406   5.727
 4002TIP3   OH211969   3.819   6.817   3.647
 4002TIP3    H111970   3.817   6.735   3.599
 4002TIP3    H211971   3.907   6.822   3.684
 4003TIP3   OH211972   2.732   5.601   3.772
 4003TIP3    H111973   2.810   5.650   3.795
 4003TIP3    H211974   2.764   5.517   3.742
 4004TIP3   OH211975   6.502   4.778   3.878
 4004TIP3    H111976   6.476   4.869   3.891
 4004TIP3    H211977   6.507   4.741   3.966
 4005TIP3   OH211978   7.028   5.137   5.675
 4005TIP3    H111979   7.052   5.061   5.622
 4005TIP3    H211980   6.969   5.188   5.620
 4006TIP3   OH211981   1.271   1.001   0.409
 4006TIP3    H111982   1.213   0.943   0.360
 4006TIP3    H211983   1.314   0.943   0.472
 4007TIP3   OH211984   4.676   3.885   0.097
 4007TIP3    H111985   4.620   3.883   0.175
 4007TIP3    H211986   4.615   3.878   0.024
 4008TIP3   OH211987   1.653   5.900   0.982
 4008TIP3    H111988   1.674   5.928   1.071
 4008TIP3    H211989   1.729   5.848   0.955
 4009TIP3   OH211990   3.703   1.679   5.512
 4009TIP3    H111991   3.683   1.649   5.423
 4009TIP3    H211992   3.660   1.614   5.568
 4010TIP3   OH211993   4.273   4.493   4.622
 4010TIP3    H111994   4.178   4.504   4.608
 4010TIP3    H211995   4.283   4.401   4.647
 4011TIP3   OH211996   4.024   0.228   1.420
 4011TIP3    H111997   3.993   0.289   1.354
 4011TIP3    H211998   4.118   0.217   1.401
 4012TIP3   OH211999   6.451   2.716   2.117
 4012TIP3    H112000   6.412   2.661   2.185
 4012TIP3    H212001   6.394   2.705   2.042
 4013TIP3   OH212002   3.746   6.810   4.829
 4013TIP3    H112003   3.701   6.774   4.753
 4013TIP3    H212004   3.797   6.736   4.864
 4014TIP3   OH212005   4.616   6.286   2.463
 4014TIP3    H112006   4.634   6.207   2.514
 4014TIP3    H212007   4.615   6.257   2.372
 4015TIP3   OH212008   2.936   5.576   1.430
 4015TIP3    H112009   2.897   5.545   1.512
 4015TIP3    H212010   2.927   5.502   1.370
 4016TIP3   OH212011   4.597   5.114   4.796
 4016TIP3    H112012   4.666   5.114   4.731
 4016TIP3    H212013   4.591   5.024   4.826
 4017TIP3   OH212014   1.476   2.340   2.356
 4017TIP3    H112015   1.533   2.416   2.367
 4017TIP3    H212016   1.398   2.374   2.311
 4018TIP3   OH212017   2.465   1.104   2.833
 4018TIP3    H112018   2.476   1.148   2.917
 4018TIP3    H212019   2.555   1.095   2.799
 4019TIP3   OH212020   4.872   4.498   5.420
 4019TIP3    H112021   4.882   4.500   5.325
 4019TIP3    H212022   4.880   4.589   5.447
 4020TIP3   OH212023   7.105   6.611   5.786
 4020TIP3    H112024   7.135   6.535   5.836
 4020TIP3    H212025   7.026   6.580   5.741
 4021TIP3   OH212026   1.550   1.322   2.069
 4021TIP3    H112027   1.509   1.239   2.044
 4021TIP3    H212028   1.479   1.373   2.107
 4022TIP3   OH212029   0.888   6.720   2.781
 4022TIP3    H112030   0.906   6.812   2.800
 4022TIP3    H212031   0.796   6.708   2.807
 4023TIP3   OH212032   0.126   2.717   0.708
 4023TIP3    H112033   0.132   2.638   0.761
 4023TIP3    H212034   0.033   2.738   0.707
 4024TIP3   OH212035   6.072   0.570   3.351
 4024TIP3    H112036   6.108   0.606   3.432
 4024TIP3    H212037   6.084   0.476   3.359
 4025TIP3   OH212038   0.214   5.805   5.413
 4025TIP3    H112039   0.189   5.871   5.478
 4025TIP3    H212040   0.201   5.721   5.458
 4026TIP3   OH212041   1.109   2.966   4.488
 4026TIP3    H112042   1.145   2.878   4.478
 4026TIP3    H212043   1.024   2.953   4.531
 4027TIP3   OH212044   0.085   3.278   1.996
 4027TIP3    H112045   0.171   3.261   1.957
 4027TIP3    H212046   0.079   3.374   1.999
 4028TIP3   OH212047   1.031   2.592   0.719
 4028TIP3    H112048   0.998   2.610   0.631
 4028TIP3    H212049   1.038   2.678   0.761
 4029TIP3   OH212050   2.939   0.465   3.735
 4029TIP3    H112051   2.994   0.387   3.725
 4029TIP3    H212052   2.880   0.444   3.807
 4030TIP3   OH212053   6.002   0.745   1.596
 4030TIP3    H112054   6.041   0.666   1.560
 4030TIP3    H212055   6.066   0.814   1.577
 4031TIP3   OH212056   6.603   2.155   5.734
 4031TIP3    H112057   6.517   2.118   5.754
 4031TIP3    H212058   6.599   2.177   5.641
 4032TIP3   OH212059   3.416   4.584   2.030
 4032TIP3    H112060   3.487   4.648   2.039
 4032TIP3    H212061   3.391   4.589   1.937
 4033TIP3   OH212062   1.185   2.094   3.501
 4033TIP3    H112063   1.185   2.030   3.572
 4033TIP3    H212064   1.201   2.178   3.545
 4034TIP3   OH212065   3.975   3.677   2.331
 4034TIP3    H112066   3.907   3.695   2.396
 4034TIP3    H212067   4.046   3.738   2.354
 4035TIP3   OH212068   1.966   6.600   4.220
 4035TIP3    H112069   1.971   6.617   4.314
 4035TIP3    H212070   1.938   6.509   4.214
 4036TIP3   OH212071   2.037   5.737   5.551
 4036TIP3    H112072   2.016   5.820   5.593
 4036TIP3    H212073   1.970   5.727   5.483
 4037TIP3   OH212074   0.415   1.497   2.183
 4037TIP3    H112075   0.384   1.416   2.225
 4037TIP3    H212076   0.447   1.468   2.097
 4038TIP3   OH212077   4.936   2.099   0.141
 4038TIP3    H112078   4.928   2.168   0.075
 4038TIP3    H212079   4.857   2.107   0.194
 4039TIP3   OH212080   1.487   5.388   5.526
 4039TIP3    H112081   1.393   5.374   5.524
 4039TIP3    H212082   1.497   5.479   5.555
 4040TIP3   OH212083   0.851   3.598   2.098
 4040TIP3    H112084   0.771   3.636   2.062
 4040TIP3    H212085   0.847   3.505   2.074
 4041TIP3   OH212086   6.952   5.814   1.225
 4041TIP3    H112087   6.864   5.788   1.254
 4041TIP3    H212088   6.955   5.790   1.132
 4042TIP3   OH212089   6.191   5.477   2.308
 4042TIP3    H112090   6.256   5.469   2.378
 4042TIP3    H212091   6.115   5.518   2.350
 4043TIP3   OH212092   2.523   2.584   3.027
 4043TIP3    H112093   2.428   2.582   3.016
 4043TIP3    H212094   2.552   2.659   2.976
 4044TIP3   OH212095   0.447   2.775   4.411
 4044TIP3    H112096   0.510   2.840   4.440
 4044TIP3    H212097   0.495   2.692   4.415
 4045TIP3   OH212098   0.773   6.640   0.263
 4045TIP3    H112099   0.780   6.605   0.175
 4045TIP3    H212100   0.696   6.697   0.261
 4046TIP3   OH212101   3.876   3.182   3.870
 4046TIP3    H112102   3.794   3.222   3.840
 4046TIP3    H212103   3.938   3.255   3.872
 4047TIP3   OH212104   6.781   0.819   1.245
 4047TIP3    H112105   6.873   0.822   1.217
 4047TIP3    H212106   6.764   0.727   1.263
 4048TIP3   OH212107   0.773   4.114   4.419
 4048TIP3    H112108   0.737   4.164   4.492
 4048TIP3    H212109   0.862   4.146   4.409
 4049TIP3   OH212110   0.575   6.500   0.084
 4049TIP3    H112111   0.592   6.448   0.006
 4049TIP3    H212112   0.525   6.442   0.142
 4050TIP3   OH212113   0.992   3.022   2.016
 4050TIP3    H112114   0.962   3.059   2.099
 4050TIP3    H212115   1.057   3.084   1.985
 4051TIP3   OH212116   3.159   4.818   4.764
 4051TIP3    H112117   3.119   4.897   4.799
 4051TIP3    H212118   3.135   4.817   4.671
 4052TIP3   OH212119   0.970   4.400   3.037
 4052TIP3    H112120   0.985   4.492   3.059
 4052TIP3    H212121   1.046   4.376   2.983
 4053TIP3   OH212122   2.664   5.326   4.368
 4053TIP3    H112123   2.607   5.315   4.292
 4053TIP3    H212124   2.627   5.401   4.415
 4054TIP3   OH212125   6.221   1.929   1.083
 4054TIP3    H112126   6.171   1.963   1.008
 4054TIP3    H212127   6.176   1.848   1.107
 4055TIP3   OH212128   0.295   5.890   4.631
 4055TIP3    H112129   0.288   5.808   4.681
 4055TIP3    H212130   0.242   5.875   4.553
 4056TIP3   OH212131   4.260   1.639   0.455
 4056TIP3    H112132   4.164   1.637   0.445
 4056TIP3    H212133   4.276   1.600   0.541
 4057TIP3   OH212134   0.877   5.307   4.315
 4057TIP3    H112135   0.820   5.384   4.311
 4057TIP3    H212136   0.895   5.286   4.224
 4058TIP3   OH212137   5.862   0.075   2.376
 4058TIP3    H112138   5.846   0.088   2.282
 4058TIP3    H212139   5.843  -0.017   2.390
 4059TIP3   OH212140   3.248   4.578   5.492
 4059TIP3    H112141   3.175   4.584   5.554
 4059TIP3    H212142   3.276   4.487   5.496
 4060TIP3   OH212143   3.982   5.854   1.075
 4060TIP3    H112144   4.000   5.942   1.043
 4060TIP3    H212145   4.049   5.799   1.034
 4061TIP3   OH212146   0.583   1.533   4.409
 4061TIP3    H112147   0.609   1.443   4.389
 4061TIP3    H212148   0.663   1.584   4.399
 4062TIP3   OH212149   1.301   5.388   3.690
 4062TIP3    H112150   1.217   5.434   3.688
 4062TIP3    H212151   1.366   5.458   3.681
 4063TIP3   OH212152   2.660   1.696   5.175
 4063TIP3    H112153   2.700   1.707   5.089
 4063TIP3    H212154   2.632   1.604   5.178
 4064TIP3   OH212155   5.874   5.561   1.984
 4064TIP3    H112156   5.803   5.497   1.987
 4064TIP3    H212157   5.834   5.643   2.011
 4065TIP3   OH212158   2.745   1.946   2.991
 4065TIP3    H112159   2.662   1.980   3.023
 4065TIP3    H212160   2.778   1.891   3.062
 4066TIP3   OH212161   4.581   4.404   2.982
 4066TIP3    H112162   4.493   4.368   2.970
 4066TIP3    H212163   4.575   4.495   2.951
 4067TIP3   OH212164   4.254   1.533   1.997
 4067TIP3    H112165   4.296   1.447   1.998
 4067TIP3    H212166   4.325   1.595   2.011
 4068TIP3   OH212167   5.099   1.131   4.278
 4068TIP3    H112168   5.168   1.065   4.271
 4068TIP3    H212169   5.138   1.200   4.332
 4069TIP3   OH212170   1.492   4.964   4.917
 4069TIP3    H112171   1.583   4.943   4.939
 4069TIP3    H212172   1.498   5.043   4.863
 4070TIP3   OH212173   3.185   0.565   4.667
 4070TIP3    H112174   3.253   0.598   4.725
 4070TIP3    H212175   3.137   0.502   4.721
 4071TIP3   OH212176   3.279   5.797   2.778
 4071TIP3    H112177   3.190   5.823   2.803
 4071TIP3    H212178   3.329   5.800   2.859
 4072TIP3   OH212179   5.936   5.754   0.386
 4072TIP3    H112180   5.850   5.774   0.349
 4072TIP3    H212181   5.928   5.664   0.416
 4073TIP3   OH212182   0.203   0.551   1.336
 4073TIP3    H112183   0.144   0.476   1.326
 4073TIP3    H212184   0.270   0.521   1.398
 4074TIP3   OH212185   6.833   2.693   5.632
 4074TIP3    H112186   6.757   2.688   5.690
 4074TIP3    H212187   6.797   2.717   5.547
 4075TIP3   OH212188   3.970   0.386   4.506
 4075TIP3    H112189   4.047   0.411   4.557
 4075TIP3    H212190   3.895   0.417   4.558
 4076TIP3   OH212191   4.671   3.934   1.962
 4076TIP3    H112192   4.641   4.009   1.912
 4076TIP3    H212193   4.607   3.925   2.033
 4077TIP3   OH212194   0.417   1.599   4.836
 4077TIP3    H112195   0.368   1.642   4.767
 4077TIP3    H212196   0.402   1.505   4.822
 4078TIP3   OH212197   3.423   5.237   0.792
 4078TIP3    H112198   3.472   5.297   0.735
 4078TIP3    H212199   3.366   5.293   0.843
 4079TIP3   OH212200   1.497   5.709   5.912
 4079TIP3    H112201   1.502   5.801   5.939
 4079TIP3    H212202   1.473   5.713   5.820
 4080TIP3   OH212203   5.425   2.754   0.592
 4080TIP3    H112204   5.482   2.714   0.526
 4080TIP3    H212205   5.484   2.788   0.659
 4081TIP3   OH212206   7.073   0.023   5.189
 4081TIP3    H112207   7.025   0.002   5.270
 4081TIP3    H212208   7.012   0.076   5.139
 4082TIP3   OH212209   4.098   0.709   4.242
 4082TIP3    H112210   4.164   0.764   4.200
 4082TIP3    H212211   4.137   0.685   4.326
 4083TIP3   OH212212   5.726   6.252   0.499
 4083TIP3    H112213   5.777   6.212   0.428
 4083TIP3    H212214   5.646   6.199   0.504
 4084TIP3   OH212215   4.355   3.729   0.013
 4084TIP3    H112216   4.319   3.650   0.053
 4084TIP3    H212217   4.347   3.797   0.081
 4085TIP3   OH212218   2.734   1.233   4.798
 4085TIP3    H112219   2.677   1.258   4.870
 4085TIP3    H212220   2.677   1.236   4.721
 4086TIP3   OH212221   1.175   2.451   5.498
 4086TIP3    H112222   1.213   2.392   5.563
 4086TIP3    H212223   1.082   2.453   5.518
 4087TIP3   OH212224   5.818   1.768   5.856
 4087TIP3    H112225   5.774   1.802   5.777
 4087TIP3    H212226   5.752   1.715   5.899
 4088TIP3   OH212227   0.068   2.072   4.934
 4088TIP3    H112228   0.124   2.079   4.857
 4088TIP3    H212229   0.006   2.144   4.925
 4089TIP3   OH212230   1.563   4.186   4.563
 4089TIP3    H112231   1.570   4.138   4.480
 4089TIP3    H212232   1.607   4.269   4.547
 4090TIP3   OH212233   5.493   5.307   0.593
 4090TIP3    H112234   5.528   5.385   0.636
 4090TIP3    H212235   5.555   5.287   0.524
 4091TIP3   OH212236   4.586   1.948   5.003
 4091TIP3    H112237   4.497   1.952   5.039
 4091TIP3    H212238   4.574   1.964   4.909
 4092TIP3   OH212239   4.109   5.331   4.116
 4092TIP3    H112240   4.089   5.255   4.061
 4092TIP3    H212241   4.164   5.387   4.061
 4093TIP3   OH212242   4.231   2.784   2.498
 4093TIP3    H112243   4.216   2.876   2.475
 4093TIP3    H212244   4.316   2.763   2.460
 4094TIP3   OH212245   6.694   3.010   1.603
 4094TIP3    H112246   6.637   2.943   1.639
 4094TIP3    H212247   6.682   3.003   1.508
 4095TIP3   OH212248   2.228   4.029   1.426
 4095TIP3    H112249   2.211   3.962   1.493
 4095TIP3    H212250   2.315   4.008   1.393
 4096TIP3   OH212251   6.838   1.370   4.451
 4096TIP3    H112252   6.848   1.454   4.497
 4096TIP3    H212253   6.750   1.340   4.475
 4097TIP3   OH212254   0.029   6.637   0.051
 4097TIP3    H112255   0.125   6.642   0.053
 4097TIP3    H212256   0.005   6.682  -0.030
 4098TIP3   OH212257   1.537   6.515   1.906
 4098TIP3    H112258   1.477   6.496   1.979
 4098TIP3    H212259   1.480   6.515   1.829
 4099TIP3   OH212260   6.091   3.653   0.596
 4099TIP3    H112261   6.135   3.658   0.511
 4099TIP3    H212262   6.001   3.626   0.575
 4100TIP3   OH212263   0.892   0.712   5.581
 4100TIP3    H112264   0.921   0.802   5.567
 4100TIP3    H212265   0.800   0.712   5.555
 4101TIP3   OH212266   6.825   6.623   2.461
 4101TIP3    H112267   6.855   6.640   2.372
 4101TIP3    H212268   6.782   6.704   2.488
 4102TIP3   OH212269   6.421   4.593   3.005
 4102TIP3    H112270   6.328   4.571   3.016
 4102TIP3    H212271   6.467   4.535   3.066
 4103TIP3   OH212272   1.616   5.116   4.448
 4103TIP3    H112273   1.656   5.178   4.387
 4103TIP3    H212274   1.522   5.137   4.444
 4104TIP3   OH212275   1.607   5.055   1.444
 4104TIP3    H112276   1.634   5.146   1.426
 4104TIP3    H212277   1.636   5.039   1.533
 4105TIP3   OH212278   6.778   2.040   3.019
 4105TIP3    H112279   6.851   2.088   2.981
 4105TIP3    H212280   6.793   1.949   2.994
 4106TIP3   OH212281   1.036   0.322   4.958
 4106TIP3    H112282   1.029   0.286   4.869
 4106TIP3    H212283   0.946   0.323   4.991
 4107TIP3   OH212284   0.529   3.181   4.983
 4107TIP3    H112285   0.565   3.249   5.040
 4107TIP3    H212286   0.558   3.099   5.021
 4108TIP3   OH212287   0.847   6.676   4.758
 4108TIP3    H112288   0.775   6.735   4.780
 4108TIP3    H212289   0.850   6.614   4.830
 4109TIP3   OH212290   5.843   5.741   4.729
 4109TIP3    H112291   5.870   5.741   4.820
 4109TIP3    H212292   5.828   5.833   4.708
 4110TIP3   OH212293   2.451   4.743   3.400
 4110TIP3    H112294   2.473   4.651   3.411
 4110TIP3    H212295   2.518   4.777   3.341
 4111TIP3   OH212296   6.873   4.658   5.805
 4111TIP3    H112297   6.858   4.608   5.886
 4111TIP3    H212298   6.843   4.746   5.825
 4112TIP3   OH212299   5.660   0.937   3.732
 4112TIP3    H112300   5.574   0.938   3.690
 4112TIP3    H212301   5.641   0.911   3.823
 4113TIP3   OH212302   4.795   4.228   5.800
 4113TIP3    H112303   4.759   4.304   5.753
 4113TIP3    H212304   4.870   4.200   5.747
 4114TIP3   OH212305   5.878   5.297   3.141
 4114TIP3    H112306   5.786   5.284   3.121
 4114TIP3    H212307   5.893   5.250   3.223
 4115TIP3   OH212308   4.208   2.043   0.754
 4115TIP3    H112309   4.240   2.051   0.844
 4115TIP3    H212310   4.285   2.015   0.704
 4116TIP3   OH212311   3.167   5.693   1.495
 4116TIP3    H112312   3.089   5.654   1.456
 4116TIP3    H212313   3.238   5.633   1.470
 4117TIP3   OH212314   2.044   5.233   1.255
 4117TIP3    H112315   2.020   5.228   1.347
 4117TIP3    H212316   2.139   5.246   1.255
 4118TIP3   OH212317   6.598   5.578   5.781
 4118TIP3    H112318   6.623   5.492   5.816
 4118TIP3    H212319   6.527   5.607   5.838
 4119TIP3   OH212320   2.242   0.292   0.460
 4119TIP3    H112321   2.331   0.326   0.451
 4119TIP3    H212322   2.215   0.316   0.548
 4120TIP3   OH212323   5.731   6.324   3.656
 4120TIP3    H112324   5.720   6.325   3.751
 4120TIP3    H212325   5.814   6.369   3.641
 4121TIP3   OH212326   3.272   0.418   4.194
 4121TIP3    H112327   3.254   0.328   4.167
 4121TIP3    H212328   3.360   0.415   4.232
 4122TIP3   OH212329   1.043   6.620   3.534
 4122TIP3    H112330   1.028   6.553   3.601
 4122TIP3    H212331   0.975   6.686   3.551
 4123TIP3   OH212332   1.242   3.315   0.732
 4123TIP3    H112333   1.297   3.251   0.777
 4123TIP3    H212334   1.254   3.396   0.782
 4124TIP3   OH212335   0.411   5.575   0.169
 4124TIP3    H112336   0.503   5.547   0.161
 4124TIP3    H212337   0.371   5.510   0.225
 4125TIP3   OH212338   4.368   0.975   1.000
 4125TIP3    H112339   4.334   0.988   0.911
 4125TIP3    H212340   4.293   0.990   1.057
 4126TIP3   OH212341   0.966   2.750   1.957
 4126TIP3    H112342   0.959   2.843   1.980
 4126TIP3    H212343   1.056   2.727   1.979
 4127TIP3   OH212344   0.389   2.744   0.728
 4127TIP3    H112345   0.294   2.757   0.719
 4127TIP3    H212346   0.400   2.650   0.739
 4128TIP3   OH212347   0.466   4.907   0.908
 4128TIP3    H112348   0.515   4.980   0.947
 4128TIP3    H212349   0.379   4.912   0.948
 4129TIP3   OH212350   2.434   2.240   4.563
 4129TIP3    H112351   2.511   2.196   4.600
 4129TIP3    H212352   2.449   2.241   4.469
 4130TIP3   OH212353   5.694   4.246   1.805
 4130TIP3    H112354   5.769   4.275   1.858
 4130TIP3    H212355   5.618   4.282   1.849
 4131TIP3   OH212356   4.992   0.757   3.825
 4131TIP3    H112357   5.014   0.826   3.887
 4131TIP3    H212358   4.937   0.696   3.875
 4132TIP3   OH212359   0.096   1.556   1.866
 4132TIP3    H112360   0.144   1.507   1.798
 4132TIP3    H212361   0.013   1.510   1.874
 4133TIP3   OH212362   4.960   6.192   4.283
 4133TIP3    H112363   4.979   6.284   4.268
 4133TIP3    H212364   5.045   6.148   4.275
 4134TIP3   OH212365   6.767   5.937   5.170
 4134TIP3    H112366   6.718   5.927   5.088
 4134TIP3    H212367   6.759   6.030   5.190
 4135TIP3   OH212368   3.049   6.729   3.028
 4135TIP3    H112369   3.081   6.806   3.075
 4135TIP3    H212370   2.979   6.695   3.083
 4136TIP3   OH212371   1.969   3.687   5.334
 4136TIP3    H112372   1.989   3.777   5.360
 4136TIP3    H212373   1.966   3.638   5.416
 4137TIP3   OH212374   1.889   0.091   1.646
 4137TIP3    H112375   1.971   0.067   1.602
 4137TIP3    H212376   1.821   0.058   1.588
 4138TIP3   OH212377   4.364   1.456   0.957
 4138TIP3    H112378   4.420   1.507   1.015
 4138TIP3    H212379   4.337   1.381   1.010
 4139TIP3   OH212380   3.373   5.155   4.647
 4139TIP3    H112381   3.280   5.174   4.643
 4139TIP3    H212382   3.388   5.091   4.577
 4140TIP3   OH212383   3.237   3.205   2.911
 4140TIP3    H112384   3.215   3.165   2.995
 4140TIP3    H212385   3.328   3.234   2.921
 4141TIP3   OH212386   2.106   5.307   5.132
 4141TIP3    H112387   2.020   5.318   5.091
 4141TIP3    H212388   2.114   5.212   5.146
 4142TIP3   OH212389   1.226   2.678   3.259
 4142TIP3    H112390   1.196   2.746   3.199
 4142TIP3    H212391   1.301   2.716   3.303
 4143TIP3   OH212392   3.969   4.651   2.689
 4143TIP3    H112393   3.875   4.633   2.685
 4143TIP3    H212394   4.009   4.565   2.702
 4144TIP3   OH212395   0.490   0.482   5.452
 4144TIP3    H112396   0.422   0.478   5.385
 4144TIP3    H212397   0.443   0.490   5.535
 4145TIP3   OH212398   5.332   0.456   1.426
 4145TIP3    H112399   5.415   0.459   1.378
 4145TIP3    H212400   5.269   0.497   1.367
 4146TIP3   OH212401   2.056   4.855   2.111
 4146TIP3    H112402   2.022   4.936   2.148
 4146TIP3    H212403   2.069   4.875   2.018
 4147TIP3   OH212404   4.393   0.436   3.244
 4147TIP3    H112405   4.489   0.427   3.241
 4147TIP3    H212406   4.376   0.516   3.193
 4148TIP3   OH212407   5.442   6.659   4.626
 4148TIP3    H112408   5.391   6.710   4.689
 4148TIP3    H212409   5.527   6.647   4.667
 4149TIP3   OH212410   5.375   1.081   4.690
 4149TIP3    H112411   5.412   1.001   4.728
 4149TIP3    H212412   5.426   1.152   4.731
 4150TIP3   OH212413   4.330   6.133   1.439
 4150TIP3    H112414   4.417   6.149   1.402
 4150TIP3    H212415   4.270   6.178   1.380
 4151TIP3   OH212416   1.240   1.238   1.474
 4151TIP3    H112417   1.332   1.247   1.498
 4151TIP3    H212418   1.229   1.293   1.397
 4152TIP3   OH212419   0.479   6.292   5.214
 4152TIP3    H112420   0.415   6.259   5.276
 4152TIP3    H212421   0.498   6.381   5.244
 4153TIP3   OH212422   2.430   0.359   4.659
 4153TIP3    H112423   2.454   0.372   4.567
 4153TIP3    H212424   2.470   0.433   4.705
 4154TIP3   OH212425   4.797   5.303   1.648
 4154TIP3    H112426   4.716   5.345   1.619
 4154TIP3    H212427   4.811   5.338   1.736
 4155TIP3   OH212428   5.152   3.418   1.446
 4155TIP3    H112429   5.176   3.327   1.467
 4155TIP3    H212430   5.220   3.448   1.386
 4156TIP3   OH212431   5.017   1.593   4.003
 4156TIP3    H112432   5.074   1.519   4.023
 4156TIP3    H212433   5.043   1.662   4.064
 4157TIP3   OH212434   1.855   1.480   0.858
 4157TIP3    H112435   1.883   1.426   0.784
 4157TIP3    H212436   1.888   1.567   0.838
 4158TIP3   OH212437   0.571   2.177   1.084
 4158TIP3    H112438   0.657   2.160   1.124
 4158TIP3    H212439   0.565   2.272   1.081
 4159TIP3   OH212440   0.349   2.783   1.726
 4159TIP3    H112441   0.405   2.826   1.790
 4159TIP3    H212442   0.267   2.833   1.730
 4160TIP3   OH212443   5.747   5.192   4.724
 4160TIP3    H112444   5.796   5.116   4.692
 4160TIP3    H212445   5.808   5.265   4.716
 4161TIP3   OH212446   5.098   3.686   1.535
 4161TIP3    H112447   5.109   3.594   1.511
 4161TIP3    H212448   5.028   3.685   1.600
 4162TIP3   OH212449   2.478   0.165   2.815
 4162TIP3    H112450   2.492   0.199   2.727
 4162TIP3    H212451   2.447   0.076   2.802
 4163TIP3   OH212452   1.533   0.403   1.554
 4163TIP3    H112453   1.457   0.459   1.538
 4163TIP3    H212454   1.608   0.462   1.552
 4164TIP3   OH212455   5.703   0.091   3.538
 4164TIP3    H112456   5.730   0.140   3.460
 4164TIP3    H212457   5.781   0.089   3.593
 4165TIP3   OH212458   6.861   2.137   2.195
 4165TIP3    H112459   6.824   2.224   2.179
 4165TIP3    H212460   6.948   2.154   2.231
 4166TIP3   OH212461   2.560   0.800   0.172
 4166TIP3    H112462   2.513   0.778   0.091
 4166TIP3    H212463   2.652   0.798   0.148
 4167TIP3   OH212464   5.855   0.830   0.810
 4167TIP3    H112465   5.794   0.800   0.877
 4167TIP3    H212466   5.871   0.922   0.832
 4168TIP3   OH212467   0.950   2.780   5.034
 4168TIP3    H112468   0.882   2.724   5.070
 4168TIP3    H212469   0.924   2.869   5.060
 4169TIP3   OH212470   0.987   0.781   3.070
 4169TIP3    H112471   0.992   0.806   2.978
 4169TIP3    H212472   0.907   0.823   3.103
 4170TIP3   OH212473   3.793   0.983   4.470
 4170TIP3    H112474   3.741   0.962   4.392
 4170TIP3    H212475   3.737   0.956   4.543
 4171TIP3   OH212476   1.861   1.812   2.306
 4171TIP3    H112477   1.935   1.868   2.284
 4171TIP3    H212478   1.807   1.811   2.227
 4172TIP3   OH212479  -0.021   3.966   5.894
 4172TIP3    H112480   0.057   3.910   5.890
 4172TIP3    H212481   0.014   4.053   5.914
 4173TIP3   OH212482   0.374   2.424   5.171
 4173TIP3    H112483   0.430   2.363   5.122
 4173TIP3    H212484   0.369   2.387   5.259
 4174TIP3   OH212485   1.278   0.968   1.525
 4174TIP3    H112486   1.233   1.051   1.537
 4174TIP3    H212487   1.212   0.910   1.487
 4175TIP3   OH212488   7.163   0.626   1.397
 4175TIP3    H112489   7.245   0.661   1.360
 4175TIP3    H212490   7.119   0.703   1.433
 4176TIP3   OH212491   0.779   1.520   0.990
 4176TIP3    H112492   0.867   1.500   1.022
 4176TIP3    H212493   0.728   1.441   1.007
 4177TIP3   OH212494   0.367   2.405   4.274
 4177TIP3    H112495   0.351   2.459   4.197
 4177TIP3    H212496   0.282   2.401   4.318
 4178TIP3   OH212497   4.285   3.943   5.508
 4178TIP3    H112498   4.346   3.934   5.435
 4178TIP3    H212499   4.231   3.864   5.503
 4179TIP3   OH212500   2.036   5.062   2.289
 4179TIP3    H112501   2.115   5.035   2.336
 4179TIP3    H212502   1.969   5.068   2.356
 4180TIP3   OH212503   6.890   5.646   0.277
 4180TIP3    H112504   6.827   5.718   0.283
 4180TIP3    H212505   6.849   5.575   0.326
 4181TIP3   OH212506   1.143   2.720   0.425
 4181TIP3    H112507   1.134   2.811   0.398
 4181TIP3    H212508   1.053   2.686   0.423
 4182TIP3   OH212509   2.784   3.337   4.359
 4182TIP3    H112510   2.858   3.348   4.299
 4182TIP3    H212511   2.825   3.323   4.445
 4183TIP3   OH212512   3.961   4.220   0.621
 4183TIP3    H112513   3.943   4.302   0.575
 4183TIP3    H212514   3.925   4.232   0.708
 4184TIP3   OH212515   0.550   1.742   1.207
 4184TIP3    H112516   0.513   1.776   1.125
 4184TIP3    H212517   0.477   1.696   1.248
 4185TIP3   OH212518   6.128   3.812   2.670
 4185TIP3    H112519   6.153   3.725   2.638
 4185TIP3    H212520   6.097   3.858   2.592
 4186TIP3   OH212521   5.004   5.370   4.398
 4186TIP3    H112522   5.030   5.278   4.404
 4186TIP3    H212523   4.919   5.374   4.440
 4187TIP3   OH212524   1.548   2.718   2.914
 4187TIP3    H112525   1.581   2.674   2.835
 4187TIP3    H212526   1.502   2.650   2.963
 4188TIP3   OH212527   0.729   0.147   2.311
 4188TIP3    H112528   0.772   0.183   2.233
 4188TIP3    H212529   0.646   0.194   2.316
 4189TIP3   OH212530   5.310   3.529   4.121
 4189TIP3    H112531   5.307   3.441   4.159
 4189TIP3    H212532   5.251   3.524   4.045
 4190TIP3   OH212533   4.827   1.333   1.383
 4190TIP3    H112534   4.745   1.329   1.433
 4190TIP3    H212535   4.822   1.259   1.322
 4191TIP3   OH212536   2.699   5.217   0.007
 4191TIP3    H112537   2.789   5.218   0.040
 4191TIP3    H212538   2.691   5.299  -0.042
 4192TIP3   OH212539   3.215   1.148   5.682
 4192TIP3    H112540   3.222   1.243   5.676
 4192TIP3    H212541   3.142   1.132   5.741
 4193TIP3   OH212542   4.277   0.789   4.872
 4193TIP3    H112543   4.254   0.860   4.931
 4193TIP3    H212544   4.328   0.831   4.803
 4194TIP3   OH212545   4.277   5.809   4.124
 4194TIP3    H112546   4.291   5.870   4.196
 4194TIP3    H212547   4.187   5.777   4.137
 4195TIP3   OH212548   0.627   5.480   4.680
 4195TIP3    H112549   0.604   5.398   4.637
 4195TIP3    H212550   0.722   5.488   4.668
 4196TIP3   OH212551   7.226   2.782   2.468
 4196TIP3    H112552   7.141   2.805   2.504
 4196TIP3    H212553   7.289   2.831   2.521
 4197TIP3   OH212554   4.662   4.872   4.924
 4197TIP3    H112555   4.627   4.791   4.886
 4197TIP3    H212556   4.709   4.842   5.002
 4198TIP3   OH212557   6.620   4.447   4.021
 4198TIP3    H112558   6.540   4.496   4.035
 4198TIP3    H212559   6.592   4.366   3.977
 4199TIP3   OH212560   7.162   0.040   1.838
 4199TIP3    H112561   7.239   0.010   1.886
 4199TIP3    H212562   7.127   0.112   1.891
 4200TIP3   OH212563   6.521   1.880   0.774
 4200TIP3    H112564   6.479   1.820   0.836
 4200TIP3    H212565   6.478   1.862   0.691
 4201TIP3   OH212566   0.889   2.364   0.771
 4201TIP3    H112567   0.941   2.444   0.760
 4201TIP3    H212568   0.917   2.307   0.699
 4202TIP3   OH212569   6.285   0.074   5.630
 4202TIP3    H112570   6.215   0.033   5.580
 4202TIP3    H212571   6.338   0.119   5.565
 4203TIP3   OH212572   6.099   1.504   0.883
 4203TIP3    H112573   6.106   1.559   0.961
 4203TIP3    H212574   6.117   1.563   0.810
 4204TIP3   OH212575   4.620   1.244   1.599
 4204TIP3    H112576   4.699   1.191   1.588
 4204TIP3    H212577   4.641   1.303   1.672
 4205TIP3   OH212578   4.989   5.330   0.079
 4205TIP3    H112579   5.065   5.339   0.136
 4205TIP3    H212580   4.914   5.325   0.139
 4206TIP3   OH212581   0.616   0.643   3.594
 4206TIP3    H112582   0.534   0.607   3.628
 4206TIP3    H212583   0.662   0.675   3.672
 4207TIP3   OH212584   6.049   5.242   5.559
 4207TIP3    H112585   5.993   5.319   5.548
 4207TIP3    H212586   5.994   5.168   5.535
 4208TIP3   OH212587   4.810   2.848   1.764
 4208TIP3    H112588   4.753   2.924   1.764
 4208TIP3    H212589   4.771   2.789   1.700
 4209TIP3   OH212590   1.717   5.451   3.932
 4209TIP3    H112591   1.776   5.509   3.884
 4209TIP3    H212592   1.741   5.464   4.024
 4210TIP3   OH212593   1.131   3.678   0.064
 4210TIP3    H112594   1.120   3.692  -0.030
 4210TIP3    H212595   1.153   3.585   0.072
 4211TIP3   OH212596   4.713   2.890   2.387
 4211TIP3    H112597   4.705   2.938   2.469
 4211TIP3    H212598   4.709   2.958   2.319
 4212TIP3   OH212599   3.983   3.275   5.912
 4212TIP3    H112600   4.032   3.314   5.984
 4212TIP3    H212601   4.039   3.286   5.835
 4213TIP3   OH212602   3.460   1.545   4.455
 4213TIP3    H112603   3.524   1.604   4.496
 4213TIP3    H212604   3.417   1.598   4.388
 4214TIP3   OH212605   0.204   3.407   0.629
 4214TIP3    H112606   0.138   3.432   0.564
 4214TIP3    H212607   0.169   3.328   0.669
 4215TIP3   OH212608   4.303   2.549   3.112
 4215TIP3    H112609   4.225   2.593   3.078
 4215TIP3    H212610   4.308   2.467   3.062
 4216TIP3   OH212611   0.002   3.269  -0.050
 4216TIP3    H112612   0.089   3.230  -0.040
 4216TIP3    H212613   0.010   3.357  -0.013
 4217TIP3   OH212614   3.379   6.252   5.063
 4217TIP3    H112615   3.331   6.233   4.982
 4217TIP3    H212616   3.330   6.322   5.105
 4218TIP3   OH212617   2.451   3.953   2.764
 4218TIP3    H112618   2.531   3.989   2.803
 4218TIP3    H212619   2.380   3.993   2.814
 4219TIP3   OH212620   6.182   3.839   4.394
 4219TIP3    H112621   6.140   3.903   4.336
 4219TIP3    H212622   6.114   3.817   4.457
 4220TIP3   OH212623   3.041   1.106   1.328
 4220TIP3    H112624   3.002   1.193   1.320
 4220TIP3    H212625   3.120   1.119   1.381
 4221TIP3   OH212626   0.278   0.031   4.029
 4221TIP3    H112627   0.294   0.077   4.112
 4221TIP3    H212628   0.347  -0.036   4.025
 4222TIP3   OH212629   3.305   3.676  -0.001
 4222TIP3    H112630   3.375   3.617  -0.029
 4222TIP3    H212631   3.229   3.647  -0.051
 4223TIP3   OH212632   3.062   0.215   0.447
 4223TIP3    H112633   3.068   0.307   0.423
 4223TIP3    H212634   3.138   0.200   0.503
 4224TIP3   OH212635   7.101   6.248   1.041
 4224TIP3    H112636   7.103   6.263   0.946
 4224TIP3    H212637   7.054   6.323   1.077
 4225TIP3   OH212638   1.811   3.084   3.527
 4225TIP3    H112639   1.873   3.148   3.562
 4225TIP3    H212640   1.829   3.004   3.575
 4226TIP3   OH212641   2.214   2.165   3.725
 4226TIP3    H112642   2.131   2.161   3.773
 4226TIP3    H212643   2.281   2.153   3.792
 4227TIP3   OH212644   0.440   0.469   0.873
 4227TIP3    H112645   0.513   0.477   0.935
 4227TIP3    H212646   0.401   0.556   0.870
 4228TIP3   OH212647   4.844   5.417   5.897
 4228TIP3    H112648   4.816   5.453   5.813
 4228TIP3    H212649   4.931   5.380   5.879
 4229TIP3   OH212650   1.544   1.229   4.150
 4229TIP3    H112651   1.474   1.164   4.158
 4229TIP3    H212652   1.513   1.290   4.084
 4230TIP3   OH212653   4.115   5.066   1.940
 4230TIP3    H112654   4.157   5.016   1.870
 4230TIP3    H212655   4.185   5.085   2.002
 4231TIP3   OH212656   2.510   2.702   0.454
 4231TIP3    H112657   2.587   2.755   0.435
 4231TIP3    H212658   2.486   2.663   0.370
 4232TIP3   OH212659   0.593   3.266   1.050
 4232TIP3    H112660   0.570   3.179   1.083
 4232TIP3    H212661   0.662   3.295   1.109
 4233TIP3   OH212662   0.180   5.225   1.178
 4233TIP3    H112663   0.250   5.218   1.243
 4233TIP3    H212664   0.114   5.162   1.208
 4234TIP3   OH212665   3.589   0.167   2.409
 4234TIP3    H112666   3.654   0.180   2.340
 4234TIP3    H212667   3.640   0.174   2.491
 4235TIP3   OH212668   4.091   5.825   1.954
 4235TIP3    H112669   4.041   5.756   1.997
 4235TIP3    H212670   4.168   5.781   1.919
 4236TIP3   OH212671   6.884   4.981   1.827
 4236TIP3    H112672   6.957   5.023   1.782
 4236TIP3    H212673   6.894   4.887   1.809
 4237TIP3   OH212674   1.205   3.381   5.003
 4237TIP3    H112675   1.217   3.467   4.963
 4237TIP3    H212676   1.120   3.351   4.970
 4238TIP3   OH212677   2.690   3.532   5.491
 4238TIP3    H112678   2.621   3.512   5.427
 4238TIP3    H212679   2.644   3.537   5.574
 4239TIP3   OH212680   5.731   1.291   3.308
 4239TIP3    H112681   5.826   1.276   3.314
 4239TIP3    H212682   5.693   1.204   3.311
 4240TIP3   OH212683   4.079   5.967   2.619
 4240TIP3    H112684   3.991   5.991   2.649
 4240TIP3    H212685   4.131   6.046   2.631
 4241TIP3   OH212686   6.293   4.360   4.959
 4241TIP3    H112687   6.360   4.425   4.938
 4241TIP3    H212688   6.318   4.282   4.909
 4242TIP3   OH212689   0.095   1.148   1.259
 4242TIP3    H112690   0.141   1.146   1.175
 4242TIP3    H212691   0.041   1.227   1.256
 4243TIP3   OH212692   4.206   4.120   5.732
 4243TIP3    H112693   4.240   4.057   5.669
 4243TIP3    H212694   4.115   4.094   5.746
 4244TIP3   OH212695   5.183   4.178   0.649
 4244TIP3    H112696   5.137   4.094   0.649
 4244TIP3    H212697   5.122   4.240   0.609
 4245TIP3   OH212698   6.879   2.943   2.369
 4245TIP3    H112699   6.795   2.985   2.387
 4245TIP3    H212700   6.941   3.015   2.363
 4246TIP3   OH212701   4.577   2.874   1.384
 4246TIP3    H112702   4.549   2.897   1.473
 4246TIP3    H212703   4.588   2.958   1.340
 4247TIP3   OH212704   3.290   2.387   2.851
 4247TIP3    H112705   3.247   2.470   2.872
 4247TIP3    H212706   3.310   2.394   2.757
 4248TIP3   OH212707   1.029   6.739   0.928
 4248TIP3    H112708   1.106   6.755   0.874
 4248TIP3    H212709   1.064   6.702   1.009
 4249TIP3   OH212710   4.527   0.094   1.569
 4249TIP3    H112711   4.451   0.071   1.622
 4249TIP3    H212712   4.600   0.050   1.612
 4250TIP3   OH212713   1.577   5.192   3.900
 4250TIP3    H112714   1.629   5.268   3.927
 4250TIP3    H212715   1.591   5.186   3.805
 4251TIP3   OH212716   6.931   2.268   1.005
 4251TIP3    H112717   6.859   2.219   1.043
 4251TIP3    H212718   7.009   2.216   1.024
 4252TIP3   OH212719   4.287   4.522   0.175
 4252TIP3    H112720   4.379   4.548   0.168
 4252TIP3    H212721   4.280   4.483   0.262
 4253TIP3   OH212722   4.708   5.459   2.928
 4253TIP3    H112723   4.764   5.499   2.861
 4253TIP3    H212724   4.741   5.369   2.935
 4254TIP3   OH212725   2.118   2.455   3.760
 4254TIP3    H112726   2.164   2.372   3.745
 4254TIP3    H212727   2.187   2.515   3.789
 4255TIP3   OH212728   6.995   4.915   4.879
 4255TIP3    H112729   6.947   4.980   4.828
 4255TIP3    H212730   6.938   4.839   4.882
 4256TIP3   OH212731   3.344   4.244   0.761
 4256TIP3    H112732   3.285   4.309   0.798
 4256TIP3    H212733   3.398   4.292   0.699
 4257TIP3   OH212734   0.514   1.005   4.329
 4257TIP3    H112735   0.437   1.042   4.372
 4257TIP3    H212736   0.504   1.029   4.236
 4258TIP3   OH212737   2.583   1.086   5.637
 4258TIP3    H112738   2.602   1.151   5.705
 4258TIP3    H212739   2.549   1.011   5.685
 4259TIP3   OH212740   1.690   5.904   2.968
 4259TIP3    H112741   1.752   5.860   2.909
 4259TIP3    H212742   1.701   5.997   2.950
 4260TIP3   OH212743   1.707   3.136   4.297
 4260TIP3    H112744   1.612   3.133   4.295
 4260TIP3    H212745   1.730   3.112   4.386
 4261TIP3   OH212746   2.163   5.020   3.365
 4261TIP3    H112747   2.251   5.057   3.367
 4261TIP3    H212748   2.161   4.957   3.437
 4262TIP3   OH212749   2.114   3.539   1.763
 4262TIP3    H112750   2.024   3.551   1.793
 4262TIP3    H212751   2.106   3.502   1.676
 4263TIP3   OH212752   2.000   0.313   3.029
 4263TIP3    H112753   1.925   0.332   2.972
 4263TIP3    H212754   2.045   0.397   3.038
 4264TIP3   OH212755   7.229   1.305   3.386
 4264TIP3    H112756   7.216   1.398   3.372
 4264TIP3    H212757   7.261   1.298   3.476
 4265TIP3   OH212758   2.365   3.412   4.299
 4265TIP3    H112759   2.425   3.467   4.247
 4265TIP3    H212760   2.303   3.474   4.337
 4266TIP3   OH212761   2.288   6.160   0.963
 4266TIP3    H112762   2.344   6.237   0.959
 4266TIP3    H212763   2.285   6.127   0.874
 4267TIP3   OH212764   0.978   2.944   0.380
 4267TIP3    H112765   1.053   2.965   0.324
 4267TIP3    H212766   0.913   2.909   0.319
 4268TIP3   OH212767   1.848   2.862   0.459
 4268TIP3    H112768   1.788   2.817   0.519
 4268TIP3    H212769   1.867   2.797   0.392
 4269TIP3   OH212770   4.087   3.918   1.311
 4269TIP3    H112771   4.001   3.879   1.327
 4269TIP3    H212772   4.071   4.012   1.309
 4270TIP3   OH212773   3.303   0.227   0.578
 4270TIP3    H112774   3.357   0.182   0.513
 4270TIP3    H212775   3.361   0.295   0.614
 4271TIP3   OH212776   1.357   2.637   5.823
 4271TIP3    H112777   1.413   2.698   5.870
 4271TIP3    H212778   1.410   2.609   5.748
 4272TIP3   OH212779   6.208   2.421   2.515
 4272TIP3    H112780   6.170   2.457   2.595
 4272TIP3    H212781   6.148   2.446   2.446
 4273TIP3   OH212782   5.157   3.298   4.375
 4273TIP3    H112783   5.170   3.209   4.341
 4273TIP3    H212784   5.131   3.286   4.466
 4274TIP3   OH212785   2.956   1.094   4.809
 4274TIP3    H112786   2.893   1.153   4.850
 4274TIP3    H212787   2.927   1.006   4.835
 4275TIP3   OH212788   3.943   0.139   3.462
 4275TIP3    H112789   3.949   0.128   3.367
 4275TIP3    H212790   4.028   0.176   3.487
 4276TIP3   OH212791   5.176   5.131   0.888
 4276TIP3    H112792   5.146   5.108   0.976
 4276TIP3    H212793   5.109   5.096   0.830
 4277TIP3   OH212794   0.971   0.912   5.387
 4277TIP3    H112795   0.940   0.863   5.310
 4277TIP3    H212796   1.044   0.859   5.420
 4278TIP3   OH212797   5.000   0.144   1.799
 4278TIP3    H112798   4.952   0.224   1.777
 4278TIP3    H212799   5.051   0.168   1.876
 4279TIP3   OH212800   0.173   6.255   3.552
 4279TIP3    H112801   0.134   6.169   3.567
 4279TIP3    H212802   0.117   6.297   3.487
 4280TIP3   OH212803   4.578   1.608   4.069
 4280TIP3    H112804   4.662   1.566   4.049
 4280TIP3    H212805   4.521   1.585   3.996
 4281TIP3   OH212806   6.038   1.697   2.286
 4281TIP3    H112807   6.015   1.664   2.199
 4281TIP3    H212808   6.039   1.792   2.276
 4282TIP3   OH212809   1.858   5.066   4.594
 4282TIP3    H112810   1.766   5.089   4.585
 4282TIP3    H212811   1.862   5.010   4.671
 4283TIP3   OH212812   3.343   0.337   4.828
 4283TIP3    H112813   3.338   0.288   4.746
 4283TIP3    H212814   3.258   0.322   4.869
 4284TIP3   OH212815   4.829   4.158   1.055
 4284TIP3    H112816   4.835   4.138   0.962
 4284TIP3    H212817   4.826   4.253   1.060
 4285TIP3   OH212818   6.089   0.560   1.223
 4285TIP3    H112819   6.124   0.504   1.292
 4285TIP3    H212820   6.025   0.505   1.177
 4286TIP3   OH212821   6.345   5.140   0.119
 4286TIP3    H112822   6.285   5.110   0.187
 4286TIP3    H212823   6.396   5.210   0.160
 4287TIP3   OH212824   2.968   1.849   2.193
 4287TIP3    H112825   2.976   1.914   2.124
 4287TIP3    H212826   2.885   1.804   2.174
 4288TIP3   OH212827   0.458   6.706   1.683
 4288TIP3    H112828   0.471   6.707   1.588
 4288TIP3    H212829   0.383   6.647   1.697
 4289TIP3   OH212830   4.372   2.437   0.759
 4289TIP3    H112831   4.401   2.522   0.792
 4289TIP3    H212832   4.278   2.449   0.743
 4290TIP3   OH212833   4.893   1.527   4.398
 4290TIP3    H112834   4.856   1.468   4.463
 4290TIP3    H212835   4.973   1.482   4.368
 4291TIP3   OH212836   5.323   2.639   5.096
 4291TIP3    H112837   5.259   2.588   5.145
 4291TIP3    H212838   5.405   2.627   5.145
 4292TIP3   OH212839   1.230   5.871   2.836
 4292TIP3    H112840   1.188   5.786   2.824
 4292TIP3    H212841   1.266   5.893   2.750
 4293TIP3   OH212842   3.996   3.102   2.947
 4293TIP3    H112843   3.931   3.166   2.918
 4293TIP3    H212844   4.027   3.061   2.866
 4294TIP3   OH212845   4.122   0.489   0.468
 4294TIP3    H112846   4.201   0.458   0.511
 4294TIP3    H212847   4.154   0.537   0.391
 4295TIP3   OH212848   4.499   2.090   2.759
 4295TIP3    H112849   4.520   2.172   2.803
 4295TIP3    H212850   4.407   2.074   2.780
 4296TIP3   OH212851   5.635   0.764   0.951
 4296TIP3    H112852   5.564   0.779   0.889
 4296TIP3    H212853   5.604   0.802   1.033
 4297TIP3   OH212854   1.537   0.282   3.040
 4297TIP3    H112855   1.494   0.199   3.018
 4297TIP3    H212856   1.493   0.311   3.120
 4298TIP3   OH212857   1.597   3.917   0.998
 4298TIP3    H112858   1.630   3.982   0.937
 4298TIP3    H212859   1.673   3.864   1.020
 4299TIP3   OH212860   1.320   4.469   0.865
 4299TIP3    H112861   1.236   4.497   0.900
 4299TIP3    H212862   1.339   4.387   0.910
 4300TIP3   OH212863   1.671   2.991   3.840
 4300TIP3    H112864   1.755   2.946   3.847
 4300TIP3    H212865   1.645   2.980   3.748
 4301TIP3   OH212866   4.768   6.766   2.374
 4301TIP3    H112867   4.686   6.718   2.388
 4301TIP3    H212868   4.836   6.709   2.410
 4302TIP3   OH212869   0.342   0.475   4.470
 4302TIP3    H112870   0.253   0.440   4.466
 4302TIP3    H212871   0.350   0.529   4.391
 4303TIP3   OH212872   1.656   1.896   1.665
 4303TIP3    H112873   1.643   1.824   1.603
 4303TIP3    H212874   1.652   1.855   1.751
 4304TIP3   OH212875   3.948   6.076   5.724
 4304TIP3    H112876   3.970   6.162   5.760
 4304TIP3    H212877   4.033   6.035   5.709
 4305TIP3   OH212878   7.122   4.221   0.343
 4305TIP3    H112879   7.033   4.185   0.347
 4305TIP3    H212880   7.115   4.294   0.281
 4306TIP3   OH212881   2.531   0.897   3.099
 4306TIP3    H112882   2.582   0.959   3.048
 4306TIP3    H212883   2.572   0.812   3.081
 4307TIP3   OH212884   1.453   0.570   2.219
 4307TIP3    H112885   1.487   0.482   2.200
 4307TIP3    H212886   1.401   0.558   2.299
 4308TIP3   OH212887   1.034   1.203   4.020
 4308TIP3    H112888   1.107   1.213   3.960
 4308TIP3    H212889   0.967   1.264   3.988
 4309TIP3   OH212890   4.434   6.230   2.781
 4309TIP3    H112891   4.461   6.141   2.759
 4309TIP3    H212892   4.516   6.277   2.799
 4310TIP3   OH212893   5.000   4.808   4.300
 4310TIP3    H112894   4.957   4.738   4.349
 4310TIP3    H212895   4.955   4.809   4.215
 4311TIP3   OH212896   5.272   1.778   0.304
 4311TIP3    H112897   5.347   1.743   0.257
 4311TIP3    H212898   5.216   1.702   0.320
 4312TIP3   OH212899   3.974   3.931   4.437
 4312TIP3    H112900   4.050   3.921   4.494
 4312TIP3    H212901   3.899   3.908   4.493
 4313TIP3   OH212902   6.925   1.685   4.071
 4313TIP3    H112903   6.869   1.651   4.142
 4313TIP3    H212904   7.004   1.631   4.075
 4314TIP3   OH212905   6.295   0.941   4.769
 4314TIP3    H112906   6.314   0.862   4.820
 4314TIP3    H212907   6.314   1.014   4.828
 4315TIP3   OH212908   0.541   3.182   0.788
 4315TIP3    H112909   0.564   3.217   0.874
 4315TIP3    H212910   0.620   3.136   0.759
 4316TIP3   OH212911   4.319   4.436   3.919
 4316TIP3    H112912   4.230   4.472   3.922
 4316TIP3    H212913   4.372   4.499   3.968
 4317TIP3   OH212914   3.139   5.470   2.169
 4317TIP3    H112915   3.185   5.422   2.100
 4317TIP3    H212916   3.177   5.437   2.251
 4318TIP3   OH212917   6.652   5.645   5.222
 4318TIP3    H112918   6.620   5.719   5.274
 4318TIP3    H212919   6.728   5.680   5.176
 4319TIP3   OH212920   5.854   3.082   2.319
 4319TIP3    H112921   5.806   3.164   2.327
 4319TIP3    H212922   5.946   3.108   2.311
 4320TIP3   OH212923   2.969   0.527   2.142
 4320TIP3    H112924   2.892   0.566   2.100
 4320TIP3    H212925   3.043   0.562   2.093
 4321TIP3   OH212926   4.800   5.366   5.401
 4321TIP3    H112927   4.842   5.300   5.457
 4321TIP3    H212928   4.868   5.431   5.385
 4322TIP3   OH212929   6.981   2.821   2.657
 4322TIP3    H112930   7.000   2.766   2.733
 4322TIP3    H212931   6.924   2.767   2.602
 4323TIP3   OH212932   5.556   1.838   3.741
 4323TIP3    H112933   5.505   1.757   3.734
 4323TIP3    H212934   5.586   1.840   3.832
 4324TIP3   OH212935   7.051   4.363   5.823
 4324TIP3    H112936   7.033   4.453   5.851
 4324TIP3    H212937   7.103   4.326   5.894
 4325TIP3   OH212938   3.145   2.111   4.822
 4325TIP3    H112939   3.086   2.060   4.878
 4325TIP3    H212940   3.222   2.128   4.877
 4326TIP3   OH212941   5.824   3.782   3.936
 4326TIP3    H112942   5.890   3.850   3.927
 4326TIP3    H212943   5.775   3.786   3.853
 4327TIP3   OH212944   4.797   4.672   1.425
 4327TIP3    H112945   4.756   4.588   1.447
 4327TIP3    H212946   4.879   4.648   1.381
 4328TIP3   OH212947   5.343   6.196   4.738
 4328TIP3    H112948   5.348   6.267   4.802
 4328TIP3    H212949   5.320   6.118   4.789
 4329TIP3   OH212950   5.171   0.717   2.218
 4329TIP3    H112951   5.178   0.786   2.153
 4329TIP3    H212952   5.169   0.763   2.302
 4330TIP3   OH212953   4.693   0.132   1.325
 4330TIP3    H112954   4.653   0.122   1.411
 4330TIP3    H212955   4.778   0.087   1.333
 4331TIP3   OH212956   6.073   3.339   1.438
 4331TIP3    H112957   6.002   3.295   1.390
 4331TIP3    H212958   6.128   3.267   1.469
 4332TIP3   OH212959   0.634   6.158   2.405
 4332TIP3    H112960   0.711   6.169   2.462
 4332TIP3    H212961   0.670   6.158   2.316
 4333TIP3   OH212962   3.702   4.329   5.713
 4333TIP3    H112963   3.624   4.345   5.766
 4333TIP3    H212964   3.768   4.388   5.749
 4334TIP3   OH212965   0.753   1.075   5.358
 4334TIP3    H112966   0.690   1.057   5.427
 4334TIP3    H212967   0.834   1.033   5.387
 4335TIP3   OH212968   4.520   4.447   2.665
 4335TIP3    H112969   4.456   4.454   2.736
 4335TIP3    H212970   4.468   4.449   2.585
 4336TIP3   OH212971   5.700   1.828   0.435
 4336TIP3    H112972   5.724   1.900   0.377
 4336TIP3    H212973   5.783   1.802   0.475
 4337TIP3   OH212974   1.517   3.731   2.818
 4337TIP3    H112975   1.467   3.718   2.737
 4337TIP3    H212976   1.562   3.648   2.832
 4338TIP3   OH212977   0.778   5.944   1.955
 4338TIP3    H112978   0.740   5.861   1.981
 4338TIP3    H212979   0.844   5.921   1.889
 4339TIP3   OH212980   1.562   0.225   1.757
 4339TIP3    H112981   1.630   0.182   1.706
 4339TIP3    H212982   1.503   0.263   1.692
 4340TIP3   OH212983   1.263   3.814   4.595
 4340TIP3    H112984   1.277   3.897   4.641
 4340TIP3    H212985   1.194   3.771   4.645
 4341TIP3   OH212986   0.773   6.628   0.953
 4341TIP3    H112987   0.864   6.653   0.937
 4341TIP3    H212988   0.741   6.598   0.868
 4342TIP3   OH212989   1.243   4.304   2.129
 4342TIP3    H112990   1.244   4.243   2.056
 4342TIP3    H212991   1.219   4.251   2.205
 4343TIP3   OH212992   4.339   1.952   5.488
 4343TIP3    H112993   4.244   1.937   5.483
 4343TIP3    H212994   4.369   1.894   5.558
 4344TIP3   OH212995  -0.021   5.716   4.717
 4344TIP3    H112996   0.070   5.688   4.728
 4344TIP3    H212997  -0.015   5.793   4.660
 4345TIP3   OH212998   7.210   0.962   1.425
 4345TIP3    H112999   7.260   1.032   1.383
 4345TIP3    H213000   7.120   0.976   1.396
 4346TIP3   OH213001   3.555   3.297   5.755
 4346TIP3    H113002   3.619   3.336   5.815
 4346TIP3    H213003   3.605   3.282   5.674
 4347TIP3   OH213004   3.291   3.559   1.269
 4347TIP3    H113005   3.310   3.650   1.293
 4347TIP3    H213006   3.216   3.564   1.211
 4348TIP3   OH213007   5.521   3.212   1.057
 4348TIP3    H113008   5.431   3.189   1.081
 4348TIP3    H213009   5.515   3.243   0.967
 4349TIP3   OH213010   5.893   5.335   3.564
 4349TIP3    H113011   5.958   5.405   3.559
 4349TIP3    H213012   5.902   5.288   3.481
 4350TIP3   OH213013   3.206   2.638   3.379
 4350TIP3    H113014   3.187   2.680   3.462
 4350TIP3    H213015   3.121   2.626   3.337
 4351TIP3   OH213016   0.650   0.418   3.972
 4351TIP3    H113017   0.666   0.512   3.978
 4351TIP3    H213018   0.737   0.379   3.964
 4352TIP3   OH213019   4.267   5.243   5.728
 4352TIP3    H113020   4.218   5.192   5.664
 4352TIP3    H213021   4.320   5.179   5.775
 4353TIP3   OH213022   0.050   4.738   1.919
 4353TIP3    H113023   0.031   4.736   2.012
 4353TIP3    H213024   0.084   4.826   1.903
 4354TIP3   OH213025   5.592   5.029   2.023
 4354TIP3    H113026   5.663   5.087   1.997
 4354TIP3    H213027   5.548   5.075   2.094
 4355TIP3   OH213028   5.080   3.372   3.302
 4355TIP3    H113029   5.157   3.414   3.338
 4355TIP3    H213030   5.019   3.444   3.284
 4356TIP3   OH213031   0.367   5.507   2.593
 4356TIP3    H113032   0.410   5.542   2.515
 4356TIP3    H213033   0.419   5.430   2.616
 4357TIP3   OH213034   1.009   2.791   5.391
 4357TIP3    H113035   0.953   2.725   5.351
 4357TIP3    H213036   1.025   2.759   5.480
 4358TIP3   OH213037   3.758   6.564   2.268
 4358TIP3    H113038   3.676   6.517   2.279
 4358TIP3    H213039   3.748   6.610   2.185
 4359TIP3   OH213040   6.748   6.866   2.784
 4359TIP3    H113041   6.811   6.913   2.838
 4359TIP3    H213042   6.726   6.788   2.834
 4360TIP3   OH213043   0.617   3.759   2.058
 4360TIP3    H113044   0.638   3.811   1.981
 4360TIP3    H213045   0.614   3.822   2.130
 4361TIP3   OH213046   1.863   2.236   1.893
 4361TIP3    H113047   1.800   2.306   1.878
 4361TIP3    H213048   1.839   2.168   1.830
 4362TIP3   OH213049   2.627   3.692   1.215
 4362TIP3    H113050   2.671   3.776   1.202
 4362TIP3    H213051   2.534   3.711   1.202
 4363TIP3   OH213052   1.910   0.386   1.677
 4363TIP3    H113053   2.003   0.367   1.693
 4363TIP3    H213054   1.869   0.300   1.670
 4364TIP3   OH213055   6.029   5.500   1.739
 4364TIP3    H113056   5.967   5.538   1.677
 4364TIP3    H213057   5.982   5.500   1.822
 4365TIP3   OH213058   2.294   1.315   3.726
 4365TIP3    H113059   2.260   1.251   3.789
 4365TIP3    H213060   2.216   1.348   3.681
 4366TIP3   OH213061   4.926   1.757   1.379
 4366TIP3    H113062   4.940   1.841   1.336
 4366TIP3    H213063   4.921   1.778   1.473
 4367TIP3   OH213064   4.565   3.066   4.139
 4367TIP3    H113065   4.567   2.980   4.096
 4367TIP3    H213066   4.555   3.046   4.232
 4368TIP3   OH213067   3.334   3.967   2.190
 4368TIP3    H113068   3.387   4.009   2.258
 4368TIP3    H213069   3.272   3.912   2.238
 4369TIP3   OH213070   6.985   0.208   0.173
 4369TIP3    H113071   7.048   0.173   0.110
 4369TIP3    H213072   6.960   0.293   0.138
 4370TIP3   OH213073   5.183   6.151   2.260
 4370TIP3    H113074   5.104   6.133   2.209
 4370TIP3    H213075   5.150   6.182   2.345
 4371TIP3   OH213076   2.746   5.778   1.394
 4371TIP3    H113077   2.756   5.813   1.483
 4371TIP3    H213078   2.797   5.697   1.394
 4372TIP3   OH213079   6.326   3.773   2.143
 4372TIP3    H113080   6.405   3.774   2.197
 4372TIP3    H213081   6.350   3.822   2.064
 4373TIP3   OH213082   0.915   6.617   0.508
 4373TIP3    H113083   0.856   6.645   0.438
 4373TIP3    H213084   0.856   6.591   0.579
 4374TIP3   OH213085   5.777   3.382   0.334
 4374TIP3    H113086   5.819   3.425   0.259
 4374TIP3    H213087   5.810   3.430   0.410
 4375TIP3   OH213088   0.338   6.763   5.234
 4375TIP3    H113089   0.375   6.839   5.189
 4375TIP3    H213090   0.246   6.785   5.247
 4376TIP3   OH213091   6.865   2.570   1.134
 4376TIP3    H113092   6.840   2.647   1.184
 4376TIP3    H213093   6.782   2.531   1.105
 4377TIP3   OH213094   6.692   3.497   0.997
 4377TIP3    H113095   6.692   3.592   0.998
 4377TIP3    H213096   6.736   3.474   0.915
 4378TIP3   OH213097   0.259   4.155   1.042
 4378TIP3    H113098   0.315   4.204   1.103
 4378TIP3    H213099   0.247   4.070   1.086
 4379TIP3   OH213100   5.494   2.972   4.274
 4379TIP3    H113101   5.528   2.968   4.364
 4379TIP3    H213102   5.490   2.880   4.246
 4380TIP3   OH213103   0.271   0.729   0.900
 4380TIP3    H113104   0.270   0.684   0.984
 4380TIP3    H213105   0.276   0.822   0.922
 4381TIP3   OH213106   3.017   4.219   0.753
 4381TIP3    H113107   3.045   4.197   0.841
 4381TIP3    H213108   2.938   4.166   0.739
 4382TIP3   OH213109   0.435   1.326   0.539
 4382TIP3    H113110   0.493   1.276   0.481
 4382TIP3    H213111   0.347   1.293   0.519
 4383TIP3   OH213112   1.057   1.093   5.728
 4383TIP3    H113113   1.153   1.099   5.733
 4383TIP3    H213114   1.038   1.082   5.635
 4384TIP3   OH213115   1.685   3.884   3.817
 4384TIP3    H113116   1.716   3.794   3.828
 4384TIP3    H213117   1.664   3.890   3.724
 4385TIP3   OH213118   6.028   4.193   0.866
 4385TIP3    H113119   5.968   4.263   0.841
 4385TIP3    H213120   5.977   4.113   0.855
 4386TIP3   OH213121   4.110   5.952   0.735
 4386TIP3    H113122   4.164   5.955   0.657
 4386TIP3    H213123   4.161   5.900   0.798
 4387TIP3   OH213124   6.215   6.237   4.657
 4387TIP3    H113125   6.212   6.165   4.720
 4387TIP3    H213126   6.290   6.290   4.685
 4388TIP3   OH213127   6.572   2.703   1.506
 4388TIP3    H113128   6.538   2.620   1.540
 4388TIP3    H213129   6.584   2.687   1.413
 4389TIP3   OH213130   0.756   5.361   4.932
 4389TIP3    H113131   0.816   5.331   5.001
 4389TIP3    H213132   0.755   5.289   4.869
 4390TIP3   OH213133   6.755   0.202   1.688
 4390TIP3    H113134   6.824   0.245   1.739
 4390TIP3    H213135   6.784   0.111   1.680
 4391TIP3   OH213136   0.310   2.939   3.323
 4391TIP3    H113137   0.261   2.888   3.389
 4391TIP3    H213138   0.254   3.015   3.305
 4392TIP3   OH213139   1.252   0.928   2.202
 4392TIP3    H113140   1.343   0.907   2.182
 4392TIP3    H213141   1.206   0.913   2.119
 4393TIP3   OH213142   4.474   6.030   0.163
 4393TIP3    H113143   4.521   6.066   0.238
 4393TIP3    H213144   4.457   5.939   0.186
 4394TIP3   OH213145   3.574   1.228   3.046
 4394TIP3    H113146   3.490   1.266   3.020
 4394TIP3    H213147   3.561   1.134   3.039
 4395TIP3   OH213148   6.750   0.517   1.235
 4395TIP3    H113149   6.733   0.479   1.321
 4395TIP3    H213150   6.755   0.442   1.176
 4396TIP3   OH213151   1.984   0.656   2.082
 4396TIP3    H113152   1.969   0.652   1.987
 4396TIP3    H213153   2.061   0.712   2.092
 4397TIP3   OH213154   2.985   1.936   3.844
 4397TIP3    H113155   3.029   1.969   3.765
 4397TIP3    H213156   3.052   1.941   3.912
 4398TIP3   OH213157   1.180   3.030   0.665
 4398TIP3    H113158   1.234   3.010   0.588
 4398TIP3    H213159   1.197   3.122   0.683
 4399TIP3   OH213160   0.980   2.233   0.540
 4399TIP3    H113161   0.925   2.156   0.528
 4399TIP3    H213162   1.070   2.200   0.530
 4400TIP3   OH213163   3.907   3.531   4.644
 4400TIP3    H113164   3.843   3.502   4.579
 4400TIP3    H213165   3.989   3.541   4.595
 4401TIP3   OH213166   1.245   1.714   1.949
 4401TIP3    H113167   1.216   1.800   1.920
 4401TIP3    H213168   1.183   1.689   2.017
 4402TIP3   OH213169   2.331   5.623   5.886
 4402TIP3    H113170   2.254   5.606   5.833
 4402TIP3    H213171   2.392   5.553   5.864
 4403TIP3   OH213172   6.869   1.696   1.946
 4403TIP3    H113173   6.933   1.704   1.876
 4403TIP3    H213174   6.815   1.775   1.939
 4404TIP3   OH213175   0.499   0.388   3.579
 4404TIP3    H113176   0.436   0.379   3.650
 4404TIP3    H213177   0.454   0.442   3.514
 4405TIP3   OH213178   1.392   4.185   4.169
 4405TIP3    H113179   1.376   4.208   4.077
 4405TIP3    H213180   1.366   4.263   4.218
 4406TIP3   OH213181   6.007   5.696   2.327
 4406TIP3    H113182   6.025   5.709   2.234
 4406TIP3    H213183   5.940   5.628   2.330
 4407TIP3   OH213184   6.419   3.889   0.458
 4407TIP3    H113185   6.330   3.907   0.426
 4407TIP3    H213186   6.442   3.965   0.511
 4408TIP3   OH213187   0.053   3.542   2.646
 4408TIP3    H113188   0.057   3.619   2.588
 4408TIP3    H213189   0.142   3.533   2.680
 4409TIP3   OH213190   7.170   0.180   4.121
 4409TIP3    H113191   7.215   0.215   4.198
 4409TIP3    H213192   7.156   0.088   4.142
 4410TIP3   OH213193   6.978   6.689   3.251
 4410TIP3    H113194   7.021   6.649   3.176
 4410TIP3    H213195   6.910   6.744   3.214
 4411TIP3   OH213196   4.337   5.771   1.841
 4411TIP3    H113197   4.404   5.704   1.824
 4411TIP3    H213198   4.360   5.842   1.782
 4412TIP3   OH213199   1.589   1.228   1.242
 4412TIP3    H113200   1.656   1.243   1.175
 4412TIP3    H213201   1.514   1.279   1.213
 4413TIP3   OH213202   3.722   5.092   1.373
 4413TIP3    H113203   3.654   5.136   1.423
 4413TIP3    H213204   3.765   5.162   1.323
 4414TIP3   OH213205   1.057   2.510   2.569
 4414TIP3    H113206   1.104   2.440   2.616
 4414TIP3    H213207   1.126   2.570   2.541
 4415TIP3   OH213208   2.395   4.577   1.876
 4415TIP3    H113209   2.312   4.580   1.925
 4415TIP3    H213210   2.371   4.601   1.787
 4416TIP3   OH213211   5.225   1.863   4.677
 4416TIP3    H113212   5.243   1.942   4.728
 4416TIP3    H213213   5.310   1.837   4.642
 4417TIP3   OH213214   0.660   2.907   0.351
 4417TIP3    H113215   0.720   2.841   0.316
 4417TIP3    H213216   0.635   2.874   0.437
 4418TIP3   OH213217   5.759   2.460   2.497
 4418TIP3    H113218   5.748   2.533   2.558
 4418TIP3    H213219   5.728   2.494   2.413
 4419TIP3   OH213220   3.613   6.187   4.880
 4419TIP3    H113221   3.545   6.254   4.892
 4419TIP3    H213222   3.565   6.106   4.864
 4420TIP3   OH213223   0.159   1.304   0.456
 4420TIP3    H113224   0.067   1.279   0.471
 4420TIP3    H213225   0.158   1.399   0.450
 4421TIP3   OH213226   6.794   4.507   1.136
 4421TIP3    H113227   6.708   4.503   1.176
 4421TIP3    H213228   6.827   4.595   1.158
 4422TIP3   OH213229   2.313   5.002   0.656
 4422TIP3    H113230   2.369   4.942   0.608
 4422TIP3    H213231   2.274   4.949   0.725
 4423TIP3   OH213232   4.270   1.649   3.523
 4423TIP3    H113233   4.190   1.596   3.528
 4423TIP3    H213234   4.256   1.705   3.447
 4424TIP3   OH213235   6.200   1.375   5.182
 4424TIP3    H113236   6.195   1.378   5.087
 4424TIP3    H213237   6.154   1.295   5.206
 4425TIP3   OH213238   0.380   6.492   2.928
 4425TIP3    H113239   0.405   6.528   3.013
 4425TIP3    H213240   0.379   6.398   2.941
 4426TIP3   OH213241   2.324   5.107   1.065
 4426TIP3    H113242   2.373   5.166   1.008
 4426TIP3    H213243   2.293   5.037   1.006
 4427TIP3   OH213244   3.263   6.010   5.351
 4427TIP3    H113245   3.209   5.997   5.273
 4427TIP3    H213246   3.350   6.030   5.317
 4428TIP3   OH213247   0.997   5.768   1.551
 4428TIP3    H113248   0.950   5.685   1.556
 4428TIP3    H213249   0.999   5.800   1.641
 4429TIP3   OH213250   4.104   1.873   5.399
 4429TIP3    H113251   4.057   1.837   5.324
 4429TIP3    H213252   4.039   1.877   5.469
 4430TIP3   OH213253   3.783   0.599   2.199
 4430TIP3    H113254   3.744   0.538   2.261
 4430TIP3    H213255   3.871   0.566   2.185
 4431TIP3   OH213256   0.623   1.656   1.506
 4431TIP3    H113257   0.563   1.626   1.436
 4431TIP3    H213258   0.611   1.751   1.509
 4432TIP3   OH213259   0.933   0.909   4.311
 4432TIP3    H113260   0.932   0.818   4.281
 4432TIP3    H213261   1.016   0.944   4.280
 4433TIP3   OH213262   0.354   6.364   1.355
 4433TIP3    H113263   0.318   6.378   1.442
 4433TIP3    H213264   0.322   6.438   1.303
 4434TIP3   OH213265   3.940   0.918   4.909
 4434TIP3    H113266   3.935   0.850   4.976
 4434TIP3    H213267   3.948   1.000   4.958
 4435TIP3   OH213268   7.213   5.671   4.292
 4435TIP3    H113269   7.210   5.591   4.239
 4435TIP3    H213270   7.144   5.660   4.356
 4436TIP3   OH213271   0.559   5.268   4.509
 4436TIP3    H113272   0.554   5.244   4.417
 4436TIP3    H213273   0.559   5.184   4.556
 4437TIP3   OH213274   1.686   2.231   4.301
 4437TIP3    H113275   1.681   2.154   4.245
 4437TIP3    H213276   1.685   2.197   4.390
 4438TIP3   OH213277   1.686   6.444   5.575
 4438TIP3    H113278   1.715   6.396   5.652
 4438TIP3    H213279   1.753   6.426   5.509
 4439TIP3   OH213280   5.063   3.535   4.289
 4439TIP3    H113281   5.092   3.448   4.317
 4439TIP3    H213282   5.115   3.553   4.210
 4440TIP3   OH213283   5.477   5.261   1.082
 4440TIP3    H113284   5.547   5.283   1.021
 4440TIP3    H213285   5.401   5.308   1.049
 4441TIP3   OH213286   3.920   3.709   0.450
 4441TIP3    H113287   3.896   3.797   0.477
 4441TIP3    H213288   4.014   3.703   0.467
 4442TIP3   OH213289   5.482   6.393   2.867
 4442TIP3    H113290   5.525   6.399   2.782
 4442TIP3    H213291   5.543   6.438   2.927
 4443TIP3   OH213292   4.456   3.407   5.849
 4443TIP3    H113293   4.457   3.311   5.852
 4443TIP3    H213294   4.423   3.427   5.761
 4444TIP3   OH213295   2.982   1.742   0.516
 4444TIP3    H113296   2.938   1.798   0.452
 4444TIP3    H213297   2.994   1.798   0.592
 4445TIP3   OH213298   0.226   3.410   4.948
 4445TIP3    H113299   0.227   3.337   4.886
 4445TIP3    H213300   0.138   3.448   4.939
 4446TIP3   OH213301   1.834   3.917   0.303
 4446TIP3    H113302   1.929   3.918   0.311
 4446TIP3    H213303   1.809   3.829   0.333
 4447TIP3   OH213304   1.588   2.446   4.188
 4447TIP3    H113305   1.570   2.430   4.095
 4447TIP3    H213306   1.621   2.362   4.220
 4448TIP3   OH213307   6.111   6.151   1.191
 4448TIP3    H113308   6.042   6.189   1.137
 4448TIP3    H213309   6.173   6.115   1.128
 4449TIP3   OH213310   0.236   2.750   4.665
 4449TIP3    H113311   0.294   2.708   4.728
 4449TIP3    H213312   0.293   2.780   4.595
 4450TIP3   OH213313   0.753   1.784   3.243
 4450TIP3    H113314   0.780   1.723   3.312
 4450TIP3    H213315   0.773   1.738   3.162
 4451TIP3   OH213316   4.445   0.268   2.577
 4451TIP3    H113317   4.496   0.197   2.617
 4451TIP3    H213318   4.511   0.331   2.547
 4452TIP3   OH213319   1.617   5.415   0.076
 4452TIP3    H113320   1.547   5.383   0.019
 4452TIP3    H213321   1.644   5.338   0.126
 4453TIP3   OH213322   5.973   5.749   5.871
 4453TIP3    H113323   5.929   5.796   5.799
 4453TIP3    H213324   6.012   5.672   5.829
 4454TIP3   OH213325   5.180   4.302   1.516
 4454TIP3    H113326   5.147   4.227   1.566
 4454TIP3    H213327   5.194   4.267   1.428
 4455TIP3   OH213328   4.187   2.371   5.845
 4455TIP3    H113329   4.102   2.397   5.879
 4455TIP3    H213330   4.183   2.276   5.839
 4456TIP3   OH213331   6.603   1.609   0.310
 4456TIP3    H113332   6.560   1.576   0.390
 4456TIP3    H213333   6.551   1.684   0.284
 4457TIP3   OH213334   3.741   3.785   5.844
 4457TIP3    H113335   3.763   3.852   5.908
 4457TIP3    H213336   3.761   3.824   5.759
 4458TIP3   OH213337   3.408   1.014   3.133
 4458TIP3    H113338   3.320   1.024   3.098
 4458TIP3    H213339   3.424   0.920   3.133
 4459TIP3   OH213340   5.208   0.114   4.443
 4459TIP3    H113341   5.183   0.097   4.352
 4459TIP3    H213342   5.271   0.186   4.438
 4460TIP3   OH213343   3.673   2.114   2.591
 4460TIP3    H113344   3.681   2.185   2.655
 4460TIP3    H213345   3.734   2.139   2.521
 4461TIP3   OH213346   1.742   4.552   5.025
 4461TIP3    H113347   1.677   4.485   5.045
 4461TIP3    H213348   1.774   4.580   5.111
 4462TIP3   OH213349   7.136   2.504   1.552
 4462TIP3    H113350   7.215   2.496   1.499
 4462TIP3    H213351   7.065   2.476   1.494
 4463TIP3   OH213352   0.491   4.545   2.484
 4463TIP3    H113353   0.564   4.597   2.519
 4463TIP3    H213354   0.501   4.552   2.389
 4464TIP3   OH213355   7.040   3.011   0.083
 4464TIP3    H113356   7.117   3.044   0.129
 4464TIP3    H213357   6.966   3.040   0.136
 4465TIP3   OH213358   3.710   2.116   5.101
 4465TIP3    H113359   3.751   2.201   5.086
 4465TIP3    H213360   3.622   2.125   5.066
 4466TIP3   OH213361   3.647   5.505   4.823
 4466TIP3    H113362   3.650   5.445   4.749
 4466TIP3    H213363   3.647   5.449   4.900
 4467TIP3   OH213364   1.369   0.411   4.361
 4467TIP3    H113365   1.318   0.467   4.302
 4467TIP3    H213366   1.312   0.335   4.376
 4468TIP3   OH213367   2.085   3.340   0.584
 4468TIP3    H113368   2.059   3.378   0.668
 4468TIP3    H213369   2.017   3.275   0.565
 4469TIP3   OH213370   6.998   0.721   1.584
 4469TIP3    H113371   6.948   0.794   1.620
 4469TIP3    H213372   6.932   0.666   1.542
 4470TIP3   OH213373   2.421   6.653   0.642
 4470TIP3    H113374   2.352   6.621   0.585
 4470TIP3    H213375   2.377   6.717   0.699
 4471TIP3   OH213376   2.698   6.070   4.528
 4471TIP3    H113377   2.734   6.051   4.442
 4471TIP3    H213378   2.648   6.151   4.517
 4472TIP3   OH213379   0.320   1.302   4.364
 4472TIP3    H113380   0.227   1.280   4.367
 4472TIP3    H213381   0.327   1.370   4.297
 4473TIP3   OH213382   3.215   3.191   5.818
 4473TIP3    H113383   3.194   3.145   5.737
 4473TIP3    H213384   3.256   3.273   5.791
 4474TIP3   OH213385   2.268   0.429   3.253
 4474TIP3    H113386   2.291   0.339   3.230
 4474TIP3    H213387   2.215   0.421   3.332
 4475TIP3   OH213388   3.593   4.179   0.221
 4475TIP3    H113389   3.683   4.188   0.190
 4475TIP3    H213390   3.539   4.202   0.146
 4476TIP3   OH213391   6.225   3.353   1.839
 4476TIP3    H113392   6.171   3.284   1.879
 4476TIP3    H213393   6.177   3.434   1.856
 4477TIP3   OH213394   3.423   6.812   4.661
 4477TIP3    H113395   3.482   6.741   4.638
 4477TIP3    H213396   3.417   6.810   4.756
 4478TIP3   OH213397   3.120   1.812   5.079
 4478TIP3    H113398   3.036   1.792   5.038
 4478TIP3    H213399   3.186   1.780   5.017
 4479TIP3   OH213400   3.213   3.990   4.798
 4479TIP3    H113401   3.206   4.080   4.830
 4479TIP3    H213402   3.209   3.997   4.703
 4480TIP3   OH213403   5.015   2.711   3.167
 4480TIP3    H113404   4.942   2.709   3.229
 4480TIP3    H213405   5.026   2.804   3.146
 4481TIP3   OH213406   0.502   3.262   5.488
 4481TIP3    H113407   0.419   3.294   5.452
 4481TIP3    H213408   0.561   3.260   5.413
 4482TIP3   OH213409   3.665   0.924   2.491
 4482TIP3    H113410   3.746   0.968   2.518
 4482TIP3    H213411   3.692   0.862   2.424
 4483TIP3   OH213412   3.004   1.396   2.918
 4483TIP3    H113413   3.021   1.464   2.982
 4483TIP3    H213414   2.971   1.442   2.841
 4484TIP3   OH213415   6.980   4.512   4.908
 4484TIP3    H113416   6.976   4.589   4.965
 4484TIP3    H213417   6.903   4.521   4.851
 4485TIP3   OH213418   4.881   6.708   4.755
 4485TIP3    H113419   4.874   6.799   4.726
 4485TIP3    H213420   4.872   6.656   4.676
 4486TIP3   OH213421   2.619   4.894   1.638
 4486TIP3    H113422   2.641   4.936   1.722
 4486TIP3    H213423   2.525   4.878   1.643
 4487TIP3   OH213424   5.628   4.122   3.898
 4487TIP3    H113425   5.702   4.174   3.927
 4487TIP3    H213426   5.584   4.176   3.833
 4488TIP3   OH213427   0.900   4.375   0.870
 4488TIP3    H113428   0.836   4.423   0.818
 4488TIP3    H213429   0.849   4.334   0.940
 4489TIP3   OH213430   2.753   2.430   0.913
 4489TIP3    H113431   2.729   2.506   0.860
 4489TIP3    H213432   2.679   2.418   0.973
 4490TIP3   OH213433   7.044   2.831   4.118
 4490TIP3    H113434   6.987   2.755   4.111
 4490TIP3    H213435   7.024   2.884   4.041
 4491TIP3   OH213436   4.437   4.063   1.635
 4491TIP3    H113437   4.379   3.986   1.631
 4491TIP3    H213438   4.514   4.038   1.585
 4492TIP3   OH213439   6.140   0.930   2.237
 4492TIP3    H113440   6.118   0.871   2.309
 4492TIP3    H213441   6.110   0.884   2.158
 4493TIP3   OH213442   1.968   1.614   2.684
 4493TIP3    H113443   2.036   1.554   2.715
 4493TIP3    H213444   1.960   1.596   2.591
 4494TIP3   OH213445   3.169   3.941   5.195
 4494TIP3    H113446   3.195   3.891   5.117
 4494TIP3    H213447   3.117   3.880   5.247
 4495TIP3   OH213448   3.416   0.743   3.146
 4495TIP3    H113449   3.439   0.679   3.079
 4495TIP3    H213450   3.457   0.710   3.226
 4496TIP3   OH213451   1.116   4.475   2.587
 4496TIP3    H113452   1.197   4.514   2.554
 4496TIP3    H213453   1.054   4.548   2.589
 4497TIP3   OH213454   4.824   6.522   3.281
 4497TIP3    H113455   4.812   6.542   3.188
 4497TIP3    H213456   4.780   6.593   3.327
 4498TIP3   OH213457   4.219   4.354   0.867
 4498TIP3    H113458   4.227   4.260   0.886
 4498TIP3    H213459   4.292   4.394   0.914
 4499TIP3   OH213460   5.124   4.782   1.657
 4499TIP3    H113461   5.152   4.856   1.604
 4499TIP3    H213462   5.160   4.706   1.613
 4500TIP3   OH213463   1.390   0.059   2.944
 4500TIP3    H113464   1.345   0.054   2.859
 4500TIP3    H213465   1.394  -0.032   2.974
 4501TIP3   OH213466   2.216   6.472   4.387
 4501TIP3    H113467   2.202   6.566   4.375
 4501TIP3    H213468   2.271   6.465   4.465
 4502TIP3   OH213469   5.665   3.523   0.825
 4502TIP3    H113470   5.612   3.582   0.877
 4502TIP3    H213471   5.609   3.447   0.809
 4503TIP3   OH213472   6.478  -0.033   3.178
 4503TIP3    H113473   6.552   0.024   3.158
 4503TIP3    H213474   6.481  -0.101   3.110
 4504TIP3   OH213475   3.179   3.886   4.195
 4504TIP3    H113476   3.132   3.895   4.111
 4504TIP3    H213477   3.239   3.960   4.196
 4505TIP3   OH213478   7.083   2.563   4.236
 4505TIP3    H113479   7.089   2.647   4.281
 4505TIP3    H213480   6.993   2.560   4.203
 4506TIP3   OH213481   4.532   3.390   2.370
 4506TIP3    H113482   4.511   3.306   2.330
 4506TIP3    H213483   4.447   3.431   2.386
 4507TIP3   OH213484   6.815   4.149   2.457
 4507TIP3    H113485   6.793   4.059   2.436
 4507TIP3    H213486   6.850   4.185   2.375
 4508TIP3   OH213487   3.779   2.916   5.124
 4508TIP3    H113488   3.796   2.854   5.053
 4508TIP3    H213489   3.762   2.999   5.080
 4509TIP3   OH213490   0.448   6.533   0.864
 4509TIP3    H113491   0.489   6.608   0.907
 4509TIP3    H213492   0.421   6.566   0.778
 4510TIP3   OH213493   4.579   1.265   0.788
 4510TIP3    H113494   4.590   1.299   0.877
 4510TIP3    H213495   4.484   1.258   0.776
 4511TIP3   OH213496   3.975   1.732   0.799
 4511TIP3    H113497   4.049   1.751   0.857
 4511TIP3    H213498   3.925   1.665   0.846
 4512TIP3   OH213499   1.829   3.851   0.032
 4512TIP3    H113500   1.802   3.828   0.121
 4512TIP3    H213501   1.877   3.933   0.042
 4513TIP3   OH213502   6.861   5.529  -0.020
 4513TIP3    H113503   6.891   5.598   0.038
 4513TIP3    H213504   6.915   5.453   0.003
 4514TIP3   OH213505   3.246   0.993   2.839
 4514TIP3    H113506   3.163   0.949   2.821
 4514TIP3    H213507   3.293   0.992   2.755
 4515TIP3   OH213508   3.691   4.647   5.597
 4515TIP3    H113509   3.746   4.603   5.662
 4515TIP3    H213510   3.679   4.582   5.527
 4516TIP3   OH213511   4.751   3.088   0.797
 4516TIP3    H113512   4.706   3.011   0.832
 4516TIP3    H213513   4.691   3.161   0.816
 4517TIP3   OH213514   0.695   3.551   4.688
 4517TIP3    H113515   0.770   3.547   4.628
 4517TIP3    H213516   0.641   3.622   4.654
 4518TIP3   OH213517   6.179   0.697   0.077
 4518TIP3    H113518   6.226   0.653   0.148
 4518TIP3    H213519   6.087   0.677   0.094
 4519TIP3   OH213520   5.212   3.184   3.162
 4519TIP3    H113521   5.190   3.272   3.191
 4519TIP3    H213522   5.241   3.138   3.241
 4520TIP3   OH213523   5.100   2.482   5.134
 4520TIP3    H113524   5.072   2.458   5.046
 4520TIP3    H213525   5.044   2.429   5.192
 4521TIP3   OH213526   2.246   2.158   0.520
 4521TIP3    H113527   2.271   2.136   0.609
 4521TIP3    H213528   2.323   2.199   0.482
 4522TIP3   OH213529   0.700   4.683   1.971
 4522TIP3    H113530   0.726   4.773   1.954
 4522TIP3    H213531   0.639   4.690   2.045
 4523TIP3   OH213532   4.071   2.998   2.707
 4523TIP3    H113533   4.081   2.903   2.709
 4523TIP3    H213534   4.012   3.014   2.634
 4524TIP3   OH213535   2.616   6.800   5.219
 4524TIP3    H113536   2.642   6.716   5.183
 4524TIP3    H213537   2.586   6.850   5.143
 4525TIP3   OH213538   4.254   3.205   3.590
 4525TIP3    H113539   4.346   3.201   3.614
 4525TIP3    H213540   4.246   3.284   3.537
 4526TIP3   OH213541   4.604   5.012   2.214
 4526TIP3    H113542   4.648   5.093   2.241
 4526TIP3    H213543   4.620   4.950   2.285
 4527TIP3   OH213544   0.961   3.446   2.776
 4527TIP3    H113545   0.986   3.485   2.693
 4527TIP3    H213546   0.918   3.516   2.825
 4528TIP3   OH213547   5.246   6.468   4.543
 4528TIP3    H113548   5.334   6.501   4.562
 4528TIP3    H213549   5.188   6.523   4.595
 4529TIP3   OH213550   7.035   1.202   0.026
 4529TIP3    H113551   6.966   1.254   0.067
 4529TIP3    H213552   7.015   1.112   0.051
 4530TIP3   OH213553   1.621   0.696   1.414
 4530TIP3    H113554   1.622   0.766   1.479
 4530TIP3    H213555   1.696   0.641   1.436
 4531TIP3   OH213556   2.569   4.426   0.885
 4531TIP3    H113557   2.484   4.439   0.844
 4531TIP3    H213558   2.559   4.462   0.973
 4532TIP3   OH213559   0.524   2.045   2.272
 4532TIP3    H113560   0.600   2.082   2.316
 4532TIP3    H213561   0.477   1.998   2.341
 4533TIP3   OH213562   5.299   5.051   4.255
 4533TIP3    H113563   5.254   5.067   4.172
 4533TIP3    H213564   5.311   5.138   4.293
 4534TIP3   OH213565   2.211   0.178   5.148
 4534TIP3    H113566   2.172   0.207   5.231
 4534TIP3    H213567   2.155   0.218   5.080
 4535TIP3   OH213568   1.784   3.321   2.700
 4535TIP3    H113569   1.868   3.366   2.708
 4535TIP3    H213570   1.771   3.279   2.785
 4536TIP3   OH213571   2.881   5.152   2.836
 4536TIP3    H113572   2.802   5.200   2.810
 4536TIP3    H213573   2.953   5.212   2.816
 4537TIP3   OH213574   1.704   0.214   3.300
 4537TIP3    H113575   1.668   0.229   3.212
 4537TIP3    H213576   1.734   0.300   3.329
 4538TIP3   OH213577   0.171   0.468   2.502
 4538TIP3    H113578   0.128   0.385   2.482
 4538TIP3    H213579   0.109   0.535   2.473
 4539TIP3   OH213580   2.194   5.898   5.922
 4539TIP3    H113581   2.215   5.985   5.956
 4539TIP3    H213582   2.166   5.913   5.832
 4540TIP3   OH213583   4.549   3.568   0.683
 4540TIP3    H113584   4.492   3.638   0.715
 4540TIP3    H213585   4.628   3.614   0.653
 4541TIP3   OH213586   5.395   3.945   1.557
 4541TIP3    H113587   5.429   4.033   1.575
 4541TIP3    H213588   5.341   3.925   1.633
 4542TIP3   OH213589   1.013   1.678   4.622
 4542TIP3    H113590   1.061   1.603   4.656
 4542TIP3    H213591   1.033   1.678   4.528
 4543TIP3   OH213592   3.431   5.089   0.375
 4543TIP3    H113593   3.430   5.097   0.280
 4543TIP3    H213594   3.501   5.026   0.393
 4544TIP3   OH213595   4.306   2.933   5.047
 4544TIP3    H113596   4.232   2.994   5.049
 4544TIP3    H213597   4.370   2.969   5.108
 4545TIP3   OH213598   0.518   0.832   0.614
 4545TIP3    H113599   0.425   0.828   0.590
 4545TIP3    H213600   0.559   0.876   0.540
 4546TIP3   OH213601   1.113   2.145   5.507
 4546TIP3    H113602   1.155   2.153   5.421
 4546TIP3    H213603   1.022   2.171   5.491
 4547TIP3   OH213604   5.259   0.459   5.725
 4547TIP3    H113605   5.253   0.544   5.682
 4547TIP3    H213606   5.217   0.398   5.664
 4548TIP3   OH213607   7.114   4.207   2.758
 4548TIP3    H113608   7.020   4.220   2.768
 4548TIP3    H213609   7.141   4.164   2.840
 4549TIP3   OH213610   2.079   6.056   0.634
 4549TIP3    H113611   2.040   6.093   0.555
 4549TIP3    H213612   2.112   5.971   0.607
 4550TIP3   OH213613   1.556   2.570   5.639
 4550TIP3    H113614   1.605   2.651   5.623
 4550TIP3    H213615   1.519   2.546   5.554
 4551TIP3   OH213616   5.396   6.334   0.157
 4551TIP3    H113617   5.394   6.348   0.251
 4551TIP3    H213618   5.313   6.292   0.136
 4552TIP3   OH213619   6.854   2.298   3.759
 4552TIP3    H113620   6.776   2.306   3.704
 4552TIP3    H213621   6.847   2.211   3.798
 4553TIP3   OH213622   3.764   6.098   2.653
 4553TIP3    H113623   3.714   6.026   2.692
 4553TIP3    H213624   3.750   6.172   2.712
 4554TIP3   OH213625   4.860   4.347   3.454
 4554TIP3    H113626   4.919   4.290   3.504
 4554TIP3    H213627   4.919   4.398   3.398
 4555TIP3   OH213628   0.996   5.321   4.059
 4555TIP3    H113629   1.063   5.385   4.083
 4555TIP3    H213630   1.035   5.271   3.987
 4556TIP3   OH213631   0.468   4.070   5.874
 4556TIP3    H113632   0.418   4.124   5.813
 4556TIP3    H213633   0.415   4.067   5.953
 4557TIP3   OH213634   0.617   1.247   0.350
 4557TIP3    H113635   0.664   1.168   0.378
 4557TIP3    H213636   0.674   1.286   0.283
 4558TIP3   OH213637   1.032   5.071   1.932
 4558TIP3    H113638   1.015   5.164   1.919
 4558TIP3    H213639   0.986   5.028   1.860
 4559TIP3   OH213640   2.206   6.646   5.679
 4559TIP3    H113641   2.278   6.656   5.741
 4559TIP3    H213642   2.143   6.713   5.705
 4560TIP3   OH213643   1.010   1.450   5.640
 4560TIP3    H113644   1.099   1.423   5.618
 4560TIP3    H213645   0.964   1.368   5.654
 4561TIP3   OH213646   6.320   1.455   1.478
 4561TIP3    H113647   6.370   1.374   1.466
 4561TIP3    H213648   6.358   1.495   1.556
 4562TIP3   OH213649   5.242   3.119   5.286
 4562TIP3    H113650   5.306   3.177   5.244
 4562TIP3    H213651   5.280   3.100   5.372
 4563TIP3   OH213652   2.940   3.042   3.539
 4563TIP3    H113653   3.013   3.075   3.592
 4563TIP3    H213654   2.865   3.095   3.566
 4564TIP3   OH213655   4.634   2.735   5.457
 4564TIP3    H113656   4.726   2.727   5.484
 4564TIP3    H213657   4.594   2.653   5.484
 4565TIP3   OH213658   6.451   4.655   4.116
 4565TIP3    H113659   6.364   4.690   4.098
 4565TIP3    H213660   6.466   4.676   4.209
 4566TIP3   OH213661   2.884   6.431   2.261
 4566TIP3    H113662   2.980   6.434   2.264
 4566TIP3    H213663   2.859   6.386   2.342
 4567TIP3   OH213664   0.853   3.021   5.691
 4567TIP3    H113665   0.884   2.931   5.692
 4567TIP3    H213666   0.759   3.015   5.677
 4568TIP3   OH213667   5.001   3.310   2.999
 4568TIP3    H113668   5.034   3.398   2.978
 4568TIP3    H213669   5.073   3.268   3.045
 4569TIP3   OH213670   3.005   5.807   2.766
 4569TIP3    H113671   2.948   5.731   2.781
 4569TIP3    H213672   2.946   5.877   2.738
 4570TIP3   OH213673   1.612   3.945   4.885
 4570TIP3    H113674   1.689   3.972   4.935
 4570TIP3    H213675   1.557   3.898   4.947
 4571TIP3   OH213676   0.305   4.587   0.965
 4571TIP3    H113677   0.265   4.525   0.904
 4571TIP3    H213678   0.232   4.619   1.018
 4572TIP3   OH213679   5.290   6.187   1.033
 4572TIP3    H113680   5.320   6.255   1.094
 4572TIP3    H213681   5.325   6.214   0.948
 4573TIP3   OH213682   0.638   4.225   0.381
 4573TIP3    H113683   0.722   4.192   0.350
 4573TIP3    H213684   0.595   4.261   0.303
 4574TIP3   OH213685   5.529   5.869   4.881
 4574TIP3    H113686   5.599   5.905   4.828
 4574TIP3    H213687   5.567   5.790   4.921
 4575TIP3   OH213688   6.229   3.862   2.930
 4575TIP3    H113689   6.235   3.774   2.967
 4575TIP3    H213690   6.184   3.850   2.846
 4576TIP3   OH213691   0.960   4.657   2.750
 4576TIP3    H113692   0.911   4.670   2.831
 4576TIP3    H213693   0.898   4.679   2.680
 4577TIP3   OH213694   6.197   1.978   3.144
 4577TIP3    H113695   6.125   1.917   3.133
 4577TIP3    H213696   6.267   1.944   3.088
 4578TIP3   OH213697   1.100   4.203   5.833
 4578TIP3    H113698   1.154   4.151   5.773
 4578TIP3    H213699   1.099   4.153   5.914
 4579TIP3   OH213700   7.127   3.544   3.035
 4579TIP3    H113701   7.222   3.550   3.024
 4579TIP3    H213702   7.098   3.485   2.965
 4580TIP3   OH213703   3.702   5.283   3.327
 4580TIP3    H113704   3.743   5.204   3.291
 4580TIP3    H213705   3.746   5.295   3.412
 4581TIP3   OH213706   6.884   4.946   5.846
 4581TIP3    H113707   6.944   4.900   5.787
 4581TIP3    H213708   6.897   5.039   5.826
 4582TIP3   OH213709   0.143   2.637   5.704
 4582TIP3    H113710   0.216   2.631   5.641
 4582TIP3    H213711   0.069   2.666   5.651
 4583TIP3   OH213712   1.281   2.010   1.284
 4583TIP3    H113713   1.354   2.003   1.223
 4583TIP3    H213714   1.319   2.044   1.365
 4584TIP3   OH213715   1.989   0.087   0.469
 4584TIP3    H113716   2.066   0.053   0.515
 4584TIP3    H213717   1.995   0.049   0.382
 4585TIP3   OH213718   3.552   0.704   2.030
 4585TIP3    H113719   3.533   0.765   2.102
 4585TIP3    H213720   3.602   0.633   2.072
 4586TIP3   OH213721   4.895   1.190   2.156
 4586TIP3    H113722   4.806   1.160   2.137
 4586TIP3    H213723   4.901   1.276   2.114
 4587TIP3   OH213724   3.321   4.206   5.784
 4587TIP3    H113725   3.258   4.239   5.848
 4587TIP3    H213726   3.330   4.278   5.721
 4588TIP3   OH213727   6.697   2.842   5.430
 4588TIP3    H113728   6.701   2.753   5.397
 4588TIP3    H213729   6.603   2.862   5.432
 4589TIP3   OH213730   6.851   4.754   5.147
 4589TIP3    H113731   6.863   4.848   5.134
 4589TIP3    H213732   6.918   4.729   5.211
 4590TIP3   OH213733   5.340   5.586   2.651
 4590TIP3    H113734   5.420   5.539   2.626
 4590TIP3    H213735   5.372   5.660   2.703
 4591TIP3   OH213736   2.961   3.434   4.168
 4591TIP3    H113737   3.002   3.515   4.197
 4591TIP3    H213738   3.011   3.407   4.091
 4592TIP3   OH213739   4.303   6.518   3.158
 4592TIP3    H113740   4.293   6.480   3.071
 4592TIP3    H213741   4.299   6.442   3.217
 4593TIP3   OH213742   6.552   6.407   1.831
 4593TIP3    H113743   6.536   6.500   1.849
 4593TIP3    H213744   6.540   6.364   1.916
 4594TIP3   OH213745   6.942   1.672   3.518
 4594TIP3    H113746   6.864   1.670   3.463
 4594TIP3    H213747   6.965   1.765   3.524
 4595TIP3   OH213748   5.494   3.642   1.005
 4595TIP3    H113749   5.494   3.672   1.096
 4595TIP3    H213750   5.426   3.695   0.963
 4596TIP3   OH213751   4.129   2.802   2.142
 4596TIP3    H113752   4.203   2.742   2.132
 4596TIP3    H213753   4.069   2.756   2.201
 4597TIP3   OH213754   1.412   1.235   5.365
 4597TIP3    H113755   1.393   1.287   5.287
 4597TIP3    H213756   1.402   1.144   5.336
 4598TIP3   OH213757   5.217   5.400   4.858
 4598TIP3    H113758   5.209   5.394   4.763
 4598TIP3    H213759   5.228   5.493   4.875
 4599TIP3   OH213760   4.734   6.325   0.424
 4599TIP3    H113761   4.810   6.273   0.398
 4599TIP3    H213762   4.710   6.374   0.344
 4600TIP3   OH213763   1.168   2.716   0.104
 4600TIP3    H113764   1.194   2.800   0.143
 4600TIP3    H213765   1.073   2.712   0.117
 4601TIP3   OH213766   4.974   3.738   1.252
 4601TIP3    H113767   5.000   3.696   1.170
 4601TIP3    H213768   5.056   3.764   1.293
 4602TIP3   OH213769   3.364   6.133   2.325
 4602TIP3    H113770   3.395   6.043   2.326
 4602TIP3    H213771   3.422   6.179   2.387
 4603TIP3   OH213772   0.231   2.553   4.066
 4603TIP3    H113773   0.274   2.499   3.999
 4603TIP3    H213774   0.208   2.633   4.020
 4604TIP3   OH213775   1.225   1.880   5.312
 4604TIP3    H113776   1.268   1.965   5.312
 4604TIP3    H213777   1.204   1.864   5.220
 4605TIP3   OH213778   3.033   0.420   0.107
 4605TIP3    H113779   3.104   0.454   0.161
 4605TIP3    H213780   3.043   0.325   0.110
 4606TIP3   OH213781   0.036   3.594   4.060
 4606TIP3    H113782   0.100   3.634   4.001
 4606TIP3    H213783  -0.044   3.588   4.009
 4607TIP3   OH213784   5.232   5.446   0.567
 4607TIP3    H113785   5.317   5.403   0.564
 4607TIP3    H213786   5.253   5.539   0.575
 4608TIP3   OH213787   3.236   1.691   2.881
 4608TIP3    H113788   3.214   1.784   2.880
 4608TIP3    H213789   3.253   1.670   2.789
 4609TIP3   OH213790   2.831   5.772   4.671
 4609TIP3    H113791   2.794   5.684   4.662
 4609TIP3    H213792   2.848   5.800   4.581
 4610TIP3   OH213793   5.562   4.369   5.825
 4610TIP3    H113794   5.468   4.370   5.809
 4610TIP3    H213795   5.598   4.430   5.761
 4611TIP3   OH213796   7.053   5.737   5.213
 4611TIP3    H113797   7.107   5.741   5.135
 4611TIP3    H213798   7.077   5.655   5.255
 4612TIP3   OH213799   6.883   3.751   4.998
 4612TIP3    H113800   6.801   3.791   5.024
 4612TIP3    H213801   6.951   3.805   5.038
 4613TIP3   OH213802   1.212   2.731   2.790
 4613TIP3    H113803   1.278   2.712   2.856
 4613TIP3    H213804   1.242   2.685   2.711
 4614TIP3   OH213805   4.249   4.389   2.586
 4614TIP3    H113806   4.267   4.295   2.574
 4614TIP3    H213807   4.171   4.391   2.641
 4615TIP3   OH213808   0.574   3.818   5.751
 4615TIP3    H113809   0.668   3.802   5.745
 4615TIP3    H213810   0.567   3.907   5.784
 4616TIP3   OH213811   5.177   3.835   3.725
 4616TIP3    H113812   5.194   3.915   3.776
 4616TIP3    H213813   5.212   3.764   3.779
 4617TIP3   OH213814   5.624   4.578   3.159
 4617TIP3    H113815   5.645   4.486   3.173
 4617TIP3    H213816   5.533   4.578   3.130
 4618TIP3   OH213817   1.274   4.992   1.826
 4618TIP3    H113818   1.262   4.903   1.861
 4618TIP3    H213819   1.210   5.045   1.873
 4619TIP3   OH213820   6.969   2.266   2.467
 4619TIP3    H113821   6.955   2.360   2.450
 4619TIP3    H213822   7.023   2.236   2.395
 4620TIP3   OH213823   6.480   2.035   0.414
 4620TIP3    H113824   6.512   2.036   0.324
 4620TIP3    H213825   6.456   1.944   0.431
 4621TIP3   OH213826   2.421   1.010   4.816
 4621TIP3    H113827   2.463   1.060   4.746
 4621TIP3    H213828   2.437   0.918   4.793
 4622TIP3   OH213829   3.596   6.097   3.015
 4622TIP3    H113830   3.629   6.010   3.037
 4622TIP3    H213831   3.506   6.081   2.986
 4623TIP3   OH213832   0.566   4.997   4.595
 4623TIP3    H113833   0.491   4.941   4.575
 4623TIP3    H213834   0.638   4.959   4.544
 4624TIP3   OH213835   6.925   3.704   1.806
 4624TIP3    H113836   7.002   3.672   1.852
 4624TIP3    H213837   6.875   3.625   1.784
 4625TIP3   OH213838   2.979   6.478   5.445
 4625TIP3    H113839   2.980   6.386   5.417
 4625TIP3    H213840   3.068   6.494   5.477
 4626TIP3   OH213841   1.047   4.209   4.293
 4626TIP3    H113842   1.090   4.129   4.264
 4626TIP3    H213843   1.114   4.277   4.286
 4627TIP3   OH213844   6.636   6.478   3.183
 4627TIP3    H113845   6.548   6.472   3.220
 4627TIP3    H213846   6.655   6.390   3.152
 4628TIP3   OH213847   4.448   2.454   3.535
 4628TIP3    H113848   4.530   2.504   3.535
 4628TIP3    H213849   4.454   2.398   3.613
 4629TIP3   OH213850   5.518   3.737   2.605
 4629TIP3    H113851   5.466   3.723   2.526
 4629TIP3    H213852   5.607   3.712   2.580
 4630TIP3   OH213853   5.300   2.623   0.083
 4630TIP3    H113854   5.228   2.687   0.083
 4630TIP3    H213855   5.301   2.588   0.172
 4631TIP3   OH213856   2.926   4.786   5.820
 4631TIP3    H113857   3.019   4.780   5.798
 4631TIP3    H213858   2.909   4.880   5.824
 4632TIP3   OH213859   2.946   1.128   2.845
 4632TIP3    H113860   2.953   1.147   2.752
 4632TIP3    H213861   2.967   1.211   2.888
 4633TIP3   OH213862   5.778   0.990   0.369
 4633TIP3    H113863   5.683   0.984   0.380
 4633TIP3    H213864   5.809   1.031   0.449
 4634TIP3   OH213865   5.222   4.155   1.256
 4634TIP3    H113866   5.183   4.085   1.205
 4634TIP3    H213867   5.316   4.149   1.239
 4635TIP3   OH213868   4.744   1.153   3.633
 4635TIP3    H113869   4.703   1.162   3.547
 4635TIP3    H213870   4.802   1.077   3.623
 4636TIP3   OH213871   2.811   4.410   2.117
 4636TIP3    H113872   2.889   4.381   2.164
 4636TIP3    H213873   2.825   4.504   2.104
 4637TIP3   OH213874   4.531   6.772   5.735
 4637TIP3    H113875   4.485   6.825   5.799
 4637TIP3    H213876   4.577   6.835   5.679
 4638TIP3   OH213877   5.727   4.787   2.430
 4638TIP3    H113878   5.638   4.753   2.436
 4638TIP3    H213879   5.780   4.711   2.407
 4639TIP3   OH213880   3.500   1.144   0.708
 4639TIP3    H113881   3.527   1.192   0.630
 4639TIP3    H213882   3.471   1.058   0.674
 4640TIP3   OH213883   1.507   0.713   5.376
 4640TIP3    H113884   1.508   0.803   5.343
 4640TIP3    H213885   1.582   0.709   5.435
 4641TIP3   OH213886   1.241   3.605   4.076
 4641TIP3    H113887   1.260   3.518   4.111
 4641TIP3    H213888   1.207   3.588   3.988
 4642TIP3   OH213889   4.027   6.024   2.316
 4642TIP3    H113890   4.062   6.114   2.321
 4642TIP3    H213891   4.053   5.984   2.399
 4643TIP3   OH213892   0.995   0.067   2.385
 4643TIP3    H113893   0.904   0.082   2.357
 4643TIP3    H213894   1.040   0.149   2.364
 4644TIP3   OH213895   4.456   0.695   2.006
 4644TIP3    H113896   4.536   0.645   1.988
 4644TIP3    H213897   4.438   0.742   1.925
 4645TIP3   OH213898   1.414   5.552   0.822
 4645TIP3    H113899   1.507   5.569   0.805
 4645TIP3    H213900   1.369   5.580   0.743
 4646TIP3   OH213901   6.016   2.485   4.753
 4646TIP3    H113902   6.054   2.504   4.667
 4646TIP3    H213903   5.972   2.401   4.741
 4647TIP3   OH213904   0.743   0.904   3.151
 4647TIP3    H113905   0.744   0.842   3.224
 4647TIP3    H213906   0.654   0.898   3.116
 4648TIP3   OH213907   6.205   2.088   5.514
 4648TIP3    H113908   6.197   2.164   5.457
 4648TIP3    H213909   6.118   2.076   5.551
 4649TIP3   OH213910   2.248   0.088   0.300
 4649TIP3    H113911   2.261   0.153   0.369
 4649TIP3    H213912   2.241   0.139   0.220
 4650TIP3   OH213913   2.204   3.568   3.331
 4650TIP3    H113914   2.251   3.555   3.248
 4650TIP3    H213915   2.264   3.535   3.397
 4651TIP3   OH213916   6.822   6.638   3.937
 4651TIP3    H113917   6.766   6.585   3.880
 4651TIP3    H213918   6.911   6.615   3.911
 4652TIP3   OH213919   4.094   1.224   4.721
 4652TIP3    H113920   4.121   1.258   4.636
 4652TIP3    H213921   4.100   1.129   4.712
 4653TIP3   OH213922   5.973   3.638   4.485
 4653TIP3    H113923   5.912   3.706   4.511
 4653TIP3    H213924   5.919   3.572   4.441
 4654TIP3   OH213925   1.189   2.651   5.064
 4654TIP3    H113926   1.101   2.689   5.054
 4654TIP3    H213927   1.180   2.587   5.135
 4655TIP3   OH213928   6.331   2.049   3.817
 4655TIP3    H113929   6.277   2.048   3.738
 4655TIP3    H213930   6.402   2.109   3.797
 4656TIP3   OH213931   1.497   1.880   0.367
 4656TIP3    H113932   1.446   1.906   0.444
 4656TIP3    H213933   1.532   1.962   0.333
 4657TIP3   OH213934   4.467   2.539   5.555
 4657TIP3    H113935   4.466   2.544   5.651
 4657TIP3    H213936   4.456   2.445   5.536
 4658TIP3   OH213937   3.039   4.410   1.721
 4658TIP3    H113938   3.125   4.381   1.688
 4658TIP3    H213939   3.059   4.451   1.805
 4659TIP3   OH213940   0.984   3.399   4.058
 4659TIP3    H113941   0.943   3.415   4.143
 4659TIP3    H213942   1.075   3.428   4.069
 4660TIP3   OH213943   6.827   5.460   1.422
 4660TIP3    H113944   6.787   5.388   1.469
 4660TIP3    H213945   6.904   5.483   1.473
 4661TIP3   OH213946   3.285   6.501   3.949
 4661TIP3    H113947   3.217   6.479   3.886
 4661TIP3    H213948   3.297   6.422   4.001
 4662TIP3   OH213949   3.716   5.434   3.783
 4662TIP3    H113950   3.753   5.455   3.697
 4662TIP3    H213951   3.726   5.339   3.791
 4663TIP3   OH213952   1.305   0.033   0.893
 4663TIP3    H113953   1.388   0.065   0.858
 4663TIP3    H213954   1.286  -0.047   0.844
 4664TIP3   OH213955   4.670   5.525   3.328
 4664TIP3    H113956   4.746   5.486   3.286
 4664TIP3    H213957   4.704   5.600   3.376
 4665TIP3   OH213958   1.375   1.080   5.871
 4665TIP3    H113959   1.369   1.003   5.928
 4665TIP3    H213960   1.409   1.046   5.788
 4666TIP3   OH213961   4.250   6.380   2.917
 4666TIP3    H113962   4.323   6.340   2.870
 4666TIP3    H213963   4.206   6.434   2.851
 4667TIP3   OH213964   4.420   5.479   5.682
 4667TIP3    H113965   4.369   5.400   5.701
 4667TIP3    H213966   4.435   5.519   5.768
 4668TIP3   OH213967   1.458   4.441   2.322
 4668TIP3    H113968   1.384   4.470   2.375
 4668TIP3    H213969   1.505   4.522   2.300
 4669TIP3   OH213970   2.167   3.170   4.989
 4669TIP3    H113971   2.147   3.106   4.921
 4669TIP3    H213972   2.107   3.242   4.973
 4670TIP3   OH213973   2.086   5.870   0.860
 4670TIP3    H113974   2.169   5.872   0.813
 4670TIP3    H213975   2.064   5.962   0.875
 4671TIP3   OH213976   4.037   3.018   5.039
 4671TIP3    H113977   3.950   3.050   5.065
 4671TIP3    H213978   4.024   2.984   4.951
 4672TIP3   OH213979   5.274   5.847   2.800
 4672TIP3    H113980   5.350   5.894   2.834
 4672TIP3    H213981   5.216   5.837   2.876
 4673TIP3   OH213982   6.012   6.297   0.982
 4673TIP3    H113983   5.995   6.250   0.900
 4673TIP3    H213984   5.944   6.364   0.986
 4674TIP3   OH213985   5.155   6.725   1.169
 4674TIP3    H113986   5.212   6.648   1.160
 4674TIP3    H213987   5.162   6.749   1.261
 4675TIP3   OH213988   2.838   3.179   2.697
 4675TIP3    H113989   2.891   3.116   2.647
 4675TIP3    H213990   2.893   3.257   2.702
 4676TIP3   OH213991   2.441   6.249   2.317
 4676TIP3    H113992   2.362   6.211   2.356
 4676TIP3    H213993   2.486   6.174   2.277
 4677TIP3   OH213994   5.271   2.254   3.512
 4677TIP3    H113995   5.243   2.338   3.475
 4677TIP3    H213996   5.197   2.195   3.497
 4678TIP3   OH213997   1.716   0.401   3.712
 4678TIP3    H113998   1.694   0.313   3.742
 4678TIP3    H213999   1.633   0.448   3.715
 4679TIP3   OH214000   2.981   3.671   3.848
 4679TIP3    H114001   2.940   3.621   3.919
 4679TIP3    H214002   3.000   3.605   3.781
 4680TIP3   OH214003   2.765   6.568   5.288
 4680TIP3    H114004   2.720   6.489   5.256
 4680TIP3    H214005   2.832   6.534   5.347
 4681TIP3   OH214006   4.316   1.259   2.053
 4681TIP3    H114007   4.395   1.206   2.041
 4681TIP3    H214008   4.265   1.210   2.117
 4682TIP3   OH214009   5.313   1.966   2.109
 4682TIP3    H114010   5.322   1.935   2.199
 4682TIP3    H214011   5.385   1.924   2.061
 4683TIP3   OH214012   4.989   3.282   3.597
 4683TIP3    H114013   5.032   3.243   3.673
 4683TIP3    H214014   5.036   3.246   3.522
 4684TIP3   OH214015   5.509   1.788   0.187
 4684TIP3    H114016   5.483   1.839   0.111
 4684TIP3    H214017   5.584   1.835   0.223
 4685TIP3   OH214018   0.312   0.082   5.348
 4685TIP3    H114019   0.377   0.088   5.418
 4685TIP3    H214020   0.358   0.040   5.275
 4686TIP3   OH214021   2.420   6.199   4.751
 4686TIP3    H114022   2.494   6.227   4.804
 4686TIP3    H214023   2.381   6.281   4.719
 4687TIP3   OH214024   2.149   1.898   2.242
 4687TIP3    H114025   2.215   1.832   2.258
 4687TIP3    H214026   2.119   1.881   2.152
 4688TIP3   OH214027   2.519   0.341   1.658
 4688TIP3    H114028   2.502   0.435   1.651
 4688TIP3    H214029   2.587   0.334   1.725
 4689TIP3   OH214030   0.541   1.961   5.779
 4689TIP3    H114031   0.468   2.017   5.805
 4689TIP3    H214032   0.562   1.988   5.690
 4690TIP3   OH214033   4.978   3.430   0.491
 4690TIP3    H114034   4.887   3.460   0.485
 4690TIP3    H214035   4.974   3.355   0.550
 4691TIP3   OH214036   1.038   3.136   2.995
 4691TIP3    H114037   1.090   3.208   2.960
 4691TIP3    H214038   1.038   3.070   2.926
 4692TIP3   OH214039   1.905   3.639   5.777
 4692TIP3    H114040   1.884   3.588   5.854
 4692TIP3    H214041   1.905   3.730   5.807
 4693TIP3   OH214042   5.823   4.405   4.908
 4693TIP3    H114043   5.870   4.383   4.827
 4693TIP3    H214044   5.890   4.397   4.976
 4694TIP3   OH214045   2.832   4.760   0.845
 4694TIP3    H114046   2.754   4.811   0.866
 4694TIP3    H214047   2.842   4.769   0.750
 4695TIP3   OH214048   3.476   5.870   3.684
 4695TIP3    H114049   3.481   5.900   3.594
 4695TIP3    H214050   3.488   5.775   3.678
 4696TIP3   OH214051   2.750   5.846   3.581
 4696TIP3    H114052   2.735   5.918   3.519
 4696TIP3    H214053   2.812   5.789   3.537
 4697TIP3   OH214054   2.170   4.585   0.557
 4697TIP3    H114055   2.116   4.509   0.536
 4697TIP3    H214056   2.172   4.636   0.476
 4698TIP3   OH214057   1.228   1.747   3.390
 4698TIP3    H114058   1.228   1.757   3.486
 4698TIP3    H214059   1.238   1.652   3.377
 4699TIP3   OH214060   6.241   6.781   1.432
 4699TIP3    H114061   6.250   6.808   1.341
 4699TIP3    H214062   6.228   6.686   1.428
 4700TIP3   OH214063   4.754   2.295   0.850
 4700TIP3    H114064   4.809   2.289   0.772
 4700TIP3    H214065   4.718   2.207   0.861
 4701TIP3   OH214066   3.221   5.753   2.203
 4701TIP3    H114067   3.192   5.663   2.194
 4701TIP3    H214068   3.314   5.751   2.182
 4702TIP3   OH214069   2.281   6.371   1.678
 4702TIP3    H114070   2.345   6.347   1.744
 4702TIP3    H214071   2.279   6.467   1.680
 4703TIP3   OH214072   6.763   1.225   2.172
 4703TIP3    H114073   6.851   1.214   2.137
 4703TIP3    H214074   6.737   1.138   2.202
 4704TIP3   OH214075   0.138   2.881   2.786
 4704TIP3    H114076   0.233   2.897   2.787
 4704TIP3    H214077   0.103   2.948   2.727
 4705TIP3   OH214078   5.731   0.381   0.525
 4705TIP3    H114079   5.705   0.349   0.612
 4705TIP3    H214080   5.753   0.473   0.540
 4706TIP3   OH214081   3.907   4.203   5.456
 4706TIP3    H114082   3.849   4.278   5.471
 4706TIP3    H214083   3.911   4.159   5.541
 4707TIP3   OH214084   3.749   1.124   2.074
 4707TIP3    H114085   3.720   1.207   2.037
 4707TIP3    H214086   3.791   1.079   2.002
 4708TIP3   OH214087   5.570   4.731   4.710
 4708TIP3    H114088   5.497   4.681   4.675
 4708TIP3    H214089   5.571   4.710   4.804
 4709TIP3   OH214090   6.864   0.763   2.994
 4709TIP3    H114091   6.856   0.813   3.074
 4709TIP3    H214092   6.822   0.679   3.014
 4710TIP3   OH214093   6.923   1.592   1.171
 4710TIP3    H114094   6.857   1.624   1.109
 4710TIP3    H214095   6.951   1.508   1.134
 4711TIP3   OH214096   4.734   1.571   2.291
 4711TIP3    H114097   4.721   1.619   2.372
 4711TIP3    H214098   4.777   1.633   2.232
 4712TIP3   OH214099   6.563   1.600   4.122
 4712TIP3    H114100   6.643   1.570   4.166
 4712TIP3    H214101   6.594   1.656   4.051
 4713TIP3   OH214102   5.135   1.554   4.974
 4713TIP3    H114103   5.182   1.538   5.056
 4713TIP3    H214104   5.088   1.636   4.989
 4714TIP3   OH214105   1.344   6.541   5.781
 4714TIP3    H114106   1.263   6.503   5.814
 4714TIP3    H214107   1.412   6.479   5.809
 4715TIP3   OH214108   4.622   1.553   5.039
 4715TIP3    H114109   4.551   1.601   5.082
 4715TIP3    H214110   4.673   1.517   5.112
 4716TIP3   OH214111   6.203   1.789   4.139
 4716TIP3    H114112   6.290   1.805   4.103
 4716TIP3    H214113   6.208   1.821   4.229
 4717TIP3   OH214114   4.609   6.766   2.709
 4717TIP3    H114115   4.610   6.801   2.798
 4717TIP3    H214116   4.701   6.756   2.685
 4718TIP3   OH214117   1.367   5.178   4.357
 4718TIP3    H114118   1.359   5.269   4.329
 4718TIP3    H214119   1.369   5.128   4.276
 4719TIP3   OH214120   2.262   6.545   0.422
 4719TIP3    H114121   2.253   6.452   0.442
 4719TIP3    H214122   2.176   6.572   0.391
 4720TIP3   OH214123   4.331   2.668   5.374
 4720TIP3    H114124   4.352   2.761   5.367
 4720TIP3    H214125   4.382   2.638   5.449
 4721TIP3   OH214126   1.473   3.078   5.836
 4721TIP3    H114127   1.508   3.059   5.923
 4721TIP3    H214128   1.382   3.049   5.840
 4722TIP3   OH214129   4.178   3.199   3.903
 4722TIP3    H114130   4.260   3.209   3.855
 4722TIP3    H214131   4.139   3.119   3.868
 4723TIP3   OH214132   1.850   6.711   2.832
 4723TIP3    H114133   1.833   6.767   2.907
 4723TIP3    H214134   1.940   6.732   2.805
 4724TIP3   OH214135   0.029   4.303   3.310
 4724TIP3    H114136   0.095   4.353   3.360
 4724TIP3    H214137  -0.012   4.369   3.254
 4725TIP3   OH214138   6.881   4.304   3.658
 4725TIP3    H114139   6.900   4.380   3.714
 4725TIP3    H214140   6.920   4.326   3.573
 4726TIP3   OH214141   4.279   5.952   0.534
 4726TIP3    H114142   4.300   6.045   0.520
 4726TIP3    H214143   4.224   5.928   0.459
 4727TIP3   OH214144   0.649   2.269   0.565
 4727TIP3    H114145   0.713   2.223   0.620
 4727TIP3    H214146   0.569   2.217   0.574
 4728TIP3   OH214147   3.589   5.094   5.158
 4728TIP3    H114148   3.660   5.030   5.168
 4728TIP3    H214149   3.567   5.090   5.065
 4729TIP3   OH214150   2.536   1.235   3.638
 4729TIP3    H114151   2.463   1.290   3.666
 4729TIP3    H214152   2.519   1.150   3.678
 4730TIP3   OH214153   1.906   4.771   0.013
 4730TIP3    H114154   1.988   4.771  -0.036
 4730TIP3    H214155   1.919   4.706   0.082
 4731TIP3   OH214156   7.177   0.655   5.797
 4731TIP3    H114157   7.102   0.621   5.749
 4731TIP3    H214158   7.201   0.585   5.857
 4732TIP3   OH214159   0.942   0.633   3.713
 4732TIP3    H114160   1.016   0.689   3.737
 4732TIP3    H214161   0.867   0.673   3.757
 4733TIP3   OH214162   2.371   0.713   1.880
 4733TIP3    H114163   2.413   0.709   1.794
 4733TIP3    H214164   2.406   0.792   1.920
 4734TIP3   OH214165   1.132   3.139   5.621
 4734TIP3    H114166   1.051   3.089   5.615
 4734TIP3    H214167   1.190   3.085   5.675
 4735TIP3   OH214168   6.857   4.900   5.453
 4735TIP3    H114169   6.793   4.834   5.480
 4735TIP3    H214170   6.824   4.982   5.488
 4736TIP3   OH214171   6.978   1.598   5.902
 4736TIP3    H114172   6.964   1.545   5.824
 4736TIP3    H214173   7.069   1.628   5.896
 4737TIP3   OH214174   3.758   5.484   5.544
 4737TIP3    H114175   3.697   5.464   5.473
 4737TIP3    H214176   3.730   5.427   5.616
 4738TIP3   OH214177   5.670   5.171   2.925
 4738TIP3    H114178   5.757   5.148   2.894
 4738TIP3    H214179   5.611   5.119   2.871
 4739TIP3   OH214180   6.171   6.582   0.156
 4739TIP3    H114181   6.230   6.627   0.095
 4739TIP3    H214182   6.215   6.586   0.240
 4740TIP3   OH214183   1.600   1.941   2.998
 4740TIP3    H114184   1.596   2.035   3.014
 4740TIP3    H214185   1.686   1.928   2.958
 4741TIP3   OH214186   6.956   0.578   3.860
 4741TIP3    H114187   6.941   0.669   3.885
 4741TIP3    H214188   6.919   0.527   3.932
 4742TIP3   OH214189   1.181   0.896   3.220
 4742TIP3    H114190   1.173   0.838   3.296
 4742TIP3    H214191   1.127   0.855   3.152
 4743TIP3   OH214192   5.387   2.771   3.582
 4743TIP3    H114193   5.448   2.843   3.602
 4743TIP3    H214194   5.440   2.692   3.595
 4744TIP3   OH214195   6.639   0.508   2.934
 4744TIP3    H114196   6.568   0.448   2.911
 4744TIP3    H214197   6.645   0.568   2.860
 4745TIP3   OH214198   0.287   3.883   0.629
 4745TIP3    H114199   0.217   3.882   0.695
 4745TIP3    H214200   0.326   3.796   0.634
 4746TIP3   OH214201   2.028   6.150   4.129
 4746TIP3    H114202   2.117   6.158   4.094
 4746TIP3    H214203   2.040   6.138   4.223
 4747TIP3   OH214204   1.528   3.262   5.179
 4747TIP3    H114205   1.503   3.337   5.126
 4747TIP3    H214206   1.541   3.191   5.116
 4748TIP3   OH214207   4.115   5.529   5.059
 4748TIP3    H114208   4.030   5.493   5.086
 4748TIP3    H214209   4.136   5.594   5.126
 4749TIP3   OH214210   2.958   4.731   2.939
 4749TIP3    H114211   2.987   4.647   2.975
 4749TIP3    H214212   2.980   4.726   2.846
 4750TIP3   OH214213   6.539   1.514   3.127
 4750TIP3    H114214   6.625   1.482   3.153
 4750TIP3    H214215   6.482   1.437   3.132
 4751TIP3   OH214216   7.061   2.450   3.704
 4751TIP3    H114217   7.100   2.447   3.791
 4751TIP3    H214218   6.977   2.405   3.714
 4752TIP3   OH214219   2.073   2.248   1.509
 4752TIP3    H114220   2.018   2.325   1.493
 4752TIP3    H214221   2.017   2.190   1.561
 4753TIP3   OH214222   6.794   5.090   4.461
 4753TIP3    H114223   6.812   5.166   4.405
 4753TIP3    H214224   6.774   5.019   4.400
 4754TIP3   OH214225   4.028   5.629   5.618
 4754TIP3    H114226   3.992   5.640   5.706
 4754TIP3    H214227   3.977   5.557   5.580
 4755TIP3   OH214228   0.435   3.791   5.472
 4755TIP3    H114229   0.397   3.717   5.520
 4755TIP3    H214230   0.492   3.834   5.536
 4756TIP3   OH214231   0.488   4.529   2.198
 4756TIP3    H114232   0.505   4.481   2.117
 4756TIP3    H214233   0.404   4.572   2.183
 4757TIP3   OH214234   7.146   1.942   3.193
 4757TIP3    H114235   7.161   2.023   3.145
 4757TIP3    H214236   7.052   1.939   3.207
 4758TIP3   OH214237   0.507   3.029   5.614
 4758TIP3    H114238   0.496   3.031   5.709
 4758TIP3    H214239   0.505   3.121   5.588
 4759TIP3   OH214240   6.034   4.110   4.869
 4759TIP3    H114241   6.042   4.201   4.899
 4759TIP3    H214242   5.940   4.091   4.876
 4760TIP3   OH214243   0.094   4.437   2.094
 4760TIP3    H114244   0.108   4.523   2.054
 4760TIP3    H214245   0.015   4.448   2.147
 4761TIP3   OH214246   2.760   4.021   2.050
 4761TIP3    H114247   2.702   3.950   2.024
 4761TIP3    H214248   2.808   4.043   1.970
 4762TIP3   OH214249   1.851   5.051   0.302
 4762TIP3    H114250   1.915   5.059   0.372
 4762TIP3    H214251   1.813   4.964   0.314
 4763TIP3   OH214252   3.395   4.412   2.255
 4763TIP3    H114253   3.360   4.458   2.331
 4763TIP3    H214254   3.411   4.481   2.190
 4764TIP3   OH214255   5.285   4.390   2.607
 4764TIP3    H114256   5.352   4.339   2.654
 4764TIP3    H214257   5.205   4.339   2.617
 4765TIP3   OH214258   6.769   5.727   1.394
 4765TIP3    H114259   6.796   5.636   1.384
 4765TIP3    H214260   6.708   5.726   1.468
 4766TIP3   OH214261   3.696   4.105   2.382
 4766TIP3    H114262   3.607   4.112   2.350
 4766TIP3    H214263   3.687   4.092   2.477
 4767TIP3   OH214264   6.870   2.069   1.684
 4767TIP3    H114265   6.833   1.994   1.730
 4767TIP3    H214266   6.874   2.138   1.751
 4768TIP3   OH214267   4.249   2.878   3.832
 4768TIP3    H114268   4.259   2.877   3.927
 4768TIP3    H214269   4.253   2.786   3.807
 4769TIP3   OH214270   5.640   0.211   0.761
 4769TIP3    H114271   5.655   0.117   0.749
 4769TIP3    H214272   5.672   0.229   0.849
 4770TIP3   OH214273   4.188   3.272   4.223
 4770TIP3    H114274   4.202   3.290   4.130
 4770TIP3    H214275   4.098   3.237   4.227
 4771TIP3   OH214276   2.420   1.526   3.887
 4771TIP3    H114277   2.405   1.438   3.853
 4771TIP3    H214278   2.342   1.576   3.861
 4772TIP3   OH214279   7.006   2.360   1.799
 4772TIP3    H114280   7.058   2.346   1.720
 4772TIP3    H214281   6.964   2.445   1.785
 4773TIP3   OH214282   0.655   2.494   0.872
 4773TIP3    H114283   0.734   2.476   0.821
 4773TIP3    H214284   0.685   2.542   0.948
 4774TIP3   OH214285   2.602   5.759   0.750
 4774TIP3    H114286   2.543   5.710   0.693
 4774TIP3    H214287   2.620   5.840   0.702
 4775TIP3   OH214288   6.609   4.037   2.866
 4775TIP3    H114289   6.575   3.953   2.835
 4775TIP3    H214290   6.663   4.014   2.942
 4776TIP3   OH214291   1.806   5.451   4.194
 4776TIP3    H114292   1.767   5.521   4.246
 4776TIP3    H214293   1.899   5.472   4.192
 4777TIP3   OH214294   3.337   3.773   0.552
 4777TIP3    H114295   3.297   3.854   0.584
 4777TIP3    H214296   3.386   3.798   0.474
 4778TIP3   OH214297   1.900   4.178   2.339
 4778TIP3    H114298   1.961   4.105   2.348
 4778TIP3    H214299   1.847   4.174   2.419
 4779TIP3   OH214300   5.104   5.290   1.726
 4779TIP3    H114301   5.065   5.300   1.639
 4779TIP3    H214302   5.183   5.344   1.724
 4780TIP3   OH214303   0.136   3.837   0.881
 4780TIP3    H114304   0.091   3.754   0.895
 4780TIP3    H214305   0.159   3.867   0.969
 4781TIP3   OH214306   5.511   0.997   0.387
 4781TIP3    H114307   5.520   1.004   0.482
 4781TIP3    H214308   5.420   1.020   0.369
 4782TIP3   OH214309   0.097   0.713   5.156
 4782TIP3    H114310   0.045   0.753   5.226
 4782TIP3    H214311   0.137   0.637   5.197
 4783TIP3   OH214312   0.867   6.685   4.479
 4783TIP3    H114313   0.960   6.666   4.466
 4783TIP3    H214314   0.850   6.658   4.570
 4784TIP3   OH214315   7.077   2.324   2.770
 4784TIP3    H114316   7.013   2.262   2.802
 4784TIP3    H214317   7.131   2.274   2.709
 4785TIP3   OH214318   4.501   6.378   5.605
 4785TIP3    H114319   4.582   6.400   5.559
 4785TIP3    H214320   4.443   6.451   5.586
 4786TIP3   OH214321   6.652   3.634   4.371
 4786TIP3    H114322   6.585   3.636   4.303
 4786TIP3    H214323   6.665   3.541   4.390
 4787TIP3   OH214324   5.393   3.498   1.340
 4787TIP3    H114325   5.425   3.585   1.363
 4787TIP3    H214326   5.454   3.438   1.382
 4788TIP3   OH214327   4.376   1.488   0.677
 4788TIP3    H114328   4.341   1.487   0.766
 4788TIP3    H214329   4.453   1.544   0.682
 4789TIP3   OH214330   0.705   4.168   3.936
 4789TIP3    H114331   0.708   4.256   3.899
 4789TIP3    H214332   0.667   4.114   3.866
 4790TIP3   OH214333   3.128   2.670   2.293
 4790TIP3    H114334   3.135   2.704   2.382
 4790TIP3    H214335   3.052   2.715   2.256
 4791TIP3   OH214336   1.976   2.368   5.627
 4791TIP3    H114337   1.916   2.398   5.696
 4791TIP3    H214338   1.972   2.272   5.633
 4792TIP3   OH214339   1.029   0.882   3.950
 4792TIP3    H114340   1.054   0.966   3.990
 4792TIP3    H214341   0.952   0.903   3.897
 4793TIP3   OH214342   4.675   5.148   5.216
 4793TIP3    H114343   4.692   5.216   5.281
 4793TIP3    H214344   4.700   5.188   5.133
 4794TIP3   OH214345   3.744   0.764   3.014
 4794TIP3    H114346   3.776   0.674   3.022
 4794TIP3    H214347   3.705   0.783   3.099
 4795TIP3   OH214348   7.094   6.152   3.939
 4795TIP3    H114349   7.085   6.058   3.921
 4795TIP3    H214350   7.007   6.180   3.966
 4796TIP3   OH214351   4.415   5.021   0.525
 4796TIP3    H114352   4.434   5.072   0.446
 4796TIP3    H214353   4.499   4.982   0.549
 4797TIP3   OH214354   1.596   0.260   1.301
 4797TIP3    H114355   1.564   0.304   1.380
 4797TIP3    H214356   1.548   0.177   1.298
 4798TIP3   OH214357   0.903   4.174   0.350
 4798TIP3    H114358   0.922   4.195   0.441
 4798TIP3    H214359   0.973   4.115   0.324
 4799TIP3   OH214360   0.420   4.227   2.239
 4799TIP3    H114361   0.492   4.280   2.206
 4799TIP3    H214362   0.352   4.290   2.264
 4800TIP3   OH214363   4.678   6.004   1.710
 4800TIP3    H114364   4.602   6.048   1.671
 4800TIP3    H214365   4.656   5.996   1.802
 4801TIP3   OH214366   5.736   2.781   1.457
 4801TIP3    H114367   5.824   2.750   1.478
 4801TIP3    H214368   5.693   2.705   1.416
 4802TIP3   OH214369   4.830   0.265   3.389
 4802TIP3    H114370   4.828   0.317   3.469
 4802TIP3    H214371   4.892   0.194   3.407
 4803TIP3   OH214372   3.320   5.195   2.309
 4803TIP3    H114373   3.330   5.288   2.327
 4803TIP3    H214374   3.351   5.151   2.388
 4804TIP3   OH214375   3.432   2.849   4.708
 4804TIP3    H114376   3.472   2.762   4.706
 4804TIP3    H214377   3.353   2.840   4.655
 4805TIP3   OH214378   2.957   2.922   2.589
 4805TIP3    H114379   3.019   2.859   2.624
 4805TIP3    H214380   2.897   2.870   2.536
 4806TIP3   OH214381   1.302   0.257   0.513
 4806TIP3    H114382   1.282   0.295   0.599
 4806TIP3    H214383   1.311   0.333   0.455
 4807TIP3   OH214384   0.981   1.542   2.701
 4807TIP3    H114385   1.055   1.600   2.685
 4807TIP3    H214386   0.910   1.602   2.728
 4808TIP3   OH214387   5.633   0.852   1.234
 4808TIP3    H114388   5.646   0.789   1.304
 4808TIP3    H214389   5.721   0.882   1.212
 4809TIP3   OH214390   1.976   0.631   1.811
 4809TIP3    H114391   1.950   0.541   1.790
 4809TIP3    H214392   2.066   0.638   1.779
 4810TIP3   OH214393   4.068   5.943   0.364
 4810TIP3    H114394   4.071   5.961   0.270
 4810TIP3    H214395   3.986   5.895   0.376
 4811TIP3   OH214396   7.044   1.672   2.300
 4811TIP3    H114397   7.121   1.624   2.270
 4811TIP3    H214398   7.075   1.723   2.375
 4812TIP3   OH214399   2.895   6.464   3.582
 4812TIP3    H114400   2.910   6.520   3.506
 4812TIP3    H214401   2.802   6.444   3.580
 4813TIP3   OH214402   5.955   1.841   5.464
 4813TIP3    H114403   5.929   1.908   5.402
 4813TIP3    H214404   6.042   1.813   5.436
 4814TIP3   OH214405   2.376   5.624   3.738
 4814TIP3    H114406   2.283   5.628   3.761
 4814TIP3    H214407   2.396   5.714   3.710
 4815TIP3   OH214408   6.110   1.213   2.251
 4815TIP3    H114409   6.024   1.210   2.209
 4815TIP3    H214410   6.142   1.123   2.246
 4816TIP3   OH214411   5.073   3.480   5.699
 4816TIP3    H114412   5.097   3.389   5.714
 4816TIP3    H214413   5.127   3.530   5.761
 4817TIP3   OH214414   1.970   1.079   0.785
 4817TIP3    H114415   2.023   1.119   0.854
 4817TIP3    H214416   1.933   1.000   0.825
 4818TIP3   OH214417   5.539  -0.052   3.303
 4818TIP3    H114418   5.533   0.043   3.312
 4818TIP3    H214419   5.586  -0.081   3.382
 4819TIP3   OH214420   4.191   4.930   1.699
 4819TIP3    H114421   4.259   4.867   1.725
 4819TIP3    H214422   4.120   4.875   1.665
 4820TIP3   OH214423   4.081   0.519   0.752
 4820TIP3    H114424   4.158   0.564   0.788
 4820TIP3    H214425   4.100   0.509   0.659
 4821TIP3   OH214426   3.651   2.582   5.103
 4821TIP3    H114427   3.571   2.581   5.050
 4821TIP3    H214428   3.711   2.638   5.054
 4822TIP3   OH214429   5.056   2.453   1.473
 4822TIP3    H114430   5.052   2.458   1.568
 4822TIP3    H214431   4.969   2.423   1.447
 4823TIP3   OH214432   6.130   3.203   0.519
 4823TIP3    H114433   6.127   3.136   0.450
 4823TIP3    H214434   6.157   3.155   0.597
 4824TIP3   OH214435   0.365   6.246   5.670
 4824TIP3    H114436   0.273   6.243   5.699
 4824TIP3    H214437   0.369   6.183   5.598
 4825TIP3   OH214438   7.174   1.577   3.378
 4825TIP3    H114439   7.105   1.617   3.430
 4825TIP3    H214440   7.151   1.598   3.287
 4826TIP3   OH214441   6.747   5.509   4.225
 4826TIP3    H114442   6.722   5.601   4.231
 4826TIP3    H214443   6.701   5.475   4.149
 4827TIP3   OH214444   2.709   2.855   5.617
 4827TIP3    H114445   2.676   2.945   5.610
 4827TIP3    H214446   2.661   2.818   5.692
 4828TIP3   OH214447   1.715   5.664   4.350
 4828TIP3    H114448   1.787   5.681   4.411
 4828TIP3    H214449   1.676   5.749   4.333
 4829TIP3   OH214450   2.633   4.775   4.242
 4829TIP3    H114451   2.559   4.817   4.199
 4829TIP3    H214452   2.593   4.704   4.294
 4830TIP3   OH214453   0.257   2.209   3.638
 4830TIP3    H114454   0.222   2.129   3.677
 4830TIP3    H214455   0.237   2.202   3.545
 4831TIP3   OH214456   3.502   3.740   4.042
 4831TIP3    H114457   3.424   3.776   4.086
 4831TIP3    H214458   3.483   3.647   4.031
 4832TIP3   OH214459   5.663   2.110   1.023
 4832TIP3    H114460   5.757   2.128   1.036
 4832TIP3    H214461   5.661   2.041   0.956
 4833TIP3   OH214462   1.763   5.994   5.483
 4833TIP3    H114463   1.763   5.899   5.486
 4833TIP3    H214464   1.841   6.017   5.432
 4834TIP3   OH214465   3.247   6.730   0.738
 4834TIP3    H114466   3.237   6.650   0.790
 4834TIP3    H214467   3.306   6.706   0.667
 4835TIP3   OH214468   4.690   4.956   0.579
 4835TIP3    H114469   4.758   4.988   0.638
 4835TIP3    H214470   4.737   4.931   0.500
 4836TIP3   OH214471   7.093   1.989   0.557
 4836TIP3    H114472   7.068   2.081   0.559
 4836TIP3    H214473   7.146   1.976   0.636
 4837TIP3   OH214474   1.958   4.515   1.774
 4837TIP3    H114475   2.002   4.503   1.689
 4837TIP3    H214476   2.011   4.465   1.836
 4838TIP3   OH214477   1.289   4.090   3.026
 4838TIP3    H114478   1.231   4.015   3.014
 4838TIP3    H214479   1.371   4.064   2.983
 4839TIP3   OH214480   1.951   1.118   4.153
 4839TIP3    H114481   2.021   1.053   4.145
 4839TIP3    H214482   1.940   1.129   4.248
 4840TIP3   OH214483   2.775   1.913   4.004
 4840TIP3    H114484   2.760   1.821   3.983
 4840TIP3    H214485   2.838   1.943   3.938
 4841TIP3   OH214486   2.261   5.809   2.302
 4841TIP3    H114487   2.195   5.765   2.248
 4841TIP3    H214488   2.257   5.763   2.386
 4842TIP3   OH214489   6.127   5.507   5.189
 4842TIP3    H114490   6.171   5.537   5.110
 4842TIP3    H214491   6.100   5.587   5.235
 4843TIP3   OH214492   2.942   3.593   1.740
 4843TIP3    H114493   2.969   3.523   1.801
 4843TIP3    H214494   2.883   3.550   1.679
 4844TIP3   OH214495   1.631   4.945   0.596
 4844TIP3    H114496   1.625   4.936   0.691
 4844TIP3    H214497   1.715   4.904   0.574
 4845TIP3   OH214498   0.653   6.195   3.273
 4845TIP3    H114499   0.570   6.188   3.321
 4845TIP3    H214500   0.657   6.286   3.246
 4846TIP3   OH214501   2.080   0.700   0.908
 4846TIP3    H114502   2.142   0.705   0.835
 4846TIP3    H214503   2.119   0.755   0.976
 4847TIP3   OH214504   4.260   4.850   0.374
 4847TIP3    H114505   4.325   4.885   0.436
 4847TIP3    H214506   4.213   4.927   0.343
 4848TIP3   OH214507   5.845   0.722   0.339
 4848TIP3    H114508   5.873   0.699   0.427
 4848TIP3    H214509   5.834   0.817   0.341
 4849TIP3   OH214510   5.862   2.265   2.781
 4849TIP3    H114511   5.791   2.319   2.817
 4849TIP3    H214512   5.872   2.193   2.843
 4850TIP3   OH214513   0.491   5.746   1.454
 4850TIP3    H114514   0.432   5.799   1.400
 4850TIP3    H214515   0.439   5.723   1.531
 4851TIP3   OH214516   2.630   4.146   1.657
 4851TIP3    H114517   2.635   4.233   1.618
 4851TIP3    H214518   2.675   4.155   1.742
 4852TIP3   OH214519   0.022   6.390   4.716
 4852TIP3    H114520  -0.026   6.431   4.644
 4852TIP3    H214521   0.022   6.457   4.785
 4853TIP3   OH214522   5.360   5.034   5.005
 4853TIP3    H114523   5.332   5.119   4.971
 4853TIP3    H214524   5.449   5.023   4.972
 4854TIP3   OH214525   6.120   0.591   5.466
 4854TIP3    H114526   6.192   0.560   5.411
 4854TIP3    H214527   6.160   0.607   5.552
 4855TIP3   OH214528   7.012   1.102   2.236
 4855TIP3    H114529   7.069   1.078   2.162
 4855TIP3    H214530   7.056   1.067   2.313
 4856TIP3   OH214531   6.378   6.393   4.878
 4856TIP3    H114532   6.420   6.473   4.846
 4856TIP3    H214533   6.347   6.415   4.966
 4857TIP3   OH214534   2.494   2.936   1.566
 4857TIP3    H114535   2.566   2.902   1.512
 4857TIP3    H214536   2.533   3.010   1.613
 4858TIP3   OH214537   1.153   1.686   4.384
 4858TIP3    H114538   1.173   1.763   4.331
 4858TIP3    H214539   1.213   1.619   4.352
 4859TIP3   OH214540   6.006   2.510   2.707
 4859TIP3    H114541   5.962   2.425   2.719
 4859TIP3    H214542   5.935   2.572   2.695
 4860TIP3   OH214543   2.693   5.536   4.670
 4860TIP3    H114544   2.618   5.558   4.725
 4860TIP3    H214545   2.655   5.493   4.593
 4861TIP3   OH214546   1.648   4.472   4.511
 4861TIP3    H114547   1.688   4.504   4.592
 4861TIP3    H214548   1.698   4.513   4.441
 4862TIP3   OH214549   1.494   5.978   2.292
 4862TIP3    H114550   1.461   6.066   2.309
 4862TIP3    H214551   1.420   5.920   2.310
 4863TIP3   OH214552   5.010   1.283   1.138
 4863TIP3    H114553   4.963   1.340   1.198
 4863TIP3    H214554   5.097   1.273   1.178
 4864TIP3   OH214555   1.445   1.351   5.838
 4864TIP3    H114556   1.405   1.265   5.849
 4864TIP3    H214557   1.516   1.352   5.902
 4865TIP3   OH214558   0.541   4.292   2.576
 4865TIP3    H114559   0.626   4.323   2.607
 4865TIP3    H214560   0.501   4.368   2.533
 4866TIP3   OH214561   4.362   2.369   4.000
 4866TIP3    H114562   4.355   2.353   3.906
 4866TIP3    H214563   4.445   2.329   4.025
 4867TIP3   OH214564   2.082   3.116   1.492
 4867TIP3    H114565   2.123   3.179   1.433
 4867TIP3    H214566   2.130   3.034   1.477
 4868TIP3   OH214567   3.232   0.897   0.480
 4868TIP3    H114568   3.255   0.934   0.395
 4868TIP3    H214569   3.177   0.963   0.521
 4869TIP3   OH214570   2.956   4.862   3.862
 4869TIP3    H114571   2.925   4.937   3.913
 4869TIP3    H214572   2.879   4.804   3.856
 4870TIP3   OH214573   1.261   0.016   0.082
 4870TIP3    H114574   1.190   0.074   0.109
 4870TIP3    H214575   1.254  -0.059   0.142
 4871TIP3   OH214576   1.708   5.142   2.064
 4871TIP3    H114577   1.745   5.165   2.149
 4871TIP3    H214578   1.757   5.065   2.036
 4872TIP3   OH214579   6.358   1.627   0.147
 4872TIP3    H114580   6.331   1.536   0.135
 4872TIP3    H214581   6.280   1.671   0.180
 4873TIP3   OH214582   5.327   6.773   4.399
 4873TIP3    H114583   5.371   6.737   4.475
 4873TIP3    H214584   5.312   6.698   4.341
 4874TIP3   OH214585   1.854   1.932   5.648
 4874TIP3    H114586   1.922   1.944   5.581
 4874TIP3    H214587   1.802   2.013   5.644
 4875TIP3   OH214588   3.748   6.391   3.749
 4875TIP3    H114589   3.747   6.344   3.832
 4875TIP3    H214590   3.840   6.394   3.723
 4876TIP3   OH214591   3.312   2.287   3.103
 4876TIP3    H114592   3.220   2.302   3.125
 4876TIP3    H214593   3.317   2.302   3.009
 4877TIP3   OH214594   1.735   4.583   4.757
 4877TIP3    H114595   1.721   4.585   4.852
 4877TIP3    H214596   1.786   4.661   4.738
 4878TIP3   OH214597   0.107   6.078   2.181
 4878TIP3    H114598   0.181   6.025   2.153
 4878TIP3    H214599   0.144   6.164   2.198
 4879TIP3   OH214600   6.686   5.431   0.903
 4879TIP3    H114601   6.636   5.352   0.923
 4879TIP3    H214602   6.704   5.470   0.989
 4880TIP3   OH214603   2.626   5.506   0.218
 4880TIP3    H114604   2.558   5.569   0.194
 4880TIP3    H214605   2.677   5.495   0.137
 4881TIP3   OH214606   6.264   5.024   3.375
 4881TIP3    H114607   6.288   4.933   3.394
 4881TIP3    H214608   6.281   5.034   3.281
 4882TIP3   OH214609   3.847   0.778   0.661
 4882TIP3    H114610   3.917   0.754   0.600
 4882TIP3    H214611   3.892   0.828   0.730
 4883TIP3   OH214612   4.631   5.837   1.988
 4883TIP3    H114613   4.645   5.801   2.076
 4883TIP3    H214614   4.539   5.819   1.969
 4884TIP3   OH214615   7.101   6.322   3.694
 4884TIP3    H114616   7.132   6.258   3.759
 4884TIP3    H214617   7.064   6.393   3.747
 4885TIP3   OH214618   3.065   5.678   5.316
 4885TIP3    H114619   2.987   5.689   5.262
 4885TIP3    H214620   3.138   5.699   5.257
 4886TIP3   OH214621   5.974   1.524   3.794
 4886TIP3    H114622   5.965   1.435   3.828
 4886TIP3    H214623   6.064   1.528   3.762
 4887TIP3   OH214624   3.427   2.068   0.658
 4887TIP3    H114625   3.522   2.075   0.658
 4887TIP3    H214626   3.397   2.153   0.628
 4888TIP3   OH214627   2.962   2.316   4.203
 4888TIP3    H114628   2.966   2.221   4.194
 4888TIP3    H214629   2.916   2.346   4.124
 4889TIP3   OH214630   6.900   5.942   3.885
 4889TIP3    H114631   6.925   5.864   3.934
 4889TIP3    H214632   6.949   5.937   3.803
 4890TIP3   OH214633   1.836   0.194   0.667
 4890TIP3    H114634   1.872   0.141   0.596
 4890TIP3    H214635   1.814   0.277   0.626
 4891TIP3   OH214636   5.205   5.284   5.296
 4891TIP3    H114637   5.173   5.266   5.208
 4891TIP3    H214638   5.166   5.369   5.318
 4892TIP3   OH214639   5.021   1.726   0.511
 4892TIP3    H114640   5.051   1.655   0.568
 4892TIP3    H214641   5.097   1.782   0.500
 4893TIP3   OH214642   2.306   0.708   3.827
 4893TIP3    H114643   2.365   0.754   3.887
 4893TIP3    H214644   2.241   0.666   3.884
 4894TIP3   OH214645   5.160   3.593   2.689
 4894TIP3    H114646   5.144   3.655   2.618
 4894TIP3    H214647   5.210   3.523   2.648
 4895TIP3   OH214648   3.298   3.784   5.006
 4895TIP3    H114649   3.386   3.758   4.980
 4895TIP3    H214650   3.266   3.838   4.934
 4896TIP3   OH214651   3.795   0.848   2.260
 4896TIP3    H114652   3.807   0.757   2.234
 4896TIP3    H214653   3.829   0.899   2.186
 4897TIP3   OH214654   5.040   5.518   5.320
 4897TIP3    H114655   5.040   5.554   5.231
 4897TIP3    H214656   5.035   5.594   5.377
 4898TIP3   OH214657   6.908   5.278   5.207
 4898TIP3    H114658   6.892   5.184   5.218
 4898TIP3    H214659   6.880   5.297   5.118
 4899TIP3   OH214660   2.031   5.382   3.857
 4899TIP3    H114661   2.000   5.298   3.890
 4899TIP3    H214662   2.108   5.360   3.804
 4900TIP3   OH214663   3.498   3.235   5.036
 4900TIP3    H114664   3.465   3.258   4.949
 4900TIP3    H214665   3.582   3.193   5.019
 4901TIP3   OH214666   3.209   5.913   3.777
 4901TIP3    H114667   3.191   6.005   3.795
 4901TIP3    H214668   3.300   5.912   3.749
 4902TIP3   OH214669   6.361   5.756   4.081
 4902TIP3    H114670   6.283   5.797   4.118
 4902TIP3    H214671   6.335   5.665   4.067
 4903TIP3   OH214672   5.952   6.051   3.550
 4903TIP3    H114673   5.879   6.068   3.491
 4903TIP3    H214674   5.944   5.958   3.573
 4904TIP3   OH214675   7.210   1.486   0.966
 4904TIP3    H114676   7.119   1.457   0.956
 4904TIP3    H214677   7.247   1.481   0.878
 4905TIP3   OH214678   0.359   5.353   3.357
 4905TIP3    H114679   0.380   5.261   3.340
 4905TIP3    H214680   0.415   5.401   3.297
 4906TIP3   OH214681   4.125   0.263   5.470
 4906TIP3    H114682   4.196   0.271   5.405
 4906TIP3    H214683   4.093   0.173   5.459
 4907TIP3   OH214684   1.035   5.749   2.073
 4907TIP3    H114685   1.058   5.759   1.980
 4907TIP3    H214686   1.015   5.657   2.082
 4908TIP3   OH214687   1.082   0.592   4.977
 4908TIP3    H114688   1.173   0.586   5.006
 4908TIP3    H214689   1.052   0.501   4.971
 4909TIP3   OH214690   2.460   4.810   0.519
 4909TIP3    H114691   2.551   4.839   0.521
 4909TIP3    H214692   2.444   4.776   0.607
 4910TIP3   OH214693   2.237   4.869   0.905
 4910TIP3    H114694   2.166   4.807   0.891
 4910TIP3    H214695   2.261   4.858   0.997
 4911TIP3   OH214696   0.958   4.443   3.698
 4911TIP3    H114697   0.952   4.533   3.665
 4911TIP3    H214698   0.872   4.426   3.737
 4912TIP3   OH214699   2.066   1.246   3.574
 4912TIP3    H114700   2.010   1.323   3.574
 4912TIP3    H214701   2.012   1.177   3.613
 4913TIP3   OH214702   0.329   2.117   0.772
 4913TIP3    H114703   0.331   2.154   0.684
 4913TIP3    H214704   0.419   2.087   0.788
 4914TIP3   OH214705   5.491   3.686   0.294
 4914TIP3    H114706   5.540   3.713   0.372
 4914TIP3    H214707   5.435   3.615   0.326
 4915TIP3   OH214708   2.987   0.377   4.105
 4915TIP3    H114709   2.914   0.383   4.043
 4915TIP3    H214710   3.060   0.343   4.053
 4916TIP3   OH214711   2.097   6.848   2.106
 4916TIP3    H114712   2.109   6.756   2.131
 4916TIP3    H214713   2.023   6.877   2.159
 4917TIP3   OH214714   3.875   2.741   1.754
 4917TIP3    H114715   3.872   2.659   1.705
 4917TIP3    H214716   3.968   2.754   1.775
 4918TIP3   OH214717   1.560   6.826   2.304
 4918TIP3    H114718   1.591   6.780   2.226
 4918TIP3    H214719   1.543   6.757   2.368
 4919TIP3   OH214720   1.998   2.410   0.972
 4919TIP3    H114721   2.085   2.436   1.003
 4919TIP3    H214722   2.011   2.390   0.879
 4920TIP3   OH214723   2.454   1.779   3.247
 4920TIP3    H114724   2.388   1.781   3.317
 4920TIP3    H214725   2.407   1.743   3.172
 4921TIP3   OH214726   6.060   1.268   1.127
 4921TIP3    H114727   5.981   1.286   1.076
 4921TIP3    H214728   6.040   1.188   1.175
 4922TIP3   OH214729   4.103   0.819   1.689
 4922TIP3    H114730   4.046   0.764   1.743
 4922TIP3    H214731   4.129   0.762   1.617
 4923TIP3   OH214732   0.557   2.251   1.403
 4923TIP3    H114733   0.515   2.304   1.470
 4923TIP3    H214734   0.629   2.306   1.371
 4924TIP3   OH214735   5.636   4.980   0.619
 4924TIP3    H114736   5.571   5.021   0.675
 4924TIP3    H214737   5.588   4.957   0.539
 4925TIP3   OH214738   6.738   1.374   5.222
 4925TIP3    H114739   6.776   1.397   5.306
 4925TIP3    H214740   6.707   1.458   5.187
 4926TIP3   OH214741   1.669   0.957   4.889
 4926TIP3    H114742   1.681   0.863   4.904
 4926TIP3    H214743   1.702   0.971   4.800
 4927TIP3   OH214744   4.432   6.349   0.472
 4927TIP3    H114745   4.497   6.291   0.431
 4927TIP3    H214746   4.478   6.432   0.483
 4928TIP3   OH214747   6.330   2.203   5.724
 4928TIP3    H114748   6.314   2.194   5.630
 4928TIP3    H214749   6.302   2.292   5.745
 4929TIP3   OH214750   1.101   3.437   2.000
 4929TIP3    H114751   1.077   3.393   2.082
 4929TIP3    H214752   1.026   3.423   1.942
 4930TIP3   OH214753   3.624   4.030   2.648
 4930TIP3    H114754   3.619   4.115   2.691
 4930TIP3    H214755   3.670   3.973   2.710
 4931TIP3   OH214756   5.681   2.426   4.950
 4931TIP3    H114757   5.756   2.368   4.945
 4931TIP3    H214758   5.615   2.386   4.894
 4932TIP3   OH214759   6.634   1.629   5.125
 4932TIP3    H114760   6.588   1.712   5.124
 4932TIP3    H214761   6.636   1.601   5.033
 4933TIP3   OH214762   5.686   0.749   5.270
 4933TIP3    H114763   5.727   0.747   5.357
 4933TIP3    H214764   5.754   0.784   5.213
 4934TIP3   OH214765   2.334   4.646   4.210
 4934TIP3    H114766   2.286   4.608   4.285
 4934TIP3    H214767   2.393   4.576   4.182
 4935TIP3   OH214768   5.271   4.352   3.263
 4935TIP3    H114769   5.287   4.375   3.354
 4935TIP3    H214770   5.335   4.405   3.213
 4936TIP3   OH214771   3.298   5.702   3.918
 4936TIP3    H114772   3.255   5.772   3.869
 4936TIP3    H214773   3.349   5.654   3.853
 4937TIP3   OH214774   3.025   3.465   2.096
 4937TIP3    H114775   2.995   3.423   2.016
 4937TIP3    H214776   2.968   3.430   2.165
 4938TIP3   OH214777   1.611   0.157   0.821
 4938TIP3    H114778   1.625   0.245   0.857
 4938TIP3    H214779   1.680   0.148   0.754
 4939TIP3   OH214780   1.740   0.896   4.617
 4939TIP3    H114781   1.646   0.896   4.602
 4939TIP3    H214782   1.764   0.803   4.618
 4940TIP3   OH214783   5.363   6.213   1.559
 4940TIP3    H114784   5.372   6.119   1.572
 4940TIP3    H214785   5.449   6.241   1.527
 4941TIP3   OH214786   1.144   3.819   5.255
 4941TIP3    H114787   1.154   3.824   5.160
 4941TIP3    H214788   1.129   3.910   5.282
 4942TIP3   OH214789   6.173   3.825   1.654
 4942TIP3    H114790   6.265   3.849   1.643
 4942TIP3    H214791   6.174   3.753   1.716
 4943TIP3   OH214792   6.353   5.345   1.473
 4943TIP3    H114793   6.382   5.254   1.482
 4943TIP3    H214794   6.338   5.373   1.563
 4944TIP3   OH214795   2.740   0.764   4.533
 4944TIP3    H114796   2.730   0.848   4.488
 4944TIP3    H214797   2.669   0.710   4.499
 4945TIP3   OH214798   0.604   2.759   3.125
 4945TIP3    H114799   0.603   2.850   3.153
 4945TIP3    H214800   0.679   2.720   3.170
 4946TIP3   OH214801   4.129   0.714   5.672
 4946TIP3    H114802   4.218   0.680   5.686
 4946TIP3    H214803   4.137   0.771   5.596
 4947TIP3   OH214804   2.631   2.165   3.317
 4947TIP3    H114805   2.563   2.101   3.298
 4947TIP3    H214806   2.642   2.213   3.234
 4948TIP3   OH214807   5.849   5.016   5.416
 4948TIP3    H114808   5.827   4.949   5.481
 4948TIP3    H214809   5.776   5.013   5.354
 4949TIP3   OH214810   6.861   1.831   0.477
 4949TIP3    H114811   6.922   1.884   0.528
 4949TIP3    H214812   6.786   1.818   0.535
 4950TIP3   OH214813   1.337   0.502   2.753
 4950TIP3    H114814   1.319   0.515   2.847
 4950TIP3    H214815   1.388   0.579   2.728
 4951TIP3   OH214816   0.640   0.315   1.500
 4951TIP3    H114817   0.699   0.372   1.550
 4951TIP3    H214818   0.614   0.248   1.563
 4952TIP3   OH214819   6.823   5.302   5.606
 4952TIP3    H114820   6.756   5.239   5.579
 4952TIP3    H214821   6.807   5.378   5.550
 4953TIP3   OH214822   0.935   1.008   2.772
 4953TIP3    H114823   0.966   0.921   2.745
 4953TIP3    H214824   0.867   1.030   2.708
 4954TIP3   OH214825   6.168   0.263   1.069
 4954TIP3    H114826   6.080   0.263   1.106
 4954TIP3    H214827   6.167   0.333   1.003
 4955TIP3   OH214828   2.189   0.090   3.792
 4955TIP3    H114829   2.124   0.149   3.755
 4955TIP3    H214830   2.178   0.008   3.744
 4956TIP3   OH214831   1.848   1.593   5.071
 4956TIP3    H114832   1.941   1.573   5.079
 4956TIP3    H214833   1.835   1.667   5.129
 4957TIP3   OH214834   2.685   0.478   3.568
 4957TIP3    H114835   2.744   0.451   3.497
 4957TIP3    H214836   2.718   0.434   3.646
 4958TIP3   OH214837   2.955   2.969   4.978
 4958TIP3    H114838   2.998   3.032   5.035
 4958TIP3    H214839   2.864   2.967   5.007
 4959TIP3   OH214840   3.142   5.579   0.164
 4959TIP3    H114841   3.206   5.633   0.118
 4959TIP3    H214842   3.091   5.641   0.217
 4960TIP3   OH214843   4.310   3.916   4.933
 4960TIP3    H114844   4.235   3.962   4.896
 4960TIP3    H214845   4.320   3.838   4.878
 4961TIP3   OH214846   5.413   3.981   2.657
 4961TIP3    H114847   5.469   3.903   2.660
 4961TIP3    H214848   5.335   3.956   2.706
 4962TIP3   OH214849   3.050   0.561   2.461
 4962TIP3    H114850   3.014   0.591   2.377
 4962TIP3    H214851   3.129   0.514   2.437
 4963TIP3   OH214852   1.577   3.099   1.092
 4963TIP3    H114853   1.575   3.175   1.151
 4963TIP3    H214854   1.640   3.123   1.025
 4964TIP3   OH214855   0.947   2.382   3.510
 4964TIP3    H114856   1.025   2.356   3.558
 4964TIP3    H214857   0.979   2.422   3.430
 4965TIP3   OH214858   6.943   2.245   0.574
 4965TIP3    H114859   6.894   2.181   0.625
 4965TIP3    H214860   6.970   2.311   0.638
 4966TIP3   OH214861   0.420   5.747   0.892
 4966TIP3    H114862   0.391   5.837   0.902
 4966TIP3    H214863   0.503   5.753   0.845
 4967TIP3   OH214864   6.521   5.481   4.711
 4967TIP3    H114865   6.584   5.550   4.689
 4967TIP3    H214866   6.440   5.508   4.669
 4968TIP3   OH214867   3.566   5.816   4.645
 4968TIP3    H114868   3.586   5.799   4.553
 4968TIP3    H214869   3.568   5.729   4.686
 4969TIP3   OH214870   4.045   2.865   0.474
 4969TIP3    H114871   3.963   2.869   0.524
 4969TIP3    H214872   4.064   2.956   0.452
 4970TIP3   OH214873   1.416   2.945   4.738
 4970TIP3    H114874   1.455   2.877   4.683
 4970TIP3    H214875   1.457   3.026   4.709
 4971TIP3   OH214876   6.947   2.408   1.364
 4971TIP3    H114877   6.917   2.430   1.276
 4971TIP3    H214878   6.978   2.318   1.358
 4972TIP3   OH214879   0.731   1.451   5.883
 4972TIP3    H114880   0.804   1.498   5.925
 4972TIP3    H214881   0.774   1.392   5.821
 4973TIP3   OH214882   1.076   5.762   3.511
 4973TIP3    H114883   1.040   5.812   3.585
 4973TIP3    H214884   1.105   5.829   3.449
 4974TIP3   OH214885   6.644   0.599   5.138
 4974TIP3    H114886   6.633   0.511   5.104
 4974TIP3    H214887   6.634   0.590   5.233
 4975TIP3   OH214888   2.873   2.774   5.339
 4975TIP3    H114889   2.862   2.840   5.407
 4975TIP3    H214890   2.786   2.763   5.302
 4976TIP3   OH214891   1.056   1.150   5.444
 4976TIP3    H114892   1.039   1.210   5.371
 4976TIP3    H214893   1.066   1.064   5.402
 4977TIP3   OH214894   0.516   5.429   3.586
 4977TIP3    H114895   0.480   5.387   3.508
 4977TIP3    H214896   0.484   5.519   3.582
 4978TIP3   OH214897   5.383   4.543   3.041
 4978TIP3    H114898   5.412   4.560   2.951
 4978TIP3    H214899   5.297   4.584   3.048
 4979TIP3   OH214900   0.888   1.536   3.308
 4979TIP3    H114901   0.843   1.452   3.322
 4979TIP3    H214902   0.864   1.562   3.219
 4980TIP3   OH214903   3.007   6.006   5.735
 4980TIP3    H114904   3.051   5.925   5.709
 4980TIP3    H214905   3.078   6.064   5.764
 4981TIP3   OH214906   0.992   5.270   3.015
 4981TIP3    H114907   1.057   5.248   3.082
 4981TIP3    H214908   1.012   5.213   2.941
 4982TIP3   OH214909   3.032   0.832   1.323
 4982TIP3    H114910   3.032   0.918   1.364
 4982TIP3    H214911   2.951   0.791   1.353
 4983TIP3   OH214912   5.986   3.131   4.000
 4983TIP3    H114913   5.920   3.095   4.059
 4983TIP3    H214914   6.038   3.189   4.055
 4984TIP3   OH214915   6.730   4.350   5.020
 4984TIP3    H114916   6.690   4.357   4.933
 4984TIP3    H214917   6.659   4.318   5.076
 4985TIP3   OH214918   6.572   3.052   3.766
 4985TIP3    H114919   6.582   3.132   3.817
 4985TIP3    H214920   6.493   3.066   3.713
 4986TIP3   OH214921   6.473   6.112   4.895
 4986TIP3    H114922   6.568   6.109   4.881
 4986TIP3    H214923   6.455   6.204   4.916
 4987TIP3   OH214924   2.773   2.785   1.138
 4987TIP3    H114925   2.761   2.694   1.112
 4987TIP3    H214926   2.868   2.798   1.138
 4988TIP3   OH214927   4.126   3.258   4.516
 4988TIP3    H114928   4.176   3.339   4.528
 4988TIP3    H214929   4.147   3.230   4.427
 4989TIP3   OH214930   3.305   0.586   3.832
 4989TIP3    H114931   3.282   0.536   3.754
 4989TIP3    H214932   3.226   0.585   3.885
 4990TIP3   OH214933   2.308   3.346   2.609
 4990TIP3    H114934   2.274   3.430   2.638
 4990TIP3    H214935   2.231   3.290   2.600
 4991TIP3   OH214936   4.288   5.150   1.559
 4991TIP3    H114937   4.381   5.137   1.576
 4991TIP3    H214938   4.247   5.067   1.583
 4992TIP3   OH214939   3.156   5.476   1.856
 4992TIP3    H114940   3.235   5.426   1.873
 4992TIP3    H214941   3.090   5.411   1.832
 4993TIP3   OH214942   1.282   2.965   1.327
 4993TIP3    H114943   1.356   2.991   1.382
 4993TIP3    H214944   1.221   2.922   1.388
 4994TIP3   OH214945   0.467   1.891   0.518
 4994TIP3    H114946   0.399   1.890   0.451
 4994TIP3    H214947   0.517   1.971   0.501
 4995TIP3   OH214948   3.070   2.407   4.857
 4995TIP3    H114949   3.043   2.316   4.857
 4995TIP3    H214950   3.126   2.415   4.779
 4996TIP3   OH214951   6.734   6.475   0.445
 4996TIP3    H114952   6.819   6.518   0.432
 4996TIP3    H214953   6.754   6.398   0.498
 4997TIP3   OH214954   0.447   2.001   1.336
 4997TIP3    H114955   0.506   1.943   1.288
 4997TIP3    H214956   0.500   2.079   1.353
 4998TIP3   OH214957   2.646   2.493   2.130
 4998TIP3    H114958   2.730   2.449   2.119
 4998TIP3    H214959   2.611   2.457   2.212
 4999TIP3   OH214960   3.012   2.297   3.119
 4999TIP3    H114961   2.944   2.322   3.182
 4999TIP3    H214962   3.068   2.237   3.167
 5000TIP3   OH214963   2.226   0.974   5.422
 5000TIP3    H114964   2.131   0.966   5.413
 5000TIP3    H214965   2.249   1.052   5.372
 5001TIP3   OH214966   3.295   4.311   5.506
 5001TIP3    H114967   3.204   4.281   5.499
 5001TIP3    H214968   3.346   4.242   5.463
 5002TIP3   OH214969   4.825   3.374   1.806
 5002TIP3    H114970   4.766   3.378   1.730
 5002TIP3    H214971   4.912   3.383   1.770
 5003TIP3   OH214972   0.540   0.908   0.351
 5003TIP3    H114973   0.470   0.974   0.353
 5003TIP3    H214974   0.621   0.959   0.348
 5004TIP3   OH214975   0.085   3.790   0.423
 5004TIP3    H114976   0.096   3.862   0.361
 5004TIP3    H214977   0.150   3.806   0.491
 5005TIP3   OH214978   6.729   1.807   4.433
 5005TIP3    H114979   6.805   1.864   4.423
 5005TIP3    H214980   6.658   1.853   4.389
 5006TIP3   OH214981   2.294   0.615   1.383
 5006TIP3    H114982   2.224   0.640   1.323
 5006TIP3    H214983   2.344   0.549   1.335
 5007TIP3   OH214984   5.361   3.043   3.354
 5007TIP3    H114985   5.365   2.972   3.418
 5007TIP3    H214986   5.421   3.017   3.285
 5008TIP3   OH214987   2.587   4.159   4.599
 5008TIP3    H114988   2.631   4.115   4.527
 5008TIP3    H214989   2.570   4.090   4.663
 5009TIP3   OH214990   1.256   4.395   4.279
 5009TIP3    H114991   1.229   4.472   4.228
 5009TIP3    H214992   1.293   4.432   4.360
 5010TIP3   OH214993   5.491   1.413   3.285
 5010TIP3    H114994   5.450   1.364   3.214
 5010TIP3    H214995   5.580   1.378   3.290
 5011TIP3   OH214996   3.115   6.087   0.764
 5011TIP3    H114997   3.052   6.158   0.756
 5011TIP3    H214998   3.072   6.023   0.820
 5012TIP3   OH214999   1.157   4.023   2.202
 5012TIP3    H115000   1.073   4.023   2.247
 5012TIP3    H215001   1.138   3.989   2.115
 5013TIP3   OH215002   2.654   2.824   2.918
 5013TIP3    H115003   2.688   2.794   2.834
 5013TIP3    H215004   2.696   2.909   2.933
 5014TIP3   OH215005   1.370   2.245   4.853
 5014TIP3    H115006   1.333   2.204   4.775
 5014TIP3    H215007   1.441   2.187   4.880
 5015TIP3   OH215008   2.781   0.552   5.368
 5015TIP3    H115009   2.794   0.571   5.275
 5015TIP3    H215010   2.863   0.510   5.396
 5016TIP3   OH215011   2.209   2.579   4.158
 5016TIP3    H115012   2.151   2.581   4.234
 5016TIP3    H215013   2.176   2.506   4.105
 5017TIP3   OH215014   6.437   5.877   0.681
 5017TIP3    H115015   6.499   5.931   0.632
 5017TIP3    H215016   6.473   5.875   0.770
 5018TIP3   OH215017   0.308   2.211   2.572
 5018TIP3    H115018   0.387   2.264   2.558
 5018TIP3    H215019   0.328   2.128   2.530
 5019TIP3   OH215020   7.044   5.448   3.468
 5019TIP3    H115021   7.107   5.497   3.521
 5019TIP3    H215022   7.015   5.511   3.401
 5020TIP3   OH215023   3.146   5.970   5.100
 5020TIP3    H115024   3.122   6.047   5.048
 5020TIP3    H215025   3.065   5.922   5.111
 5021TIP3   OH215026   0.551   5.835   5.016
 5021TIP3    H115027   0.480   5.899   5.025
 5021TIP3    H215028   0.565   5.801   5.104
 5022TIP3   OH215029   6.502   4.350   5.190
 5022TIP3    H115030   6.426   4.359   5.132
 5022TIP3    H215031   6.517   4.438   5.223
 5023TIP3   OH215032   6.759   3.248   1.225
 5023TIP3    H115033   6.693   3.297   1.273
 5023TIP3    H215034   6.731   3.254   1.133
 5024TIP3   OH215035   4.111   5.599   1.368
 5024TIP3    H115036   4.101   5.694   1.369
 5024TIP3    H215037   4.138   5.578   1.278
 5025TIP3   OH215038   2.565   6.725   1.271
 5025TIP3    H115039   2.590   6.640   1.234
 5025TIP3    H215040   2.547   6.780   1.195
 5026TIP3   OH215041   0.964   4.241   3.447
 5026TIP3    H115042   0.970   4.150   3.476
 5026TIP3    H215043   1.029   4.288   3.498
 5027TIP3   OH215044   2.933   0.613   5.155
 5027TIP3    H115045   2.921   0.518   5.166
 5027TIP3    H215046   3.016   0.621   5.109
 5028TIP3   OH215047   4.709   1.875   3.434
 5028TIP3    H115048   4.632   1.844   3.483
 5028TIP3    H215049   4.703   1.971   3.440
 5029TIP3   OH215050   0.267   4.858   5.759
 5029TIP3    H115051   0.299   4.806   5.833
 5029TIP3    H215052   0.298   4.947   5.777
 5030TIP3   OH215053   5.374   0.834   2.915
 5030TIP3    H115054   5.414   0.811   2.831
 5030TIP3    H215055   5.344   0.750   2.951
 5031TIP3   OH215056   1.569   4.071   3.264
 5031TIP3    H115057   1.501   4.038   3.205
 5031TIP3    H215058   1.632   4.000   3.270
 5032TIP3   OH215059   4.647   2.110   3.735
 5032TIP3    H115060   4.679   2.143   3.651
 5032TIP3    H215061   4.641   2.015   3.722
 5033TIP3   OH215062   5.779   6.030   0.989
 5033TIP3    H115063   5.840   5.977   1.040
 5033TIP3    H215064   5.828   6.055   0.911
 5034TIP3   OH215065   0.432   6.598   3.171
 5034TIP3    H115066   0.423   6.689   3.145
 5034TIP3    H215067   0.384   6.591   3.254
 5035TIP3   OH215068   5.838   6.320   5.347
 5035TIP3    H115069   5.794   6.243   5.312
 5035TIP3    H215070   5.780   6.393   5.326
 5036TIP3   OH215071   2.219   2.622   2.422
 5036TIP3    H115072   2.175   2.693   2.376
 5036TIP3    H215073   2.310   2.626   2.391
 5037TIP3   OH215074   5.839   2.165   2.147
 5037TIP3    H115075   5.744   2.176   2.151
 5037TIP3    H215076   5.853   2.109   2.070
 5038TIP3   OH215077   1.730   0.533   5.282
 5038TIP3    H115078   1.635   0.535   5.294
 5038TIP3    H215079   1.765   0.522   5.370
 5039TIP3   OH215080   6.141   4.329   3.739
 5039TIP3    H115081   6.149   4.240   3.706
 5039TIP3    H215082   6.224   4.371   3.716
 5040TIP3   OH215083   7.191   4.495   0.502
 5040TIP3    H115084   7.127   4.430   0.530
 5040TIP3    H215085   7.170   4.574   0.553
 5041TIP3   OH215086   0.080   3.094   3.656
 5041TIP3    H115087   0.109   3.151   3.726
 5041TIP3    H215088   0.013   3.144   3.610
 5042TIP3   OH215089   5.683   1.503   1.271
 5042TIP3    H115090   5.623   1.430   1.285
 5042TIP3    H215091   5.703   1.536   1.359
 5043TIP3   OH215092   7.025   4.490   2.098
 5043TIP3    H115093   7.029   4.488   2.002
 5043TIP3    H215094   6.998   4.401   2.122
 5044TIP3   OH215095   5.065   6.126   3.882
 5044TIP3    H115096   5.131   6.074   3.927
 5044TIP3    H215097   5.114   6.196   3.839
 5045TIP3   OH215098   2.965   1.018   0.482
 5045TIP3    H115099   2.921   1.099   0.456
 5045TIP3    H215100   2.901   0.972   0.537
 5046TIP3   OH215101   1.543   6.018   3.914
 5046TIP3    H115102   1.459   6.037   3.955
 5046TIP3    H215103   1.605   6.076   3.959
 5047TIP3   OH215104   2.630   3.383   0.986
 5047TIP3    H115105   2.635   3.424   0.900
 5047TIP3    H215106   2.686   3.438   1.042
 5048TIP3   OH215107   6.640   1.030   1.607
 5048TIP3    H115108   6.595   0.947   1.594
 5048TIP3    H215109   6.588   1.075   1.674
 5049TIP3   OH215110   5.610   1.632   3.398
 5049TIP3    H115111   5.577   1.549   3.363
 5049TIP3    H215112   5.699   1.611   3.427
 5050TIP3   OH215113   1.608   4.214   2.279
 5050TIP3    H115114   1.548   4.289   2.275
 5050TIP3    H215115   1.566   4.153   2.340
 5051TIP3   OH215116   1.390   2.591   5.400
 5051TIP3    H115117   1.332   2.516   5.402
 5051TIP3    H215118   1.336   2.664   5.429
 5052TIP3   OH215119   3.842   0.269   0.154
 5052TIP3    H115120   3.861   0.358   0.123
 5052TIP3    H215121   3.826   0.279   0.248
 5053TIP3   OH215122   5.993   0.360   4.367
 5053TIP3    H115123   5.954   0.412   4.298
 5053TIP3    H215124   6.074   0.326   4.328
 5054TIP3   OH215125   1.869   2.334   0.327
 5054TIP3    H115126   1.837   2.395   0.261
 5054TIP3    H215127   1.795   2.320   0.385
 5055TIP3   OH215128   5.895   2.848   3.559
 5055TIP3    H115129   5.900   2.812   3.647
 5055TIP3    H215130   5.803   2.839   3.535
 5056TIP3   OH215131   6.594   0.691   2.612
 5056TIP3    H115132   6.631   0.632   2.546
 5056TIP3    H215133   6.586   0.775   2.568
 5057TIP3   OH215134   1.207   2.347   3.633
 5057TIP3    H115135   1.293   2.373   3.602
 5057TIP3    H215136   1.221   2.322   3.724
 5058TIP3   OH215137   5.832   5.489   0.451
 5058TIP3    H115138   5.912   5.442   0.471
 5058TIP3    H215139   5.771   5.421   0.420
 5059TIP3   OH215140   0.713   4.949   2.899
 5059TIP3    H115141   0.746   4.956   2.988
 5059TIP3    H215142   0.704   4.856   2.883
 5060TIP3   OH215143   1.490   1.739   5.062
 5060TIP3    H115144   1.463   1.654   5.096
 5060TIP3    H215145   1.524   1.719   4.975
 5061TIP3   OH215146   2.272   0.687   0.642
 5061TIP3    H115147   2.247   0.691   0.550
 5061TIP3    H215148   2.244   0.601   0.671
 5062TIP3   OH215149   5.977   1.509   0.401
 5062TIP3    H115150   5.901   1.465   0.440
 5062TIP3    H215151   5.968   1.492   0.307
 5063TIP3   OH215152   4.338   2.890   0.136
 5063TIP3    H115153   4.262   2.906   0.192
 5063TIP3    H215154   4.312   2.815   0.082
 5064TIP3   OH215155   2.356   4.202   4.347
 5064TIP3    H115156   2.298   4.154   4.288
 5064TIP3    H215157   2.297   4.248   4.407
 5065TIP3   OH215158   0.637   6.276   4.970
 5065TIP3    H115159   0.571   6.237   4.912
 5065TIP3    H215160   0.589   6.293   5.052
 5066TIP3   OH215161   0.406   4.829   4.805
 5066TIP3    H115162   0.337   4.860   4.746
 5066TIP3    H215163   0.409   4.734   4.790
 5067TIP3   OH215164   0.240   2.308   3.226
 5067TIP3    H115165   0.195   2.241   3.277
 5067TIP3    H215166   0.181   2.327   3.153
 5068TIP3   OH215167   5.684   1.585   4.208
 5068TIP3    H115168   5.741   1.662   4.213
 5068TIP3    H215169   5.716   1.528   4.278
 5069TIP3   OH215170   5.308   3.652   5.407
 5069TIP3    H115171   5.264   3.652   5.321
 5069TIP3    H215172   5.341   3.741   5.416
 5070TIP3   OH215173   1.374   4.595   2.538
 5070TIP3    H115174   1.435   4.565   2.605
 5070TIP3    H215175   1.357   4.687   2.560
 5071TIP3   OH215176   4.225   3.460   3.983
 5071TIP3    H115177   4.227   3.364   3.978
 5071TIP3    H215178   4.195   3.487   3.896
 5072TIP3   OH215179   3.503   6.245   2.078
 5072TIP3    H115180   3.520   6.249   2.172
 5072TIP3    H215181   3.524   6.154   2.054
 5073TIP3   OH215182   1.754   2.094   2.679
 5073TIP3    H115183   1.664   2.066   2.695
 5073TIP3    H215184   1.797   2.016   2.644
 5074TIP3   OH215185   2.534   5.966   3.712
 5074TIP3    H115186   2.474   5.928   3.648
 5074TIP3    H215187   2.621   5.953   3.674
 5075TIP3   OH215188   2.649   4.863   3.222
 5075TIP3    H115189   2.744   4.853   3.225
 5075TIP3    H215190   2.627   4.857   3.129
 5076TIP3   OH215191   3.373   3.116   4.325
 5076TIP3    H115192   3.287   3.075   4.337
 5076TIP3    H215193   3.353   3.200   4.283
 5077TIP3   OH215194   4.892   3.967   5.166
 5077TIP3    H115195   4.928   4.048   5.204
 5077TIP3    H215196   4.924   3.897   5.224
 5078TIP3   OH215197   1.509   6.315   1.057
 5078TIP3    H115198   1.582   6.323   0.996
 5078TIP3    H215199   1.446   6.381   1.028
 5079TIP3   OH215200   4.553   6.027   3.803
 5079TIP3    H115201   4.638   6.007   3.843
 5079TIP3    H215202   4.564   6.112   3.762
 5080TIP3   OH215203   7.116   3.255   5.102
 5080TIP3    H115204   7.125   3.261   5.006
 5080TIP3    H215205   7.071   3.336   5.126
 5081TIP3   OH215206   1.279   5.875   1.319
 5081TIP3    H115207   1.363   5.881   1.275
 5081TIP3    H215208   1.298   5.831   1.402
 5082TIP3   OH215209   5.985   6.112   1.441
 5082TIP3    H115210   6.076   6.091   1.460
 5082TIP3    H215211   5.984   6.136   1.348
 5083TIP3   OH215212   6.378   6.755   4.404
 5083TIP3    H115213   6.283   6.751   4.409
 5083TIP3    H215214   6.397   6.833   4.352
 5084TIP3   OH215215   5.078   0.179   0.549
 5084TIP3    H115216   5.129   0.109   0.509
 5084TIP3    H215217   5.076   0.157   0.642
 5085TIP3   OH215218   2.207   4.803   3.525
 5085TIP3    H115219   2.206   4.752   3.605
 5085TIP3    H215220   2.292   4.783   3.485
 5086TIP3   OH215221   4.671   2.827   5.138
 5086TIP3    H115222   4.642   2.882   5.210
 5086TIP3    H215223   4.752   2.867   5.107
 5087TIP3   OH215224   5.409   3.479   1.702
 5087TIP3    H115225   5.378   3.568   1.721
 5087TIP3    H215226   5.446   3.485   1.614
 5088TIP3   OH215227   5.094   6.534   0.028
 5088TIP3    H115228   5.015   6.573  -0.011
 5088TIP3    H215229   5.165   6.592   0.000
 5089TIP3   OH215230   5.164   5.661   4.198
 5089TIP3    H115231   5.168   5.568   4.178
 5089TIP3    H215232   5.160   5.666   4.293
 5090TIP3   OH215233   5.137   5.926   1.826
 5090TIP3    H115234   5.056   5.919   1.877
 5090TIP3    H215235   5.163   6.018   1.835
 5091TIP3   OH215236   4.379   5.397   4.272
 5091TIP3    H115237   4.308   5.460   4.259
 5091TIP3    H215238   4.334   5.316   4.296
 5092TIP3   OH215239   2.946   4.397   2.702
 5092TIP3    H115240   2.947   4.436   2.614
 5092TIP3    H215241   2.874   4.442   2.747
 5093TIP3   OH215242   6.236   6.270   1.724
 5093TIP3    H115243   6.185   6.244   1.801
 5093TIP3    H215244   6.206   6.359   1.705
 5094TIP3   OH215245   1.285   3.534   0.901
 5094TIP3    H115246   1.202   3.549   0.856
 5094TIP3    H215247   1.304   3.617   0.945
 5095TIP3   OH215248   4.153   4.147   5.060
 5095TIP3    H115249   4.129   4.095   5.137
 5095TIP3    H215250   4.248   4.153   5.064
 5096TIP3   OH215251   1.809   1.301   1.083
 5096TIP3    H115252   1.828   1.359   1.009
 5096TIP3    H215253   1.870   1.329   1.151
 5097TIP3   OH215254   1.403   4.746   1.655
 5097TIP3    H115255   1.354   4.793   1.588
 5097TIP3    H215256   1.341   4.683   1.691
 5098TIP3   OH215257   3.103   3.379   3.907
 5098TIP3    H115258   3.124   3.383   3.814
 5098TIP3    H215259   3.188   3.378   3.951
 5099TIP3   OH215260   0.344   3.265   4.723
 5099TIP3    H115261   0.427   3.248   4.768
 5099TIP3    H215262   0.368   3.318   4.647
 5100TIP3   OH215263   1.137   6.676   2.528
 5100TIP3    H115264   1.160   6.743   2.592
 5100TIP3    H215265   1.137   6.722   2.444
 5101TIP3   OH215266   2.561   0.190   1.423
 5101TIP3    H115267   2.533   0.237   1.502
 5101TIP3    H215268   2.653   0.171   1.438
 5102TIP3   OH215269   0.174   1.146   2.830
 5102TIP3    H115270   0.095   1.123   2.879
 5102TIP3    H215271   0.150   1.129   2.738
 5103TIP3   OH215272   5.101   2.682   0.495
 5103TIP3    H115273   5.021   2.693   0.445
 5103TIP3    H215274   5.072   2.658   0.583
 5104TIP3   OH215275   1.789   3.602   1.324
 5104TIP3    H115276   1.884   3.609   1.321
 5104TIP3    H215277   1.760   3.678   1.376
 5105TIP3   OH215278   3.564   2.630   3.493
 5105TIP3    H115279   3.549   2.568   3.422
 5105TIP3    H215280   3.598   2.708   3.450
 5106TIP3   OH215281   3.448   6.646   3.543
 5106TIP3    H115282   3.456   6.681   3.454
 5106TIP3    H215283   3.451   6.723   3.599
 5107TIP3   OH215284   6.114   2.235   3.163
 5107TIP3    H115285   6.029   2.276   3.148
 5107TIP3    H215286   6.096   2.141   3.164
 5108TIP3   OH215287   6.276   5.386   3.190
 5108TIP3    H115288   6.275   5.319   3.258
 5108TIP3    H215289   6.285   5.336   3.108
 5109TIP3   OH215290   6.373   2.796   4.781
 5109TIP3    H115291   6.311   2.860   4.815
 5109TIP3    H215292   6.425   2.771   4.857
 5110TIP3   OH215293   2.691   0.625   5.761
 5110TIP3    H115294   2.744   0.559   5.717
 5110TIP3    H215295   2.633   0.576   5.819
 5111TIP3   OH215296   0.787   1.437   2.360
 5111TIP3    H115297   0.746   1.351   2.358
 5111TIP3    H215298   0.728   1.493   2.309
 5112TIP3   OH215299   1.893   5.676   3.651
 5112TIP3    H115300   1.825   5.727   3.694
 5112TIP3    H215301   1.858   5.658   3.564
 5113TIP3   OH215302   3.411   3.829   4.562
 5113TIP3    H115303   3.455   3.776   4.495
 5113TIP3    H215304   3.397   3.767   4.635
 5114TIP3   OH215305   2.452   1.478   2.812
 5114TIP3    H115306   2.393   1.480   2.888
 5114TIP3    H215307   2.418   1.546   2.754
 5115TIP3   OH215308   2.932   0.466   1.493
 5115TIP3    H115309   2.887   0.450   1.410
 5115TIP3    H215310   2.990   0.391   1.505
 5116TIP3   OH215311   4.562   2.131   3.985
 5116TIP3    H115312   4.608   2.108   3.905
 5116TIP3    H215313   4.616   2.199   4.025
 5117TIP3   OH215314   4.056   2.770   4.172
 5117TIP3    H115315   3.998   2.770   4.096
 5117TIP3    H215316   4.083   2.679   4.182
 5118TIP3   OH215317   0.440   2.765   1.029
 5118TIP3    H115318   0.366   2.705   1.025
 5118TIP3    H215319   0.460   2.785   0.938
 5119TIP3   OH215320   3.048   6.692   5.079
 5119TIP3    H115321   2.994   6.756   5.127
 5119TIP3    H215322   3.035   6.714   4.987
 5120TIP3   OH215323   6.990   3.225   1.363
 5120TIP3    H115324   7.047   3.303   1.362
 5120TIP3    H215325   6.914   3.250   1.311
 5121TIP3   OH215326   3.275   3.978   0.051
 5121TIP3    H115327   3.290   4.016   0.137
 5121TIP3    H215328   3.246   3.889   0.068
 5122TIP3   OH215329  -0.023   2.992   4.931
 5122TIP3    H115330  -0.082   3.064   4.912
 5122TIP3    H215331   0.047   3.000   4.867
 5123TIP3   OH215332   6.328   5.254   4.520
 5123TIP3    H115333   6.332   5.344   4.553
 5123TIP3    H215334   6.408   5.213   4.553
 5124TIP3   OH215335   5.777   3.668   2.571
 5124TIP3    H115336   5.837   3.595   2.579
 5124TIP3    H215337   5.815   3.724   2.503
 5125TIP3   OH215338   6.514   1.902   1.491
 5125TIP3    H115339   6.474   1.957   1.559
 5125TIP3    H215340   6.447   1.837   1.470
 5126TIP3   OH215341   1.552   5.061   2.737
 5126TIP3    H115342   1.514   5.123   2.675
 5126TIP3    H215343   1.622   5.109   2.780
 5127TIP3   OH215344   1.360   3.862   5.503
 5127TIP3    H115345   1.440   3.873   5.452
 5127TIP3    H215346   1.337   3.769   5.492
 5128TIP3   OH215347   5.149   6.615   4.764
 5128TIP3    H115348   5.177   6.543   4.820
 5128TIP3    H215349   5.053   6.613   4.769
 5129TIP3   OH215350   2.774   0.185   0.387
 5129TIP3    H115351   2.828   0.261   0.366
 5129TIP3    H215352   2.779   0.177   0.482
 5130TIP3   OH215353   0.301   5.930   2.080
 5130TIP3    H115354   0.293   5.868   2.007
 5130TIP3    H215355   0.369   5.892   2.136
 5131TIP3   OH215356   3.700   2.912   1.290
 5131TIP3    H115357   3.768   2.979   1.299
 5131TIP3    H215358   3.619   2.956   1.312
 5132TIP3   OH215359   6.532   2.075   1.988
 5132TIP3    H115360   6.562   2.091   2.078
 5132TIP3    H215361   6.483   2.155   1.965
 5133TIP3   OH215362   5.720   2.197   4.206
 5133TIP3    H115363   5.803   2.200   4.158
 5133TIP3    H215364   5.742   2.157   4.289
 5134TIP3   OH215365   1.247   5.913   2.101
 5134TIP3    H115366   1.181   5.849   2.130
 5134TIP3    H215367   1.326   5.861   2.090
 5135TIP3   OH215368   5.778   5.945   1.514
 5135TIP3    H115369   5.841   6.013   1.489
 5135TIP3    H215370   5.773   5.889   1.438
 5136TIP3   OH215371   6.520   4.677   4.500
 5136TIP3    H115372   6.540   4.583   4.505
 5136TIP3    H215373   6.432   4.681   4.462
 5137TIP3   OH215374   3.516   1.370   3.744
 5137TIP3    H115375   3.431   1.396   3.707
 5137TIP3    H215376   3.561   1.453   3.759
 5138TIP3   OH215377   5.978   0.974   5.718
 5138TIP3    H115378   5.967   0.941   5.807
 5138TIP3    H215379   5.910   1.041   5.709
 5139TIP3   OH215380   3.133   5.538   3.636
 5139TIP3    H115381   3.086   5.490   3.568
 5139TIP3    H215382   3.196   5.592   3.589
 5140TIP3   OH215383   4.623   3.562   2.145
 5140TIP3    H115384   4.568   3.547   2.068
 5140TIP3    H215385   4.593   3.497   2.209
 5141TIP3   OH215386   4.046   6.207   0.429
 5141TIP3    H115387   4.061   6.115   0.404
 5141TIP3    H215388   3.952   6.212   0.445
 5142TIP3   OH215389   7.191   4.255   4.262
 5142TIP3    H115390   7.151   4.335   4.294
 5142TIP3    H215391   7.285   4.275   4.256
 5143TIP3   OH215392   2.901   0.258   2.567
 5143TIP3    H115393   2.822   0.204   2.571
 5143TIP3    H215394   2.963   0.216   2.626
 5144TIP3   OH215395   6.008   1.473   1.948
 5144TIP3    H115396   5.966   1.556   1.973
 5144TIP3    H215397   6.068   1.455   2.020
 5145TIP3   OH215398   0.769   0.670   0.723
 5145TIP3    H115399   0.708   0.743   0.735
 5145TIP3    H215400   0.734   0.621   0.649
 5146TIP3   OH215401   3.551   5.933   2.725
 5146TIP3    H115402   3.487   5.920   2.655
 5146TIP3    H215403   3.516   6.005   2.777
 5147TIP3   OH215404   4.537   1.662   3.498
 5147TIP3    H115405   4.446   1.635   3.506
 5147TIP3    H215406   4.586   1.599   3.551
 5148TIP3   OH215407   5.609   4.586   5.623
 5148TIP3    H115408   5.669   4.653   5.588
 5148TIP3    H215409   5.572   4.625   5.701
 5149TIP3   OH215410   6.593   4.025   4.302
 5149TIP3    H115411   6.657   3.992   4.365
 5149TIP3    H215412   6.522   4.059   4.356
 5150TIP3   OH215413   3.347   1.913   1.781
 5150TIP3    H115414   3.274   1.910   1.719
 5150TIP3    H215415   3.310   1.950   1.861
 5151TIP3   OH215416   1.968   0.822   3.906
 5151TIP3    H115417   1.897   0.884   3.919
 5151TIP3    H215418   1.926   0.744   3.868
 5152TIP3   OH215419   0.520   2.625   3.693
 5152TIP3    H115420   0.446   2.629   3.754
 5152TIP3    H215421   0.552   2.535   3.700
 5153TIP3   OH215422   5.997   0.800   1.303
 5153TIP3    H115423   6.041   0.784   1.386
 5153TIP3    H215424   6.026   0.727   1.247
 5154TIP3   OH215425   2.493   4.408   5.212
 5154TIP3    H115426   2.539   4.375   5.135
 5154TIP3    H215427   2.506   4.340   5.278
 5155TIP3   OH215428   3.113   0.548   3.378
 5155TIP3    H115429   3.047   0.600   3.424
 5155TIP3    H215430   3.139   0.603   3.304
 5156TIP3   OH215431   4.635   0.791   2.547
 5156TIP3    H115432   4.700   0.857   2.572
 5156TIP3    H215433   4.599   0.823   2.465
 5157TIP3   OH215434   5.509   1.332   1.694
 5157TIP3    H115435   5.560   1.335   1.775
 5157TIP3    H215436   5.452   1.256   1.704
 5158TIP3   OH215437   5.667   5.377   4.065
 5158TIP3    H115438   5.745   5.387   4.012
 5158TIP3    H215439   5.692   5.313   4.132
 5159TIP3   OH215440   2.173   3.237   3.793
 5159TIP3    H115441   2.148   3.328   3.806
 5159TIP3    H215442   2.246   3.241   3.731
 5160TIP3   OH215443   1.045   1.875   3.682
 5160TIP3    H115444   0.973   1.819   3.655
 5160TIP3    H215445   1.111   1.815   3.716
 5161TIP3   OH215446   1.173   3.501   3.830
 5161TIP3    H115447   1.225   3.429   3.793
 5161TIP3    H215448   1.128   3.539   3.754
 5162TIP3   OH215449   5.123   6.440   0.289
 5162TIP3    H115450   5.095   6.523   0.328
 5162TIP3    H215451   5.147   6.462   0.199
 5163TIP3   OH215452   5.472   1.398   4.586
 5163TIP3    H115453   5.489   1.358   4.671
 5163TIP3    H215454   5.379   1.380   4.569
 5164TIP3   OH215455   0.828   4.314   2.298
 5164TIP3    H115456   0.792   4.237   2.253
 5164TIP3    H215457   0.895   4.278   2.357
 5165TIP3   OH215458   6.977   5.244   1.253
 5165TIP3    H115459   6.981   5.294   1.334
 5165TIP3    H215460   6.940   5.304   1.189
 5166TIP3   OH215461   1.493   0.646   1.887
 5166TIP3    H115462   1.434   0.632   1.813
 5166TIP3    H215463   1.513   0.559   1.920
 5167TIP3   OH215464   5.831   4.663   4.838
 5167TIP3    H115465   5.848   4.584   4.890
 5167TIP3    H215466   5.829   4.632   4.747
 5168TIP3   OH215467   4.952   6.191   1.482
 5168TIP3    H115468   4.972   6.285   1.486
 5168TIP3    H215469   5.016   6.156   1.421
 5169TIP3   OH215470   6.898   6.439   1.119
 5169TIP3    H115471   6.862   6.502   1.182
 5169TIP3    H215472   6.837   6.366   1.120
 5170TIP3   OH215473   5.781   5.237   2.601
 5170TIP3    H115474   5.822   5.179   2.665
 5170TIP3    H215475   5.749   5.179   2.532
 5171TIP3   OH215476   3.866   0.615   4.925
 5171TIP3    H115477   3.887   0.670   4.849
 5171TIP3    H215478   3.946   0.617   4.978
 5172TIP3   OH215479   6.977   3.382   4.185
 5172TIP3    H115480   6.967   3.312   4.121
 5172TIP3    H215481   6.916   3.360   4.255
 5173TIP3   OH215482   3.813   1.268   1.404
 5173TIP3    H115483   3.750   1.340   1.399
 5173TIP3    H215484   3.759   1.189   1.403
 5174TIP3   OH215485   0.111   5.696   5.840
 5174TIP3    H115486   0.201   5.729   5.832
 5174TIP3    H215487   0.063   5.767   5.882
 5175TIP3   OH215488   4.681   5.885   3.606
 5175TIP3    H115489   4.649   5.942   3.675
 5175TIP3    H215490   4.737   5.941   3.552
 5176TIP3   OH215491   3.867   2.776   2.887
 5176TIP3    H115492   3.869   2.684   2.862
 5176TIP3    H215493   3.905   2.777   2.975
 5177TIP3   OH215494   3.970   5.652   0.076
 5177TIP3    H115495   3.942   5.561   0.072
 5177TIP3    H215496   4.064   5.648   0.091
 5178TIP3   OH215497   2.694   2.669   0.762
 5178TIP3    H115498   2.698   2.764   0.764
 5178TIP3    H215499   2.602   2.649   0.744
 5179TIP3   OH215500   5.502   3.321   4.384
 5179TIP3    H115501   5.421   3.285   4.350
 5179TIP3    H215502   5.492   3.316   4.479
 5180TIP3   OH215503   6.059   3.726   1.004
 5180TIP3    H115504   6.055   3.638   1.039
 5180TIP3    H215505   5.972   3.742   0.969
 5181TIP3   OH215506   3.596   2.565   0.955
 5181TIP3    H115507   3.584   2.601   1.043
 5181TIP3    H215508   3.522   2.599   0.905
 5182TIP3   OH215509   3.699   2.116   3.509
 5182TIP3    H115510   3.616   2.069   3.510
 5182TIP3    H215511   3.731   2.113   3.599
 5183TIP3   OH215512   0.351   5.065   5.206
 5183TIP3    H115513   0.364   4.983   5.253
 5183TIP3    H215514   0.257   5.067   5.186
 5184TIP3   OH215515   3.161   3.568   0.572
 5184TIP3    H115516   3.171   3.488   0.521
 5184TIP3    H215517   3.245   3.612   0.565
 5185TIP3   OH215518   3.581   6.018   3.887
 5185TIP3    H115519   3.529   5.962   3.830
 5185TIP3    H215520   3.519   6.048   3.954
 5186TIP3   OH215521   3.248   1.132   3.601
 5186TIP3    H115522   3.335   1.093   3.613
 5186TIP3    H215523   3.189   1.057   3.600
 5187TIP3   OH215524   2.084   6.628   3.992
 5187TIP3    H115525   2.162   6.573   3.983
 5187TIP3    H215526   2.039   6.594   4.069
 5188TIP3   OH215527   5.151   2.339   3.106
 5188TIP3    H115528   5.191   2.267   3.058
 5188TIP3    H215529   5.089   2.378   3.044
 5189TIP3   OH215530   4.920   1.860   3.716
 5189TIP3    H115531   4.825   1.857   3.727
 5189TIP3    H215532   4.952   1.906   3.794
 5190TIP3   OH215533   6.932   0.520   4.858
 5190TIP3    H115534   6.880   0.455   4.812
 5190TIP3    H215535   7.017   0.520   4.812
 5191TIP3   OH215536   6.900   6.556   1.589
 5191TIP3    H115537   6.805   6.560   1.584
 5191TIP3    H215538   6.918   6.476   1.639
 5192TIP3   OH215539   3.548   6.085   0.360
 5192TIP3    H115540   3.453   6.083   0.346
 5192TIP3    H215541   3.582   6.021   0.296
 5193TIP3   OH215542   4.572   5.251   0.730
 5193TIP3    H115543   4.577   5.247   0.634
 5193TIP3    H215544   4.500   5.311   0.748
 5194TIP3   OH215545   2.581   5.426   1.611
 5194TIP3    H115546   2.491   5.454   1.595
 5194TIP3    H215547   2.572   5.339   1.651
 5195TIP3   OH215548   1.102   3.608   3.583
 5195TIP3    H115549   1.194   3.625   3.563
 5195TIP3    H215550   1.074   3.546   3.516
 5196TIP3   OH215551   5.345   6.761   0.541
 5196TIP3    H115552   5.425   6.809   0.565
 5196TIP3    H215553   5.347   6.759   0.445
 5197TIP3   OH215554   5.890   1.699   2.049
 5197TIP3    H115555   5.947   1.762   2.004
 5197TIP3    H215556   5.802   1.722   2.018
 5198TIP3   OH215557   4.538   2.574   3.252
 5198TIP3    H115558   4.562   2.666   3.261
 5198TIP3    H215559   4.448   2.575   3.220
 5199TIP3   OH215560   2.685   5.499   0.690
 5199TIP3    H115561   2.627   5.522   0.618
 5199TIP3    H215562   2.685   5.576   0.746
 5200TIP3   OH215563   3.680   2.729   4.130
 5200TIP3    H115564   3.744   2.782   4.083
 5200TIP3    H215565   3.607   2.788   4.148
 5201TIP3   OH215566   3.063   6.654   4.471
 5201TIP3    H115567   2.970   6.649   4.493
 5201TIP3    H215568   3.089   6.742   4.498
 5202TIP3   OH215569   3.740   2.861   5.557
 5202TIP3    H115570   3.781   2.855   5.643
 5202TIP3    H215571   3.749   2.773   5.520
 5203TIP3   OH215572   1.244   4.639   2.831
 5203TIP3    H115573   1.238   4.547   2.856
 5203TIP3    H215574   1.160   4.658   2.789
 5204TIP3   OH215575   5.574   2.503   4.492
 5204TIP3    H115576   5.653   2.485   4.441
 5204TIP3    H215577   5.581   2.595   4.517
 5205TIP3   OH215578   5.819   5.250   5.205
 5205TIP3    H115579   5.881   5.188   5.243
 5205TIP3    H215580   5.734   5.207   5.216
 5206TIP3   OH215581   1.338   6.529   1.735
 5206TIP3    H115582   1.329   6.525   1.639
 5206TIP3    H215583   1.298   6.613   1.759
 5207TIP3   OH215584   3.342   3.234   2.294
 5207TIP3    H115585   3.249   3.248   2.311
 5207TIP3    H215586   3.360   3.147   2.331
 5208TIP3   OH215587   2.661   5.073   5.103
 5208TIP3    H115588   2.673   5.070   5.008
 5208TIP3    H215589   2.584   5.018   5.120
 5209TIP3   OH215590   4.890   0.224   5.327
 5209TIP3    H115591   4.953   0.151   5.328
 5209TIP3    H215592   4.928   0.287   5.265
 5210TIP3   OH215593   1.838   5.496   5.186
 5210TIP3    H115594   1.747   5.469   5.182
 5210TIP3    H215595   1.864   5.510   5.095
 5211TIP3   OH215596   3.523   4.998   5.798
 5211TIP3    H115597   3.479   4.954   5.725
 5211TIP3    H215598   3.451   5.034   5.850
 5212TIP3   OH215599   3.856   4.133   4.052
 5212TIP3    H115600   3.825   4.093   4.133
 5212TIP3    H215601   3.791   4.108   3.987
 5213TIP3   OH215602   4.987   6.785   1.970
 5213TIP3    H115603   4.943   6.702   1.986
 5213TIP3    H215604   5.051   6.793   2.040
 5214TIP3   OH215605   3.047   3.849   0.949
 5214TIP3    H115606   3.017   3.940   0.954
 5214TIP3    H215607   3.006   3.815   0.870
 5215TIP3   OH215608   4.419   3.205   5.489
 5215TIP3    H115609   4.357   3.153   5.540
 5215TIP3    H215610   4.500   3.155   5.491
 5216TIP3   OH215611   4.914   4.721   2.611
 5216TIP3    H115612   5.009   4.713   2.600
 5216TIP3    H215613   4.881   4.632   2.606
 5217TIP3   OH215614   0.051   3.751   3.271
 5217TIP3    H115615   0.068   3.833   3.317
 5217TIP3    H215616   0.088   3.765   3.183
 5218TIP3   OH215617   1.403   2.962   2.954
 5218TIP3    H115618   1.401   3.007   3.039
 5218TIP3    H215619   1.462   2.888   2.968
 5219TIP3   OH215620   3.714   4.550   2.796
 5219TIP3    H115621   3.719   4.454   2.804
 5219TIP3    H215622   3.751   4.583   2.877
 5220TIP3   OH215623   7.091   5.177   4.387
 5220TIP3    H115624   7.047   5.258   4.413
 5220TIP3    H215625   7.030   5.135   4.326
 5221TIP3   OH215626   4.450   0.643   4.072
 5221TIP3    H115627   4.479   0.552   4.067
 5221TIP3    H215628   4.443   0.662   4.165
 5222TIP3   OH215629   2.901   2.562   5.096
 5222TIP3    H115630   2.928   2.628   5.160
 5222TIP3    H215631   2.806   2.555   5.108
 5223TIP3   OH215632   0.758   4.438   3.880
 5223TIP3    H115633   0.673   4.472   3.908
 5223TIP3    H215634   0.803   4.415   3.961
 5224TIP3   OH215635   0.442   3.074   4.501
 5224TIP3    H115636   0.479   3.069   4.590
 5224TIP3    H215637   0.514   3.048   4.444
 5225TIP3   OH215638   5.634   0.144   5.141
 5225TIP3    H115639   5.622   0.239   5.136
 5225TIP3    H215640   5.569   0.114   5.204
 5226TIP3   OH215641   2.416   5.257   5.176
 5226TIP3    H115642   2.364   5.289   5.250
 5226TIP3    H215643   2.354   5.205   5.124
 5227TIP3   OH215644   3.313   0.360   1.451
 5227TIP3    H115645   3.311   0.452   1.425
 5227TIP3    H215646   3.394   0.351   1.501
 5228TIP3   OH215647   1.853   0.415   2.134
 5228TIP3    H115648   1.850   0.375   2.221
 5228TIP3    H215649   1.918   0.484   2.141
 5229TIP3   OH215650   2.613   0.206   2.125
 5229TIP3    H115651   2.703   0.198   2.157
 5229TIP3    H215652   2.618   0.271   2.055
 5230TIP3   OH215653   0.295   6.426   0.579
 5230TIP3    H115654   0.274   6.514   0.611
 5230TIP3    H215655   0.389   6.429   0.562
 5231TIP3   OH215656   6.899   0.593   3.572
 5231TIP3    H115657   6.915   0.599   3.666
 5231TIP3    H215658   6.851   0.511   3.561
 5232TIP3   OH215659   0.815   6.095   2.181
 5232TIP3    H115660   0.783   6.063   2.097
 5232TIP3    H215661   0.910   6.102   2.169
 5233TIP3   OH215662   1.274   0.368   1.772
 5233TIP3    H115663   1.305   0.435   1.711
 5233TIP3    H215664   1.291   0.285   1.726
 5234TIP3   OH215665   3.758   4.146   4.996
 5234TIP3    H115666   3.803   4.079   5.048
 5234TIP3    H215667   3.829   4.203   4.965
 5235TIP3   OH215668   3.939   3.572   5.900
 5235TIP3    H115669   3.898   3.486   5.902
 5235TIP3    H215670   3.874   3.629   5.859
 5236TIP3   OH215671   0.857   2.280   5.493
 5236TIP3    H115672   0.779   2.312   5.537
 5236TIP3    H215673   0.825   2.214   5.431
 5237TIP3   OH215674   2.128   5.894   0.038
 5237TIP3    H115675   2.111   5.817   0.092
 5237TIP3    H215676   2.151   5.858  -0.048
 5238TIP3   OH215677   0.158   4.749   2.659
 5238TIP3    H115678   0.196   4.711   2.738
 5238TIP3    H215679   0.164   4.680   2.593
 5239TIP3   OH215680   0.830   1.374   0.705
 5239TIP3    H115681   0.794   1.461   0.721
 5239TIP3    H215682   0.889   1.385   0.630
 5240TIP3   OH215683   5.788   4.519   1.186
 5240TIP3    H115684   5.814   4.595   1.238
 5240TIP3    H215685   5.869   4.470   1.172
 5241TIP3   OH215686   0.735   5.971   5.874
 5241TIP3    H115687   0.749   5.879   5.896
 5241TIP3    H215688   0.658   5.997   5.925
 5242TIP3   OH215689   1.982   3.102   0.308
 5242TIP3    H115690   1.917   3.172   0.311
 5242TIP3    H215691   1.947   3.035   0.368
 5243TIP3   OH215692   5.484   1.929   1.729
 5243TIP3    H115693   5.550   1.993   1.704
 5243TIP3    H215694   5.408   1.949   1.673
 5244TIP3   OH215695   2.507   0.563   2.084
 5244TIP3    H115696   2.568   0.631   2.113
 5244TIP3    H215697   2.440   0.611   2.035
 5245TIP3   OH215698   3.418   4.675   3.421
 5245TIP3    H115699   3.465   4.759   3.416
 5245TIP3    H215700   3.353   4.688   3.490
 5246TIP3   OH215701   3.887   1.142   5.780
 5246TIP3    H115702   3.803   1.102   5.754
 5246TIP3    H215703   3.900   1.113   5.870
 5247TIP3   OH215704   5.305   1.474   5.180
 5247TIP3    H115705   5.313   1.528   5.259
 5247TIP3    H215706   5.395   1.450   5.158
 5248TIP3   OH215707   0.713   5.680   3.785
 5248TIP3    H115708   0.744   5.673   3.695
 5248TIP3    H215709   0.636   5.737   3.779
 5249TIP3   OH215710   4.833   3.592   4.932
 5249TIP3    H115711   4.901   3.629   4.988
 5249TIP3    H215712   4.839   3.641   4.850
 5250TIP3   OH215713   5.171   1.032   1.326
 5250TIP3    H115714   5.265   1.049   1.330
 5250TIP3    H215715   5.134   1.085   1.397
 5251TIP3   OH215716   2.916   6.014   3.287
 5251TIP3    H115717   2.967   6.027   3.367
 5251TIP3    H215718   2.944   5.929   3.254
 5252TIP3   OH215719   0.054   4.373   1.698
 5252TIP3    H115720   0.102   4.448   1.661
 5252TIP3    H215721   0.058   4.306   1.630
 5253TIP3   OH215722   5.883   0.387   1.195
 5253TIP3    H115723   5.807   0.407   1.140
 5253TIP3    H215724   5.846   0.353   1.276
 5254TIP3   OH215725   0.906   6.228   4.842
 5254TIP3    H115726   0.830   6.271   4.883
 5254TIP3    H215727   0.896   6.245   4.749
 5255TIP3   OH215728   3.450   2.392   1.939
 5255TIP3    H115729   3.538   2.423   1.961
 5255TIP3    H215730   3.429   2.434   1.856
 5256TIP3   OH215731   5.605   0.185   2.953
 5256TIP3    H115732   5.697   0.202   2.970
 5256TIP3    H215733   5.597   0.189   2.858
 5257TIP3   OH215734   5.720   3.456   1.162
 5257TIP3    H115735   5.664   3.379   1.152
 5257TIP3    H215736   5.755   3.472   1.074
 5258TIP3   OH215737   5.630   5.482   2.591
 5258TIP3    H115738   5.711   5.432   2.579
 5258TIP3    H215739   5.659   5.574   2.591
 5259TIP3   OH215740   2.196   3.315   4.598
 5259TIP3    H115741   2.118   3.261   4.587
 5259TIP3    H215742   2.183   3.389   4.539
 5260TIP3   OH215743   3.124   2.911   0.534
 5260TIP3    H115744   3.031   2.917   0.555
 5260TIP3    H215745   3.132   2.958   0.450
 5261TIP3   OH215746   1.456   5.055   5.532
 5261TIP3    H115747   1.482   5.146   5.546
 5261TIP3    H215748   1.373   5.061   5.484
 5262TIP3   OH215749   3.788   2.957   0.178
 5262TIP3    H115750   3.735   2.941   0.255
 5262TIP3    H215751   3.726   2.966   0.106
 5263TIP3   OH215752   4.894   2.252   0.619
 5263TIP3    H115753   4.895   2.313   0.545
 5263TIP3    H215754   4.986   2.240   0.642
 5264TIP3   OH215755   6.033   3.646   4.968
 5264TIP3    H115756   5.965   3.606   5.023
 5264TIP3    H215757   5.985   3.695   4.902
 5265TIP3   OH215758   5.564   4.531   3.847
 5265TIP3    H115759   5.609   4.589   3.785
 5265TIP3    H215760   5.571   4.444   3.807
 5266TIP3   OH215761   2.115   2.979   4.165
 5266TIP3    H115762   2.172   3.052   4.188
 5266TIP3    H215763   2.160   2.902   4.200
 5267TIP3   OH215764   4.010   0.255   0.834
 5267TIP3    H115765   4.070   0.329   0.832
 5267TIP3    H215766   3.933   0.285   0.785
 5268TIP3   OH215767   0.970   5.126   4.496
 5268TIP3    H115768   0.939   5.041   4.467
 5268TIP3    H215769   0.918   5.189   4.446
 5269TIP3   OH215770   1.706   1.353   5.067
 5269TIP3    H115771   1.615   1.377   5.088
 5269TIP3    H215772   1.757   1.431   5.092
 5270TIP3   OH215773   4.723   6.504   0.197
 5270TIP3    H115774   4.816   6.524   0.199
 5270TIP3    H215775   4.698   6.519   0.106
 5271TIP3   OH215776   2.174   6.579   2.236
 5271TIP3    H115777   2.181   6.494   2.192
 5271TIP3    H215778   2.125   6.561   2.316
 5272TIP3   OH215779   2.616   6.459   3.580
 5272TIP3    H115780   2.592   6.526   3.516
 5272TIP3    H215781   2.550   6.391   3.570
 5273TIP3   OH215782   5.523   1.501   2.730
 5273TIP3    H115783   5.557   1.412   2.740
 5273TIP3    H215784   5.600   1.554   2.711
 5274TIP3   OH215785   4.720   4.878   5.191
 5274TIP3    H115786   4.669   4.832   5.258
 5274TIP3    H215787   4.682   4.965   5.187
 5275TIP3   OH215788   2.086   4.947   1.354
 5275TIP3    H115789   2.028   4.898   1.413
 5275TIP3    H215790   2.033   5.019   1.322
 5276TIP3   OH215791   1.896   6.788   3.115
 5276TIP3    H115792   1.874   6.877   3.143
 5276TIP3    H215793   1.852   6.731   3.178
 5277TIP3   OH215794   3.753   6.669   3.953
 5277TIP3    H115795   3.666   6.636   3.926
 5277TIP3    H215796   3.734   6.739   4.015
 5278TIP3   OH215797   2.446   3.060   2.203
 5278TIP3    H115798   2.505   2.984   2.197
 5278TIP3    H215799   2.358   3.021   2.207
 5279TIP3   OH215800   1.692   1.990   4.479
 5279TIP3    H115801   1.786   2.006   4.469
 5279TIP3    H215802   1.681   1.897   4.461
 5280TIP3   OH215803   1.126   3.239   1.523
 5280TIP3    H115804   1.100   3.148   1.539
 5280TIP3    H215805   1.199   3.254   1.583
 5281TIP3   OH215806   4.747   6.175   5.236
 5281TIP3    H115807   4.803   6.241   5.195
 5281TIP3    H215808   4.707   6.128   5.163
 5282TIP3   OH215809   0.298   3.589   1.050
 5282TIP3    H115810   0.238   3.548   0.987
 5282TIP3    H215811   0.371   3.621   0.997
 5283TIP3   OH215812   4.406   6.369   1.879
 5283TIP3    H115813   4.375   6.396   1.966
 5283TIP3    H215814   4.327   6.345   1.832
 5284TIP3   OH215815   3.629   5.057   0.934
 5284TIP3    H115816   3.558   5.108   0.895
 5284TIP3    H215817   3.591   5.017   1.012
 5285TIP3   OH215818   2.265   2.088   4.196
 5285TIP3    H115819   2.182   2.041   4.188
 5285TIP3    H215820   2.324   2.043   4.136
 5286TIP3   OH215821   3.174   3.765   1.682
 5286TIP3    H115822   3.165   3.795   1.592
 5286TIP3    H215823   3.091   3.721   1.701
 5287TIP3   OH215824   0.915   3.203   5.282
 5287TIP3    H115825   0.952   3.268   5.342
 5287TIP3    H215826   0.983   3.137   5.272
 5288TIP3   OH215827   1.002   5.340   3.544
 5288TIP3    H115828   0.935   5.291   3.592
 5288TIP3    H215829   1.077   5.281   3.540
 5289TIP3   OH215830   3.652   2.459   2.605
 5289TIP3    H115831   3.718   2.390   2.596
 5289TIP3    H215832   3.663   2.513   2.527
 5290TIP3   OH215833   1.813   4.119   0.550
 5290TIP3    H115834   1.763   4.174   0.490
 5290TIP3    H215835   1.905   4.137   0.527
 5291TIP3   OH215836   3.691   0.295   2.022
 5291TIP3    H115837   3.720   0.333   2.105
 5291TIP3    H215838   3.695   0.200   2.036
 5292TIP3   OH215839   1.077   4.156   4.580
 5292TIP3    H115840   1.068   4.156   4.484
 5292TIP3    H215841   1.161   4.198   4.596
 5293TIP3   OH215842   3.883   3.419   2.627
 5293TIP3    H115843   3.828   3.363   2.682
 5293TIP3    H215844   3.972   3.399   2.653
 5294TIP3   OH215845   6.495   5.215   3.700
 5294TIP3    H115846   6.471   5.289   3.755
 5294TIP3    H215847   6.442   5.226   3.621
 5295TIP3   OH215848   4.089   1.923   2.061
 5295TIP3    H115849   4.003   1.965   2.050
 5295TIP3    H215850   4.149   1.996   2.078
 5296TIP3   OH215851   4.036   0.028   0.007
 5296TIP3    H115852   4.000  -0.045  -0.044
 5296TIP3    H215853   3.960   0.063   0.054
 5297TIP3   OH215854   1.313   3.569   2.576
 5297TIP3    H115855   1.357   3.506   2.633
 5297TIP3    H215856   1.234   3.524   2.546
 5298TIP3   OH215857   2.690   2.081   3.720
 5298TIP3    H115858   2.744   2.057   3.645
 5298TIP3    H215859   2.749   2.132   3.777
 5299TIP3   OH215860   1.681   0.463   0.037
 5299TIP3    H115861   1.638   0.391   0.082
 5299TIP3    H215862   1.625   0.539   0.054
 5300TIP3   OH215863   6.391   0.029   2.192
 5300TIP3    H115864   6.337  -0.006   2.121
 5300TIP3    H215865   6.376  -0.031   2.265
 5301TIP3   OH215866   0.664   4.658   5.301
 5301TIP3    H115867   0.663   4.586   5.363
 5301TIP3    H215868   0.668   4.616   5.215
 5302TIP3   OH215869   3.643   5.172   4.094
 5302TIP3    H115870   3.627   5.087   4.135
 5302TIP3    H215871   3.556   5.212   4.089
 5303TIP3   OH215872   4.280   3.090   3.015
 5303TIP3    H115873   4.255   2.998   3.022
 5303TIP3    H215874   4.211   3.130   2.964
 5304TIP3   OH215875   1.994   2.938   2.765
 5304TIP3    H115876   1.990   2.948   2.860
 5304TIP3    H215877   2.082   2.902   2.749
 5305TIP3   OH215878   2.982   1.594   4.027
 5305TIP3    H115879   2.899   1.556   4.057
 5305TIP3    H215880   3.012   1.647   4.100
 5306TIP3   OH215881   3.144   3.332   5.431
 5306TIP3    H115882   3.228   3.326   5.386
 5306TIP3    H215883   3.101   3.248   5.414
 5307TIP3   OH215884   5.446   5.208   1.542
 5307TIP3    H115885   5.493   5.273   1.594
 5307TIP3    H215886   5.507   5.135   1.536
 5308TIP3   OH215887   5.907   3.543   2.930
 5308TIP3    H115888   5.826   3.517   2.975
 5308TIP3    H215889   5.977   3.503   2.981
 5309TIP3   OH215890   3.197   3.966   4.472
 5309TIP3    H115891   3.270   3.920   4.513
 5309TIP3    H215892   3.202   3.942   4.380
 5310TIP3   OH215893   0.305   2.800   1.283
 5310TIP3    H115894   0.388   2.793   1.236
 5310TIP3    H215895   0.325   2.851   1.361
 5311TIP3   OH215896   6.180   0.362   0.045
 5311TIP3    H115897   6.274   0.361   0.023
 5311TIP3    H215898   6.165   0.278   0.088
 5312TIP3   OH215899   0.463   2.537   3.157
 5312TIP3    H115900   0.412   2.528   3.077
 5312TIP3    H215901   0.519   2.613   3.143
 5313TIP3   OH215902   0.217   4.440   3.507
 5313TIP3    H115903   0.204   4.376   3.577
 5313TIP3    H215904   0.242   4.521   3.552
 5314TIP3   OH215905   0.197   2.646   1.052
 5314TIP3    H115906   0.193   2.684   1.140
 5314TIP3    H215907   0.160   2.713   0.995
 5315TIP3   OH215908   3.518   0.501   5.308
 5315TIP3    H115909   3.592   0.483   5.250
 5315TIP3    H215910   3.552   0.566   5.370
 5316TIP3   OH215911   4.357   1.910   5.212
 5316TIP3    H115912   4.310   1.828   5.199
 5316TIP3    H215913   4.355   1.924   5.307
 5317TIP3   OH215914   5.189   6.039   2.592
 5317TIP3    H115915   5.249   6.042   2.517
 5317TIP3    H215916   5.231   5.978   2.654
 5318TIP3   OH215917   6.905   4.538   3.815
 5318TIP3    H115918   6.965   4.527   3.889
 5318TIP3    H215919   6.828   4.581   3.853
 5319TIP3   OH215920   3.187   3.316   1.830
 5319TIP3    H115921   3.230   3.371   1.896
 5319TIP3    H215922   3.222   3.229   1.846
 5320TIP3   OH215923   1.185   4.354   3.845
 5320TIP3    H115924   1.113   4.371   3.785
 5320TIP3    H215925   1.154   4.281   3.899
 5321TIP3   OH215926   2.257   4.533   2.664
 5321TIP3    H115927   2.277   4.623   2.638
 5321TIP3    H215928   2.250   4.486   2.581
 5322TIP3   OH215929   1.455   3.299   3.518
 5322TIP3    H115930   1.472   3.383   3.476
 5322TIP3    H215931   1.435   3.320   3.609
 5323TIP3   OH215932   2.012   4.288   3.722
 5323TIP3    H115933   1.995   4.343   3.798
 5323TIP3    H215934   2.087   4.328   3.678
 5324TIP3   OH215935   6.354   0.182   4.765
 5324TIP3    H115936   6.289   0.113   4.781
 5324TIP3    H215937   6.331   0.252   4.826
 5325TIP3   OH215938   6.124   5.645   2.068
 5325TIP3    H115939   6.052   5.615   2.013
 5325TIP3    H215940   6.151   5.568   2.117
 5326TIP3   OH215941   0.325   4.201   0.317
 5326TIP3    H115942   0.371   4.139   0.261
 5326TIP3    H215943   0.366   4.192   0.403
 5327TIP3   OH215944   6.329   4.732   0.790
 5327TIP3    H115945   6.371   4.785   0.722
 5327TIP3    H215946   6.376   4.754   0.870
 5328TIP3   OH215947   1.869   2.067   0.738
 5328TIP3    H115948   1.862   2.110   0.652
 5328TIP3    H215949   1.778   2.059   0.767
 5329TIP3   OH215950   5.662   5.290   0.352
 5329TIP3    H115951   5.688   5.204   0.322
 5329TIP3    H215952   5.593   5.318   0.291
 5330TIP3   OH215953   3.306   2.145   2.434
 5330TIP3    H115954   3.339   2.227   2.470
 5330TIP3    H215955   3.222   2.131   2.477
 5331TIP3   OH215956   5.491   5.911   3.292
 5331TIP3    H115957   5.464   5.982   3.234
 5331TIP3    H215958   5.411   5.885   3.337
 5332TIP3   OH215959   4.155   1.278   1.796
 5332TIP3    H115960   4.185   1.361   1.759
 5332TIP3    H215961   4.172   1.287   1.890
 5333TIP3   OH215962   0.597   5.186   3.098
 5333TIP3    H115963   0.537   5.251   3.060
 5333TIP3    H215964   0.549   5.150   3.173
 5334TIP3   OH215965   0.617   1.687   2.199
 5334TIP3    H115966   0.531   1.646   2.192
 5334TIP3    H215967   0.672   1.638   2.137
 5335TIP3   OH215968   5.570   5.731   2.757
 5335TIP3    H115969   5.586   5.659   2.818
 5335TIP3    H215970   5.652   5.779   2.754
 5336TIP3   OH215971   2.680   6.676   1.880
 5336TIP3    H115972   2.675   6.595   1.931
 5336TIP3    H215973   2.654   6.745   1.941
 5337TIP3   OH215974   3.096   4.934   0.498
 5337TIP3    H115975   3.177   4.963   0.539
 5337TIP3    H215976   3.074   5.005   0.437
 5338TIP3   OH215977   5.770   0.814   1.965
 5338TIP3    H115978   5.776   0.807   1.870
 5338TIP3    H215979   5.854   0.782   1.997
 5339TIP3   OH215980   4.814   4.549   4.863
 5339TIP3    H115981   4.832   4.473   4.809
 5339TIP3    H215982   4.723   4.571   4.845
 5340TIP3   OH215983   0.789   4.678   0.041
 5340TIP3    H115984   0.750   4.636   0.118
 5340TIP3    H215985   0.803   4.769   0.067
 5341TIP3   OH215986   0.105   6.384   2.133
 5341TIP3    H115987   0.011   6.380   2.149
 5341TIP3    H215988   0.142   6.419   2.214
 5342TIP3   OH215989   2.033   2.084   5.506
 5342TIP3    H115990   2.115   2.057   5.464
 5342TIP3    H215991   1.986   2.131   5.437
 5343TIP3   OH215992   4.968   2.342   4.620
 5343TIP3    H115993   4.880   2.312   4.599
 5343TIP3    H215994   5.017   2.262   4.640
 5344TIP3   OH215995   3.471   3.389   3.423
 5344TIP3    H115996   3.565   3.372   3.418
 5344TIP3    H215997   3.462   3.448   3.497
 5345TIP3   OH215998   0.571   2.324   2.976
 5345TIP3    H115999   0.634   2.256   2.998
 5345TIP3    H216000   0.587   2.394   3.039
 5346TIP3   OH216001   2.683   6.243   3.745
 5346TIP3    H116002   2.655   6.306   3.811
 5346TIP3    H216003   2.606   6.230   3.690
 5347TIP3   OH216004   5.458   1.628   2.124
 5347TIP3    H116005   5.412   1.659   2.046
 5347TIP3    H216006   5.509   1.552   2.094
 5348TIP3   OH216007   0.313   6.144   4.723
 5348TIP3    H116008   0.221   6.171   4.725
 5348TIP3    H216009   0.311   6.056   4.684
 5349TIP3   OH216010   5.763   2.374   1.853
 5349TIP3    H116011   5.679   2.328   1.855
 5349TIP3    H216012   5.762   2.422   1.771
 5350TIP3   OH216013   0.133   6.376   1.545
 5350TIP3    H116014   0.137   6.295   1.595
 5350TIP3    H216015   0.048   6.373   1.501
 5351TIP3   OH216016   2.224   1.142   4.953
 5351TIP3    H116017   2.250   1.234   4.958
 5351TIP3    H216018   2.290   1.102   4.896
 5352TIP3   OH216019   3.160   5.494   0.514
 5352TIP3    H116020   3.117   5.549   0.448
 5352TIP3    H216021   3.251   5.490   0.487
 5353TIP3   OH216022   2.274   3.145   5.817
 5353TIP3    H116023   2.343   3.209   5.799
 5353TIP3    H216024   2.194   3.197   5.819
 5354TIP3   OH216025   6.388   1.720   0.967
 5354TIP3    H116026   6.394   1.635   1.010
 5354TIP3    H216027   6.336   1.774   1.026
 5355TIP3   OH216028   0.597   6.480   4.670
 5355TIP3    H116029   0.602   6.513   4.760
 5355TIP3    H216030   0.603   6.385   4.680
 5356TIP3   OH216031   3.440   0.284   5.732
 5356TIP3    H116032   3.524   0.278   5.686
 5356TIP3    H216033   3.408   0.194   5.734
 5357TIP3   OH216034   3.477   4.446   3.257
 5357TIP3    H116035   3.461   4.500   3.179
 5357TIP3    H216036   3.466   4.507   3.330
 5358TIP3   OH216037   6.483   2.535   3.845
 5358TIP3    H116038   6.497   2.629   3.832
 5358TIP3    H216039   6.403   2.529   3.897
 5359TIP3   OH216040   0.131   3.806   1.379
 5359TIP3    H116041   0.196   3.826   1.446
 5359TIP3    H216042   0.047   3.812   1.424
 5360TIP3   OH216043   1.739   2.949   2.553
 5360TIP3    H116044   1.650   2.928   2.582
 5360TIP3    H216045   1.758   3.033   2.595
 5361TIP3   OH216046   5.634   5.372   0.907
 5361TIP3    H116047   5.689   5.315   0.853
 5361TIP3    H216048   5.610   5.444   0.849
 5362TIP3   OH216049   0.909   4.610   5.883
 5362TIP3    H116050   0.979   4.544   5.885
 5362TIP3    H216051   0.900   4.632   5.790
 5363TIP3   OH216052   6.808   3.186   0.136
 5363TIP3    H116053   6.834   3.224   0.052
 5363TIP3    H216054   6.805   3.261   0.196
 5364TIP3   OH216055   0.292   5.346   0.286
 5364TIP3    H116056   0.319   5.254   0.292
 5364TIP3    H216057   0.281   5.373   0.377
 5365TIP3   OH216058   1.972   3.966   4.253
 5365TIP3    H116059   1.909   3.912   4.205
 5365TIP3    H216060   2.056   3.948   4.209
 5366TIP3   OH216061   4.116   5.102   3.637
 5366TIP3    H116062   4.198   5.120   3.682
 5366TIP3    H216063   4.110   5.006   3.636
 5367TIP3   OH216064   3.010   4.112   2.865
 5367TIP3    H116065   3.037   4.201   2.842
 5367TIP3    H216066   2.987   4.072   2.781
 5368TIP3   OH216067   4.386   1.509   5.262
 5368TIP3    H116068   4.295   1.539   5.253
 5368TIP3    H216069   4.403   1.509   5.356
 5369TIP3   OH216070   4.147   6.292   5.133
 5369TIP3    H116071   4.204   6.288   5.057
 5369TIP3    H216072   4.178   6.223   5.191
 5370TIP3   OH216073   1.821   2.026   1.200
 5370TIP3    H116074   1.829   1.963   1.129
 5370TIP3    H216075   1.793   1.974   1.275
 5371TIP3   OH216076   4.715   5.539   5.663
 5371TIP3    H116077   4.688   5.628   5.688
 5371TIP3    H216078   4.661   5.518   5.587
 5372TIP3   OH216079   4.644   0.169   5.089
 5372TIP3    H116080   4.630   0.149   5.181
 5372TIP3    H216081   4.588   0.246   5.072
 5373TIP3   OH216082   3.640   4.232   1.366
 5373TIP3    H116083   3.682   4.316   1.347
 5373TIP3    H216084   3.671   4.174   1.296
 5374TIP3   OH216085   0.378   0.404   1.530
 5374TIP3    H116086   0.473   0.400   1.535
 5374TIP3    H216087   0.347   0.332   1.584
 5375TIP3   OH216088   6.039   2.247   5.076
 5375TIP3    H116089   5.983   2.234   5.000
 5375TIP3    H216090   5.986   2.301   5.136
 5376TIP3   OH216091   3.981   6.418   1.277
 5376TIP3    H116092   4.075   6.414   1.262
 5376TIP3    H216093   3.945   6.458   1.198
 5377TIP3   OH216094   6.229   2.061   3.554
 5377TIP3    H116095   6.266   2.074   3.467
 5377TIP3    H216096   6.218   1.966   3.562
 5378TIP3   OH216097   5.698   2.476   2.932
 5378TIP3    H116098   5.610   2.452   2.906
 5378TIP3    H216099   5.704   2.451   3.024
 5379TIP3   OH216100   0.242   4.998   2.963
 5379TIP3    H116101   0.206   5.060   3.026
 5379TIP3    H216102   0.167   4.944   2.937
 5380TIP3   OH216103   0.669   6.389   2.131
 5380TIP3    H116104   0.632   6.304   2.109
 5380TIP3    H216105   0.636   6.448   2.063
 5381TIP3   OH216106   6.249   3.200   2.552
 5381TIP3    H116107   6.179   3.248   2.596
 5381TIP3    H216108   6.216   3.184   2.464
 5382TIP3   OH216109   1.732   4.934   5.044
 5382TIP3    H116110   1.804   4.935   5.107
 5382TIP3    H216111   1.662   4.887   5.089
 5383TIP3   OH216112   1.505   5.257   2.248
 5383TIP3    H116113   1.582   5.304   2.281
 5383TIP3    H216114   1.518   5.255   2.153
 5384TIP3   OH216115   5.742   4.411   0.012
 5384TIP3    H116116   5.801   4.470   0.059
 5384TIP3    H216117   5.660   4.458   0.006
 5385TIP3   OH216118   5.188   4.260   0.978
 5385TIP3    H116119   5.139   4.205   0.917
 5385TIP3    H216120   5.222   4.198   1.043
 5386TIP3   OH216121   2.317   0.176   3.372
 5386TIP3    H116122   2.359   0.219   3.446
 5386TIP3    H216123   2.268   0.103   3.411
 5387TIP3   OH216124   1.025   0.231   0.823
 5387TIP3    H116125   1.001   0.246   0.914
 5387TIP3    H216126   0.952   0.268   0.773
 5388TIP3   OH216127   4.251   6.644   2.685
 5388TIP3    H116128   4.285   6.708   2.747
 5388TIP3    H216129   4.328   6.594   2.657
 5389TIP3   OH216130   6.160   2.361   5.372
 5389TIP3    H116131   6.177   2.397   5.286
 5389TIP3    H216132   6.078   2.402   5.400
 5390TIP3   OH216133   1.114   5.846   1.062
 5390TIP3    H116134   1.039   5.899   1.089
 5390TIP3    H216135   1.178   5.858   1.132
 5391TIP3   OH216136   6.720   5.995   4.550
 5391TIP3    H116137   6.789   5.977   4.487
 5391TIP3    H216138   6.639   5.978   4.502
 5392TIP3   OH216139   4.215   5.719   4.898
 5392TIP3    H116140   4.177   5.651   4.953
 5392TIP3    H216141   4.161   5.718   4.819
 5393TIP3   OH216142   3.258   2.661   1.923
 5393TIP3    H116143   3.171   2.680   1.959
 5393TIP3    H216144   3.241   2.637   1.832
 5394TIP3   OH216145   6.529   1.142   2.976
 5394TIP3    H116146   6.459   1.207   2.985
 5394TIP3    H216147   6.591   1.181   2.915
 5395TIP3   OH216148   3.230   6.548   0.968
 5395TIP3    H116149   3.305   6.489   0.960
 5395TIP3    H216150   3.232   6.576   1.059
 5396TIP3   OH216151   6.463   3.529   5.363
 5396TIP3    H116152   6.520   3.478   5.421
 5396TIP3    H216153   6.376   3.492   5.377
 5397TIP3   OH216154   5.287   2.879   1.324
 5397TIP3    H116155   5.254   2.816   1.260
 5397TIP3    H216156   5.222   2.877   1.395
 5398TIP3   OH216157   2.367   5.833   3.544
 5398TIP3    H116158   2.387   5.836   3.450
 5398TIP3    H216159   2.272   5.844   3.549
 5399TIP3   OH216160   6.184  -0.021   5.401
 5399TIP3    H116161   6.142   0.051   5.353
 5399TIP3    H216162   6.271  -0.028   5.362
 5400TIP3   OH216163   1.275   6.117   1.002
 5400TIP3    H116164   1.314   6.184   1.059
 5400TIP3    H216165   1.181   6.128   1.014
 5401TIP3   OH216166   0.595   5.294   4.115
 5401TIP3    H116167   0.646   5.263   4.041
 5401TIP3    H216168   0.593   5.389   4.106
 5402TIP3   OH216169   0.888   0.987   0.863
 5402TIP3    H116170   0.918   0.903   0.898
 5402TIP3    H216171   0.930   0.993   0.778
 5403TIP3   OH216172   1.738   4.102   5.517
 5403TIP3    H116173   1.815   4.125   5.569
 5403TIP3    H216174   1.669   4.087   5.581
 5404TIP3   OH216175   5.148   1.509   0.376
 5404TIP3    H116176   5.053   1.520   0.380
 5404TIP3    H216177   5.162   1.446   0.305
 5405TIP3   OH216178   1.334   6.599   0.994
 5405TIP3    H116179   1.314   6.646   0.913
 5405TIP3    H216180   1.382   6.662   1.047
 5406TIP3   OH216181   5.501   2.148   4.461
 5406TIP3    H116182   5.594   2.126   4.459
 5406TIP3    H216183   5.490   2.213   4.391
 5407TIP3   OH216184   2.375   1.198   5.289
 5407TIP3    H116185   2.402   1.165   5.204
 5407TIP3    H216186   2.457   1.220   5.334
 5408TIP3   OH216187   6.930   1.027   1.366
 5408TIP3    H116188   6.934   1.046   1.459
 5408TIP3    H216189   6.863   0.959   1.358
 5409TIP3   OH216190   6.551   5.495  -0.027
 5409TIP3    H116191   6.562   5.409  -0.068
 5409TIP3    H216192   6.633   5.510   0.020
 5410TIP3   OH216193   4.713   0.188   2.774
 5410TIP3    H116194   4.777   0.217   2.709
 5410TIP3    H216195   4.712   0.256   2.840
 5411TIP3   OH216196   3.299   0.289   2.804
 5411TIP3    H116197   3.255   0.349   2.864
 5411TIP3    H216198   3.228   0.253   2.751
 5412TIP3   OH216199   1.418   2.503   2.980
 5412TIP3    H116200   1.413   2.500   3.075
 5412TIP3    H216201   1.368   2.426   2.951
 5413TIP3   OH216202   2.511   5.094   3.738
 5413TIP3    H116203   2.558   5.055   3.812
 5413TIP3    H216204   2.498   5.185   3.763
 5414TIP3   OH216205   3.314   3.086   1.884
 5414TIP3    H116206   3.310   3.014   1.821
 5414TIP3    H216207   3.289   3.045   1.967
 5415TIP3   OH216208   5.266   0.216   4.846
 5415TIP3    H116209   5.254   0.294   4.900
 5415TIP3    H216210   5.360   0.215   4.826
 5416TIP3   OH216211   6.115   4.118   3.550
 5416TIP3    H116212   6.105   4.023   3.540
 5416TIP3    H216213   6.037   4.155   3.511
 5417TIP3   OH216214   6.862   5.333   3.838
 5417TIP3    H116215   6.884   5.329   3.745
 5417TIP3    H216216   6.829   5.422   3.851
 5418TIP3   OH216217   1.108   2.615   1.035
 5418TIP3    H116218   1.127   2.676   0.964
 5418TIP3    H216219   1.176   2.630   1.100
 5419TIP3   OH216220   4.248   6.185   3.625
 5419TIP3    H116221   4.192   6.149   3.556
 5419TIP3    H216222   4.336   6.185   3.587
 5420TIP3   OH216223   5.147   3.808   2.539
 5420TIP3    H116224   5.217   3.873   2.541
 5420TIP3    H216225   5.074   3.852   2.496
 5421TIP3   OH216226   1.311   4.101   3.452
 5421TIP3    H116227   1.263   4.039   3.508
 5421TIP3    H216228   1.335   4.050   3.375
 5422TIP3   OH216229   5.413   6.738   2.396
 5422TIP3    H116230   5.465   6.806   2.353
 5422TIP3    H216231   5.458   6.721   2.478
 5423TIP3   OH216232   5.823   0.661   5.868
 5423TIP3    H116233   5.785   0.587   5.915
 5423TIP3    H216234   5.852   0.623   5.785
 5424TIP3   OH216235   3.275   2.382   2.247
 5424TIP3    H116236   3.250   2.372   2.155
 5424TIP3    H216237   3.245   2.301   2.289
 5425TIP3   OH216238   5.686   1.021   2.706
 5425TIP3    H116239   5.729   0.935   2.711
 5425TIP3    H216240   5.742   1.072   2.648
 5426TIP3   OH216241   5.900   2.416   0.255
 5426TIP3    H116242   5.973   2.364   0.290
 5426TIP3    H216243   5.897   2.494   0.310
 5427TIP3   OH216244   3.602   2.818   3.019
 5427TIP3    H116245   3.677   2.845   2.967
 5427TIP3    H216246   3.575   2.734   2.982
 5428TIP3   OH216247   6.804   5.999   5.553
 5428TIP3    H116248   6.879   5.960   5.508
 5428TIP3    H216249   6.798   5.950   5.636
 5429TIP3   OH216250   3.295   6.104   3.252
 5429TIP3    H116251   3.244   6.115   3.332
 5429TIP3    H216252   3.266   6.175   3.195
 5430TIP3   OH216253   5.754   0.174   2.162
 5430TIP3    H116254   5.790   0.205   2.079
 5430TIP3    H216255   5.682   0.234   2.180
 5431TIP3   OH216256   7.161   1.018   2.457
 5431TIP3    H116257   7.207   1.088   2.505
 5431TIP3    H216258   7.231   0.965   2.420
 5432TIP3   OH216259   4.860   4.111   3.827
 5432TIP3    H116260   4.783   4.154   3.791
 5432TIP3    H216261   4.828   4.027   3.861
 5433TIP3   OH216262   0.542   5.376   1.308
 5433TIP3    H116263   0.551   5.470   1.298
 5433TIP3    H216264   0.622   5.340   1.269
 5434TIP3   OH216265   2.517   4.747   0.791
 5434TIP3    H116266   2.444   4.686   0.786
 5434TIP3    H216267   2.539   4.750   0.884
 5435TIP3   OH216268   5.815   1.260   5.119
 5435TIP3    H116269   5.862   1.240   5.200
 5435TIP3    H216270   5.844   1.193   5.057
 5436TIP3   OH216271   2.199   0.645   1.634
 5436TIP3    H116272   2.199   0.737   1.658
 5436TIP3    H216273   2.244   0.642   1.549
 5437TIP3   OH216274   4.136   5.841   1.582
 5437TIP3    H116275   4.091   5.895   1.647
 5437TIP3    H216276   4.096   5.865   1.498
 5438TIP3   OH216277   6.185   0.921   1.482
 5438TIP3    H116278   6.171   0.980   1.408
 5438TIP3    H216279   6.215   0.978   1.553
 5439TIP3   OH216280   2.083   0.626   5.343
 5439TIP3    H116281   2.156   0.636   5.405
 5439TIP3    H216282   2.014   0.682   5.379
 5440TIP3   OH216283   5.020   2.074   4.355
 5440TIP3    H116284   5.088   2.111   4.411
 5440TIP3    H216285   4.943   2.070   4.411
 5441TIP3   OH216286   2.710   5.171   3.100
 5441TIP3    H116287   2.762   5.194   3.024
 5441TIP3    H216288   2.665   5.091   3.075
 5442TIP3   OH216289   6.575   0.504   3.957
 5442TIP3    H116290   6.508   0.435   3.951
 5442TIP3    H216291   6.560   0.558   3.879
 5443TIP3   OH216292   2.302   1.452   4.935
 5443TIP3    H116293   2.277   1.494   4.852
 5443TIP3    H216294   2.393   1.477   4.947
 5444TIP3   OH216295   2.844   3.867   1.177
 5444TIP3    H116296   2.852   3.792   1.118
 5444TIP3    H216297   2.856   3.831   1.265
 5445TIP3   OH216298   7.222   1.544   5.193
 5445TIP3    H116299   7.156   1.563   5.126
 5445TIP3    H216300   7.174   1.550   5.276
 5446TIP3   OH216301   0.903   0.327   4.484
 5446TIP3    H116302   0.987   0.281   4.479
 5446TIP3    H216303   0.926   0.419   4.490
 5447TIP3   OH216304   3.854   6.247   5.395
 5447TIP3    H116305   3.935   6.216   5.435
 5447TIP3    H216306   3.825   6.173   5.341
 5448TIP3   OH216307   2.783   1.717   1.406
 5448TIP3    H116308   2.850   1.658   1.441
 5448TIP3    H216309   2.792   1.797   1.459
 5449TIP3   OH216310   2.620   4.782   3.912
 5449TIP3    H116311   2.594   4.858   3.964
 5449TIP3    H216312   2.540   4.757   3.864
 5450TIP3   OH216313   0.221   2.760   0.042
 5450TIP3    H116314   0.275   2.689   0.007
 5450TIP3    H216315   0.284   2.830   0.062
 5451TIP3   OH216316   5.072   6.198   3.146
 5451TIP3    H116317   5.064   6.186   3.052
 5451TIP3    H216318   5.057   6.110   3.183
 5452TIP3   OH216319   6.921   3.721   4.372
 5452TIP3    H116320   6.898   3.789   4.309
 5452TIP3    H216321   6.838   3.679   4.394
 5453TIP3   OH216322   2.051   6.134   1.747
 5453TIP3    H116323   2.115   6.076   1.787
 5453TIP3    H216324   1.967   6.104   1.780
 5454TIP3   OH216325   2.425   5.075   3.479
 5454TIP3    H116326   2.459   5.164   3.466
 5454TIP3    H216327   2.424   5.063   3.574
 5455TIP3   OH216328   2.390   0.059   4.828
 5455TIP3    H116329   2.455   0.051   4.759
 5455TIP3    H216330   2.400  -0.022   4.880
 5456TIP3   OH216331   6.378   2.308   3.512
 5456TIP3    H116332   6.378   2.226   3.561
 5456TIP3    H216333   6.285   2.332   3.506
 5457TIP3   OH216334   4.574   4.832   3.288
 5457TIP3    H116335   4.553   4.753   3.338
 5457TIP3    H216336   4.493   4.856   3.244
 5458TIP3   OH216337   3.422   1.202  -0.008
 5458TIP3    H116338   3.365   1.242   0.058
 5458TIP3    H216339   3.420   1.263  -0.081
 5459TIP3   OH216340   4.307   1.419   4.109
 5459TIP3    H116341   4.362   1.402   4.185
 5459TIP3    H216342   4.367   1.418   4.035
 5460TIP3   OH216343   3.658   5.973   3.415
 5460TIP3    H116344   3.625   6.044   3.469
 5460TIP3    H216345   3.739   5.945   3.458
 5461TIP3   OH216346   1.256   5.605   5.677
 5461TIP3    H116347   1.254   5.516   5.640
 5461TIP3    H216348   1.240   5.592   5.770
 5462TIP3   OH216349   2.966   4.104   3.766
 5462TIP3    H116350   2.872   4.089   3.760
 5462TIP3    H216351   2.980   4.189   3.723
 5463TIP3   OH216352   1.971   5.134   3.605
 5463TIP3    H116353   1.923   5.055   3.630
 5463TIP3    H216354   2.053   5.128   3.653
 5464TIP3   OH216355   1.025   4.567   1.885
 5464TIP3    H116356   1.027   4.528   1.972
 5464TIP3    H216357   1.013   4.661   1.901
 5465TIP3   OH216358   1.042   1.476   1.138
 5465TIP3    H116359   1.072   1.417   1.068
 5465TIP3    H216360   1.063   1.564   1.106
 5466TIP3   OH216361   1.825   5.778   1.169
 5466TIP3    H116362   1.846   5.726   1.092
 5466TIP3    H216363   1.910   5.807   1.202
 5467TIP3   OH216364   5.940   5.082   1.088
 5467TIP3    H116365   5.955   5.165   1.043
 5467TIP3    H216366   5.984   5.092   1.172
 5468TIP3   OH216367   5.926   1.398   5.501
 5468TIP3    H116368   5.991   1.328   5.502
 5468TIP3    H216369   5.977   1.479   5.513
 5469TIP3   OH216370   4.213   4.672   1.488
 5469TIP3    H116371   4.212   4.631   1.401
 5469TIP3    H216372   4.305   4.693   1.504
 5470TIP3   OH216373   1.136   4.177   1.403
 5470TIP3    H116374   1.131   4.162   1.497
 5470TIP3    H216375   1.149   4.272   1.395
 5471TIP3   OH216376   7.185   3.304   1.623
 5471TIP3    H116377   7.103   3.313   1.575
 5471TIP3    H216378   7.252   3.289   1.556
 5472TIP3   OH216379   4.750   0.558   4.663
 5472TIP3    H116380   4.702   0.633   4.697
 5472TIP3    H216381   4.813   0.536   4.732
 5473TIP3   OH216382   1.298   0.469   0.338
 5473TIP3    H116383   1.223   0.477   0.279
 5473TIP3    H216384   1.326   0.559   0.353
 5474TIP3   OH216385   1.617   1.148   1.749
 5474TIP3    H116386   1.702   1.182   1.721
 5474TIP3    H216387   1.553   1.209   1.713
 5475TIP3   OH216388   0.749   2.035   1.533
 5475TIP3    H116389   0.751   2.131   1.526
 5475TIP3    H216390   0.676   2.018   1.593
 5476TIP3   OH216391   1.394   0.911   0.666
 5476TIP3    H116392   1.399   0.821   0.633
 5476TIP3    H216393   1.485   0.941   0.668
 5477TIP3   OH216394   5.542   3.768   4.750
 5477TIP3    H116395   5.613   3.772   4.686
 5477TIP3    H216396   5.483   3.839   4.724
 5478TIP3   OH216397   6.793   6.208   5.146
 5478TIP3    H116398   6.771   6.280   5.086
 5478TIP3    H216399   6.865   6.162   5.103
 5479TIP3   OH216400   3.484   0.313   3.697
 5479TIP3    H116401   3.427   0.372   3.649
 5479TIP3    H216402   3.454   0.318   3.788
 5480TIP3   OH216403   5.507   4.104   1.114
 5480TIP3    H116404   5.594   4.142   1.127
 5480TIP3    H216405   5.512   4.063   1.028
 5481TIP3   OH216406   4.328   1.243   0.618
 5481TIP3    H116407   4.349   1.332   0.646
 5481TIP3    H216408   4.296   1.252   0.528
 5482TIP3   OH216409   6.632   5.814   4.957
 5482TIP3    H116410   6.598   5.808   4.868
 5482TIP3    H216411   6.704   5.750   4.959
 5483TIP3   OH216412   4.846   0.564   3.930
 5483TIP3    H116413   4.889   0.479   3.927
 5483TIP3    H216414   4.763   0.552   3.885
 5484TIP3   OH216415   0.120   1.812   1.243
 5484TIP3    H116416   0.152   1.897   1.273
 5484TIP3    H216417   0.199   1.759   1.232
 5485TIP3   OH216418   2.566   1.817   2.675
 5485TIP3    H116419   2.642   1.766   2.704
 5485TIP3    H216420   2.497   1.752   2.663
 5486TIP3   OH216421   2.224   0.027   0.870
 5486TIP3    H116422   2.233  -0.063   0.904
 5486TIP3    H216423   2.203   0.079   0.947
 5487TIP3   OH216424   4.789   0.285   3.859
 5487TIP3    H116425   4.748   0.199   3.859
 5487TIP3    H216426   4.795   0.310   3.767
 5488TIP3   OH216427   5.989   3.916   1.950
 5488TIP3    H116428   5.960   3.951   2.035
 5488TIP3    H216429   6.084   3.926   1.951
 5489TIP3   OH216430   1.074   2.450   3.293
 5489TIP3    H116431   1.122   2.532   3.284
 5489TIP3    H216432   1.133   2.384   3.258
 5490TIP3   OH216433   5.319   2.624   1.453
 5490TIP3    H116434   5.239   2.577   1.475
 5490TIP3    H216435   5.290   2.710   1.423
 5491TIP3   OH216436   7.108   6.644   3.003
 5491TIP3    H116437   7.102   6.695   2.922
 5491TIP3    H216438   7.038   6.580   2.997
 5492TIP3   OH216439   6.565   0.107   5.263
 5492TIP3    H116440   6.522   0.033   5.307
 5492TIP3    H216441   6.555   0.180   5.324
 5493TIP3   OH216442   3.040   6.446   1.329
 5493TIP3    H116443   2.964   6.486   1.286
 5493TIP3    H216444   3.015   6.440   1.421
 5494TIP3   OH216445   5.431   0.804   2.649
 5494TIP3    H116446   5.467   0.818   2.562
 5494TIP3    H216447   5.363   0.872   2.658
 5495TIP3   OH216448   5.811   2.488   4.370
 5495TIP3    H116449   5.844   2.567   4.412
 5495TIP3    H216450   5.884   2.456   4.317
 5496TIP3   OH216451   4.393   0.124   4.218
 5496TIP3    H116452   4.402   0.035   4.184
 5496TIP3    H216453   4.364   0.112   4.309
 5497TIP3   OH216454   0.503   6.167   1.457
 5497TIP3    H116455   0.453   6.237   1.414
 5497TIP3    H216456   0.442   6.093   1.462
 5498TIP3   OH216457   2.920   6.174   5.525
 5498TIP3    H116458   3.000   6.154   5.476
 5498TIP3    H216459   2.921   6.112   5.598
 5499TIP3   OH216460   3.672   5.524   4.493
 5499TIP3    H116461   3.658   5.442   4.539
 5499TIP3    H216462   3.629   5.512   4.408
 5500TIP3   OH216463   5.350   3.822   0.093
 5500TIP3    H116464   5.295   3.884   0.140
 5500TIP3    H216465   5.401   3.779   0.162
 5501TIP3   OH216466   5.018   1.955   2.687
 5501TIP3    H116467   5.048   2.046   2.689
 5501TIP3    H216468   5.089   1.906   2.729
 5502TIP3   OH216469   0.433   4.549   0.088
 5502TIP3    H116470   0.366   4.592   0.034
 5502TIP3    H216471   0.386   4.480   0.134
 5503TIP3   OH216472   1.581   2.624   2.451
 5503TIP3    H116473   1.494   2.650   2.478
 5503TIP3    H216474   1.593   2.667   2.366
 5504TIP3   OH216475   7.002   3.518   2.606
 5504TIP3    H116476   6.978   3.450   2.670
 5504TIP3    H216477   7.097   3.525   2.613
 5505TIP3   OH216478   0.275   6.728   4.902
 5505TIP3    H116479   0.202   6.665   4.906
 5505TIP3    H216480   0.353   6.674   4.910
 5506TIP3   OH216481   1.678   4.699   0.746
 5506TIP3    H116482   1.742   4.629   0.757
 5506TIP3    H216483   1.701   4.764   0.812
 5507TIP3   OH216484   1.131   4.712   1.631
 5507TIP3    H116485   1.090   4.793   1.662
 5507TIP3    H216486   1.065   4.644   1.645
 5508TIP3   OH216487   6.566   6.419   0.068
 5508TIP3    H116488   6.592   6.338   0.112
 5508TIP3    H216489   6.545   6.480   0.139
 5509TIP3   OH216490   3.572   4.600   0.158
 5509TIP3    H116491   3.481   4.614   0.129
 5509TIP3    H216492   3.623   4.604   0.078
 5510TIP3   OH216493   3.930   5.868   3.516
 5510TIP3    H116494   3.934   5.852   3.611
 5510TIP3    H216495   3.989   5.802   3.479
 5511TIP3   OH216496   6.666   0.966   4.703
 5511TIP3    H116497   6.614   0.887   4.693
 5511TIP3    H216498   6.753   0.943   4.670
 5512TIP3   OH216499   6.184   0.587   0.587
 5512TIP3    H116500   6.113   0.548   0.637
 5512TIP3    H216501   6.154   0.675   0.567
 5513TIP3   OH216502   2.651   5.755   3.294
 5513TIP3    H116503   2.744   5.762   3.317
 5513TIP3    H216504   2.613   5.839   3.321
 5514TIP3   OH216505   5.454   6.131   0.469
 5514TIP3    H116506   5.392   6.060   0.457
 5514TIP3    H216507   5.408   6.195   0.523
 5515TIP3   OH216508   4.187   4.363   1.277
 5515TIP3    H116509   4.217   4.446   1.238
 5515TIP3    H216510   4.250   4.347   1.347
 5516TIP3   OH216511   7.151   0.936   5.679
 5516TIP3    H116512   7.211   0.978   5.617
 5516TIP3    H216513   7.170   0.842   5.670
 5517TIP3   OH216514   6.648   4.116   5.251
 5517TIP3    H116515   6.617   4.036   5.209
 5517TIP3    H216516   6.573   4.176   5.248
 5518TIP3   OH216517   3.364   2.358   1.678
 5518TIP3    H116518   3.440   2.301   1.668
 5518TIP3    H216519   3.289   2.298   1.674
 5519TIP3   OH216520   4.962   3.224   0.663
 5519TIP3    H116521   5.018   3.228   0.740
 5519TIP3    H216522   4.881   3.183   0.694
 5520TIP3   OH216523   3.343   1.221   2.122
 5520TIP3    H116524   3.401   1.271   2.180
 5520TIP3    H216525   3.392   1.213   2.040
 5521TIP3   OH216526   5.076   5.452   1.961
 5521TIP3    H116527   5.105   5.398   1.887
 5521TIP3    H216528   5.091   5.542   1.932
 5522TIP3   OH216529   5.946   0.158   5.262
 5522TIP3    H116530   6.022   0.111   5.227
 5522TIP3    H216531   5.894   0.180   5.185
 5523TIP3   OH216532   2.601   4.015   1.030
 5523TIP3    H116533   2.681   4.052   0.993
 5523TIP3    H216534   2.592   3.930   0.987
 5524TIP3   OH216535   5.554   2.896   4.901
 5524TIP3    H116536   5.468   2.938   4.899
 5524TIP3    H216537   5.539   2.809   4.865
 5525TIP3   OH216538   6.242   4.577   4.747
 5525TIP3    H116539   6.203   4.641   4.807
 5525TIP3    H216540   6.214   4.607   4.660
 5526TIP3   OH216541   5.213   0.656   0.914
 5526TIP3    H116542   5.281   0.629   0.852
 5526TIP3    H216543   5.136   0.673   0.859
 5527TIP3   OH216544   4.885   1.346   0.315
 5527TIP3    H116545   4.810   1.406   0.313
 5527TIP3    H216546   4.869   1.290   0.391
 5528TIP3   OH216547   1.729   0.653   2.240
 5528TIP3    H116548   1.637   0.633   2.224
 5528TIP3    H216549   1.777   0.593   2.184
 5529TIP3   OH216550   4.132   3.998   2.331
 5529TIP3    H116551   4.193   3.985   2.258
 5529TIP3    H216552   4.052   4.030   2.289
 5530TIP3   OH216553   1.799   4.589   3.260
 5530TIP3    H116554   1.879   4.631   3.290
 5530TIP3    H216555   1.737   4.602   3.332
 5531TIP3   OH216556   5.253   4.042   5.695
 5531TIP3    H116557   5.189   4.027   5.764
 5531TIP3    H216558   5.225   3.985   5.623
 5532TIP3   OH216559   3.144   4.282   3.519
 5532TIP3    H116560   3.088   4.333   3.462
 5532TIP3    H216561   3.193   4.224   3.460
 5533TIP3   OH216562   6.994   0.349   5.405
 5533TIP3    H116563   7.071   0.400   5.429
 5533TIP3    H216564   6.967   0.384   5.320
 5534TIP3   OH216565   3.801   4.926   2.597
 5534TIP3    H116566   3.778   4.851   2.543
 5534TIP3    H216567   3.762   4.907   2.682
 5535TIP3   OH216568   4.526   4.796   1.533
 5535TIP3    H116569   4.616   4.765   1.525
 5535TIP3    H216570   4.526   4.848   1.614
 5536TIP3   OH216571   1.561   1.702   1.479
 5536TIP3    H116572   1.569   1.607   1.485
 5536TIP3    H216573   1.625   1.728   1.412
 5537TIP3   OH216574   2.428   2.956   5.603
 5537TIP3    H116575   2.337   2.945   5.574
 5537TIP3    H216576   2.420   2.994   5.691
 5538TIP3   OH216577   4.419   5.323   4.761
 5538TIP3    H116578   4.470   5.242   4.770
 5538TIP3    H216579   4.396   5.346   4.851
 5539TIP3   OH216580   2.501   3.266   5.714
 5539TIP3    H116581   2.564   3.216   5.662
 5539TIP3    H216582   2.460   3.326   5.652
 5540TIP3   OH216583   1.757   4.089   4.001
 5540TIP3    H116584   1.726   4.008   3.961
 5540TIP3    H216585   1.853   4.083   3.997
 5541TIP3   OH216586   6.737   1.487   2.579
 5541TIP3    H116587   6.676   1.469   2.651
 5541TIP3    H216588   6.772   1.574   2.599
 5542TIP3   OH216589   1.488   1.444   0.405
 5542TIP3    H116590   1.526   1.403   0.328
 5542TIP3    H216591   1.541   1.522   0.420
 5543TIP3   OH216592   0.480   4.083   1.923
 5543TIP3    H116593   0.489   4.082   1.827
 5543TIP3    H216594   0.389   4.060   1.939
 5544TIP3   OH216595   1.695   1.988   4.162
 5544TIP3    H116596   1.665   1.956   4.077
 5544TIP3    H216597   1.675   1.917   4.223
 5545TIP3   OH216598   3.366   2.723   5.004
 5545TIP3    H116599   3.418   2.786   4.954
 5545TIP3    H216600   3.277   2.732   4.969
 5546TIP3   OH216601   3.155   3.618   4.270
 5546TIP3    H116602   3.148   3.711   4.245
 5546TIP3    H216603   3.108   3.613   4.354
 5547TIP3   OH216604   4.704   4.808   4.151
 5547TIP3    H116605   4.709   4.867   4.226
 5547TIP3    H216606   4.651   4.735   4.181
 5548TIP3   OH216607   1.887   2.725   5.754
 5548TIP3    H116608   1.876   2.702   5.661
 5548TIP3    H216609   1.947   2.799   5.753
 5549TIP3   OH216610   0.352   6.028   0.894
 5549TIP3    H116611   0.422   6.094   0.892
 5549TIP3    H216612   0.282   6.069   0.945
 5550TIP3   OH216613   5.365   3.061   4.538
 5550TIP3    H116614   5.458   3.071   4.517
 5550TIP3    H216615   5.353   2.966   4.545
 5551TIP3   OH216616   2.460   5.566   4.096
 5551TIP3    H116617   2.426   5.616   4.169
 5551TIP3    H216618   2.487   5.632   4.032
 5552TIP3   OH216619   2.445   6.012   2.596
 5552TIP3    H116620   2.474   5.921   2.602
 5552TIP3    H216621   2.369   6.017   2.654
 5553TIP3   OH216622   7.014   0.227   3.887
 5553TIP3    H116623   6.963   0.307   3.896
 5553TIP3    H216624   7.068   0.225   3.966
 5554TIP3   OH216625   1.464   5.983   0.436
 5554TIP3    H116626   1.481   6.001   0.529
 5554TIP3    H216627   1.536   5.926   0.409
 5555TIP3   OH216628   2.855   4.785   0.558
 5555TIP3    H116629   2.785   4.825   0.507
 5555TIP3    H216630   2.932   4.839   0.543
 5556TIP3   OH216631   1.824   3.262   3.193
 5556TIP3    H116632   1.783   3.179   3.220
 5556TIP3    H216633   1.815   3.318   3.270
 5557TIP3   OH216634   0.920   2.148   5.227
 5557TIP3    H116635   0.855   2.188   5.170
 5557TIP3    H216636   0.888   2.058   5.240
 5558TIP3   OH216637   3.622   5.415   1.815
 5558TIP3    H116638   3.587   5.418   1.726
 5558TIP3    H216639   3.695   5.353   1.809
 5559TIP3   OH216640   5.737   4.896   1.784
 5559TIP3    H116641   5.810   4.843   1.815
 5559TIP3    H216642   5.682   4.907   1.861
 5560TIP3   OH216643   1.417   6.137   1.247
 5560TIP3    H116644   1.470   6.174   1.176
 5560TIP3    H216645   1.427   6.043   1.237
 5561TIP3   OH216646   6.700   2.044   3.438
 5561TIP3    H116647   6.765   2.002   3.382
 5561TIP3    H216648   6.686   2.130   3.397
 5562TIP3   OH216649   1.870   3.911   1.718
 5562TIP3    H116650   1.803   3.864   1.769
 5562TIP3    H216651   1.889   3.989   1.771
 5563TIP3   OH216652   5.224   3.840   2.850
 5563TIP3    H116653   5.165   3.845   2.924
 5563TIP3    H216654   5.194   3.763   2.800
 5564TIP3   OH216655   5.905   3.275   0.668
 5564TIP3    H116656   5.969   3.250   0.601
 5564TIP3    H216657   5.950   3.341   0.721
 5565TIP3   OH216658   5.697   4.484   0.443
 5565TIP3    H116659   5.742   4.401   0.457
 5565TIP3    H216660   5.694   4.525   0.530
 5566TIP3   OH216661   0.236   4.589   2.422
 5566TIP3    H116662   0.324   4.599   2.458
 5566TIP3    H216663   0.203   4.508   2.460
 5567TIP3   OH216664   2.909   5.839   5.085
 5567TIP3    H116665   2.949   5.779   5.022
 5567TIP3    H216666   2.822   5.857   5.050
 5568TIP3   OH216667   6.913   3.305   3.872
 5568TIP3    H116668   7.005   3.314   3.845
 5568TIP3    H216669   6.864   3.308   3.790
 5569TIP3   OH216670   2.099   6.565   1.340
 5569TIP3    H116671   2.194   6.570   1.355
 5569TIP3    H216672   2.079   6.645   1.291
 5570TIP3   OH216673   5.095   5.072   1.871
 5570TIP3    H116674   5.098   5.147   1.811
 5570TIP3    H216675   5.001   5.058   1.886
 5571TIP3   OH216676   1.521   1.713   1.891
 5571TIP3    H116677   1.433   1.685   1.920
 5571TIP3    H216678   1.559   1.634   1.853
 5572TIP3   OH216679   7.080   3.716   2.177
 5572TIP3    H116680   7.109   3.632   2.213
 5572TIP3    H216681   7.081   3.704   2.082
 5573TIP3   OH216682   1.626   4.930   1.707
 5573TIP3    H116683   1.632   4.948   1.801
 5573TIP3    H216684   1.574   4.850   1.701
 5574TIP3   OH216685   1.433   1.750   0.913
 5574TIP3    H116686   1.340   1.735   0.925
 5574TIP3    H216687   1.472   1.662   0.920
 5575TIP3   OH216688   4.100   1.562   5.523
 5575TIP3    H116689   4.059   1.495   5.578
 5575TIP3    H216690   4.040   1.637   5.529
 5576TIP3   OH216691   0.831   5.423   3.176
 5576TIP3    H116692   0.892   5.450   3.245
 5576TIP3    H216693   0.883   5.365   3.120
 5577TIP3   OH216694   2.613   3.464   0.467
 5577TIP3    H116695   2.694   3.414   0.476
 5577TIP3    H216696   2.545   3.405   0.499
 5578TIP3   OH216697   2.521   0.485   4.351
 5578TIP3    H116698   2.609   0.492   4.315
 5578TIP3    H216699   2.500   0.392   4.347
 5579TIP3   OH216700   3.104   5.934   3.010
 5579TIP3    H116701   3.052   5.904   2.936
 5579TIP3    H216702   3.093   6.029   3.010
 5580TIP3   OH216703   1.282   5.105   0.442
 5580TIP3    H116704   1.230   5.109   0.523
 5580TIP3    H216705   1.217   5.112   0.372
 5581TIP3   OH216706   6.141   2.435   5.762
 5581TIP3    H116707   6.138   2.352   5.809
 5581TIP3    H216708   6.096   2.497   5.819
 5582TIP3   OH216709   5.465   4.167   5.217
 5582TIP3    H116710   5.524   4.241   5.229
 5582TIP3    H216711   5.391   4.185   5.275
 5583TIP3   OH216712   2.546   6.525   5.015
 5583TIP3    H116713   2.574   6.569   4.935
 5583TIP3    H216714   2.452   6.542   5.021
 5584TIP3   OH216715   1.533   1.191   3.180
 5584TIP3    H116716   1.595   1.262   3.201
 5584TIP3    H216717   1.518   1.200   3.086
 5585TIP3   OH216718   0.615   5.566   4.229
 5585TIP3    H116719   0.647   5.625   4.161
 5585TIP3    H216720   0.668   5.586   4.305
 5586TIP3   OH216721   2.922   4.389   3.714
 5586TIP3    H116722   2.869   4.462   3.745
 5586TIP3    H216723   2.945   4.412   3.623
 5587TIP3   OH216724   6.699   2.267   4.634
 5587TIP3    H116725   6.765   2.307   4.690
 5587TIP3    H216726   6.719   2.299   4.546
 5588TIP3   OH216727   3.847   1.147   2.641
 5588TIP3    H116728   3.754   1.162   2.659
 5588TIP3    H216729   3.862   1.057   2.667
 5589TIP3   OH216730   7.156   5.052   1.134
 5589TIP3    H116731   7.101   5.115   1.181
 5589TIP3    H216732   7.097   4.981   1.109
 5590TIP3   OH216733   4.555   5.496   4.984
 5590TIP3    H116734   4.597   5.511   5.069
 5590TIP3    H216735   4.471   5.456   5.006
 5591TIP3   OH216736   2.335   4.871   2.114
 5591TIP3    H116737   2.366   4.920   2.190
 5591TIP3    H216738   2.245   4.845   2.137
 5592TIP3   OH216739   4.399   0.802   1.764
 5592TIP3    H116740   4.336   0.873   1.774
 5592TIP3    H216741   4.434   0.814   1.676
 5593TIP3   OH216742   4.427   3.846   2.808
 5593TIP3    H116743   4.505   3.857   2.754
 5593TIP3    H216744   4.378   3.928   2.797
 5594TIP3   OH216745   0.370   5.842   5.779
 5594TIP3    H116746   0.404   5.893   5.853
 5594TIP3    H216747   0.363   5.905   5.708
 5595TIP3   OH216748   5.642   2.695   4.195
 5595TIP3    H116749   5.635   2.668   4.103
 5595TIP3    H216750   5.556   2.673   4.232
 5596TIP3   OH216751   0.744   2.778   1.050
 5596TIP3    H116752   0.705   2.816   1.129
 5596TIP3    H216753   0.770   2.690   1.076
 5597TIP3   OH216754   6.610   4.489   3.167
 5597TIP3    H116755   6.698   4.464   3.141
 5597TIP3    H216756   6.591   4.434   3.243
 5598TIP3   OH216757   7.160   3.442   1.349
 5598TIP3    H116758   7.126   3.475   1.265
 5598TIP3    H216759   7.252   3.420   1.331
 5599TIP3   OH216760   5.313   6.625   5.398
 5599TIP3    H116761   5.310   6.631   5.493
 5599TIP3    H216762   5.246   6.561   5.375
 5600TIP3   OH216763   3.407   6.312   4.105
 5600TIP3    H116764   3.455   6.341   4.182
 5600TIP3    H216765   3.401   6.217   4.115
 5601TIP3   OH216766   2.153   6.316   2.173
 5601TIP3    H116767   2.150   6.237   2.226
 5601TIP3    H216768   2.077   6.309   2.115
 5602TIP3   OH216769   1.371   4.845   5.715
 5602TIP3    H116770   1.441   4.834   5.780
 5602TIP3    H216771   1.415   4.887   5.641
 5603TIP3   OH216772   4.054   5.716   2.721
 5603TIP3    H116773   3.962   5.730   2.744
 5603TIP3    H216774   4.077   5.793   2.669
 5604TIP3   OH216775   1.911   5.819   2.811
 5604TIP3    H116776   1.931   5.900   2.858
 5604TIP3    H216777   1.968   5.821   2.734
 5605TIP3   OH216778   6.759   5.505   3.266
 5605TIP3    H116779   6.665   5.521   3.257
 5605TIP3    H216780   6.800   5.587   3.238
 5606TIP3   OH216781   4.703   2.424   5.000
 5606TIP3    H116782   4.668   2.362   5.064
 5606TIP3    H216783   4.789   2.448   5.035
 5607TIP3   OH216784   6.894   2.142   5.158
 5607TIP3    H116785   6.978   2.115   5.195
 5607TIP3    H216786   6.856   2.061   5.125
 5608TIP3   OH216787   3.054   1.108   2.161
 5608TIP3    H116788   3.148   1.117   2.175
 5608TIP3    H216789   3.023   1.059   2.237
 5609TIP3   OH216790   6.527   2.248   3.818
 5609TIP3    H116791   6.515   2.242   3.913
 5609TIP3    H216792   6.546   2.340   3.802
 5610TIP3   OH216793   5.172   3.225   2.678
 5610TIP3    H116794   5.167   3.144   2.627
 5610TIP3    H216795   5.111   3.285   2.634
 5611TIP3   OH216796   7.170   2.837   4.346
 5611TIP3    H116797   7.262   2.819   4.326
 5611TIP3    H216798   7.127   2.840   4.261
 5612TIP3   OH216799   0.924   1.989   0.440
 5612TIP3    H116800   0.914   1.900   0.473
 5612TIP3    H216801   1.008   1.989   0.394
 5613TIP3   OH216802   5.580   5.460   1.605
 5613TIP3    H116803   5.590   5.451   1.510
 5613TIP3    H216804   5.647   5.524   1.630
 5614TIP3   OH216805   5.437   6.101   5.031
 5614TIP3    H116806   5.478   6.079   4.947
 5614TIP3    H216807   5.393   6.020   5.058
 5615TIP3   OH216808   4.293   6.428   0.250
 5615TIP3    H116809   4.304   6.414   0.344
 5615TIP3    H216810   4.256   6.345   0.218
 5616TIP3   OH216811   0.578   1.638   0.279
 5616TIP3    H116812   0.539   1.725   0.284
 5616TIP3    H216813   0.579   1.607   0.370
 5617TIP3   OH216814   3.473   5.623   1.061
 5617TIP3    H116815   3.541   5.690   1.054
 5617TIP3    H216816   3.398   5.659   1.014
 5618TIP3   OH216817   7.138   6.246   0.763
 5618TIP3    H116818   7.210   6.254   0.699
 5618TIP3    H216819   7.078   6.317   0.740
 5619TIP3   OH216820   3.447   3.481   5.391
 5619TIP3    H116821   3.404   3.474   5.477
 5619TIP3    H216822   3.386   3.533   5.338
 5620TIP3   OH216823   3.136   6.258   1.149
 5620TIP3    H116824   3.105   6.329   1.205
 5620TIP3    H216825   3.062   6.199   1.141
 5621TIP3   OH216826   1.047   0.872   5.897
 5621TIP3    H116827   1.038   0.962   5.866
 5621TIP3    H216828   0.959   0.834   5.887
 5622TIP3   OH216829   1.037   0.789   1.648
 5622TIP3    H116830   1.045   0.821   1.559
 5622TIP3    H216831   0.943   0.776   1.661
 5623TIP3   OH216832   5.203   3.155   1.516
 5623TIP3    H116833   5.282   3.100   1.520
 5623TIP3    H216834   5.139   3.100   1.470
 5624TIP3   OH216835   2.479   3.880   0.629
 5624TIP3    H116836   2.433   3.943   0.684
 5624TIP3    H216837   2.518   3.933   0.559
 5625TIP3   OH216838   6.120   5.165   0.287
 5625TIP3    H116839   6.130   5.258   0.264
 5625TIP3    H216840   6.059   5.166   0.361
 5626TIP3   OH216841   0.424   3.569   5.798
 5626TIP3    H116842   0.470   3.642   5.758
 5626TIP3    H216843   0.370   3.533   5.728
 5627TIP3   OH216844   6.395   3.108   0.757
 5627TIP3    H116845   6.412   3.122   0.850
 5627TIP3    H216846   6.332   3.036   0.755
 5628TIP3   OH216847   3.849   0.177   5.644
 5628TIP3    H116848   3.754   0.181   5.652
 5628TIP3    H216849   3.866   0.095   5.598
 5629TIP3   OH216850   2.887   5.798   0.581
 5629TIP3    H116851   2.801   5.829   0.611
 5629TIP3    H216852   2.872   5.768   0.491
 5630TIP3   OH216853   6.459   3.352   1.636
 5630TIP3    H116854   6.514   3.309   1.701
 5630TIP3    H216855   6.370   3.328   1.661
 5631TIP3   OH216856   3.617   3.431   2.913
 5631TIP3    H116857   3.576   3.504   2.866
 5631TIP3    H216858   3.553   3.407   2.980
 5632TIP3   OH216859   1.302   1.494   1.328
 5632TIP3    H116860   1.210   1.495   1.353
 5632TIP3    H216861   1.324   1.586   1.313
 5633TIP3   OH216862   6.562   1.271   4.431
 5633TIP3    H116863   6.563   1.306   4.342
 5633TIP3    H216864   6.548   1.177   4.420
 5634TIP3   OH216865   4.983   2.916   5.402
 5634TIP3    H116866   4.943   2.834   5.432
 5634TIP3    H216867   5.022   2.893   5.317
 5635TIP3   OH216868   6.230   6.599   3.717
 5635TIP3    H116869   6.233   6.505   3.731
 5635TIP3    H216870   6.137   6.622   3.730
 5636TIP3   OH216871   1.382   4.449   5.488
 5636TIP3    H116872   1.330   4.511   5.540
 5636TIP3    H216873   1.443   4.411   5.551
 5637TIP3   OH216874   4.127   5.702   3.806
 5637TIP3    H116875   4.194   5.769   3.793
 5637TIP3    H216876   4.047   5.751   3.823
 5638TIP3   OH216877   1.235   6.716   3.351
 5638TIP3    H116878   1.173   6.725   3.423
 5638TIP3    H216879   1.181   6.709   3.272
 5639TIP3   OH216880   3.857   1.788   1.160
 5639TIP3    H116881   3.948   1.802   1.186
 5639TIP3    H216882   3.817   1.875   1.167
 5640TIP3   OH216883   4.111   1.539   5.257
 5640TIP3    H116884   4.036   1.486   5.230
 5640TIP3    H216885   4.118   1.525   5.351
 5641TIP3   OH216886   6.479   5.281   0.316
 5641TIP3    H116887   6.456   5.223   0.389
 5641TIP3    H216888   6.512   5.360   0.358
 5642TIP3   OH216889   4.833   2.962   3.122
 5642TIP3    H116890   4.779   3.006   3.187
 5642TIP3    H216891   4.850   3.030   3.056
 5643TIP3   OH216892   6.465   2.395   5.279
 5643TIP3    H116893   6.528   2.436   5.338
 5643TIP3    H216894   6.519   2.355   5.210
 5644TIP3   OH216895   2.795   6.272   5.755
 5644TIP3    H116896   2.863   6.255   5.820
 5644TIP3    H216897   2.841   6.272   5.672
 5645TIP3   OH216898   1.885   0.542   5.059
 5645TIP3    H116899   1.820   0.583   5.003
 5645TIP3    H216900   1.836   0.514   5.137
 5646TIP3   OH216901   4.126   3.541   2.072
 5646TIP3    H116902   4.036   3.515   2.056
 5646TIP3    H216903   4.178   3.490   2.011
 5647TIP3   OH216904   0.781   2.591   2.889
 5647TIP3    H116905   0.770   2.617   2.980
 5647TIP3    H216906   0.855   2.530   2.890
 5648TIP3   OH216907   1.254   2.227   3.246
 5648TIP3    H116908   1.253   2.188   3.333
 5648TIP3    H216909   1.217   2.159   3.189
 5649TIP3   OH216910   2.282   3.608   4.877
 5649TIP3    H116911   2.317   3.593   4.964
 5649TIP3    H216912   2.353   3.651   4.829
 5650TIP3   OH216913   3.465   6.707   3.935
 5650TIP3    H116914   3.402   6.636   3.941
 5650TIP3    H216915   3.476   6.722   3.841
 5651TIP3   OH216916   6.136   2.936   3.886
 5651TIP3    H116917   6.104   3.013   3.932
 5651TIP3    H216918   6.059   2.880   3.876
 5652TIP3   OH216919   6.727   4.201   0.915
 5652TIP3    H116920   6.661   4.183   0.982
 5652TIP3    H216921   6.710   4.136   0.846
 5653TIP3   OH216922   0.694   3.948   1.505
 5653TIP3    H116923   0.713   3.855   1.490
 5653TIP3    H216924   0.746   3.993   1.439
 5654TIP3   OH216925   0.346   3.626   1.716
 5654TIP3    H116926   0.362   3.577   1.636
 5654TIP3    H216927   0.253   3.609   1.736
 5655TIP3   OH216928   3.871   4.834   1.219
 5655TIP3    H116929   3.800   4.866   1.276
 5655TIP3    H216930   3.894   4.910   1.165
 5656TIP3   OH216931   1.196   6.520   4.673
 5656TIP3    H116932   1.264   6.459   4.645
 5656TIP3    H216933   1.153   6.548   4.592
 5657TIP3   OH216934   2.694   5.412   5.855
 5657TIP3    H116935   2.675   5.446   5.768
 5657TIP3    H216936   2.661   5.322   5.853
 5658TIP3   OH216937   1.631   1.441   1.440
 5658TIP3    H116938   1.724   1.464   1.432
 5658TIP3    H216939   1.623   1.360   1.390
 5659TIP3   OH216940   4.020   4.750   0.894
 5659TIP3    H116941   4.034   4.681   0.829
 5659TIP3    H216942   3.990   4.825   0.842
 5660TIP3   OH216943   5.888   4.562   0.202
 5660TIP3    H116944   5.963   4.503   0.213
 5660TIP3    H216945   5.861   4.584   0.291
 5661TIP3   OH216946   5.833   6.665   5.619
 5661TIP3    H116947   5.809   6.575   5.596
 5661TIP3    H216948   5.791   6.680   5.703
 5662TIP3   OH216949   5.450   4.234   2.733
 5662TIP3    H116950   5.436   4.232   2.827
 5662TIP3    H216951   5.448   4.142   2.706
 5663TIP3   OH216952   6.689   4.748   2.108
 5663TIP3    H116953   6.678   4.824   2.051
 5663TIP3    H216954   6.647   4.676   2.060
 5664TIP3   OH216955   0.872   2.226   5.799
 5664TIP3    H116956   0.850   2.135   5.783
 5664TIP3    H216957   0.872   2.267   5.713
 5665TIP3   OH216958   1.703   3.592   5.212
 5665TIP3    H116959   1.638   3.603   5.281
 5665TIP3    H216960   1.787   3.589   5.259
 5666TIP3   OH216961   2.532   3.206   1.221
 5666TIP3    H116962   2.583   3.281   1.191
 5666TIP3    H216963   2.441   3.237   1.221
 5667TIP3   OH216964   1.183   0.721   3.801
 5667TIP3    H116965   1.130   0.781   3.853
 5667TIP3    H216966   1.188   0.642   3.855
 5668TIP3   OH216967   1.035   0.261   0.387
 5668TIP3    H116968   1.129   0.259   0.406
 5668TIP3    H216969   1.022   0.193   0.321
 5669TIP3   OH216970   3.508   3.001   4.136
 5669TIP3    H116971   3.436   2.941   4.118
 5669TIP3    H216972   3.476   3.056   4.208
 5670TIP3   OH216973   0.301   5.935   1.436
 5670TIP3    H116974   0.269   5.977   1.516
 5670TIP3    H216975   0.233   5.952   1.371
 5671TIP3   OH216976   3.930   3.228   4.179
 5671TIP3    H116977   3.857   3.270   4.225
 5671TIP3    H216978   3.897   3.216   4.090
 5672TIP3   OH216979   4.707   3.079   4.694
 5672TIP3    H116980   4.735   2.988   4.708
 5672TIP3    H216981   4.652   3.099   4.770
 5673TIP3   OH216982   3.740   2.562   0.303
 5673TIP3    H116983   3.728   2.632   0.368
 5673TIP3    H216984   3.692   2.592   0.226
 5674TIP3   OH216985   3.275   3.294   0.556
 5674TIP3    H116986   3.252   3.292   0.463
 5674TIP3    H216987   3.345   3.230   0.565
 5675TIP3   OH216988   5.827   3.714   0.234
 5675TIP3    H116989   5.802   3.775   0.164
 5675TIP3    H216990   5.743   3.684   0.270
 5676TIP3   OH216991   1.813   0.076   4.729
 5676TIP3    H116992   1.793   0.146   4.667
 5676TIP3    H216993   1.895   0.104   4.770
 5677TIP3   OH216994   3.244   4.070   0.320
 5677TIP3    H116995   3.333   4.054   0.353
 5677TIP3    H216996   3.194   4.096   0.398
 5678TIP3   OH216997   2.509   4.127   3.385
 5678TIP3    H116998   2.458   4.112   3.306
 5678TIP3    H216999   2.561   4.047   3.396
 5679TIP3   OH217000   3.809   0.717   3.327
 5679TIP3    H117001   3.828   0.778   3.399
 5679TIP3    H217002   3.892   0.671   3.312
 5680TIP3   OH217003   6.408   1.917   2.934
 5680TIP3    H117004   6.334   1.863   2.904
 5680TIP3    H217005   6.457   1.859   2.992
 5681TIP3   OH217006   0.521   3.406   3.908
 5681TIP3    H117007   0.560   3.378   3.825
 5681TIP3    H217008   0.427   3.409   3.890
 5682TIP3   OH217009   5.000   5.874   2.492
 5682TIP3    H117010   5.039   5.788   2.509
 5682TIP3    H217011   5.059   5.936   2.535
 5683TIP3   OH217012   2.591   1.525   4.869
 5683TIP3    H117013   2.604   1.495   4.779
 5683TIP3    H217014   2.675   1.566   4.893
 5684TIP3   OH217015   5.866   3.375   1.976
 5684TIP3    H117016   5.911   3.429   1.911
 5684TIP3    H217017   5.777   3.367   1.943
 5685TIP3   OH217018   5.234   6.556   2.924
 5685TIP3    H117019   5.251   6.530   2.834
 5685TIP3    H217020   5.315   6.536   2.971
 5686TIP3   OH217021   0.525   5.887   2.313
 5686TIP3    H117022   0.448   5.865   2.365
 5686TIP3    H217023   0.583   5.934   2.374
 5687TIP3   OH217024   4.744   0.765   5.120
 5687TIP3    H117025   4.728   0.854   5.154
 5687TIP3    H217026   4.811   0.777   5.053
 5688TIP3   OH217027   2.155   2.386   5.221
 5688TIP3    H117028   2.229   2.373   5.281
 5688TIP3    H217029   2.192   2.376   5.134
 5689TIP3   OH217030   4.060   5.586   1.653
 5689TIP3    H117031   4.077   5.502   1.610
 5689TIP3    H217032   4.120   5.647   1.610
 5690TIP3   OH217033   6.761   4.446   1.955
 5690TIP3    H117034   6.848   4.441   1.914
 5690TIP3    H217035   6.727   4.356   1.949
 5691TIP3   OH217036   2.691   3.368   0.091
 5691TIP3    H117037   2.684   3.447   0.036
 5691TIP3    H217038   2.607   3.363   0.136
 5692TIP3   OH217039   5.886   0.181   2.660
 5692TIP3    H117040   5.931   0.167   2.577
 5692TIP3    H217041   5.833   0.103   2.672
 5693TIP3   OH217042   2.109   4.751   5.153
 5693TIP3    H117043   2.081   4.737   5.063
 5693TIP3    H217044   2.197   4.714   5.157
 5694TIP3   OH217045   1.021   3.469   2.521
 5694TIP3    H117046   0.988   3.380   2.532
 5694TIP3    H217047   1.007   3.488   2.428
 5695TIP3   OH217048   0.468   1.595   1.761
 5695TIP3    H117049   0.502   1.648   1.688
 5695TIP3    H217050   0.383   1.565   1.730
 5696TIP3   OH217051   6.411   4.329   1.947
 5696TIP3    H117052   6.412   4.410   1.894
 5696TIP3    H217053   6.492   4.285   1.924
 5697TIP3   OH217054   6.107   2.819   2.387
 5697TIP3    H117055   6.067   2.878   2.323
 5697TIP3    H217056   6.074   2.732   2.363
 5698TIP3   OH217057   6.987   6.052   5.039
 5698TIP3    H117058   6.948   5.983   5.092
 5698TIP3    H217059   7.055   6.008   4.988
 5699TIP3   OH217060   6.755   2.051   0.714
 5699TIP3    H117061   6.749   2.111   0.788
 5699TIP3    H217062   6.666   2.019   0.702
 5700TIP3   OH217063   5.776   2.599   5.281
 5700TIP3    H117064   5.834   2.628   5.351
 5700TIP3    H217065   5.761   2.678   5.228
 5701TIP3   OH217066   0.819   5.866   4.615
 5701TIP3    H117067   0.782   5.880   4.703
 5701TIP3    H217068   0.743   5.864   4.557
 5702TIP3   OH217069   5.968   6.486   1.447
 5702TIP3    H117070   5.904   6.493   1.518
 5702TIP3    H217071   5.915   6.472   1.369
 5703TIP3   OH217072   0.561   2.014   0.833
 5703TIP3    H117073   0.607   1.930   0.824
 5703TIP3    H217074   0.578   2.041   0.923
 5704TIP3   OH217075   5.313   0.135   1.796
 5704TIP3    H117076   5.276   0.192   1.728
 5704TIP3    H217077   5.293   0.046   1.765
 5705TIP3   OH217078   2.434   5.408   2.782
 5705TIP3    H117079   2.339   5.395   2.783
 5705TIP3    H217080   2.454   5.444   2.869
 5706TIP3   OH217081   1.833   6.489   4.877
 5706TIP3    H117082   1.846   6.556   4.944
 5706TIP3    H217083   1.921   6.468   4.846
 5707TIP3   OH217084   6.330   3.370   2.839
 5707TIP3    H117085   6.245   3.327   2.838
 5707TIP3    H217086   6.393   3.298   2.835
 5708TIP3   OH217087   3.918   1.596   3.068
 5708TIP3    H117088   3.909   1.678   3.117
 5708TIP3    H217089   3.844   1.542   3.097
 5709TIP3   OH217090   5.580   0.992   5.525
 5709TIP3    H117091   5.496   0.955   5.499
 5709TIP3    H217092   5.558   1.079   5.559
 5710TIP3   OH217093   6.646   4.687   3.659
 5710TIP3    H117094   6.632   4.771   3.615
 5710TIP3    H217095   6.584   4.687   3.732
 5711TIP3   OH217096   4.211   4.963   3.374
 5711TIP3    H117097   4.271   5.006   3.434
 5711TIP3    H217098   4.160   4.904   3.430
 5712TIP3   OH217099   1.999   3.449   0.823
 5712TIP3    H117100   1.910   3.444   0.788
 5712TIP3    H217101   2.015   3.363   0.861
 5713TIP3   OH217102   3.931   1.694   3.478
 5713TIP3    H117103   3.869   1.622   3.489
 5713TIP3    H217104   3.899   1.743   3.403
 5714TIP3   OH217105   2.540   1.385   5.617
 5714TIP3    H117106   2.608   1.370   5.683
 5714TIP3    H217107   2.518   1.297   5.586
 5715TIP3   OH217108   2.698   2.965   0.351
 5715TIP3    H117109   2.729   3.024   0.282
 5715TIP3    H217110   2.613   3.000   0.376
 5716TIP3   OH217111   0.224   5.671   4.803
 5716TIP3    H117112   0.313   5.697   4.827
 5716TIP3    H217113   0.214   5.582   4.837
 5717TIP3   OH217114   1.796   4.360   2.624
 5717TIP3    H117115   1.744   4.440   2.635
 5717TIP3    H217116   1.782   4.311   2.706
 5718TIP3   OH217117   1.278   3.055   4.270
 5718TIP3    H117118   1.299   2.988   4.206
 5718TIP3    H217119   1.224   3.010   4.335
 5719TIP3   OH217120   0.316   4.883   3.267
 5719TIP3    H117121   0.255   4.861   3.337
 5719TIP3    H217122   0.280   4.841   3.189
 5720TIP3   OH217123   1.771   6.615   1.373
 5720TIP3    H117124   1.709   6.670   1.326
 5720TIP3    H217125   1.845   6.606   1.314
 5721TIP3   OH217126   6.796   2.774   4.965
 5721TIP3    H117127   6.817   2.774   4.871
 5721TIP3    H217128   6.847   2.847   5.000
 5722TIP3   OH217129   6.291   4.077   5.469
 5722TIP3    H117130   6.376   4.115   5.491
 5722TIP3    H217131   6.312   3.994   5.427
 5723TIP3   OH217132   4.251   6.360   1.276
 5723TIP3    H117133   4.295   6.282   1.242
 5723TIP3    H217134   4.299   6.433   1.238
 5724TIP3   OH217135   6.328   4.695   5.531
 5724TIP3    H117136   6.369   4.728   5.451
 5724TIP3    H217137   6.238   4.725   5.526
 5725TIP3   OH217138   5.241   2.511   0.338
 5725TIP3    H117139   5.181   2.572   0.382
 5725TIP3    H217140   5.261   2.445   0.405
 5726TIP3   OH217141   7.210   1.150   0.966
 5726TIP3    H117142   7.147   1.117   0.902
 5726TIP3    H217143   7.158   1.167   1.044
 5727TIP3   OH217144   5.215   1.153   5.578
 5727TIP3    H117145   5.300   1.179   5.616
 5727TIP3    H217146   5.190   1.226   5.523
 5728TIP3   OH217147   6.982   4.098   0.914
 5728TIP3    H117148   6.995   4.055   0.999
 5728TIP3    H217149   6.900   4.145   0.923
 5729TIP3   OH217150   1.768   1.055   5.434
 5729TIP3    H117151   1.762   1.065   5.339
 5729TIP3    H217152   1.724   1.132   5.470
 5730TIP3   OH217153   5.500   1.044   1.392
 5730TIP3    H117154   5.563   0.997   1.446
 5730TIP3    H217155   5.502   0.999   1.307
 5731TIP3   OH217156   7.163   6.024   2.517
 5731TIP3    H117157   7.175   5.996   2.426
 5731TIP3    H217158   7.232   5.978   2.565
 5732TIP3   OH217159   4.524   6.717   0.077
 5732TIP3    H117160   4.453   6.688   0.135
 5732TIP3    H217161   4.540   6.808   0.104
 5733TIP3   OH217162   6.275   3.372   0.138
 5733TIP3    H117163   6.343   3.391   0.073
 5733TIP3    H217164   6.285   3.439   0.205
 5734TIP3   OH217165   6.685   3.336   2.947
 5734TIP3    H117166   6.729   3.286   3.016
 5734TIP3    H217167   6.637   3.270   2.896
 5735TIP3   OH217168   4.775   4.721   3.096
 5735TIP3    H117169   4.686   4.737   3.064
 5735TIP3    H217170   4.830   4.733   3.019
 5736TIP3   OH217171   6.995   4.266   5.066
 5736TIP3    H117172   6.910   4.302   5.038
 5736TIP3    H217173   7.059   4.331   5.036
 5737TIP3   OH217174   4.548   6.079   5.770
 5737TIP3    H117175   4.466   6.107   5.729
 5737TIP3    H217176   4.584   6.014   5.710
 5738TIP3   OH217177   3.811   4.466   0.741
 5738TIP3    H117178   3.900   4.493   0.719
 5738TIP3    H217179   3.774   4.541   0.787
 5739TIP3   OH217180   2.263   2.525   3.003
 5739TIP3    H117181   2.275   2.431   2.998
 5739TIP3    H217182   2.180   2.541   2.958
 5740TIP3   OH217183   4.034   0.984   3.900
 5740TIP3    H117184   3.956   1.025   3.862
 5740TIP3    H217185   4.031   1.007   3.993
 5741TIP3   OH217186   1.089   6.496   5.138
 5741TIP3    H117187   1.083   6.582   5.098
 5741TIP3    H217188   1.102   6.436   5.065
 5742TIP3   OH217189   5.502   3.697   1.504
 5742TIP3    H117190   5.485   3.790   1.520
 5742TIP3    H217191   5.593   3.695   1.473
 5743TIP3   OH217192   6.206   5.979   1.449
 5743TIP3    H117193   6.263   5.912   1.487
 5743TIP3    H217194   6.234   5.986   1.358
 5744TIP3   OH217195   3.096   2.603   4.230
 5744TIP3    H117196   3.027   2.560   4.280
 5744TIP3    H217197   3.052   2.637   4.153
 5745TIP3   OH217198   1.953   6.088   1.032
 5745TIP3    H117199   1.994   6.171   1.053
 5745TIP3    H217200   1.903   6.105   0.952
 5746TIP3   OH217201   5.960   3.603   3.611
 5746TIP3    H117202   5.876   3.578   3.650
 5746TIP3    H217203   5.955   3.568   3.522
 5747TIP3   OH217204   3.419   5.275   2.727
 5747TIP3    H117205   3.457   5.358   2.754
 5747TIP3    H217206   3.466   5.253   2.646
 5748TIP3   OH217207   0.629   2.653   5.057
 5748TIP3    H117208   0.577   2.698   5.124
 5748TIP3    H217209   0.648   2.567   5.094
 5749TIP3   OH217210   6.083   1.554   4.769
 5749TIP3    H117211   6.029   1.528   4.694
 5749TIP3    H217212   6.086   1.650   4.763
 5750TIP3   OH217213   6.258   0.401   2.097
 5750TIP3    H117214   6.338   0.411   2.149
 5750TIP3    H217215   6.187   0.429   2.156
 5751TIP3   OH217216   2.172   6.331   0.676
 5751TIP3    H117217   2.094   6.382   0.697
 5751TIP3    H217218   2.142   6.241   0.670
 5752TIP3   OH217219   2.776   2.127   0.097
 5752TIP3    H117220   2.826   2.139   0.016
 5752TIP3    H217221   2.840   2.096   0.160
 5753TIP3   OH217222   2.551   2.580   1.892
 5753TIP3    H117223   2.583   2.670   1.900
 5753TIP3    H217224   2.591   2.533   1.966
 5754TIP3   OH217225   4.232   5.335   1.912
 5754TIP3    H117226   4.324   5.324   1.887
 5754TIP3    H217227   4.193   5.248   1.899
 5755TIP3   OH217228   6.243   2.242   0.892
 5755TIP3    H117229   6.288   2.288   0.821
 5755TIP3    H217230   6.175   2.192   0.847
 5756TIP3   OH217231   1.253   5.436   4.620
 5756TIP3    H117232   1.199   5.364   4.651
 5756TIP3    H217233   1.194   5.489   4.566
 5757TIP3   OH217234   5.840   5.458   4.782
 5757TIP3    H117235   5.808   5.494   4.865
 5757TIP3    H217236   5.817   5.525   4.717
 5758TIP3   OH217237   1.556   1.881   3.943
 5758TIP3    H117238   1.544   1.792   3.975
 5758TIP3    H217239   1.601   1.871   3.859
 5759TIP3   OH217240   6.012   3.267   5.117
 5759TIP3    H117241   6.075   3.196   5.132
 5759TIP3    H217242   6.047   3.341   5.167
 5760TIP3   OH217243   4.684   6.365   3.486
 5760TIP3    H117244   4.638   6.333   3.409
 5760TIP3    H217245   4.749   6.427   3.452
 5761TIP3   OH217246   5.087   1.045   0.670
 5761TIP3    H117247   5.083   1.139   0.652
 5761TIP3    H217248   5.108   1.039   0.763
 5762TIP3   OH217249   0.857   0.040   3.219
 5762TIP3    H117250   0.782   0.066   3.165
 5762TIP3    H217251   0.824   0.042   3.309
 5763TIP3   OH217252   6.799   1.361   0.153
 5763TIP3    H117253   6.782   1.413   0.075
 5763TIP3    H217254   6.785   1.422   0.226
 5764TIP3   OH217255   1.134   3.699   0.327
 5764TIP3    H117256   1.128   3.606   0.349
 5764TIP3    H217257   1.128   3.701   0.231
 5765TIP3   OH217258  -0.023   2.799   3.725
 5765TIP3    H117259  -0.040   2.742   3.650
 5765TIP3    H217260   0.024   2.874   3.688
 5766TIP3   OH217261   4.992   4.217   4.959
 5766TIP3    H117262   5.056   4.287   4.974
 5766TIP3    H217263   4.944   4.246   4.881
 5767TIP3   OH217264   6.802   4.835   3.822
 5767TIP3    H117265   6.748   4.777   3.769
 5767TIP3    H217266   6.768   4.922   3.804
 5768TIP3   OH217267   3.919   5.936   5.015
 5768TIP3    H117268   3.925   6.017   4.964
 5768TIP3    H217269   3.877   5.873   4.956
 5769TIP3   OH217270   1.644   1.705   0.040
 5769TIP3    H117271   1.562   1.658   0.026
 5769TIP3    H217272   1.680   1.718  -0.047
 5770TIP3   OH217273   4.338   0.199   1.859
 5770TIP3    H117274   4.262   0.175   1.911
 5770TIP3    H217275   4.410   0.147   1.896
 5771TIP3   OH217276   1.839   0.245   5.374
 5771TIP3    H117277   1.859   0.155   5.403
 5771TIP3    H217278   1.749   0.260   5.402
 5772TIP3   OH217279   1.847   5.591   4.680
 5772TIP3    H117280   1.905   5.582   4.755
 5772TIP3    H217281   1.879   5.668   4.633
 5773TIP3   OH217282   5.125   3.064   4.263
 5773TIP3    H117283   5.153   2.988   4.212
 5773TIP3    H217284   5.101   3.027   4.348
 5774TIP3   OH217285   0.473   3.714   0.861
 5774TIP3    H117286   0.485   3.692   0.768
 5774TIP3    H217287   0.466   3.810   0.862
 5775TIP3   OH217288   0.028   6.534   2.488
 5775TIP3    H117289   0.113   6.510   2.450
 5775TIP3    H217290   0.046   6.544   2.582
 5776TIP3   OH217291   1.906   6.181   5.948
 5776TIP3    H117292   1.841   6.192   5.879
 5776TIP3    H217293   1.990   6.187   5.903
 5777TIP3   OH217294   0.867   1.177   4.741
 5777TIP3    H117295   0.794   1.237   4.760
 5777TIP3    H217296   0.840   1.094   4.780
 5778TIP3   OH217297   1.146   0.079   5.906
 5778TIP3    H117298   1.231   0.035   5.897
 5778TIP3    H217299   1.084   0.022   5.860
 5779TIP3   OH217300   5.993   1.139   3.180
 5779TIP3    H117301   5.995   1.125   3.085
 5779TIP3    H217302   6.003   1.051   3.217
 5780TIP3   OH217303   1.298   4.035   1.215
 5780TIP3    H117304   1.381   4.021   1.260
 5780TIP3    H217305   1.245   4.086   1.276
 5781TIP3   OH217306   2.629   3.260   2.036
 5781TIP3    H117307   2.599   3.289   2.122
 5781TIP3    H217308   2.551   3.262   1.981
 5782TIP3   OH217309   5.051   2.430   0.898
 5782TIP3    H117310   5.064   2.506   0.955
 5782TIP3    H217311   5.037   2.467   0.811
 5783TIP3   OH217312   4.718   1.840   4.339
 5783TIP3    H117313   4.736   1.827   4.432
 5783TIP3    H217314   4.646   1.780   4.319
 5784TIP3   OH217315   2.149   3.843   2.631
 5784TIP3    H117316   2.107   3.882   2.707
 5784TIP3    H217317   2.111   3.756   2.624
 5785TIP3   OH217318   4.689   3.641   1.215
 5785TIP3    H117319   4.684   3.730   1.183
 5785TIP3    H217320   4.745   3.647   1.293
 5786TIP3   OH217321   3.629   3.050   2.789
 5786TIP3    H117322   3.665   2.978   2.737
 5786TIP3    H217323   3.539   3.024   2.807
 5787TIP3   OH217324   2.476   2.296   0.423
 5787TIP3    H117325   2.432   2.361   0.369
 5787TIP3    H217326   2.555   2.274   0.374
 5788TIP3   OH217327   6.404   1.162   0.099
 5788TIP3    H117328   6.343   1.122   0.160
 5788TIP3    H217329   6.422   1.094   0.034
 5789TIP3   OH217330   2.761   2.539   3.620
 5789TIP3    H117331   2.730   2.580   3.701
 5789TIP3    H217332   2.686   2.489   3.589
 5790TIP3   OH217333   0.222   5.337   0.551
 5790TIP3    H117334   0.130   5.341   0.578
 5790TIP3    H217335   0.265   5.284   0.617
 5791TIP3   OH217336   4.988   2.003   3.981
 5791TIP3    H117337   5.079   2.025   3.963
 5791TIP3    H217338   4.991   1.943   4.055
 5792TIP3   OH217339   4.275   4.249   4.771
 5792TIP3    H117340   4.234   4.168   4.738
 5792TIP3    H217341   4.326   4.220   4.847
 5793TIP3   OH217342   0.912   5.497   4.668
 5793TIP3    H117343   0.961   5.420   4.700
 5793TIP3    H217344   0.944   5.569   4.722
 5794TIP3   OH217345   1.943   2.475   4.317
 5794TIP3    H117346   1.946   2.506   4.408
 5794TIP3    H217347   1.894   2.393   4.321
 5795TIP3   OH217348   5.643   5.172   3.210
 5795TIP3    H117349   5.638   5.095   3.267
 5795TIP3    H217350   5.644   5.136   3.121
 5796TIP3   OH217351   4.091   1.145   5.293
 5796TIP3    H117352   4.174   1.190   5.273
 5796TIP3    H217353   4.118   1.059   5.326
 5797TIP3   OH217354   3.295   5.695   4.407
 5797TIP3    H117355   3.290   5.781   4.366
 5797TIP3    H217356   3.283   5.633   4.335
 5798TIP3   OH217357   3.303   5.056   0.611
 5798TIP3    H117358   3.330   5.121   0.677
 5798TIP3    H217359   3.365   5.068   0.539
 5799TIP3   OH217360   6.680   6.206   5.717
 5799TIP3    H117361   6.754   6.167   5.672
 5799TIP3    H217362   6.618   6.134   5.730
 5800TIP3   OH217363   0.001   5.590   5.611
 5800TIP3    H117364   0.064   5.518   5.605
 5800TIP3    H217365   0.028   5.640   5.688
 5801TIP3   OH217366   5.906   0.804   5.106
 5801TIP3    H117367   5.933   0.724   5.061
 5801TIP3    H217368   5.981   0.828   5.160
 5802TIP3   OH217369   0.888   6.193   0.620
 5802TIP3    H117370   0.966   6.221   0.573
 5802TIP3    H217371   0.827   6.165   0.552
 5803TIP3   OH217372   6.978   0.794   2.397
 5803TIP3    H117373   6.896   0.842   2.411
 5803TIP3    H217374   7.047   0.857   2.418
 5804TIP3   OH217375   3.620   1.511   4.887
 5804TIP3    H117376   3.605   1.484   4.978
 5804TIP3    H217377   3.562   1.455   4.836
 5805TIP3   OH217378   5.095   6.150   1.258
 5805TIP3    H117379   5.030   6.180   1.194
 5805TIP3    H217380   5.174   6.132   1.206
 5806TIP3   OH217381   0.625   3.297   4.637
 5806TIP3    H117382   0.593   3.335   4.555
 5806TIP3    H217383   0.655   3.372   4.688
 5807TIP3   OH217384   4.326   0.674   0.689
 5807TIP3    H117385   4.405   0.637   0.729
 5807TIP3    H217386   4.356   0.751   0.641
 5808TIP3   OH217387   6.667   4.458   2.578
 5808TIP3    H117388   6.706   4.377   2.613
 5808TIP3    H217389   6.606   4.428   2.511
 5809TIP3   OH217390   7.157   4.836   5.805
 5809TIP3    H117391   7.176   4.867   5.717
 5809TIP3    H217392   7.174   4.911   5.862
 5810TIP3   OH217393   0.130   4.721   4.447
 5810TIP3    H117394   0.123   4.678   4.532
 5810TIP3    H217395   0.040   4.734   4.419
 5811TIP3   OH217396   5.107   2.653   5.351
 5811TIP3    H117397   5.097   2.607   5.268
 5811TIP3    H217398   5.134   2.584   5.412
 5812TIP3   OH217399   2.462   2.051   1.001
 5812TIP3    H117400   2.420   2.027   1.084
 5812TIP3    H217401   2.531   1.986   0.990
 5813TIP3   OH217402   2.998   3.614   5.057
 5813TIP3    H117403   2.984   3.570   5.140
 5813TIP3    H217404   3.093   3.628   5.053
 5814TIP3   OH217405   6.825   4.674   2.451
 5814TIP3    H117406   6.749   4.706   2.402
 5814TIP3    H217407   6.794   4.597   2.498
 5815TIP3   OH217408   3.501   6.493   2.285
 5815TIP3    H117409   3.459   6.538   2.359
 5815TIP3    H217410   3.443   6.510   2.211
 5816TIP3   OH217411   5.827   2.518   3.577
 5816TIP3    H117412   5.811   2.464   3.654
 5816TIP3    H217413   5.920   2.507   3.558
 5817TIP3   OH217414   1.008   2.490   1.617
 5817TIP3    H117415   0.929   2.509   1.667
 5817TIP3    H217416   1.076   2.543   1.659
 5818TIP3   OH217417   5.301   1.042   2.579
 5818TIP3    H117418   5.381   1.045   2.526
 5818TIP3    H217419   5.244   0.980   2.533
 5819TIP3   OH217420   5.123   0.834   2.503
 5819TIP3    H117421   5.106   0.755   2.556
 5819TIP3    H217422   5.046   0.889   2.518
 5820TIP3   OH217423   4.854   1.442   5.202
 5820TIP3    H117424   4.836   1.534   5.224
 5820TIP3    H217425   4.851   1.396   5.286
 5821TIP3   OH217426   3.972   3.392   3.263
 5821TIP3    H117427   4.035   3.409   3.193
 5821TIP3    H217428   3.887   3.414   3.225
 5822TIP3   OH217429   0.772   3.322   2.074
 5822TIP3    H117430   0.679   3.339   2.089
 5822TIP3    H217431   0.777   3.293   1.983
 5823TIP3   OH217432   2.817   5.081   4.267
 5823TIP3    H117433   2.787   5.147   4.329
 5823TIP3    H217434   2.892   5.040   4.310
 5824TIP3   OH217435   6.882   4.790   4.100
 5824TIP3    H117436   6.891   4.695   4.099
 5824TIP3    H217437   6.836   4.811   4.019
 5825TIP3   OH217438   1.224   6.313   1.864
 5825TIP3    H117439   1.262   6.378   1.804
 5825TIP3    H217440   1.164   6.363   1.919
 5826TIP3   OH217441   3.045   0.244   3.523
 5826TIP3    H117442   2.983   0.300   3.477
 5826TIP3    H217443   3.009   0.156   3.514
 5827TIP3   OH217444   3.046   0.668   2.873
 5827TIP3    H117445   3.002   0.610   2.811
 5827TIP3    H217446   3.049   0.753   2.828
 5828TIP3   OH217447   3.866   3.795   1.381
 5828TIP3    H117448   3.860   3.707   1.418
 5828TIP3    H217449   3.859   3.781   1.286
 5829TIP3   OH217450   6.975   5.077   4.163
 5829TIP3    H117451   6.887   5.083   4.127
 5829TIP3    H217452   7.019   5.010   4.110
 5830TIP3   OH217453   2.757   3.440   3.913
 5830TIP3    H117454   2.711   3.431   3.997
 5830TIP3    H217455   2.820   3.368   3.912
 5831TIP3   OH217456   0.642   3.579   1.027
 5831TIP3    H117457   0.603   3.493   1.017
 5831TIP3    H217458   0.614   3.628   0.950
 5832TIP3   OH217459   1.642   5.339   1.374
 5832TIP3    H117460   1.684   5.355   1.289
 5832TIP3    H217461   1.672   5.411   1.429
 5833TIP3   OH217462   6.418   0.141   0.604
 5833TIP3    H117463   6.444   0.050   0.613
 5833TIP3    H217464   6.448   0.184   0.684
 5834TIP3   OH217465   0.090   6.497   5.607
 5834TIP3    H117466   0.019   6.545   5.649
 5834TIP3    H217467   0.103   6.541   5.523
 5835TIP3   OH217468   6.154   2.801   5.601
 5835TIP3    H117469   6.136   2.768   5.689
 5835TIP3    H217470   6.102   2.882   5.595
 5836TIP3   OH217471   7.047   3.265   1.867
 5836TIP3    H117472   7.117   3.244   1.929
 5836TIP3    H217473   7.093   3.282   1.784
 5837TIP3   OH217474   5.702   1.451   4.448
 5837TIP3    H117475   5.613   1.443   4.483
 5837TIP3    H217476   5.711   1.374   4.390
 5838TIP3   OH217477   5.105   5.124   2.167
 5838TIP3    H117478   5.073   5.188   2.231
 5838TIP3    H217479   5.053   5.045   2.185
 5839TIP3   OH217480   6.175   0.882   0.519
 5839TIP3    H117481   6.254   0.837   0.490
 5839TIP3    H217482   6.186   0.890   0.614
 5840TIP3   OH217483   0.282   3.178   0.160
 5840TIP3    H117484   0.334   3.256   0.180
 5840TIP3    H217485   0.287   3.170   0.065
 5841TIP3   OH217486   1.137   2.605   4.531
 5841TIP3    H117487   1.181   2.684   4.500
 5841TIP3    H217488   1.185   2.581   4.611
 5842TIP3   OH217489   4.030   2.536   4.929
 5842TIP3    H117490   4.061   2.584   5.006
 5842TIP3    H217491   4.101   2.543   4.866
 5843TIP3   OH217492   5.930   3.833   2.975
 5843TIP3    H117493   6.023   3.851   2.958
 5843TIP3    H217494   5.916   3.745   2.939
 5844TIP3   OH217495   3.877   3.883   5.208
 5844TIP3    H117496   3.901   3.933   5.286
 5844TIP3    H217497   3.955   3.830   5.189
 5845TIP3   OH217498   0.190   0.737   4.481
 5845TIP3    H117499   0.118   0.720   4.542
 5845TIP3    H217500   0.265   0.691   4.518
 5846TIP3   OH217501   4.788   5.173   2.982
 5846TIP3    H117502   4.723   5.139   3.044
 5846TIP3    H217503   4.872   5.145   3.017
 5847TIP3   OH217504   1.062   5.076   0.268
 5847TIP3    H117505   0.971   5.093   0.242
 5847TIP3    H217506   1.112   5.147   0.228
 5848TIP3   OH217507   0.026   3.099   2.600
 5848TIP3    H117508  -0.062   3.099   2.562
 5848TIP3    H217509   0.021   3.163   2.671
 5849TIP3   OH217510   1.434   4.299   0.357
 5849TIP3    H117511   1.436   4.216   0.311
 5849TIP3    H217512   1.449   4.276   0.449
 5850TIP3   OH217513   6.561   5.454   0.499
 5850TIP3    H117514   6.554   5.548   0.515
 5850TIP3    H217515   6.524   5.414   0.577
 5851TIP3   OH217516   3.261   3.055   1.039
 5851TIP3    H117517   3.193   3.122   1.037
 5851TIP3    H217518   3.336   3.095   0.996
 5852TIP3   OH217519   2.581  -0.042   3.535
 5852TIP3    H117520   2.488  -0.065   3.542
 5852TIP3    H217521   2.589  -0.002   3.448
 5853TIP3   OH217522   2.325   5.881   0.730
 5853TIP3    H117523   2.368   5.796   0.732
 5853TIP3    H217524   2.340   5.913   0.641
 5854TIP3   OH217525   4.346   0.214   3.912
 5854TIP3    H117526   4.309   0.148   3.970
 5854TIP3    H217527   4.381   0.281   3.971
 5855TIP3   OH217528   3.268   5.544   4.169
 5855TIP3    H117529   3.189   5.492   4.188
 5855TIP3    H217530   3.241   5.604   4.100
 5856TIP3   OH217531   1.829   6.432   3.693
 5856TIP3    H117532   1.859   6.341   3.698
 5856TIP3    H217533   1.735   6.425   3.677
 5857TIP3   OH217534   1.466   6.826   3.954
 5857TIP3    H117535   1.457   6.772   3.876
 5857TIP3    H217536   1.533   6.782   4.007
 5858TIP3   OH217537   3.336   0.022   5.281
 5858TIP3    H117538   3.332   0.090   5.347
 5858TIP3    H217539   3.425  -0.013   5.287
 5859TIP3   OH217540   5.776   5.684   2.924
 5859TIP3    H117541   5.746   5.706   3.012
 5859TIP3    H217542   5.842   5.617   2.938
 5860TIP3   OH217543   3.644   1.303   5.101
 5860TIP3    H117544   3.649   1.221   5.052
 5860TIP3    H217545   3.629   1.275   5.192
 5861TIP3   OH217546   6.700   4.561   2.889
 5861TIP3    H117547   6.615   4.587   2.925
 5861TIP3    H217548   6.680   4.490   2.828
 5862TIP3   OH217549   4.559   1.288   4.086
 5862TIP3    H117550   4.625   1.356   4.096
 5862TIP3    H217551   4.588   1.238   4.010
 5863TIP3   OH217552   0.668   3.878   1.799
 5863TIP3    H117553   0.621   3.806   1.757
 5863TIP3    H217554   0.655   3.952   1.741
 5864TIP3   OH217555   0.281   6.686   0.603
 5864TIP3    H117556   0.197   6.729   0.588
 5864TIP3    H217557   0.342   6.730   0.544
 5865TIP3   OH217558   0.141   1.342   0.186
 5865TIP3    H117559   0.204   1.386   0.242
 5865TIP3    H217560   0.063   1.332   0.241
 5866TIP3   OH217561   4.956   3.168   5.581
 5866TIP3    H117562   4.966   3.131   5.493
 5866TIP3    H217563   4.879   3.224   5.574
 5867TIP3   OH217564   7.218   0.572   3.816
 5867TIP3    H117565   7.127   0.561   3.843
 5867TIP3    H217566   7.217   0.563   3.721
 5868TIP3   OH217567   6.985   4.348   0.655
 5868TIP3    H117568   6.931   4.388   0.724
 5868TIP3    H217569   7.042   4.287   0.701
 5869TIP3   OH217570   0.197   6.462   4.497
 5869TIP3    H117571   0.209   6.446   4.591
 5869TIP3    H217572   0.285   6.455   4.460
 5870TIP3   OH217573   1.395   5.822   2.590
 5870TIP3    H117574   1.407   5.917   2.580
 5870TIP3    H217575   1.347   5.796   2.512
 5871TIP3   OH217576   3.952   2.762   0.813
 5871TIP3    H117577   3.900   2.686   0.787
 5871TIP3    H217578   4.040   2.744   0.779
 5872TIP3   OH217579   0.260   0.193   3.490
 5872TIP3    H117580   0.268   0.135   3.414
 5872TIP3    H217581   0.334   0.168   3.547
 5873TIP3   OH217582   2.200   3.620   5.717
 5873TIP3    H117583   2.250   3.553   5.670
 5873TIP3    H217584   2.109   3.606   5.689
 5874TIP3   OH217585   3.092   4.998   4.352
 5874TIP3    H117586   3.083   4.922   4.410
 5874TIP3    H217587   3.179   4.988   4.313
 5875TIP3   OH217588   2.497   4.316   1.890
 5875TIP3    H117589   2.464   4.405   1.876
 5875TIP3    H217590   2.541   4.319   1.975
 5876TIP3   OH217591   5.112   0.703   2.984
 5876TIP3    H117592   5.031   0.731   2.941
 5876TIP3    H217593   5.135   0.776   3.043
 5877TIP3   OH217594   3.667   1.005   0.150
 5877TIP3    H117595   3.582   1.044   0.132
 5877TIP3    H217596   3.700   0.977   0.064
 5878TIP3   OH217597   5.134   5.991   0.395
 5878TIP3    H117598   5.178   5.915   0.433
 5878TIP3    H217599   5.162   5.990   0.303
 5879TIP3   OH217600   7.181   1.595   3.874
 5879TIP3    H117601   7.169   1.680   3.830
 5879TIP3    H217602   7.234   1.616   3.951
 5880TIP3   OH217603   2.269   0.577   4.800
 5880TIP3    H117604   2.239   0.509   4.860
 5880TIP3    H217605   2.249   0.543   4.713
 5881TIP3   OH217606   2.117   3.185   0.922
 5881TIP3    H117607   2.202   3.175   0.965
 5881TIP3    H217608   2.113   3.114   0.859
 5882TIP3   OH217609   1.948   3.517   5.548
 5882TIP3    H117610   1.924   3.532   5.639
 5882TIP3    H217611   1.897   3.441   5.522
 5883TIP3   OH217612   3.375   6.128   2.851
 5883TIP3    H117613   3.295   6.109   2.899
 5883TIP3    H217614   3.366   6.219   2.825
 5884TIP3   OH217615   4.133   4.600   2.034
 5884TIP3    H117616   4.096   4.687   2.050
 5884TIP3    H217617   4.077   4.562   1.966
 5885TIP3   OH217618   0.846   3.707   2.808
 5885TIP3    H117619   0.927   3.726   2.760
 5885TIP3    H217620   0.835   3.782   2.867
 5886TIP3   OH217621   5.412   3.444   5.702
 5886TIP3    H117622   5.373   3.464   5.787
 5886TIP3    H217623   5.339   3.442   5.641
 5887TIP3   OH217624   3.415   4.572   5.274
 5887TIP3    H117625   3.465   4.652   5.257
 5887TIP3    H217626   3.362   4.592   5.351
 5888TIP3   OH217627   1.775   1.649   2.882
 5888TIP3    H117628   1.845   1.644   2.817
 5888TIP3    H217629   1.817   1.622   2.964
 5889TIP3   OH217630   6.815   3.800   3.666
 5889TIP3    H117631   6.818   3.867   3.734
 5889TIP3    H217632   6.724   3.770   3.666
 5890TIP3   OH217633   2.153   4.925   4.560
 5890TIP3    H117634   2.237   4.968   4.576
 5890TIP3    H217635   2.091   4.997   4.551
 5891TIP3   OH217636   2.235   6.620   1.856
 5891TIP3    H117637   2.280   6.704   1.843
 5891TIP3    H217638   2.144   6.637   1.829
 5892TIP3   OH217639   5.395   2.385   1.220
 5892TIP3    H117640   5.309   2.423   1.235
 5892TIP3    H217641   5.388   2.343   1.134
 5893TIP3   OH217642   0.525   4.819   3.746
 5893TIP3    H117643   0.536   4.881   3.819
 5893TIP3    H217644   0.507   4.875   3.671
 5894TIP3   OH217645   0.869   4.009   2.238
 5894TIP3    H117646   0.776   3.999   2.219
 5894TIP3    H217647   0.887   3.947   2.308
 5895TIP3   OH217648   0.820   5.284   2.377
 5895TIP3    H117649   0.823   5.371   2.337
 5895TIP3    H217650   0.871   5.293   2.458
 5896TIP3   OH217651   6.738   4.515   4.248
 5896TIP3    H117652   6.688   4.471   4.316
 5896TIP3    H217653   6.690   4.496   4.167
 5897TIP3   OH217654   3.644   0.530   1.247
 5897TIP3    H117655   3.608   0.448   1.213
 5897TIP3    H217656   3.589   0.598   1.209
 5898TIP3   OH217657   1.305   0.662   1.652
 5898TIP3    H117658   1.344   0.749   1.661
 5898TIP3    H217659   1.216   0.679   1.622
 5899TIP3   OH217660   5.651   4.881   5.834
 5899TIP3    H117661   5.687   4.957   5.880
 5899TIP3    H217662   5.633   4.913   5.745
 5900TIP3   OH217663   1.486   0.742   5.807
 5900TIP3    H117664   1.515   0.797   5.880
 5900TIP3    H217665   1.545   0.765   5.735
 5901TIP3   OH217666   4.466   0.871   1.505
 5901TIP3    H117667   4.536   0.923   1.465
 5901TIP3    H217668   4.491   0.780   1.487
 5902TIP3   OH217669   0.769   0.369   0.763
 5902TIP3    H117670   0.795   0.461   0.755
 5902TIP3    H217671   0.723   0.365   0.847
 5903TIP3   OH217672   4.795   2.931   1.170
 5903TIP3    H117673   4.710   2.972   1.185
 5903TIP3    H217674   4.834   2.982   1.099
 5904TIP3   OH217675   5.053   2.769   2.530
 5904TIP3    H117676   5.014   2.683   2.515
 5904TIP3    H217677   4.993   2.813   2.590
 5905TIP3   OH217678   5.307   3.294   5.083
 5905TIP3    H117679   5.327   3.377   5.039
 5905TIP3    H217680   5.214   3.301   5.105
 5906TIP3   OH217681   5.881   2.740   2.974
 5906TIP3    H117682   5.837   2.800   2.915
 5906TIP3    H217683   5.974   2.762   2.966
 5907TIP3   OH217684   2.524   3.889   5.312
 5907TIP3    H117685   2.455   3.923   5.368
 5907TIP3    H217686   2.502   3.796   5.300
 5908TIP3   OH217687   1.233   4.487   1.495
 5908TIP3    H117688   1.283   4.528   1.425
 5908TIP3    H217689   1.155   4.541   1.505
 5909TIP3   OH217690   4.697   3.422   0.476
 5909TIP3    H117691   4.634   3.435   0.547
 5909TIP3    H217692   4.653   3.456   0.398
 5910TIP3   OH217693   3.781   5.299   2.303
 5910TIP3    H117694   3.797   5.304   2.209
 5910TIP3    H217695   3.849   5.353   2.343
 5911TIP3   OH217696   1.259   5.681   1.553
 5911TIP3    H117697   1.241   5.597   1.511
 5911TIP3    H217698   1.180   5.733   1.540
 5912TIP3   OH217699   0.209   4.042   3.721
 5912TIP3    H117700   0.212   4.137   3.713
 5912TIP3    H217701   0.134   4.016   3.667
 5913TIP3   OH217702   0.076   2.893   1.909
 5913TIP3    H117703   0.041   2.922   1.993
 5913TIP3    H217704   0.081   2.973   1.856
 5914TIP3   OH217705   5.862   1.765   4.763
 5914TIP3    H117706   5.898   1.788   4.848
 5914TIP3    H217707   5.807   1.688   4.779
 5915TIP3   OH217708   0.309   5.197   4.827
 5915TIP3    H117709   0.382   5.250   4.858
 5915TIP3    H217710   0.238   5.260   4.814
 5916TIP3   OH217711   2.837   4.884   4.875
 5916TIP3    H117712   2.784   4.948   4.828
 5916TIP3    H217713   2.923   4.927   4.884
 5917TIP3   OH217714   1.645   3.948   4.414
 5917TIP3    H117715   1.717   3.918   4.359
 5917TIP3    H217716   1.583   3.874   4.415
 5918TIP3   OH217717   5.064   6.277   1.990
 5918TIP3    H117718   5.051   6.370   1.971
 5918TIP3    H217719   5.149   6.256   1.952
 5919TIP3   OH217720   2.773   3.660   1.998
 5919TIP3    H117721   2.685   3.635   1.968
 5919TIP3    H217722   2.831   3.597   1.956
 5920TIP3   OH217723   1.270   2.160   0.548
 5920TIP3    H117724   1.345   2.156   0.489
 5920TIP3    H217725   1.279   2.083   0.604
 5921TIP3   OH217726   1.809   2.430   1.167
 5921TIP3    H117727   1.751   2.357   1.145
 5921TIP3    H217728   1.864   2.442   1.089
 5922TIP3   OH217729   4.962   5.654   1.636
 5922TIP3    H117730   4.954   5.600   1.557
 5922TIP3    H217731   4.971   5.744   1.603
 5923TIP3   OH217732   4.812   5.684   4.944
 5923TIP3    H117733   4.717   5.692   4.929
 5923TIP3    H217734   4.850   5.755   4.891
 5924TIP3   OH217735   0.496   5.488   5.766
 5924TIP3    H117736   0.459   5.483   5.677
 5924TIP3    H217737   0.428   5.533   5.817
 5925TIP3   OH217738   3.074   1.841   4.152
 5925TIP3    H117739   3.124   1.918   4.127
 5925TIP3    H217740   2.990   1.876   4.182
 5926TIP3   OH217741   4.818   3.578   4.409
 5926TIP3    H117742   4.911   3.572   4.388
 5926TIP3    H217743   4.808   3.530   4.491
 5927TIP3   OH217744   6.073   4.390   3.182
 5927TIP3    H117745   6.115   4.468   3.144
 5927TIP3    H217746   6.059   4.332   3.107
 5928TIP3   OH217747   4.824   1.424   4.158
 5928TIP3    H117748   4.885   1.473   4.103
 5928TIP3    H217749   4.839   1.458   4.247
 5929TIP3   OH217750   3.854   6.408   5.777
 5929TIP3    H117751   3.857   6.468   5.702
 5929TIP3    H217752   3.761   6.397   5.795
 5930TIP3   OH217753   5.345   0.705   3.744
 5930TIP3    H117754   5.292   0.751   3.810
 5930TIP3    H217755   5.423   0.677   3.792
 5931TIP3   OH217756   5.190   5.206   2.683
 5931TIP3    H117757   5.267   5.263   2.677
 5931TIP3    H217758   5.224   5.118   2.670
 5932TIP3   OH217759   4.772   2.384   5.534
 5932TIP3    H117760   4.722   2.306   5.513
 5932TIP3    H217761   4.771   2.389   5.630
 5933TIP3   OH217762   1.013   2.915   1.061
 5933TIP3    H117763   0.923   2.884   1.055
 5933TIP3    H217764   1.012   2.980   1.131
 5934TIP3   OH217765   6.346   0.787   2.996
 5934TIP3    H117766   6.361   0.761   2.905
 5934TIP3    H217767   6.428   0.827   3.024
 5935TIP3   OH217768   3.810   2.736   4.903
 5935TIP3    H117769   3.759   2.683   4.841
 5935TIP3    H217770   3.887   2.763   4.853
 5936TIP3   OH217771   2.966   2.117   2.911
 5936TIP3    H117772   2.898   2.067   2.956
 5936TIP3    H217773   2.998   2.178   2.977
 5937TIP3   OH217774   6.665   5.238   4.795
 5937TIP3    H117775   6.607   5.167   4.822
 5937TIP3    H217776   6.607   5.302   4.754
 5938TIP3   OH217777   0.619   2.066   3.764
 5938TIP3    H117778   0.650   1.981   3.731
 5938TIP3    H217779   0.699   2.112   3.789
 5939TIP3   OH217780   1.762   1.375   2.302
 5939TIP3    H117781   1.705   1.315   2.349
 5939TIP3    H217782   1.741   1.461   2.337
 5940TIP3   OH217783   2.513   3.448   5.282
 5940TIP3    H117784   2.461   3.370   5.300
 5940TIP3    H217785   2.451   3.521   5.286
 5941TIP3   OH217786   3.334   4.550   0.620
 5941TIP3    H117787   3.281   4.575   0.545
 5941TIP3    H217788   3.270   4.523   0.686
 5942TIP3   OH217789   0.069   0.344   1.217
 5942TIP3    H117790  -0.016   0.380   1.194
 5942TIP3    H217791   0.126   0.368   1.144
 5943TIP3   OH217792   5.944   2.377   1.464
 5943TIP3    H117793   5.920   2.287   1.441
 5943TIP3    H217794   5.916   2.428   1.388
 5944TIP3   OH217795   5.129   4.894   4.914
 5944TIP3    H117796   5.198   4.953   4.943
 5944TIP3    H217797   5.054   4.950   4.896
 5945TIP3   OH217798   6.391   5.401   3.838
 5945TIP3    H117799   6.377   5.471   3.774
 5945TIP3    H217800   6.303   5.378   3.868
 5946TIP3   OH217801   5.000   4.296   5.569
 5946TIP3    H117802   5.058   4.344   5.628
 5946TIP3    H217803   4.956   4.363   5.517
 5947TIP3   OH217804   2.438   3.712   3.747
 5947TIP3    H117805   2.447   3.708   3.842
 5947TIP3    H217806   2.365   3.772   3.732
 5948TIP3   OH217807   3.507   4.279   5.046
 5948TIP3    H117808   3.460   4.270   4.963
 5948TIP3    H217809   3.592   4.239   5.030
 5949TIP3   OH217810   5.933   0.295   5.702
 5949TIP3    H117811   5.944   0.381   5.661
 5949TIP3    H217812   5.883   0.244   5.637
 5950TIP3   OH217813   5.764   5.874   2.609
 5950TIP3    H117814   5.803   5.960   2.597
 5950TIP3    H217815   5.690   5.872   2.547
 5951TIP3   OH217816   2.579   6.452   3.919
 5951TIP3    H117817   2.638   6.445   3.994
 5951TIP3    H217818   2.491   6.441   3.956
 5952TIP3   OH217819   4.657   3.037   4.427
 5952TIP3    H117820   4.745   3.026   4.390
 5952TIP3    H217821   4.671   3.082   4.510
 5953TIP3   OH217822   5.554   3.311   4.678
 5953TIP3    H117823   5.619   3.381   4.686
 5953TIP3    H217824   5.574   3.251   4.750
 5954TIP3   OH217825   5.200   4.768   5.702
 5954TIP3    H117826   5.291   4.741   5.713
 5954TIP3    H217827   5.202   4.831   5.630
 5955TIP3   OH217828   1.359   6.106   0.228
 5955TIP3    H117829   1.403   6.053   0.162
 5955TIP3    H217830   1.367   6.055   0.309
 5956TIP3   OH217831   3.140   5.300   0.081
 5956TIP3    H117832   3.073   5.331   0.020
 5956TIP3    H217833   3.165   5.378   0.131
 5957TIP3   OH217834   3.294   0.458   5.568
 5957TIP3    H117835   3.336   0.529   5.519
 5957TIP3    H217836   3.362   0.427   5.628
 5958TIP3   OH217837   1.379   2.558   1.165
 5958TIP3    H117838   1.436   2.632   1.184
 5958TIP3    H217839   1.408   2.526   1.080
 5959TIP3   OH217840   6.846   3.728   0.844
 5959TIP3    H117841   6.793   3.807   0.838
 5959TIP3    H217842   6.905   3.743   0.919
 5960TIP3   OH217843   3.775   5.164   3.812
 5960TIP3    H117844   3.792   5.073   3.789
 5960TIP3    H217845   3.748   5.161   3.903
 5961TIP3   OH217846   0.095   0.407   3.488
 5961TIP3    H117847   0.023   0.354   3.454
 5961TIP3    H217848   0.161   0.342   3.515
 5962TIP3   OH217849   5.696   6.413   4.295
 5962TIP3    H117850   5.634   6.355   4.252
 5962TIP3    H217851   5.778   6.364   4.298
 5963TIP3   OH217852   1.824   2.734   1.084
 5963TIP3    H117853   1.843   2.668   1.151
 5963TIP3    H217854   1.832   2.686   1.001
 5964TIP3   OH217855   1.620   0.991   0.385
 5964TIP3    H117856   1.620   0.954   0.473
 5964TIP3    H217857   1.709   1.023   0.373
 5965TIP3   OH217858   3.392   1.926   2.626
 5965TIP3    H117859   3.467   1.967   2.583
 5965TIP3    H217860   3.369   1.986   2.697
 5966TIP3   OH217861   6.275   6.394   1.129
 5966TIP3    H117862   6.261   6.468   1.070
 5966TIP3    H217863   6.191   6.348   1.129
 5967TIP3   OH217864   3.071   2.053   1.662
 5967TIP3    H117865   2.980   2.029   1.645
 5967TIP3    H217866   3.107   2.073   1.575
 5968TIP3   OH217867   2.949   5.901   4.029
 5968TIP3    H117868   2.979   5.977   4.077
 5968TIP3    H217869   2.896   5.937   3.958
 5969TIP3   OH217870   4.559   0.610   3.768
 5969TIP3    H117871   4.515   0.654   3.841
 5969TIP3    H217872   4.634   0.666   3.748
 5970TIP3   OH217873   4.814   1.567   4.822
 5970TIP3    H117874   4.768   1.553   4.904
 5970TIP3    H217875   4.882   1.499   4.821
 5971TIP3   OH217876   2.198   3.837   3.629
 5971TIP3    H117877   2.133   3.905   3.650
 5971TIP3    H217878   2.150   3.755   3.636
 5972TIP3   OH217879   7.188   1.382   1.243
 5972TIP3    H117880   7.216   1.435   1.168
 5972TIP3    H217881   7.099   1.413   1.262
 5973TIP3   OH217882   4.792   5.232   2.276
 5973TIP3    H117883   4.852   5.213   2.349
 5973TIP3    H217884   4.727   5.291   2.313
 5974TIP3   OH217885   1.966   4.777   3.385
 5974TIP3    H117886   1.910   4.772   3.463
 5974TIP3    H217887   2.054   4.764   3.419
 5975TIP3   OH217888   1.820   1.748   5.315
 5975TIP3    H117889   1.826   1.681   5.383
 5975TIP3    H217890   1.742   1.799   5.339
 5976TIP3   OH217891   4.786   6.597   1.711
 5976TIP3    H117892   4.782   6.680   1.758
 5976TIP3    H217893   4.740   6.535   1.767
 5977TIP3   OH217894   6.612   0.170   5.844
 5977TIP3    H117895   6.641   0.261   5.851
 5977TIP3    H217896   6.668   0.122   5.904
 5978TIP3   OH217897   7.139   2.193   2.268
 5978TIP3    H117898   7.151   2.214   2.176
 5978TIP3    H217899   7.227   2.177   2.301
 5979TIP3   OH217900   0.537   2.667   1.564
 5979TIP3    H117901   0.609   2.725   1.586
 5979TIP3    H217902   0.460   2.706   1.607
 5980TIP3   OH217903   0.351   4.231   4.336
 5980TIP3    H117904   0.360   4.303   4.398
 5980TIP3    H217905   0.388   4.265   4.254
 5981TIP3   OH217906   2.919   1.418   5.042
 5981TIP3    H117907   2.893   1.420   5.134
 5981TIP3    H217908   2.903   1.507   5.010
 5982TIP3   OH217909   5.485   5.172   4.596
 5982TIP3    H117910   5.573   5.154   4.630
 5982TIP3    H217911   5.433   5.096   4.622
 5983TIP3   OH217912   6.162   1.720   0.294
 5983TIP3    H117913   6.240   1.722   0.349
 5983TIP3    H217914   6.095   1.677   0.347
 5984TIP3   OH217915   4.973   2.918   4.421
 5984TIP3    H117916   4.965   2.874   4.506
 5984TIP3    H217917   4.922   2.863   4.361
 5985TIP3   OH217918   3.491   4.003   0.436
 5985TIP3    H117919   3.527   4.008   0.525
 5985TIP3    H217920   3.522   4.082   0.393
 5986TIP3   OH217921   3.439   4.356   1.481
 5986TIP3    H117922   3.363   4.297   1.482
 5986TIP3    H217923   3.511   4.302   1.451
 5987TIP3   OH217924   0.910   5.766   2.866
 5987TIP3    H117925   0.900   5.739   2.957
 5987TIP3    H217926   0.989   5.722   2.836
 5988TIP3   OH217927   1.004   0.148   3.585
 5988TIP3    H117928   0.915   0.172   3.560
 5988TIP3    H217929   1.039   0.102   3.508
 5989TIP3   OH217930   7.203   3.484   4.317
 5989TIP3    H117931   7.123   3.446   4.282
 5989TIP3    H217932   7.247   3.521   4.241
 5990TIP3   OH217933   4.676   4.237   5.450
 5990TIP3    H117934   4.737   4.248   5.377
 5990TIP3    H217935   4.732   4.211   5.524
 5991TIP3   OH217936   6.378   3.583   0.914
 5991TIP3    H117937   6.469   3.563   0.938
 5991TIP3    H217938   6.372   3.678   0.922
 5992TIP3   OH217939   2.306   0.887   4.545
 5992TIP3    H117940   2.336   0.884   4.454
 5992TIP3    H217941   2.372   0.838   4.594
 5993TIP3   OH217942   6.800   5.618   3.837
 5993TIP3    H117943   6.738   5.690   3.850
 5993TIP3    H217944   6.789   5.594   3.745
 5994TIP3   OH217945   3.228   4.825   5.203
 5994TIP3    H117946   3.303   4.831   5.144
 5994TIP3    H217947   3.184   4.744   5.178
 5995TIP3   OH217948   6.812   3.302   2.450
 5995TIP3    H117949   6.855   3.352   2.519
 5995TIP3    H217950   6.732   3.269   2.491
 5996TIP3   OH217951   1.058   6.456   0.160
 5996TIP3    H117952   1.042   6.373   0.205
 5996TIP3    H217953   1.005   6.451   0.080
 5997TIP3   OH217954   6.392   2.851   2.403
 5997TIP3    H117955   6.301   2.853   2.374
 5997TIP3    H217956   6.394   2.781   2.469
 5998TIP3   OH217957   1.967   1.156   1.366
 5998TIP3    H117958   2.043   1.136   1.420
 5998TIP3    H217959   1.973   1.250   1.350
 5999TIP3   OH217960   1.441   0.499   3.662
 5999TIP3    H117961   1.432   0.538   3.749
 5999TIP3    H217962   1.360   0.450   3.649
 6000TIP3   OH217963   5.786   2.378   3.807
 6000TIP3    H117964   5.876   2.393   3.835
 6000TIP3    H217965   5.768   2.288   3.832
 6001TIP3   OH217966   1.252  -0.007   3.960
 6001TIP3    H117967   1.296   0.045   4.028
 6001TIP3    H217968   1.292   0.022   3.878
 6002TIP3   OH217969   4.407   2.551   5.816
 6002TIP3    H117970   4.426   2.544   5.909
 6002TIP3    H217971   4.335   2.490   5.801
 6003TIP3   OH217972   6.398   5.745   1.519
 6003TIP3    H117973   6.367   5.684   1.585
 6003TIP3    H217974   6.458   5.804   1.566
 6004TIP3   OH217975   2.968   0.931   2.404
 6004TIP3    H117976   2.919   0.974   2.474
 6004TIP3    H217977   2.908   0.930   2.330
 6005TIP3   OH217978   3.780   6.299   1.746
 6005TIP3    H117979   3.863   6.328   1.784
 6005TIP3    H217980   3.782   6.331   1.656
 6006TIP3   OH217981   6.533   0.642   0.535
 6006TIP3    H117982   6.477   0.658   0.459
 6006TIP3    H217983   6.514   0.714   0.595
 6007TIP3   OH217984   7.224   0.087   5.536
 6007TIP3    H117985   7.232   0.006   5.485
 6007TIP3    H217986   7.148   0.131   5.498
 6008TIP3   OH217987   1.219   2.757   5.615
 6008TIP3    H117988   1.140   2.761   5.669
 6008TIP3    H217989   1.289   2.736   5.677
 6009TIP3   OH217990   3.845   3.521   3.989
 6009TIP3    H117991   3.791   3.546   3.914
 6009TIP3    H217992   3.917   3.472   3.951
 6010TIP3   OH217993   3.345   5.212   5.612
 6010TIP3    H117994   3.263   5.175   5.643
 6010TIP3    H217995   3.319   5.271   5.541
 6011TIP3   OH217996   3.279   5.055   2.767
 6011TIP3    H117997   3.239   5.044   2.853
 6011TIP3    H217998   3.339   5.129   2.778
 6012TIP3   OH217999   1.470   4.481   5.179
 6012TIP3    H118000   1.400   4.536   5.143
 6012TIP3    H218001   1.466   4.496   5.273
 6013TIP3   OH218002   1.034   1.488   0.534
 6013TIP3    H118003   1.099   1.423   0.507
 6013TIP3    H218004   1.022   1.543   0.456
 6014TIP3   OH218005   2.426   0.283   4.973
 6014TIP3    H118006   2.429   0.207   4.914
 6014TIP3    H218007   2.345   0.272   5.023
 6015TIP3   OH218008   2.950   2.970   4.687
 6015TIP3    H118009   3.012   3.033   4.651
 6015TIP3    H218010   2.935   2.999   4.777
 6016TIP3   OH218011   0.030   0.981   0.334
 6016TIP3    H118012   0.016   0.943   0.247
 6016TIP3    H218013   0.090   0.921   0.377
 6017TIP3   OH218014   6.832   5.661   3.012
 6017TIP3    H118015   6.811   5.607   2.936
 6017TIP3    H218016   6.766   5.730   3.011
 6018TIP3   OH218017   1.639   5.628   5.631
 6018TIP3    H118018   1.567   5.691   5.619
 6018TIP3    H218019   1.685   5.628   5.547
 6019TIP3   OH218020   6.543   3.654   4.847
 6019TIP3    H118021   6.564   3.653   4.940
 6019TIP3    H218022   6.473   3.589   4.837
 6020TIP3   OH218023   0.237   3.342   3.812
 6020TIP3    H118024   0.181   3.417   3.793
 6020TIP3    H218025   0.195   3.300   3.887
 6021TIP3   OH218026   2.354   6.494   4.101
 6021TIP3    H118027   2.354   6.479   4.196
 6021TIP3    H218028   2.392   6.581   4.090
 6022TIP3   OH218029   4.179   0.919   3.601
 6022TIP3    H118030   4.165   0.872   3.683
 6022TIP3    H218031   4.208   0.852   3.539
 6023TIP3   OH218032   4.649   2.471   1.453
 6023TIP3    H118033   4.625   2.537   1.518
 6023TIP3    H218034   4.567   2.429   1.430
 6024TIP3   OH218035   4.146   2.773   5.542
 6024TIP3    H118036   4.208   2.767   5.469
 6024TIP3    H218037   4.106   2.860   5.531
 6025TIP3   OH218038   2.803   4.339   4.331
 6025TIP3    H118039   2.747   4.324   4.255
 6025TIP3    H218040   2.852   4.257   4.342
 6026TIP3   OH218041   4.985   5.640   0.998
 6026TIP3    H118042   4.944   5.725   1.012
 6026TIP3    H218043   4.976   5.623   0.904
 6027TIP3   OH218044   1.519   2.535   0.411
 6027TIP3    H118045   1.569   2.609   0.377
 6027TIP3    H218046   1.444   2.575   0.455
 6028TIP3   OH218047   5.634   6.512   0.765
 6028TIP3    H118048   5.639   6.553   0.678
 6028TIP3    H218049   5.588   6.576   0.819
 6029TIP3   OH218050   7.138   1.329   3.879
 6029TIP3    H118051   7.137   1.235   3.861
 6029TIP3    H218052   7.109   1.336   3.970
 6030TIP3   OH218053   1.619   5.940   4.465
 6030TIP3    H118054   1.675   6.017   4.473
 6030TIP3    H218055   1.602   5.932   4.371
 6031TIP3   OH218056   1.195   1.322   4.305
 6031TIP3    H118057   1.160   1.385   4.241
 6031TIP3    H218058   1.232   1.252   4.251
 6032TIP3   OH218059   6.401   3.123   4.343
 6032TIP3    H118060   6.495   3.114   4.323
 6032TIP3    H218061   6.381   3.047   4.397
 6033TIP3   OH218062   5.330   3.422   2.554
 6033TIP3    H118063   5.374   3.422   2.470
 6033TIP3    H218064   5.284   3.338   2.558
 6034TIP3   OH218065   6.162   6.241   0.330
 6034TIP3    H118066   6.198   6.323   0.365
 6034TIP3    H218067   6.077   6.233   0.373
 6035TIP3   OH218068   3.555   0.398   4.231
 6035TIP3    H118069   3.537   0.310   4.264
 6035TIP3    H218070   3.650   0.408   4.239
 6036TIP3   OH218071   0.795   5.843   3.350
 6036TIP3    H118072   0.846   5.923   3.367
 6036TIP3    H218073   0.797   5.796   3.434
 6037TIP3   OH218074   6.560   6.671   4.604
 6037TIP3    H118075   6.487   6.706   4.552
 6037TIP3    H218076   6.598   6.748   4.646
 6038TIP3   OH218077   2.174   4.452   2.004
 6038TIP3    H118078   2.206   4.373   2.049
 6038TIP3    H218079   2.097   4.478   2.054
 6039TIP3   OH218080   3.574   4.406   4.601
 6039TIP3    H118081   3.543   4.334   4.545
 6039TIP3    H218082   3.494   4.445   4.636
 6040TIP3   OH218083   6.250   0.974   4.489
 6040TIP3    H118084   6.231   1.061   4.526
 6040TIP3    H218085   6.254   0.916   4.565
 6041TIP3   OH218086   2.563   5.350   1.111
 6041TIP3    H118087   2.655   5.326   1.120
 6041TIP3    H218088   2.544   5.399   1.191
 6042TIP3   OH218089   5.956   2.978   5.667
 6042TIP3    H118090   5.950   2.917   5.741
 6042TIP3    H218091   5.879   2.958   5.613
 6043TIP3   OH218092   0.480   4.860   5.343
 6043TIP3    H118093   0.510   4.795   5.278
 6043TIP3    H218094   0.497   4.818   5.427
 6044TIP3   OH218095   1.048   2.230   1.312
 6044TIP3    H118096   1.095   2.158   1.354
 6044TIP3    H218097   1.116   2.297   1.298
 6045TIP3   OH218098   1.502   5.952   0.085
 6045TIP3    H118099   1.567   6.022   0.089
 6045TIP3    H218100   1.553   5.872   0.084
 6046TIP3   OH218101   4.372   1.721   1.773
 6046TIP3    H118102   4.330   1.636   1.762
 6046TIP3    H218103   4.300   1.784   1.777
 6047TIP3   OH218104   0.641   4.048   4.177
 6047TIP3    H118105   0.676   4.087   4.097
 6047TIP3    H218106   0.706   4.067   4.244
 6048TIP3   OH218107   6.965   4.857   0.112
 6048TIP3    H118108   6.893   4.841   0.174
 6048TIP3    H218109   6.938   4.811   0.032
 6049TIP3   OH218110   4.075   6.647   2.389
 6049TIP3    H118111   4.004   6.697   2.428
 6049TIP3    H218112   4.143   6.643   2.457
 6050TIP3   OH218113   0.890   4.117   1.959
 6050TIP3    H118114   0.823   4.052   1.937
 6050TIP3    H218115   0.922   4.090   2.045
 6051TIP3   OH218116   4.814   0.317   2.529
 6051TIP3    H118117   4.887   0.286   2.476
 6051TIP3    H218118   4.813   0.412   2.516
 6052TIP3   OH218119   5.639   2.795   1.866
 6052TIP3    H118120   5.647   2.889   1.880
 6052TIP3    H218121   5.570   2.786   1.801
 6053TIP3   OH218122   2.529   5.965   4.168
 6053TIP3    H118123   2.465   5.925   4.110
 6053TIP3    H218124   2.484   6.041   4.205
 6054TIP3   OH218125   1.152   6.609   4.162
 6054TIP3    H118126   1.213   6.677   4.192
 6054TIP3    H218127   1.155   6.613   4.067
 6055TIP3   OH218128   6.697   1.100   0.069
 6055TIP3    H118129   6.627   1.094   0.003
 6055TIP3    H218130   6.713   1.194   0.077
 6056TIP3   OH218131   1.860   2.317   2.164
 6056TIP3    H118132   1.843   2.264   2.242
 6056TIP3    H218133   1.786   2.300   2.106
 6057TIP3   OH218134   4.036   1.070   4.184
 6057TIP3    H118135   3.956   1.108   4.222
 6057TIP3    H218136   4.081   1.144   4.143
 6058TIP3   OH218137   2.692   5.668   2.843
 6058TIP3    H118138   2.729   5.627   2.921
 6058TIP3    H218139   2.675   5.759   2.869
 6059TIP3   OH218140   2.102   5.966   3.767
 6059TIP3    H118141   2.057   5.939   3.687
 6059TIP3    H218142   2.195   5.951   3.749
 6060TIP3   OH218143   3.452   3.744   2.776
 6060TIP3    H118144   3.534   3.778   2.739
 6060TIP3    H218145   3.430   3.669   2.721
 6061TIP3   OH218146   3.967   1.694   1.486
 6061TIP3    H118147   4.033   1.731   1.428
 6061TIP3    H218148   3.896   1.668   1.427
 6062TIP3   OH218149   6.102   6.766   2.472
 6062TIP3    H118150   6.053   6.702   2.420
 6062TIP3    H218151   6.159   6.810   2.409
 6063TIP3   OH218152   5.071   0.585   2.627
 6063TIP3    H118153   5.028   0.562   2.709
 6063TIP3    H218154   5.148   0.528   2.624
 6064TIP3   OH218155   1.208   3.214   1.906
 6064TIP3    H118156   1.295   3.246   1.880
 6064TIP3    H218157   1.153   3.292   1.903
 6065TIP3   OH218158   4.263   2.132   2.159
 6065TIP3    H118159   4.255   2.143   2.254
 6065TIP3    H218160   4.248   2.220   2.124
 6066TIP3   OH218161   6.365   6.598   5.389
 6066TIP3    H118162   6.438   6.599   5.451
 6066TIP3    H218163   6.292   6.562   5.439
 6067TIP3   OH218164   2.369   2.729   1.698
 6067TIP3    H118165   2.384   2.700   1.788
 6067TIP3    H218166   2.428   2.803   1.687
 6068TIP3   OH218167   1.787   6.450   1.798
 6068TIP3    H118168   1.703   6.482   1.831
 6068TIP3    H218169   1.777   6.448   1.703
 6069TIP3   OH218170   5.721   6.383   5.895
 6069TIP3    H118171   5.747   6.363   5.805
 6069TIP3    H218172   5.626   6.378   5.894
 6070TIP3   OH218173   2.897   4.533   4.494
 6070TIP3    H118174   2.864   4.476   4.564
 6070TIP3    H218175   2.895   4.478   4.416
 6071TIP3   OH218176   0.302   6.438   1.962
 6071TIP3    H118177   0.244   6.483   1.900
 6071TIP3    H218178   0.243   6.400   2.027
 6072TIP3   OH218179   3.430   6.036   4.136
 6072TIP3    H118180   3.507   6.025   4.192
 6072TIP3    H218181   3.367   5.972   4.168
 6073TIP3   OH218182   5.644   3.247   0.550
 6073TIP3    H118183   5.711   3.248   0.619
 6073TIP3    H218184   5.673   3.314   0.488
 6074TIP3   OH218185   3.936   4.556   1.796
 6074TIP3    H118186   3.890   4.628   1.752
 6074TIP3    H218187   3.965   4.498   1.726
 6075TIP3   OH218188   6.963   6.759   1.826
 6075TIP3    H118189   6.870   6.762   1.800
 6075TIP3    H218190   6.981   6.667   1.843
 6076TIP3   OH218191   5.722   4.576   1.744
 6076TIP3    H118192   5.812   4.595   1.718
 6076TIP3    H218193   5.673   4.574   1.662
 6077TIP3   OH218194   2.339   5.299   3.236
 6077TIP3    H118195   2.306   5.364   3.298
 6077TIP3    H218196   2.388   5.237   3.291
 6078TIP3   OH218197   0.506   5.909   0.553
 6078TIP3    H118198   0.425   5.889   0.601
 6078TIP3    H218199   0.563   5.950   0.619
 6079TIP3   OH218200   1.633   6.197   0.444
 6079TIP3    H118201   1.708   6.143   0.467
 6079TIP3    H218202   1.558   6.154   0.487
 6080TIP3   OH218203   4.444   1.863   0.979
 6080TIP3    H118204   4.512   1.823   1.033
 6080TIP3    H218205   4.473   1.953   0.966
 6081TIP3   OH218206   5.167   5.377   4.162
 6081TIP3    H118207   5.179   5.323   4.240
 6081TIP3    H218208   5.127   5.319   4.098
 6082TIP3   OH218209   4.651   6.271   0.952
 6082TIP3    H118210   4.714   6.300   0.885
 6082TIP3    H218211   4.571   6.320   0.931
 6083TIP3   OH218212   5.803   1.106   2.469
 6083TIP3    H118213   5.825   1.103   2.376
 6083TIP3    H218214   5.850   1.032   2.507
 6084TIP3   OH218215   2.237   4.484   5.683
 6084TIP3    H118216   2.287   4.515   5.608
 6084TIP3    H218217   2.258   4.545   5.753
 6085TIP3   OH218218   5.784   3.772   2.125
 6085TIP3    H118219   5.840   3.774   2.047
 6085TIP3    H218220   5.695   3.777   2.090
 6086TIP3   OH218221   4.956   3.942   1.935
 6086TIP3    H118222   4.988   3.853   1.950
 6086TIP3    H218223   4.862   3.936   1.946
 6087TIP3   OH218224   6.479   6.671   1.247
 6087TIP3    H118225   6.407   6.710   1.198
 6087TIP3    H218226   6.533   6.628   1.180
 6088TIP3   OH218227   6.651   4.568   0.135
 6088TIP3    H118228   6.596   4.530   0.203
 6088TIP3    H218229   6.738   4.576   0.176
 6089TIP3   OH218230   0.394   1.235   1.537
 6089TIP3    H118231   0.353   1.157   1.573
 6089TIP3    H218232   0.456   1.263   1.605
 6090TIP3   OH218233   6.090   5.720   3.609
 6090TIP3    H118234   6.121   5.637   3.572
 6090TIP3    H218235   6.150   5.786   3.573
 6091TIP3   OH218236   5.069   1.650   4.639
 6091TIP3    H118237   5.040   1.684   4.555
 6091TIP3    H218238   5.159   1.680   4.648
 6092TIP3   OH218239   6.951   1.994   2.588
 6092TIP3    H118240   6.943   2.081   2.549
 6092TIP3    H218241   7.014   1.949   2.531
 6093TIP3   OH218242   5.321   0.841   5.150
 6093TIP3    H118243   5.369   0.773   5.102
 6093TIP3    H218244   5.265   0.882   5.085
 6094TIP3   OH218245   5.362   1.737   0.767
 6094TIP3    H118246   5.303   1.785   0.709
 6094TIP3    H218247   5.392   1.663   0.714
 6095TIP3   OH218248   1.174   5.048   3.784
 6095TIP3    H118249   1.233   4.999   3.725
 6095TIP3    H218250   1.232   5.087   3.849
 6096TIP3   OH218251   4.406   6.381   5.909
 6096TIP3    H118252   4.437   6.377   5.819
 6096TIP3    H218253   4.471   6.330   5.958
 6097TIP3   OH218254   1.856   2.520   4.039
 6097TIP3    H118255   1.834   2.586   4.105
 6097TIP3    H218256   1.932   2.474   4.076
 6098TIP3   OH218257   1.198   2.997   2.777
 6098TIP3    H118258   1.243   3.005   2.861
 6098TIP3    H218259   1.216   2.907   2.749
 6099TIP3   OH218260   4.477   1.865   0.697
 6099TIP3    H118261   4.452   1.838   0.785
 6099TIP3    H218262   4.552   1.810   0.676
 6100TIP3   OH218263   2.850   1.770   2.764
 6100TIP3    H118264   2.852   1.866   2.758
 6100TIP3    H218265   2.856   1.752   2.858
 6101TIP3   OH218266   0.923   0.840   4.582
 6101TIP3    H118267   0.830   0.840   4.602
 6101TIP3    H218268   0.927   0.856   4.487
 6102TIP3   OH218269   6.876   5.812   4.415
 6102TIP3    H118270   6.927   5.731   4.416
 6102TIP3    H218271   6.900   5.855   4.333
 6103TIP3   OH218272   0.528   6.610   2.332
 6103TIP3    H118273   0.616   6.573   2.340
 6103TIP3    H218274   0.532   6.666   2.254
 6104TIP3   OH218275   1.886   0.892   1.465
 6104TIP3    H118276   1.803   0.922   1.502
 6104TIP3    H218277   1.922   0.970   1.423
 6105TIP3   OH218278   4.743   3.333   4.590
 6105TIP3    H118279   4.727   3.256   4.644
 6105TIP3    H218280   4.680   3.398   4.620
 6106TIP3   OH218281   5.141   1.300   2.642
 6106TIP3    H118282   5.067   1.304   2.702
 6106TIP3    H218283   5.186   1.219   2.665
 6107TIP3   OH218284   3.064   4.415   4.775
 6107TIP3    H118285   3.139   4.465   4.741
 6107TIP3    H218286   3.023   4.474   4.838
 6108TIP3   OH218287   6.272   5.372   0.662
 6108TIP3    H118288   6.229   5.409   0.584
 6108TIP3    H218289   6.299   5.448   0.713
 6109TIP3   OH218290   4.600   6.773   3.913
 6109TIP3    H118291   4.610   6.865   3.889
 6109TIP3    H218292   4.527   6.742   3.859
 6110TIP3   OH218293   1.955   5.568   1.863
 6110TIP3    H118294   1.899   5.604   1.932
 6110TIP3    H218295   1.913   5.594   1.781
 6111TIP3   OH218296   0.071   3.568   1.674
 6111TIP3    H118297   0.066   3.599   1.583
 6111TIP3    H218298   0.006   3.499   1.679
 6112TIP3   OH218299   5.676   2.030   5.204
 6112TIP3    H118300   5.595   2.005   5.248
 6112TIP3    H218301   5.659   2.015   5.111
 6113TIP3   OH218302   4.142   0.232   4.748
 6113TIP3    H118303   4.129   0.281   4.829
 6113TIP3    H218304   4.210   0.168   4.770
 6114TIP3   OH218305   2.448   5.164   2.629
 6114TIP3    H118306   2.509   5.102   2.670
 6114TIP3    H218307   2.462   5.246   2.677
 6115TIP3   OH218308   5.638   1.881   5.685
 6115TIP3    H118309   5.637   1.966   5.642
 6115TIP3    H218310   5.551   1.844   5.667
 6116TIP3   OH218311   7.145   2.135   5.270
 6116TIP3    H118312   7.207   2.202   5.242
 6116TIP3    H218313   7.197   2.073   5.321
 6117TIP3   OH218314   6.656   0.926   3.605
 6117TIP3    H118315   6.723   0.877   3.557
 6117TIP3    H218316   6.703   1.000   3.643
 6118TIP3   OH218317   3.373   0.894   5.302
 6118TIP3    H118318   3.434   0.838   5.255
 6118TIP3    H218319   3.299   0.837   5.324
 6119TIP3   OH218320   2.558   5.798   2.078
 6119TIP3    H118321   2.525   5.873   2.128
 6119TIP3    H218322   2.640   5.774   2.122
 6120TIP3   OH218323   7.212   6.491   3.505
 6120TIP3    H118324   7.182   6.419   3.560
 6120TIP3    H218325   7.290   6.525   3.550
 6121TIP3   OH218326   0.722   3.453   2.384
 6121TIP3    H118327   0.675   3.500   2.453
 6121TIP3    H218328   0.672   3.472   2.305
 6122TIP3   OH218329   2.254   6.642   1.055
 6122TIP3    H118330   2.196   6.696   1.109
 6122TIP3    H218331   2.246   6.678   0.967
 6123TIP3   OH218332   3.892   1.123   3.142
 6123TIP3    H118333   3.963   1.071   3.181
 6123TIP3    H218334   3.814   1.069   3.152
 6124TIP3   OH218335   6.215   1.944   5.823
 6124TIP3    H118336   6.222   1.875   5.757
 6124TIP3    H218337   6.230   2.025   5.775
 6125TIP3   OH218338   0.294   3.009   3.058
 6125TIP3    H118339   0.336   3.093   3.078
 6125TIP3    H218340   0.309   2.955   3.135
 6126TIP3   OH218341   1.460   2.025   1.513
 6126TIP3    H118342   1.537   1.993   1.560
 6126TIP3    H218343   1.411   2.075   1.579
 6127TIP3   OH218344   1.865   1.621   3.132
 6127TIP3    H118345   1.948   1.622   3.180
 6127TIP3    H218346   1.800   1.649   3.197
 6128TIP3   OH218347   3.080   3.228   2.370
 6128TIP3    H118348   2.996   3.274   2.375
 6128TIP3    H218349   3.057   3.137   2.353
 6129TIP3   OH218350   0.249   0.285   3.182
 6129TIP3    H118351   0.260   0.196   3.218
 6129TIP3    H218352   0.280   0.342   3.252
 6130TIP3   OH218353   2.051   6.224   5.721
 6130TIP3    H118354   2.147   6.224   5.718
 6130TIP3    H218355   2.025   6.298   5.667
 6131TIP3   OH218356   0.583   6.056   1.793
 6131TIP3    H118357   0.621   6.026   1.875
 6131TIP3    H218358   0.619   5.998   1.726
 6132TIP3   OH218359   4.075   6.378   4.303
 6132TIP3    H118360   4.158   6.346   4.270
 6132TIP3    H218361   4.059   6.328   4.383
 6133TIP3   OH218362   3.437   1.633   0.947
 6133TIP3    H118363   3.470   1.723   0.950
 6133TIP3    H218364   3.370   1.634   0.879
 6134TIP3   OH218365   3.413   0.935   2.637
 6134TIP3    H118366   3.383   0.878   2.566
 6134TIP3    H218367   3.507   0.946   2.622
 6135TIP3   OH218368   0.720   6.329   5.863
 6135TIP3    H118369   0.783   6.336   5.792
 6135TIP3    H218370   0.635   6.329   5.820
 6136TIP3   OH218371   5.887   6.516   5.030
 6136TIP3    H118372   5.838   6.556   5.102
 6136TIP3    H218373   5.978   6.538   5.049
 6137TIP3   OH218374   0.393   6.232   3.368
 6137TIP3    H118375   0.350   6.259   3.449
 6137TIP3    H218376   0.321   6.202   3.312
 6138TIP3   OH218377   4.175   1.562   1.639
 6138TIP3    H118378   4.100   1.618   1.617
 6138TIP3    H218379   4.186   1.506   1.562
 6139TIP3   OH218380   3.290   1.939   1.100
 6139TIP3    H118381   3.383   1.929   1.119
 6139TIP3    H218382   3.282   1.922   1.006
 6140TIP3   OH218383   0.328   2.661   5.061
 6140TIP3    H118384   0.330   2.570   5.092
 6140TIP3    H218385   0.312   2.712   5.140
 6141TIP3   OH218386   5.585   4.325   2.499
 6141TIP3    H118387   5.652   4.367   2.554
 6141TIP3    H218388   5.505   4.330   2.551
 6142TIP3   OH218389   3.097   4.039   2.549
 6142TIP3    H118390   3.111   3.985   2.471
 6142TIP3    H218391   3.144   4.120   2.531
 6143TIP3   OH218392   0.496   1.331   5.581
 6143TIP3    H118393   0.524   1.366   5.497
 6143TIP3    H218394   0.518   1.400   5.644
 6144TIP3   OH218395   0.511   6.290   0.305
 6144TIP3    H118396   0.446   6.219   0.303
 6144TIP3    H218397   0.592   6.247   0.331
 6145TIP3   OH218398   4.479   2.619   5.100
 6145TIP3    H118399   4.524   2.562   5.037
 6145TIP3    H218400   4.543   2.686   5.122
 6146TIP3   OH218401   0.629   0.407   4.670
 6146TIP3    H118402   0.669   0.377   4.589
 6146TIP3    H218403   0.700   0.407   4.734
 6147TIP3   OH218404   3.870   1.239   5.433
 6147TIP3    H118405   3.934   1.182   5.391
 6147TIP3    H218406   3.916   1.275   5.509
 6148TIP3   OH218407   5.304   3.404   2.968
 6148TIP3    H118408   5.367   3.416   2.897
 6148TIP3    H218409   5.252   3.484   2.967
 6149TIP3   OH218410   0.050   6.054   1.892
 6149TIP3    H118411   0.081   6.093   1.974
 6149TIP3    H218412  -0.033   6.012   1.916
 6150TIP3   OH218413   3.296   2.876   5.878
 6150TIP3    H118414   3.203   2.886   5.860
 6150TIP3    H218415   3.330   2.965   5.877
 6151TIP3   OH218416   5.561   5.067   4.070
 6151TIP3    H118417   5.504   5.144   4.081
 6151TIP3    H218418   5.635   5.085   4.129
 6152TIP3   OH218419   6.975   5.925   4.196
 6152TIP3    H118420   7.065   5.943   4.222
 6152TIP3    H218421   6.980   5.846   4.144
 6153TIP3   OH218422   3.284   4.643   0.129
 6153TIP3    H118423   3.247   4.556   0.113
 6153TIP3    H218424   3.253   4.697   0.056
 6154TIP3   OH218425   7.195   3.513   4.807
 6154TIP3    H118426   7.103   3.484   4.805
 6154TIP3    H218427   7.189   3.608   4.815
 6155TIP3   OH218428   3.935   3.726   3.232
 6155TIP3    H118429   3.903   3.648   3.186
 6155TIP3    H218430   4.009   3.757   3.180
 6156TIP3   OH218431   6.479   0.250   5.475
 6156TIP3    H118432   6.400   0.275   5.427
 6156TIP3    H218433   6.472   0.297   5.558
 6157TIP3   OH218434   2.265   0.586   5.557
 6157TIP3    H118435   2.354   0.597   5.590
 6157TIP3    H218436   2.213   0.569   5.635
 6158TIP3   OH218437   0.100   3.798   4.240
 6158TIP3    H118438   0.018   3.845   4.230
 6158TIP3    H218439   0.087   3.716   4.193
 6159TIP3   OH218440   4.368   4.109   3.518
 6159TIP3    H118441   4.297   4.171   3.536
 6159TIP3    H218442   4.401   4.084   3.604
 6160TIP3   OH218443   0.749   4.435   5.483
 6160TIP3    H118444   0.788   4.373   5.421
 6160TIP3    H218445   0.794   4.417   5.566
 6161TIP3   OH218446   0.992   6.444   3.723
 6161TIP3    H118447   0.927   6.426   3.791
 6161TIP3    H218448   1.031   6.359   3.705
 6162TIP3   OH218449   4.762   2.948   0.015
 6162TIP3    H118450   4.694   2.881   0.011
 6162TIP3    H218451   4.753   2.987   0.102
 6163TIP3   OH218452   7.122   4.723   0.639
 6163TIP3    H118453   7.071   4.755   0.714
 6163TIP3    H218454   7.211   4.754   0.656
 6164TIP3   OH218455   5.027   6.653   0.444
 6164TIP3    H118456   4.946   6.636   0.491
 6164TIP3    H218457   5.060   6.734   0.482
 6165TIP3   OH218458   0.935   0.590   2.414
 6165TIP3    H118459   0.886   0.634   2.345
 6165TIP3    H218460   0.869   0.543   2.465
 6166TIP3   OH218461   0.918   3.371   4.695
 6166TIP3    H118462   0.869   3.296   4.661
 6166TIP3    H218463   0.902   3.370   4.789
 6167TIP3   OH218464   0.195   2.645   0.295
 6167TIP3    H118465   0.217   2.706   0.225
 6167TIP3    H218466   0.144   2.696   0.357
 6168TIP3   OH218467   2.701   5.181   0.393
 6168TIP3    H118468   2.670   5.266   0.424
 6168TIP3    H218469   2.676   5.119   0.461
 6169TIP3   OH218470   5.085   6.632   3.678
 6169TIP3    H118471   5.020   6.665   3.741
 6169TIP3    H218472   5.037   6.626   3.595
 6170TIP3   OH218473   6.685   4.719   1.577
 6170TIP3    H118474   6.751   4.781   1.607
 6170TIP3    H218475   6.725   4.633   1.590
 6171TIP3   OH218476   1.662   5.157   5.716
 6171TIP3    H118477   1.607   5.079   5.714
 6171TIP3    H218478   1.721   5.143   5.790
 6172TIP3   OH218479   0.015   1.685   5.844
 6172TIP3    H118480   0.061   1.669   5.926
 6172TIP3    H218481   0.035   1.609   5.790
 6173TIP3   OH218482   0.102   0.221   2.445
 6173TIP3    H118483   0.077   0.140   2.400
 6173TIP3    H218484   0.099   0.199   2.538
 6174TIP3   OH218485   5.091   0.739   1.376
 6174TIP3    H118486   5.101   0.834   1.382
 6174TIP3    H218487   5.013   0.720   1.427
 6175TIP3   OH218488   4.380   0.811   2.678
 6175TIP3    H118489   4.367   0.720   2.705
 6175TIP3    H218490   4.469   0.813   2.644
 6176TIP3   OH218491   3.032   6.177   4.935
 6176TIP3    H118492   2.948   6.165   4.891
 6176TIP3    H218493   3.024   6.262   4.979
 6177TIP3   OH218494   3.467   3.757   1.074
 6177TIP3    H118495   3.405   3.829   1.090
 6177TIP3    H218496   3.446   3.727   0.986
 6178TIP3   OH218497   1.140   2.643   3.889
 6178TIP3    H118498   1.080   2.576   3.924
 6178TIP3    H218499   1.087   2.722   3.882
 6179TIP3   OH218500   5.842   1.842   2.527
 6179TIP3    H118501   5.924   1.874   2.488
 6179TIP3    H218502   5.776   1.857   2.459
 6180TIP3   OH218503   4.746   5.874   5.230
 6180TIP3    H118504   4.724   5.928   5.154
 6180TIP3    H218505   4.707   5.789   5.211
 6181TIP3   OH218506   1.678   1.460   1.812
 6181TIP3    H118507   1.668   1.407   1.891
 6181TIP3    H218508   1.761   1.431   1.775
 6182TIP3   OH218509   3.626   4.909   4.435
 6182TIP3    H118510   3.668   4.825   4.422
 6182TIP3    H218511   3.630   4.924   4.530
 6183TIP3   OH218512   4.462   3.752   3.053
 6183TIP3    H118513   4.436   3.760   2.961
 6183TIP3    H218514   4.518   3.828   3.069
 6184TIP3   OH218515   1.352   3.638   3.475
 6184TIP3    H118516   1.435   3.608   3.438
 6184TIP3    H218517   1.307   3.680   3.402
 6185TIP3   OH218518   2.832   1.090   5.126
 6185TIP3    H118519   2.854   1.175   5.088
 6185TIP3    H218520   2.746   1.068   5.090
 6186TIP3   OH218521   0.833   0.985   3.789
 6186TIP3    H118522   0.850   1.075   3.818
 6186TIP3    H218523   0.864   0.982   3.699
 6187TIP3   OH218524   2.146   1.892   2.680
 6187TIP3    H118525   2.051   1.888   2.673
 6187TIP3    H218526   2.173   1.951   2.609
 6188TIP3   OH218527   2.722   4.989   1.882
 6188TIP3    H118528   2.696   4.938   1.959
 6188TIP3    H218529   2.817   4.980   1.879
 6189TIP3   OH218530   4.953   3.975   3.517
 6189TIP3    H118531   4.890   3.948   3.584
 6189TIP3    H218532   4.968   4.068   3.536
 6190TIP3   OH218533   2.661   3.658   0.653
 6190TIP3    H118534   2.586   3.708   0.623
 6190TIP3    H218535   2.662   3.581   0.596
 6191TIP3   OH218536   2.271   1.696   3.029
 6191TIP3    H118537   2.241   1.784   3.009
 6191TIP3    H218538   2.240   1.642   2.956
 6192TIP3   OH218539   1.537   2.482   1.454
 6192TIP3    H118540   1.452   2.475   1.409
 6192TIP3    H218541   1.529   2.424   1.529
 6193TIP3   OH218542   2.237   3.491   2.004
 6193TIP3    H118543   2.231   3.542   1.923
 6193TIP3    H218544   2.147   3.466   2.023
 6194TIP3   OH218545   5.520   3.488   5.304
 6194TIP3    H118546   5.519   3.503   5.399
 6194TIP3    H218547   5.460   3.553   5.269
 6195TIP3   OH218548   6.315   5.071   5.543
 6195TIP3    H118549   6.348   5.016   5.472
 6195TIP3    H218550   6.255   5.014   5.592
 6196TIP3   OH218551   5.010   3.088   3.363
 6196TIP3    H118552   5.007   3.180   3.337
 6196TIP3    H218553   4.918   3.064   3.372
 6197TIP3   OH218554   1.582   0.999   3.824
 6197TIP3    H118555   1.514   0.940   3.857
 6197TIP3    H218556   1.651   0.996   3.890
 6198TIP3   OH218557   5.544   2.359   3.170
 6198TIP3    H118558   5.456   2.328   3.148
 6198TIP3    H218559   5.554   2.336   3.262
 6199TIP3   OH218560   1.299   5.295   0.870
 6199TIP3    H118561   1.288   5.372   0.813
 6199TIP3    H218562   1.392   5.272   0.861
 6200TIP3   OH218563   6.058   2.450   4.235
 6200TIP3    H118564   6.082   2.371   4.284
 6200TIP3    H218565   6.065   2.424   4.143
 6201TIP3   OH218566   6.054   3.225   0.157
 6201TIP3    H118567   6.113   3.300   0.150
 6201TIP3    H218568   5.967   3.263   0.171
 6202TIP3   OH218569   2.626   4.769   1.366
 6202TIP3    H118570   2.665   4.848   1.329
 6202TIP3    H218571   2.626   4.784   1.460
 6203TIP3   OH218572   6.853   1.205   2.494
 6203TIP3    H118573   6.830   1.292   2.526
 6203TIP3    H218574   6.931   1.219   2.439
 6204TIP3   OH218575   6.425   4.105   1.341
 6204TIP3    H118576   6.347   4.158   1.361
 6204TIP3    H218577   6.407   4.020   1.382
 6205TIP3   OH218578   4.260   0.804   2.184
 6205TIP3    H118579   4.298   0.880   2.227
 6205TIP3    H218580   4.328   0.773   2.124
 6206TIP3   OH218581   1.006   0.704   0.875
 6206TIP3    H118582   1.068   0.688   0.803
 6206TIP3    H218583   0.920   0.706   0.832
 6207TIP3   OH218584   6.582   3.534   3.690
 6207TIP3    H118585   6.527   3.460   3.667
 6207TIP3    H218586   6.617   3.513   3.776
 6208TIP3   OH218587   6.629   3.022   2.469
 6208TIP3    H118588   6.610   3.108   2.432
 6208TIP3    H218589   6.569   2.963   2.423
 6209TIP3   OH218590   6.883   3.966   2.891
 6209TIP3    H118591   6.938   3.891   2.868
 6209TIP3    H218592   6.797   3.944   2.854
 6210TIP3   OH218593   5.256   4.045   2.435
 6210TIP3    H118594   5.338   4.036   2.484
 6210TIP3    H218595   5.283   4.081   2.351
 6211TIP3   OH218596   6.642   6.790   5.415
 6211TIP3    H118597   6.594   6.727   5.469
 6211TIP3    H218598   6.722   6.745   5.391
 6212TIP3   OH218599   6.394   5.352   4.923
 6212TIP3    H118600   6.441   5.390   4.848
 6212TIP3    H218601   6.377   5.427   4.981
 6213TIP3   OH218602   3.886   1.175   3.596
 6213TIP3    H118603   3.823   1.202   3.529
 6213TIP3    H218604   3.948   1.119   3.548
 6214TIP3   OH218605   3.987   4.838   1.549
 6214TIP3    H118606   4.062   4.781   1.533
 6214TIP3    H218607   3.994   4.906   1.482
 6215TIP3   OH218608   6.683   3.192   4.568
 6215TIP3    H118609   6.649   3.102   4.571
 6215TIP3    H218610   6.619   3.243   4.617
 6216TIP3   OH218611   1.341   3.150   4.927
 6216TIP3    H118612   1.283   3.123   4.855
 6216TIP3    H218613   1.308   3.236   4.953
 6217TIP3   OH218614   2.321   5.375   5.398
 6217TIP3    H118615   2.316   5.468   5.419
 6217TIP3    H218616   2.279   5.331   5.472
 6218TIP3   OH218617   2.434   0.793   2.817
 6218TIP3    H118618   2.502   0.780   2.884
 6218TIP3    H218619   2.453   0.728   2.750
 6219TIP3   OH218620   3.337   1.714   4.932
 6219TIP3    H118621   3.288   1.682   4.857
 6219TIP3    H218622   3.378   1.795   4.902
 6220TIP3   OH218623   6.535   5.139   2.142
 6220TIP3    H118624   6.508   5.218   2.095
 6220TIP3    H218625   6.520   5.068   2.079
 6221TIP3   OH218626   5.439   3.037   5.493
 6221TIP3    H118627   5.400   2.972   5.551
 6221TIP3    H218628   5.497   3.089   5.550
 6222TIP3   OH218629   1.209   6.784   5.428
 6222TIP3    H118630   1.276   6.716   5.425
 6222TIP3    H218631   1.164   6.769   5.512
 6223TIP3   OH218632   3.631   1.596   4.158
 6223TIP3    H118633   3.674   1.515   4.132
 6223TIP3    H218634   3.681   1.625   4.235
 6224TIP3   OH218635   2.796   0.457   1.018
 6224TIP3    H118636   2.834   0.542   1.041
 6224TIP3    H218637   2.855   0.393   1.057
 6225TIP3   OH218638   6.668   6.465   5.001
 6225TIP3    H118639   6.586   6.443   5.046
 6225TIP3    H218640   6.662   6.560   4.987
 6226TIP3   OH218641   1.966   2.534   1.987
 6226TIP3    H118642   1.986   2.441   1.994
 6226TIP3    H218643   1.879   2.537   1.947
 6227TIP3   OH218644   4.119   3.906   0.661
 6227TIP3    H118645   4.092   3.934   0.748
 6227TIP3    H218646   4.041   3.919   0.606
 6228TIP3   OH218647   2.589   0.552   2.701
 6228TIP3    H118648   2.629   0.480   2.751
 6228TIP3    H218649   2.664   0.600   2.665
 6229TIP3   OH218650   0.210   0.933   3.820
 6229TIP3    H118651   0.293   0.965   3.784
 6229TIP3    H218652   0.144   0.958   3.755
 6230TIP3   OH218653   4.302   1.841   4.650
 6230TIP3    H118654   4.293   1.788   4.571
 6230TIP3    H218655   4.295   1.931   4.620
 6231TIP3   OH218656   3.812   1.220   2.331
 6231TIP3    H118657   3.802   1.176   2.246
 6231TIP3    H218658   3.907   1.220   2.347
 6232TIP3   OH218659   5.071   0.382   5.514
 6232TIP3    H118660   5.021   0.442   5.570
 6232TIP3    H218661   5.030   0.297   5.527
 6233TIP3   OH218662   7.243   0.462   0.968
 6233TIP3    H118663   7.251   0.552   0.935
 6233TIP3    H218664   7.167   0.465   1.026
 6234TIP3   OH218665   1.757   6.431   0.086
 6234TIP3    H118666   1.845   6.397   0.104
 6234TIP3    H218667   1.766   6.526   0.092
 6235TIP3   OH218668   6.707   1.480   1.577
 6235TIP3    H118669   6.789   1.477   1.626
 6235TIP3    H218670   6.730   1.520   1.493
 6236TIP3   OH218671   4.952   2.620   5.923
 6236TIP3    H118672   5.040   2.618   5.888
 6236TIP3    H218673   4.913   2.700   5.886
 6237TIP3   OH218674   3.014   5.775   3.196
 6237TIP3    H118675   3.054   5.828   3.127
 6237TIP3    H218676   3.063   5.693   3.195
 6238TIP3   OH218677   4.082   6.082   1.833
 6238TIP3    H118678   4.093   6.007   1.890
 6238TIP3    H218679   4.004   6.062   1.781
 6239TIP3   OH218680   4.967   0.473   4.877
 6239TIP3    H118681   4.967   0.441   4.967
 6239TIP3    H218682   5.018   0.553   4.879
 6240TIP3   OH218683   7.036   3.943   1.133
 6240TIP3    H118684   6.941   3.941   1.127
 6240TIP3    H218685   7.063   3.851   1.124
 6241TIP3   OH218686   2.239   5.759   2.906
 6241TIP3    H118687   2.155   5.749   2.861
 6241TIP3    H218688   2.216   5.772   2.998
 6242TIP3   OH218689   3.606   6.582   2.703
 6242TIP3    H118690   3.682   6.576   2.762
 6242TIP3    H218691   3.640   6.556   2.618
 6243TIP3   OH218692   2.719   2.171   1.783
 6243TIP3    H118693   2.692   2.237   1.720
 6243TIP3    H218694   2.797   2.208   1.825
 6244TIP3   OH218695   4.852   5.131   0.392
 6244TIP3    H118696   4.882   5.096   0.476
 6244TIP3    H218697   4.871   5.224   0.396
 6245TIP3   OH218698   3.647   3.748   5.116
 6245TIP3    H118699   3.724   3.791   5.153
 6245TIP3    H218700   3.641   3.666   5.165
 6246TIP3   OH218701   4.335   3.873   0.484
 6246TIP3    H118702   4.403   3.928   0.523
 6246TIP3    H218703   4.265   3.872   0.549
 6247TIP3   OH218704   6.989   6.129   5.845
 6247TIP3    H118705   7.020   6.051   5.799
 6247TIP3    H218706   6.950   6.095   5.926
 6248TIP3   OH218707   1.058   1.656   1.503
 6248TIP3    H118708   0.996   1.726   1.483
 6248TIP3    H218709   1.142   1.690   1.473
 6249TIP3   OH218710   1.602   5.155   0.193
 6249TIP3    H118711   1.566   5.101   0.122
 6249TIP3    H218712   1.680   5.109   0.221
 6250TIP3   OH218713   1.095   5.292   1.734
 6250TIP3    H118714   1.112   5.234   1.660
 6250TIP3    H218715   1.000   5.305   1.732
 6251TIP3   OH218716   1.931   4.112   0.001
 6251TIP3    H118717   1.983   4.159  -0.065
 6251TIP3    H218718   1.972   4.135   0.084
 6252TIP3   OH218719   0.971   2.658   4.786
 6252TIP3    H118720   0.950   2.704   4.867
 6252TIP3    H218721   1.023   2.720   4.736
 6253TIP3   OH218722   1.215   6.792   5.709
 6253TIP3    H118723   1.270   6.722   5.744
 6253TIP3    H218724   1.132   6.783   5.756
 6254TIP3   OH218725   3.172   6.257   5.428
 6254TIP3    H118726   3.192   6.166   5.407
 6254TIP3    H218727   3.258   6.297   5.443
 6255TIP3   OH218728   5.804   3.481   4.736
 6255TIP3    H118729   5.818   3.567   4.776
 6255TIP3    H218730   5.879   3.429   4.763
 6256TIP3   OH218731   1.730   2.152   1.459
 6256TIP3    H118732   1.647   2.121   1.423
 6256TIP3    H218733   1.770   2.201   1.387
 6257TIP3   OH218734   2.926   2.392   1.839
 6257TIP3    H118735   2.922   2.487   1.824
 6257TIP3    H218736   2.916   2.353   1.753
 6258TIP3   OH218737   3.605   6.204   2.420
 6258TIP3    H118738   3.653   6.157   2.489
 6258TIP3    H218739   3.671   6.259   2.379
 6259TIP3   OH218740   3.510   4.588   5.000
 6259TIP3    H118741   3.496   4.502   4.961
 6259TIP3    H218742   3.475   4.580   5.089
 6260TIP3   OH218743   2.343   0.321   5.555
 6260TIP3    H118744   2.429   0.327   5.512
 6260TIP3    H218745   2.289   0.385   5.508
 6261TIP3   OH218746   3.179   5.525   2.829
 6261TIP3    H118747   3.192   5.612   2.790
 6261TIP3    H218748   3.267   5.497   2.854
 6262TIP3   OH218749   2.207   5.383   2.940
 6262TIP3    H118750   2.239   5.411   3.026
 6262TIP3    H218751   2.156   5.304   2.959
 6263TIP3   OH218752   5.271   6.410   4.943
 6263TIP3    H118753   5.268   6.349   5.016
 6263TIP3    H218754   5.320   6.485   4.976
 6264TIP3   OH218755   2.919   0.002   1.040
 6264TIP3    H118756   2.902   0.041   0.955
 6264TIP3    H218757   2.928   0.076   1.100
 6265TIP3   OH218758   0.317   4.181   5.665
 6265TIP3    H118759   0.233   4.220   5.689
 6265TIP3    H218760   0.344   4.229   5.587
 6266TIP3   OH218761   6.926   5.429   2.568
 6266TIP3    H118762   6.873   5.456   2.643
 6266TIP3    H218763   6.947   5.511   2.523
 6267TIP3   OH218764   1.547   5.594   1.238
 6267TIP3    H118765   1.546   5.688   1.257
 6267TIP3    H218766   1.633   5.564   1.267
 6268TIP3   OH218767   7.071   5.864   5.710
 6268TIP3    H118768   7.051   5.770   5.711
 6268TIP3    H218769   7.059   5.890   5.619
 6269TIP3   OH218770   1.456   2.987   2.257
 6269TIP3    H118771   1.412   2.935   2.324
 6269TIP3    H218772   1.426   3.076   2.273
 6270TIP3   OH218773   1.071   0.867   1.372
 6270TIP3    H118774   1.013   0.804   1.330
 6270TIP3    H218775   1.044   0.952   1.336
 6271TIP3   OH218776   4.365   5.877   2.676
 6271TIP3    H118777   4.276   5.901   2.700
 6271TIP3    H218778   4.380   5.793   2.720
 6272TIP3   OH218779   3.079   5.866   1.287
 6272TIP3    H118780   2.997   5.817   1.277
 6272TIP3    H218781   3.113   5.838   1.372
 6273TIP3   OH218782   6.993   6.771   0.604
 6273TIP3    H118783   7.041   6.689   0.594
 6273TIP3    H218784   7.042   6.820   0.669
 6274TIP3   OH218785   5.381   4.772   5.459
 6274TIP3    H118786   5.390   4.677   5.450
 6274TIP3    H218787   5.379   4.805   5.369
 6275TIP3   OH218788   4.196   5.293   3.423
 6275TIP3    H118789   4.140   5.224   3.457
 6275TIP3    H218790   4.167   5.305   3.332
 6276TIP3   OH218791   1.897   4.985   0.780
 6276TIP3    H118792   1.944   4.904   0.760
 6276TIP3    H218793   1.917   5.001   0.872
 6277TIP3   OH218794   6.683   0.204   4.458
 6277TIP3    H118795   6.751   0.223   4.394
 6277TIP3    H218796   6.715   0.241   4.540
 6278TIP3   OH218797   6.026   1.737   3.093
 6278TIP3    H118798   5.972   1.747   3.014
 6278TIP3    H218799   6.027   1.643   3.110
 6279TIP3   OH218800   3.531   3.093   1.020
 6279TIP3    H118801   3.509   3.070   1.111
 6279TIP3    H218802   3.576   3.177   1.026
 6280TIP3   OH218803   1.999   5.972   5.686
 6280TIP3    H118804   2.005   6.065   5.708
 6280TIP3    H218805   1.919   5.943   5.731
 6281TIP3   OH218806   4.260   1.063   4.975
 6281TIP3    H118807   4.230   1.128   4.911
 6281TIP3    H218808   4.312   1.113   5.038
 6282TIP3   OH218809   1.217   1.230   3.829
 6282TIP3    H118810   1.304   1.207   3.798
 6282TIP3    H218811   1.186   1.296   3.767
 6283TIP3   OH218812   1.877   6.258   1.962
 6283TIP3    H118813   1.830   6.332   1.925
 6283TIP3    H218814   1.858   6.185   1.903
 6284TIP3   OH218815   5.878   1.785   4.300
 6284TIP3    H118816   5.949   1.785   4.235
 6284TIP3    H218817   5.922   1.767   4.383
 6285TIP3   OH218818   3.886   5.942   1.719
 6285TIP3    H118819   3.878   5.889   1.798
 6285TIP3    H218820   3.807   5.923   1.669
 6286TIP3   OH218821   3.442   6.764   1.150
 6286TIP3    H118822   3.383   6.695   1.179
 6286TIP3    H218823   3.404   6.844   1.186
 6287TIP3   OH218824   1.418   6.608   0.164
 6287TIP3    H118825   1.437   6.516   0.180
 6287TIP3    H218826   1.391   6.611   0.072
 6288TIP3   OH218827   6.288   6.132   0.120
 6288TIP3    H118828   6.276   6.201   0.055
 6288TIP3    H218829   6.246   6.166   0.199
 6289TIP3   OH218830   6.188   1.511   3.572
 6289TIP3    H118831   6.119   1.502   3.506
 6289TIP3    H218832   6.224   1.423   3.582
 6290TIP3   OH218833   6.691   0.951   0.915
 6290TIP3    H118834   6.698   1.006   0.836
 6290TIP3    H218835   6.779   0.916   0.928
 6291TIP3   OH218836   7.001   2.951   3.869
 6291TIP3    H118837   6.923   2.954   3.813
 6291TIP3    H218838   7.062   2.895   3.821
 6292TIP3   OH218839   5.291   5.911   5.462
 6292TIP3    H118840   5.205   5.927   5.425
 6292TIP3    H218841   5.349   5.972   5.416
 6293TIP3   OH218842   4.649   4.327   2.349
 6293TIP3    H118843   4.667   4.334   2.255
 6293TIP3    H218844   4.572   4.270   2.354
 6294TIP3   OH218845   1.365   3.088   3.243
 6294TIP3    H118846   1.412   3.135   3.313
 6294TIP3    H218847   1.276   3.077   3.276
 6295TIP3   OH218848   0.820   6.289   0.860
 6295TIP3    H118849   0.800   6.379   0.836
 6295TIP3    H218850   0.849   6.249   0.778
 6296TIP3   OH218851   2.668   1.844   0.023
 6296TIP3    H118852   2.653   1.876   0.112
 6296TIP3    H218853   2.730   1.772   0.033
 6297TIP3   OH218854   2.413   1.462   4.260
 6297TIP3    H118855   2.491   1.408   4.277
 6297TIP3    H218856   2.429   1.543   4.308
 6298TIP3   OH218857   6.815   2.988   2.975
 6298TIP3    H118858   6.745   2.951   2.921
 6298TIP3    H218859   6.856   2.912   3.016
 6299TIP3   OH218860   5.456   2.082   3.699
 6299TIP3    H118861   5.489   1.995   3.718
 6299TIP3    H218862   5.397   2.069   3.624
 6300TIP3   OH218863   0.973   2.751   4.229
 6300TIP3    H118864   0.956   2.694   4.304
 6300TIP3    H218865   1.067   2.768   4.233
 6301TIP3   OH218866   1.131   3.202   1.081
 6301TIP3    H118867   1.216   3.218   1.040
 6301TIP3    H218868   1.077   3.165   1.012
 6302TIP3   OH218869   3.562   5.749   5.245
 6302TIP3    H118870   3.537   5.746   5.337
 6302TIP3    H218871   3.569   5.842   5.225
 6303TIP3   OH218872   4.194   3.132   5.729
 6303TIP3    H118873   4.253   3.204   5.752
 6303TIP3    H218874   4.172   3.091   5.812
 6304TIP3   OH218875   6.084   4.097   5.650
 6304TIP3    H118876   6.032   4.018   5.636
 6304TIP3    H218877   6.170   4.076   5.613
 6305TIP3   OH218878   2.965   4.276   3.990
 6305TIP3    H118879   2.980   4.227   3.909
 6305TIP3    H218880   3.031   4.345   3.988
 6306TIP3   OH218881   5.760   5.730   4.232
 6306TIP3    H118882   5.829   5.765   4.289
 6306TIP3    H218883   5.679   5.744   4.281
 6307TIP3   OH218884   0.596   2.617   1.291
 6307TIP3    H118885   0.689   2.599   1.305
 6307TIP3    H218886   0.560   2.629   1.379
 6308TIP3   OH218887   5.114   4.650   3.059
 6308TIP3    H118888   5.038   4.689   3.016
 6308TIP3    H218889   5.087   4.635   3.149
 6309TIP3   OH218890   1.491   2.161   0.381
 6309TIP3    H118891   1.555   2.214   0.429
 6309TIP3    H218892   1.483   2.206   0.296
 6310TIP3   OH218893   0.042   4.440   5.185
 6310TIP3    H118894  -0.006   4.507   5.233
 6310TIP3    H218895   0.089   4.391   5.252
 6311TIP3   OH218896   2.935   6.419   5.072
 6311TIP3    H118897   2.902   6.507   5.090
 6311TIP3    H218898   2.917   6.370   5.152
 6312TIP3   OH218899   2.081   4.146   2.703
 6312TIP3    H118900   2.126   4.102   2.775
 6312TIP3    H218901   2.148   4.200   2.661
 6313TIP3   OH218902   1.108   0.732   0.506
 6313TIP3    H118903   1.040   0.666   0.492
 6313TIP3    H218904   1.165   0.693   0.573
 6314TIP3   OH218905   0.674   5.557   2.678
 6314TIP3    H118906   0.617   5.501   2.625
 6314TIP3    H218907   0.713   5.618   2.615
 6315TIP3   OH218908   3.377   0.578   2.264
 6315TIP3    H118909   3.331   0.500   2.294
 6315TIP3    H218910   3.325   0.609   2.190
 6316TIP3   OH218911   5.146   3.260   2.379
 6316TIP3    H118912   5.237   3.243   2.357
 6316TIP3    H218913   5.101   3.177   2.364
 6317TIP3   OH218914   6.877   3.040   5.578
 6317TIP3    H118915   6.933   2.980   5.628
 6317TIP3    H218916   6.822   2.982   5.526
 6318TIP3   OH218917   3.215   1.207   0.692
 6318TIP3    H118918   3.305   1.173   0.688
 6318TIP3    H218919   3.213   1.260   0.771
 6319TIP3   OH218920   2.846   0.784   0.202
 6319TIP3    H118921   2.852   0.703   0.151
 6319TIP3    H218922   2.897   0.766   0.281
 6320TIP3   OH218923   3.240   3.237   3.535
 6320TIP3    H118924   3.297   3.171   3.576
 6320TIP3    H218925   3.300   3.294   3.487
 6321TIP3   OH218926   3.746   1.761   2.360
 6321TIP3    H118927   3.730   1.791   2.271
 6321TIP3    H218928   3.805   1.686   2.350
 6322TIP3   OH218929   2.522   2.201   5.488
 6322TIP3    H118930   2.608   2.184   5.448
 6322TIP3    H218931   2.536   2.185   5.581
 6323TIP3   OH218932   6.632   5.952   1.242
 6323TIP3    H118933   6.672   5.912   1.319
 6323TIP3    H218934   6.592   6.033   1.275
 6324TIP3   OH218935   4.902   1.773   0.837
 6324TIP3    H118936   4.959   1.824   0.780
 6324TIP3    H218937   4.915   1.682   0.808
 6325TIP3   OH218938   6.186   6.544   1.847
 6325TIP3    H118939   6.230   6.530   1.931
 6325TIP3    H218940   6.152   6.633   1.852
 6326TIP3   OH218941   6.504   3.962   5.071
 6326TIP3    H118942   6.508   3.953   4.976
 6326TIP3    H218943   6.412   3.983   5.089
 6327TIP3   OH218944   2.385   2.071   3.928
 6327TIP3    H118945   2.462   2.111   3.970
 6327TIP3    H218946   2.422   2.016   3.859
 6328TIP3   OH218947   5.620   4.573   1.459
 6328TIP3    H118948   5.638   4.653   1.410
 6328TIP3    H218949   5.637   4.502   1.397
 6329TIP3   OH218950   6.560   1.329   3.604
 6329TIP3    H118951   6.507   1.255   3.636
 6329TIP3    H218952   6.546   1.398   3.669
 6330TIP3   OH218953   5.913   3.787   2.391
 6330TIP3    H118954   5.863   3.785   2.309
 6330TIP3    H218955   5.996   3.829   2.368
 6331TIP3   OH218956  -0.042   1.860   2.420
 6331TIP3    H118957  -0.041   1.936   2.478
 6331TIP3    H218958   0.049   1.831   2.417
 6332TIP3   OH218959   1.983   1.830   1.967
 6332TIP3    H118960   1.891   1.818   1.990
 6332TIP3    H218961   2.011   1.744   1.935
 6333TIP3   OH218962   3.461   1.965   4.839
 6333TIP3    H118963   3.537   1.991   4.788
 6333TIP3    H218964   3.451   2.034   4.905
 6334TIP3   OH218965   5.295   3.954   0.440
 6334TIP3    H118966   5.287   4.038   0.485
 6334TIP3    H218967   5.252   3.967   0.356
 6335TIP3   OH218968   4.349   6.075   4.833
 6335TIP3    H118969   4.261   6.060   4.798
 6335TIP3    H218970   4.337   6.142   4.900
 6336TIP3   OH218971   1.872   1.862   2.590
 6336TIP3    H118972   1.867   1.848   2.495
 6336TIP3    H218973   1.887   1.775   2.626
 6337TIP3   OH218974   1.697   5.177   4.150
 6337TIP3    H118975   1.706   5.270   4.173
 6337TIP3    H218976   1.632   5.176   4.079
 6338TIP3   OH218977   2.943   5.235   2.063
 6338TIP3    H118978   2.865   5.210   2.112
 6338TIP3    H218979   3.015   5.189   2.107
 6339TIP3   OH218980   2.988   3.922   0.348
 6339TIP3    H118981   2.969   3.828   0.343
 6339TIP3    H218982   3.083   3.927   0.338
 6340TIP3   OH218983   0.983   1.105   1.093
 6340TIP3    H118984   1.069   1.133   1.062
 6340TIP3    H218985   0.925   1.115   1.018
 6341TIP3   OH218986   1.610   3.164   0.622
 6341TIP3    H118987   1.554   3.091   0.594
 6341TIP3    H218988   1.560   3.242   0.600
 6342TIP3   OH218989   6.125   5.855   5.408
 6342TIP3    H118990   6.190   5.801   5.453
 6342TIP3    H218991   6.177   5.907   5.346
 6343TIP3   OH218992   1.720   0.732   1.752
 6343TIP3    H118993   1.800   0.684   1.769
 6343TIP3    H218994   1.653   0.685   1.802
 6344TIP3   OH218995   5.615   5.451   3.334
 6344TIP3    H118996   5.567   5.416   3.409
 6344TIP3    H218997   5.654   5.374   3.293
 6345TIP3   OH218998   6.590   2.271   5.046
 6345TIP3    H118999   6.547   2.293   4.963
 6345TIP3    H219000   6.675   2.315   5.041
 6346TIP3   OH219001   6.973   5.276   1.720
 6346TIP3    H119002   6.989   5.277   1.814
 6346TIP3    H219003   7.059   5.295   1.681
 6347TIP3   OH219004   0.309   0.369   3.778
 6347TIP3    H119005   0.259   0.301   3.823
 6347TIP3    H219006   0.247   0.441   3.767
 6348TIP3   OH219007   6.989   2.452   2.196
 6348TIP3    H119008   7.074   2.417   2.169
 6348TIP3    H219009   6.987   2.541   2.160
 6349TIP3   OH219010   1.904   0.908   4.368
 6349TIP3    H119011   1.824   0.929   4.416
 6349TIP3    H219012   1.971   0.962   4.409
 6350TIP3   OH219013   4.860   1.305   5.451
 6350TIP3    H119014   4.774   1.328   5.486
 6350TIP3    H219015   4.862   1.209   5.452
 6351TIP3   OH219016   1.363   6.467   3.029
 6351TIP3    H119017   1.356   6.406   2.955
 6351TIP3    H219018   1.278   6.511   3.031
 6352TIP3   OH219019   3.020   1.518   1.411
 6352TIP3    H119020   3.036   1.554   1.324
 6352TIP3    H219021   2.952   1.452   1.397
 6353TIP3   OH219022   3.972   1.955   0.671
 6353TIP3    H119023   4.063   1.982   0.684
 6353TIP3    H219024   3.962   1.878   0.727
 6354TIP3   OH219025   1.001   0.067   0.184
 6354TIP3    H119026   0.973  -0.019   0.216
 6354TIP3    H219027   0.928   0.098   0.131
 6355TIP3   OH219028   6.166   5.005   2.861
 6355TIP3    H119029   6.236   4.982   2.799
 6355TIP3    H219030   6.159   4.929   2.918
 6356TIP3   OH219031   0.147   6.792   2.276
 6356TIP3    H119032   0.163   6.876   2.232
 6356TIP3    H219033   0.220   6.737   2.248
 6357TIP3   OH219034   2.360   0.272   4.221
 6357TIP3    H119035   2.303   0.240   4.291
 6357TIP3    H219036   2.302   0.278   4.144
 6358TIP3   OH219037   3.716   5.597   1.427
 6358TIP3    H119038   3.621   5.599   1.439
 6358TIP3    H219039   3.752   5.592   1.516
 6359TIP3   OH219040   0.657   0.876   4.525
 6359TIP3    H119041   0.605   0.796   4.519
 6359TIP3    H219042   0.629   0.928   4.449
 6360TIP3   OH219043   6.200   4.506   1.691
 6360TIP3    H119044   6.220   4.525   1.783
 6360TIP3    H219045   6.271   4.546   1.642
 6361TIP3   OH219046   0.794   4.986   1.235
 6361TIP3    H119047   0.740   4.993   1.157
 6361TIP3    H219048   0.835   5.072   1.244
 6362TIP3   OH219049   5.500   6.295   4.139
 6362TIP3    H119050   5.538   6.228   4.081
 6362TIP3    H219051   5.479   6.368   4.081
 6363TIP3   OH219052   7.107   4.112   2.487
 6363TIP3    H119053   7.129   4.142   2.575
 6363TIP3    H219054   7.014   4.091   2.491
 6364TIP3   OH219055   3.988   1.620   0.534
 6364TIP3    H119056   3.956   1.637   0.623
 6364TIP3    H219057   4.013   1.528   0.535
 6365TIP3   OH219058   3.079   2.599   5.828
 6365TIP3    H119059   3.081   2.664   5.897
 6365TIP3    H219060   3.091   2.649   5.747
 6366TIP3   OH219061   6.020   0.251   4.836
 6366TIP3    H119062   6.080   0.299   4.892
 6366TIP3    H219063   6.060   0.164   4.825
 6367TIP3   OH219064   7.022   4.403   1.824
 6367TIP3    H119065   7.116   4.387   1.812
 6367TIP3    H219066   6.980   4.349   1.756
 6368TIP3   OH219067   1.196   0.795   3.526
 6368TIP3    H119068   1.213   0.737   3.600
 6368TIP3    H219069   1.260   0.865   3.535
 6369TIP3   OH219070   0.821   4.037   3.259
 6369TIP3    H119071   0.749   4.068   3.205
 6369TIP3    H219072   0.850   4.114   3.308
 6370TIP3   OH219073   5.272   3.723   1.772
 6370TIP3    H119074   5.220   3.701   1.695
 6370TIP3    H219075   5.207   3.736   1.842
 6371TIP3   OH219076   5.786   1.772   1.237
 6371TIP3    H119077   5.762   1.686   1.271
 6371TIP3    H219078   5.732   1.834   1.285
 6372TIP3   OH219079   5.764   2.991   4.149
 6372TIP3    H119080   5.725   2.919   4.198
 6372TIP3    H219081   5.704   3.064   4.162
 6373TIP3   OH219082   1.968   2.159   0.489
 6373TIP3    H119083   2.064   2.157   0.482
 6373TIP3    H219084   1.940   2.221   0.422
 6374TIP3   OH219085   6.879   1.917   3.264
 6374TIP3    H119086   6.840   1.964   3.190
 6374TIP3    H219087   6.813   1.852   3.288
 6375TIP3   OH219088   0.100   4.313   3.742
 6375TIP3    H119089   0.127   4.350   3.827
 6375TIP3    H219090   0.005   4.325   3.740
 6376TIP3   OH219091   4.742   2.434   5.835
 6376TIP3    H119092   4.678   2.469   5.897
 6376TIP3    H219093   4.826   2.474   5.861
 6377TIP3   OH219094   3.543   1.945   1.190
 6377TIP3    H119095   3.539   2.041   1.189
 6377TIP3    H219096   3.585   1.925   1.274
 6378TIP3   OH219097   5.547   0.890   3.976
 6378TIP3    H119098   5.590   0.878   4.061
 6378TIP3    H219099   5.459   0.855   3.989
 6379TIP3   OH219100   4.114   3.409   1.737
 6379TIP3    H119101   4.190   3.376   1.784
 6379TIP3    H219102   4.123   3.373   1.649
 6380TIP3   OH219103   5.507   5.764   1.565
 6380TIP3    H119104   5.546   5.764   1.478
 6380TIP3    H219105   5.439   5.696   1.561
 6381TIP3   OH219106   5.400   6.301   2.307
 6381TIP3    H119107   5.438   6.232   2.361
 6381TIP3    H219108   5.318   6.264   2.275
 6382TIP3   OH219109   6.406   5.612   3.658
 6382TIP3    H119110   6.381   5.667   3.584
 6382TIP3    H219111   6.501   5.622   3.664
 6383TIP3   OH219112   4.919   5.599   4.328
 6383TIP3    H119113   4.962   5.514   4.316
 6383TIP3    H219114   4.860   5.606   4.252
 6384TIP3   OH219115   1.965   2.003   3.018
 6384TIP3    H119116   1.922   2.058   3.084
 6384TIP3    H219117   1.979   2.061   2.944
 6385TIP3   OH219118   0.630   6.649   2.874
 6385TIP3    H119119   0.586   6.567   2.899
 6385TIP3    H219120   0.569   6.717   2.901
 6386TIP3   OH219121   2.235   2.721   5.378
 6386TIP3    H119122   2.243   2.664   5.455
 6386TIP3    H219123   2.325   2.738   5.351
 6387TIP3   OH219124   6.783   1.327   3.214
 6387TIP3    H119125   6.866   1.333   3.166
 6387TIP3    H219126   6.773   1.233   3.231
 6388TIP3   OH219127   4.209   1.725   4.405
 6388TIP3    H119128   4.162   1.646   4.432
 6388TIP3    H219129   4.168   1.750   4.323
 6389TIP3   OH219130   7.069   4.609   5.309
 6389TIP3    H119131   7.073   4.618   5.405
 6389TIP3    H219132   7.014   4.532   5.295
 6390TIP3   OH219133   7.028   0.951   5.136
 6390TIP3    H119134   6.982   0.900   5.069
 6390TIP3    H219135   6.959   0.987   5.191
 6391TIP3   OH219136   3.638   4.269   2.795
 6391TIP3    H119137   3.579   4.316   2.735
 6391TIP3    H219138   3.586   4.255   2.874
 6392TIP3   OH219139   4.116   1.669   5.025
 6392TIP3    H119140   4.030   1.694   4.991
 6392TIP3    H219141   4.098   1.634   5.112
 6393TIP3   OH219142   4.285   4.542   4.342
 6393TIP3    H119143   4.310   4.455   4.312
 6393TIP3    H219144   4.265   4.532   4.434
 6394TIP3   OH219145   2.183   5.079   0.273
 6394TIP3    H119146   2.171   5.077   0.178
 6394TIP3    H219147   2.164   4.989   0.302
 6395TIP3   OH219148   0.433   3.117   3.930
 6395TIP3    H119149   0.342   3.103   3.959
 6395TIP3    H219150   0.448   3.211   3.944
 6396TIP3   OH219151   6.284   5.911   2.408
 6396TIP3    H119152   6.324   5.975   2.468
 6396TIP3    H219153   6.192   5.938   2.402
 6397TIP3   OH219154   2.677   4.961   0.917
 6397TIP3    H119155   2.757   4.982   0.966
 6397TIP3    H219156   2.619   4.921   0.982
 6398TIP3   OH219157   3.508   1.665   5.267
 6398TIP3    H119158   3.471   1.608   5.201
 6398TIP3    H219159   3.475   1.631   5.350
 6399TIP3   OH219160   2.026   6.267   4.385
 6399TIP3    H119161   2.109   6.304   4.353
 6399TIP3    H219162   1.995   6.330   4.450
 6400TIP3   OH219163   6.104   5.433   1.292
 6400TIP3    H119164   6.175   5.456   1.352
 6400TIP3    H219165   6.145   5.375   1.228
 6401TIP3   OH219166   3.558   2.763   5.775
 6401TIP3    H119167   3.498   2.777   5.849
 6401TIP3    H219168   3.542   2.837   5.717
 6402TIP3   OH219169   1.187   5.494   0.625
 6402TIP3    H119170   1.091   5.491   0.620
 6402TIP3    H219171   1.215   5.408   0.596
 6403TIP3   OH219172   7.008   5.208   2.012
 6403TIP3    H119173   7.100   5.234   2.009
 6403TIP3    H219174   7.009   5.122   2.056
 6404TIP3   OH219175   6.376   2.657   2.576
 6404TIP3    H119176   6.397   2.662   2.669
 6404TIP3    H219177   6.347   2.567   2.563
 6405TIP3   OH219178   3.476   1.150   1.886
 6405TIP3    H119179   3.559   1.195   1.869
 6405TIP3    H219180   3.492   1.059   1.859
 6406TIP3   OH219181   1.383   1.560   4.323
 6406TIP3    H119182   1.349   1.470   4.319
 6406TIP3    H219183   1.436   1.562   4.403
 6407TIP3   OH219184   3.814   2.485   4.752
 6407TIP3    H119185   3.773   2.400   4.770
 6407TIP3    H219186   3.880   2.494   4.820
 6408TIP3   OH219187   6.816   5.469   5.390
 6408TIP3    H119188   6.755   5.533   5.352
 6408TIP3    H219189   6.820   5.399   5.324
 6409TIP3   OH219190   1.679   0.953   0.687
 6409TIP3    H119191   1.738   0.918   0.754
 6409TIP3    H219192   1.698   1.047   0.685
 6410TIP3   OH219193   3.291   3.484   2.037
 6410TIP3    H119194   3.314   3.561   2.089
 6410TIP3    H219195   3.199   3.466   2.059
 6411TIP3   OH219196   0.107   2.175   4.113
 6411TIP3    H119197   0.188   2.180   4.062
 6411TIP3    H219198   0.109   2.254   4.167
 6412TIP3   OH219199   2.925   0.197   2.024
 6412TIP3    H119200   2.915   0.287   1.994
 6412TIP3    H219201   2.981   0.156   1.957
 6413TIP3   OH219202   3.809   3.528   1.983
 6413TIP3    H119203   3.770   3.554   2.066
 6413TIP3    H219204   3.734   3.511   1.925
 6414TIP3   OH219205   6.333   5.904   5.007
 6414TIP3    H119206   6.359   5.919   5.098
 6414TIP3    H219207   6.406   5.939   4.956
 6415TIP3   OH219208   3.656   2.932   2.411
 6415TIP3    H119209   3.683   2.851   2.368
 6415TIP3    H219210   3.698   2.930   2.497
 6416TIP3   OH219211   2.784   6.252   5.309
 6416TIP3    H119212   2.816   6.227   5.395
 6416TIP3    H219213   2.703   6.202   5.298
 6417TIP3   OH219214   0.677   1.343   5.387
 6417TIP3    H119215   0.710   1.374   5.303
 6417TIP3    H219216   0.717   1.257   5.398
 6418TIP3   OH219217   7.061   1.716   1.768
 6418TIP3    H119218   7.040   1.763   1.688
 6418TIP3    H219219   7.118   1.644   1.740
 6419TIP3   OH219220   0.488   3.945   5.229
 6419TIP3    H119221   0.490   3.892   5.308
 6419TIP3    H219222   0.442   3.890   5.164
 6420TIP3   OH219223   6.579   1.221   5.379
 6420TIP3    H119224   6.600   1.255   5.292
 6420TIP3    H219225   6.503   1.272   5.406
 6421TIP3   OH219226   1.925   0.704   2.424
 6421TIP3    H119227   2.007   0.675   2.384
 6421TIP3    H219228   1.857   0.683   2.361
 6422TIP3   OH219229   5.153   3.805   2.250
 6422TIP3    H119230   5.199   3.874   2.299
 6422TIP3    H219231   5.127   3.742   2.318
 6423TIP3   OH219232   2.643   2.110   4.682
 6423TIP3    H119233   2.704   2.050   4.639
 6423TIP3    H219234   2.630   2.073   4.770
 6424TIP3   OH219235   0.137   1.551   4.938
 6424TIP3    H119236   0.228   1.580   4.931
 6424TIP3    H219237   0.122   1.543   5.032
 6425TIP3   OH219238   7.097   5.159   0.341
 6425TIP3    H119239   7.185   5.177   0.374
 6425TIP3    H219240   7.044   5.145   0.419
 6426TIP3   OH219241   2.678   5.127   5.884
 6426TIP3    H119242   2.761   5.085   5.864
 6426TIP3    H219243   2.612   5.061   5.863
 6427TIP3   OH219244   6.267   1.816   4.428
 6427TIP3    H119245   6.317   1.734   4.438
 6427TIP3    H219246   6.183   1.797   4.468
 6428TIP3   OH219247   1.937   3.745   2.152
 6428TIP3    H119248   1.904   3.834   2.138
 6428TIP3    H219249   2.032   3.756   2.163
 6429TIP3   OH219250   2.199   2.924   2.185
 6429TIP3    H119251   2.126   2.930   2.123
 6429TIP3    H219252   2.230   2.834   2.176
 6430TIP3   OH219253   6.161   0.841   5.316
 6430TIP3    H119254   6.229   0.871   5.255
 6430TIP3    H219255   6.174   0.747   5.322
 6431TIP3   OH219256   6.359   0.350   3.158
 6431TIP3    H119257   6.448   0.314   3.160
 6431TIP3    H219258   6.361   0.415   3.087
 6432TIP3   OH219259   5.558   4.797   0.429
 6432TIP3    H119260   5.550   4.732   0.499
 6432TIP3    H219261   5.490   4.773   0.366
 6433TIP3   OH219262   2.383   1.563   0.041
 6433TIP3    H119263   2.374   1.644  -0.008
 6433TIP3    H219264   2.467   1.527   0.014
 6434TIP3   OH219265   2.668   4.535   4.799
 6434TIP3    H119266   2.604   4.484   4.750
 6434TIP3    H219267   2.615   4.591   4.856
 6435TIP3   OH219268   3.049   2.432   3.591
 6435TIP3    H119269   3.066   2.354   3.538
 6435TIP3    H219270   2.955   2.447   3.582
 6436TIP3   OH219271   2.848   6.501   4.782
 6436TIP3    H119272   2.865   6.594   4.768
 6436TIP3    H219273   2.930   6.458   4.760
 6437TIP3   OH219274   6.705   5.516   1.158
 6437TIP3    H119275   6.760   5.493   1.233
 6437TIP3    H219276   6.622   5.543   1.196
 6438TIP3   OH219277   5.655   5.150   0.055
 6438TIP3    H119278   5.570   5.109   0.071
 6438TIP3    H219279   5.639   5.244   0.066
 6439TIP3   OH219280   4.867   4.832   0.346
 6439TIP3    H119281   4.844   4.821   0.254
 6439TIP3    H219282   4.921   4.911   0.348
 6440TIP3   OH219283   4.073   0.991   1.465
 6440TIP3    H119284   3.980   0.993   1.444
 6440TIP3    H219285   4.079   0.940   1.546
 6441TIP3   OH219286   5.224   6.090   4.316
 6441TIP3    H119287   5.252   6.075   4.226
 6441TIP3    H219288   5.296   6.137   4.356
 6442TIP3   OH219289   0.456   2.224   0.249
 6442TIP3    H119290   0.528   2.163   0.264
 6442TIP3    H219291   0.494   2.311   0.263
 6443TIP3   OH219292   1.170   4.533   2.298
 6443TIP3    H119293   1.221   4.473   2.244
 6443TIP3    H219294   1.095   4.557   2.244
 6444TIP3   OH219295   5.439   4.684   2.451
 6444TIP3    H119296   5.381   4.612   2.427
 6444TIP3    H219297   5.381   4.757   2.469
 6445TIP3   OH219298   3.570   6.407   4.706
 6445TIP3    H119299   3.608   6.328   4.744
 6445TIP3    H219300   3.576   6.473   4.775
 6446TIP3   OH219301   7.151   3.619   0.113
 6446TIP3    H119302   7.085   3.550   0.102
 6446TIP3    H219303   7.235   3.575   0.101
 6447TIP3   OH219304   0.443   1.716   0.741
 6447TIP3    H119305   0.429   1.783   0.674
 6447TIP3    H219306   0.362   1.717   0.793
 6448TIP3   OH219307   3.710   0.747   5.790
 6448TIP3    H119308   3.771   0.706   5.852
 6448TIP3    H219309   3.628   0.755   5.838
 6449TIP3   OH219310   4.683   3.802   0.507
 6449TIP3    H119311   4.650   3.892   0.507
 6449TIP3    H219312   4.635   3.759   0.437
 6450TIP3   OH219313   0.392   3.000   2.802
 6450TIP3    H119314   0.479   2.960   2.799
 6450TIP3    H219315   0.371   3.005   2.895
 6451TIP3   OH219316   2.039   6.293   2.578
 6451TIP3    H119317   2.012   6.338   2.659
 6451TIP3    H219318   2.021   6.200   2.595
 6452TIP3   OH219319   5.188   0.226   2.875
 6452TIP3    H119320   5.179   0.288   2.947
 6452TIP3    H219321   5.271   0.181   2.892
 6453TIP3   OH219322   3.853   6.624   2.822
 6453TIP3    H119323   3.870   6.630   2.916
 6453TIP3    H219324   3.921   6.565   2.790
 6454TIP3   OH219325   3.960   3.527   1.333
 6454TIP3    H119326   3.864   3.522   1.328
 6454TIP3    H219327   3.988   3.436   1.346
 6455TIP3   OH219328   5.276   4.791   0.843
 6455TIP3    H119329   5.244   4.794   0.933
 6455TIP3    H219330   5.355   4.846   0.844
 6456TIP3   OH219331   3.740   1.026   3.367
 6456TIP3    H119332   3.717   1.109   3.409
 6456TIP3    H219333   3.766   0.969   3.439
 6457TIP3   OH219334   2.003   5.515   3.164
 6457TIP3    H119335   1.951   5.518   3.084
 6457TIP3    H219336   2.052   5.433   3.157
 6458TIP3   OH219337   6.099   5.968   0.469
 6458TIP3    H119338   6.037   5.912   0.421
 6458TIP3    H219339   6.138   6.023   0.401
 6459TIP3   OH219340   3.615   3.643   2.237
 6459TIP3    H119341   3.597   3.695   2.315
 6459TIP3    H219342   3.609   3.552   2.266
 6460TIP3   OH219343   4.603   3.872   4.720
 6460TIP3    H119344   4.642   3.893   4.635
 6460TIP3    H219345   4.674   3.883   4.783
 6461TIP3   OH219346   2.196   1.810   5.886
 6461TIP3    H119347   2.147   1.751   5.829
 6461TIP3    H219348   2.159   1.896   5.869
 6462TIP3   OH219349   1.923   4.542   0.181
 6462TIP3    H119350   1.852   4.493   0.222
 6462TIP3    H219351   1.945   4.492   0.103
 6463TIP3   OH219352   6.271   3.530   4.875
 6463TIP3    H119353   6.256   3.560   4.785
 6463TIP3    H219354   6.210   3.582   4.927
 6464TIP3   OH219355   5.087   5.106   4.436
 6464TIP3    H119356   5.178   5.127   4.456
 6464TIP3    H219357   5.091   5.025   4.386
 6465TIP3   OH219358   0.754   6.357   3.615
 6465TIP3    H119359   0.797   6.281   3.576
 6465TIP3    H219360   0.817   6.429   3.603
 6466TIP3   OH219361   1.368   4.207   1.015
 6466TIP3    H119362   1.366   4.131   1.073
 6466TIP3    H219363   1.277   4.233   1.005
 6467TIP3   OH219364   4.606   2.203   5.137
 6467TIP3    H119365   4.606   2.113   5.105
 6467TIP3    H219366   4.514   2.221   5.158
 6468TIP3   OH219367   5.042   0.385   4.458
 6468TIP3    H119368   5.075   0.353   4.542
 6468TIP3    H219369   4.951   0.356   4.455
 6469TIP3   OH219370   7.231   5.446   0.818
 6469TIP3    H119371   7.277   5.524   0.787
 6469TIP3    H219372   7.233   5.454   0.913
 6470TIP3   OH219373   6.342   1.703   2.131
 6470TIP3    H119374   6.301   1.618   2.149
 6470TIP3    H219375   6.357   1.741   2.218
 6471TIP3   OH219376   2.007   4.583   2.183
 6471TIP3    H119377   2.018   4.591   2.278
 6471TIP3    H219378   2.030   4.670   2.149
 6472TIP3   OH219379   1.148   6.221   1.583
 6472TIP3    H119380   1.082   6.152   1.577
 6472TIP3    H219381   1.211   6.188   1.648
 6473TIP3   OH219382   3.121   2.156   1.143
 6473TIP3    H119383   3.169   2.206   1.077
 6473TIP3    H219384   3.141   2.064   1.122
 6474TIP3   OH219385   1.486   3.634   1.633
 6474TIP3    H119386   1.414   3.590   1.588
 6474TIP3    H219387   1.446   3.669   1.712
 6475TIP3   OH219388   3.775   5.429   0.936
 6475TIP3    H119389   3.698   5.395   0.982
 6475TIP3    H219390   3.744   5.508   0.893
 6476TIP3   OH219391   2.678   4.645   5.864
 6476TIP3    H119392   2.631   4.695   5.930
 6476TIP3    H219393   2.764   4.688   5.857
 6477TIP3   OH219394   6.391   2.082   3.310
 6477TIP3    H119395   6.319   2.058   3.253
 6477TIP3    H219396   6.452   2.131   3.254
 6478TIP3   OH219397   4.427   0.178   5.503
 6478TIP3    H119398   4.412   0.273   5.509
 6478TIP3    H219399   4.512   0.170   5.459
 6479TIP3   OH219400   1.763   4.781   0.340
 6479TIP3    H119401   1.768   4.752   0.249
 6479TIP3    H219402   1.695   4.726   0.379
 6480TIP3   OH219403   2.000   4.642   4.927
 6480TIP3    H119404   1.937   4.574   4.952
 6480TIP3    H219405   2.049   4.603   4.854
 6481TIP3   OH219406   4.785   6.508   2.498
 6481TIP3    H119407   4.726   6.446   2.541
 6481TIP3    H219408   4.787   6.480   2.407
 6482TIP3   OH219409   3.847   4.357   2.446
 6482TIP3    H119410   3.854   4.264   2.423
 6482TIP3    H219411   3.896   4.402   2.378
 6483TIP3   OH219412   5.838   2.046   2.970
 6483TIP3    H119413   5.920   2.008   2.939
 6483TIP3    H219414   5.848   2.047   3.066
 6484TIP3   OH219415   1.089   6.308   2.370
 6484TIP3    H119416   1.063   6.383   2.424
 6484TIP3    H219417   1.093   6.234   2.432
 6485TIP3   OH219418   1.107   0.018   3.162
 6485TIP3    H119419   1.013   0.019   3.182
 6485TIP3    H219420   1.141   0.096   3.206
 6486TIP3   OH219421   1.031   0.426   3.420
 6486TIP3    H119422   1.060   0.453   3.508
 6486TIP3    H219423   0.945   0.386   3.434
 6487TIP3   OH219424   6.138   5.490   0.448
 6487TIP3    H119425   6.128   5.494   0.353
 6487TIP3    H219426   6.203   5.558   0.468
 6488TIP3   OH219427   0.654   6.431   1.131
 6488TIP3    H119428   0.569   6.475   1.136
 6488TIP3    H219429   0.708   6.489   1.076
 6489TIP3   OH219430   5.837   5.488   2.300
 6489TIP3    H119431   5.757   5.444   2.328
 6489TIP3    H219432   5.825   5.504   2.206
 6490TIP3   OH219433   1.784   0.957   2.289
 6490TIP3    H119434   1.867   0.994   2.259
 6490TIP3    H219435   1.795   0.862   2.277
 6491TIP3   OH219436   3.105   6.491   4.241
 6491TIP3    H119437   3.190   6.449   4.255
 6491TIP3    H219438   3.097   6.554   4.312
 6492TIP3   OH219439   0.049   6.667   4.371
 6492TIP3    H119440  -0.028   6.669   4.427
 6492TIP3    H219441   0.116   6.623   4.423
 6493TIP3   OH219442   5.105   0.455   1.960
 6493TIP3    H119443   5.145   0.409   2.033
 6493TIP3    H219444   5.157   0.535   1.950
 6494TIP3   OH219445   5.249   5.488   3.811
 6494TIP3    H119446   5.335   5.452   3.833
 6494TIP3    H219447   5.224   5.542   3.886
 6495TIP3   OH219448   6.798   3.473   4.777
 6495TIP3    H119449   6.820   3.550   4.829
 6495TIP3    H219450   6.866   3.470   4.710
 6496TIP3   OH219451   0.299   3.972   3.353
 6496TIP3    H119452   0.209   3.995   3.376
 6496TIP3    H219453   0.347   3.979   3.436
 6497TIP3   OH219454   6.806   1.030   4.231
 6497TIP3    H119455   6.881   1.000   4.282
 6497TIP3    H219456   6.839   1.103   4.179
 6498TIP3   OH219457   1.730   2.944   2.823
 6498TIP3    H119458   1.668   2.876   2.796
 6498TIP3    H219459   1.806   2.931   2.766
 6499TIP3   OH219460   4.932   6.069   5.410
 6499TIP3    H119461   5.001   6.106   5.355
 6499TIP3    H219462   4.850   6.096   5.368
 6500TIP3   OH219463   1.712   6.145   3.296
 6500TIP3    H119464   1.714   6.107   3.383
 6500TIP3    H219465   1.634   6.201   3.295
 6501TIP3   OH219466   4.239   6.315   3.336
 6501TIP3    H119467   4.246   6.229   3.293
 6501TIP3    H219468   4.145   6.329   3.346
 6502TIP3   OH219469   1.511   4.328   2.606
 6502TIP3    H119470   1.536   4.389   2.537
 6502TIP3    H219471   1.577   4.340   2.674
 6503TIP3   OH219472   4.278   0.993   0.729
 6503TIP3    H119473   4.286   1.076   0.680
 6503TIP3    H219474   4.360   0.947   0.711
 6504TIP3   OH219475   2.781   1.323   3.080
 6504TIP3    H119476   2.814   1.267   3.151
 6504TIP3    H219477   2.857   1.337   3.024
 6505TIP3   OH219478   2.526   1.309   1.626
 6505TIP3    H119479   2.575   1.257   1.562
 6505TIP3    H219480   2.445   1.333   1.580
 6506TIP3   OH219481   3.587   6.724   0.735
 6506TIP3    H119482   3.570   6.641   0.778
 6506TIP3    H219483   3.593   6.703   0.642
 6507TIP3   OH219484   2.785   1.389   2.442
 6507TIP3    H119485   2.782   1.359   2.351
 6507TIP3    H219486   2.695   1.382   2.473
 6508TIP3   OH219487   6.589   0.703   4.415
 6508TIP3    H119488   6.537   0.772   4.373
 6508TIP3    H219489   6.551   0.695   4.502
 6509TIP3   OH219490   6.656   6.479   3.769
 6509TIP3    H119491   6.577   6.463   3.821
 6509TIP3    H219492   6.636   6.441   3.683
 6510TIP3   OH219493   1.782   2.731   1.465
 6510TIP3    H119494   1.818   2.792   1.401
 6510TIP3    H219495   1.757   2.654   1.414
 6511TIP3   OH219496   2.793   6.065   4.799
 6511TIP3    H119497   2.739   6.071   4.720
 6511TIP3    H219498   2.760   5.988   4.845
 6512TIP3   OH219499   3.994   2.598   2.722
 6512TIP3    H119500   4.081   2.583   2.758
 6512TIP3    H219501   3.978   2.521   2.667
 6513TIP3   OH219502   2.142   0.449   3.536
 6513TIP3    H119503   2.154   0.541   3.562
 6513TIP3    H219504   2.225   0.407   3.558
 6514TIP3   OH219505   2.540   2.050   5.740
 6514TIP3    H119506   2.564   2.022   5.828
 6514TIP3    H219507   2.472   1.989   5.713
 6515TIP3   OH219508   1.163   3.359   2.917
 6515TIP3    H119509   1.226   3.431   2.912
 6515TIP3    H219510   1.086   3.389   2.868
 6516TIP3   OH219511   1.861   1.401   0.088
 6516TIP3    H119512   1.953   1.373   0.086
 6516TIP3    H219513   1.865   1.495   0.104
 6517TIP3   OH219514   5.557   2.456   5.193
 6517TIP3    H119515   5.570   2.451   5.099
 6517TIP3    H219516   5.636   2.498   5.227
 6518TIP3   OH219517   4.992   2.090   1.499
 6518TIP3    H119518   4.943   2.171   1.509
 6518TIP3    H219519   4.946   2.027   1.556
 6519TIP3   OH219520   0.226   0.313   0.962
 6519TIP3    H119521   0.300   0.367   0.933
 6519TIP3    H219522   0.149   0.368   0.948
 6520TIP3   OH219523   6.736   3.321   4.343
 6520TIP3    H119524   6.768   3.290   4.428
 6520TIP3    H219525   6.689   3.246   4.307
 6521TIP3   OH219526   2.691   6.584   4.141
 6521TIP3    H119527   2.603   6.616   4.122
 6521TIP3    H219528   2.748   6.660   4.128
 6522TIP3   OH219529   0.608   5.786   5.584
 6522TIP3    H119530   0.545   5.751   5.647
 6522TIP3    H219531   0.606   5.880   5.598
 6523TIP3   OH219532   2.245   2.922   0.496
 6523TIP3    H119533   2.313   2.855   0.494
 6523TIP3    H219534   2.227   2.941   0.404
 6524TIP3   OH219535   7.086   6.531   4.535
 6524TIP3    H119536   7.054   6.490   4.455
 6524TIP3    H219537   7.012   6.583   4.567
 6525TIP3   OH219538   6.770   1.568   4.281
 6525TIP3    H119539   6.764   1.507   4.355
 6525TIP3    H219540   6.787   1.653   4.321
 6526TIP3   OH219541   3.293   6.733   4.146
 6526TIP3    H119542   3.343   6.775   4.075
 6526TIP3    H219543   3.250   6.658   4.104
 6527TIP3   OH219544   6.150   0.020   5.866
 6527TIP3    H119545   6.059  -0.011   5.857
 6527TIP3    H219546   6.187   0.011   5.778
 6528TIP3   OH219547   1.158   5.724   5.226
 6528TIP3    H119548   1.086   5.782   5.200
 6528TIP3    H219549   1.229   5.783   5.251
 6529TIP3   OH219550   0.798   2.813   4.540
 6529TIP3    H119551   0.823   2.732   4.496
 6529TIP3    H219552   0.779   2.786   4.630
 6530TIP3   OH219553   1.337   1.068   4.032
 6530TIP3    H119554   1.291   1.097   3.953
 6530TIP3    H219555   1.384   0.990   4.004
 6531TIP3   OH219556   1.049   4.935   3.478
 6531TIP3    H119557   1.086   5.008   3.527
 6531TIP3    H219558   1.051   4.964   3.386
 6532TIP3   OH219559   7.109   0.166   2.214
 6532TIP3    H119560   7.017   0.145   2.195
 6532TIP3    H219561   7.149   0.082   2.236
 6533TIP3   OH219562   0.608   4.898   0.695
 6533TIP3    H119563   0.557   4.872   0.618
 6533TIP3    H219564   0.543   4.907   0.765
 6534TIP3   OH219565   2.059   3.657   0.559
 6534TIP3    H119566   2.032   3.595   0.492
 6534TIP3    H219567   2.154   3.651   0.561
 6535TIP3   OH219568   3.240   3.031   2.697
 6535TIP3    H119569   3.303   2.960   2.707
 6535TIP3    H219570   3.248   3.082   2.778
 6536TIP3   OH219571   4.174   1.094   5.743
 6536TIP3    H119572   4.195   1.109   5.835
 6536TIP3    H219573   4.080   1.076   5.742
 6537TIP3   OH219574   5.107   0.596   3.625
 6537TIP3    H119575   5.192   0.611   3.666
 6537TIP3    H219576   5.046   0.647   3.678
 6538TIP3   OH219577   0.939   1.772   1.783
 6538TIP3    H119578   0.911   1.682   1.768
 6538TIP3    H219579   0.869   1.810   1.837
 6539TIP3   OH219580   5.347   2.568   0.923
 6539TIP3    H119581   5.272   2.620   0.893
 6539TIP3    H219582   5.355   2.498   0.858
 6540TIP3   OH219583   2.136   0.698   3.640
 6540TIP3    H119584   2.203   0.710   3.708
 6540TIP3    H219585   2.054   0.687   3.688
 6541TIP3   OH219586   1.568   5.545   3.614
 6541TIP3    H119587   1.622   5.606   3.565
 6541TIP3    H219588   1.628   5.473   3.637
 6542TIP3   OH219589   0.636   4.092   1.142
 6542TIP3    H119590   0.706   4.048   1.189
 6542TIP3    H219591   0.565   4.100   1.206
 6543TIP3   OH219592   2.628   2.403   2.795
 6543TIP3    H119593   2.567   2.459   2.747
 6543TIP3    H219594   2.712   2.448   2.787
 6544TIP3   OH219595   7.247   3.106   5.330
 6544TIP3    H119596   7.332   3.104   5.286
 6544TIP3    H219597   7.185   3.131   5.261
 6545TIP3   OH219598   1.453   3.310   1.855
 6545TIP3    H119599   1.505   3.249   1.907
 6545TIP3    H219600   1.517   3.356   1.800
 6546TIP3   OH219601   6.430   5.280   2.400
 6546TIP3    H119602   6.461   5.289   2.310
 6546TIP3    H219603   6.508   5.287   2.454
 6547TIP3   OH219604   6.419   3.972   4.097
 6547TIP3    H119605   6.415   3.883   4.132
 6547TIP3    H219606   6.476   4.019   4.158
 6548TIP3   OH219607   2.843   1.104   1.652
 6548TIP3    H119608   2.805   1.112   1.565
 6548TIP3    H219609   2.773   1.134   1.711
 6549TIP3   OH219610   6.177   4.728   4.097
 6549TIP3    H119611   6.093   4.750   4.139
 6549TIP3    H219612   6.157   4.725   4.003
 6550TIP3   OH219613   2.926   3.145   3.205
 6550TIP3    H119614   2.843   3.173   3.244
 6550TIP3    H219615   2.964   3.226   3.170
 6551TIP3   OH219616   0.223   5.583   1.547
 6551TIP3    H119617   0.159   5.638   1.593
 6551TIP3    H219618   0.199   5.591   1.454
 6552TIP3   OH219619   0.498   0.901   2.961
 6552TIP3    H119620   0.460   0.892   2.873
 6552TIP3    H219621   0.510   0.811   2.992
 6553TIP3   OH219622   4.961   2.957   5.746
 6553TIP3    H119623   4.961   3.045   5.708
 6553TIP3    H219624   4.868   2.933   5.750
 6554TIP3   OH219625   5.651   3.167   4.919
 6554TIP3    H119626   5.617   3.081   4.894
 6554TIP3    H219627   5.635   3.173   5.013
 6555TIP3   OH219628   5.359   2.916   1.003
 6555TIP3    H119629   5.331   2.993   1.053
 6555TIP3    H219630   5.290   2.904   0.938
 6556TIP3   OH219631   5.589   4.731   4.233
 6556TIP3    H119632   5.519   4.761   4.175
 6556TIP3    H219633   5.664   4.787   4.212
 6557TIP3   OH219634   2.929   1.809   5.818
 6557TIP3    H119635   2.860   1.752   5.851
 6557TIP3    H219636   2.944   1.872   5.889
 6558TIP3   OH219637   2.442   0.942   1.603
 6558TIP3    H119638   2.453   0.980   1.690
 6558TIP3    H219639   2.498   0.996   1.547
 6559TIP3   OH219640   2.505   1.250   3.099
 6559TIP3    H119641   2.476   1.304   3.172
 6559TIP3    H219642   2.600   1.244   3.109
 6560TIP3   OH219643   1.121   4.399   1.027
 6560TIP3    H119644   1.058   4.393   0.955
 6560TIP3    H219645   1.108   4.486   1.063
 6561TIP3   OH219646   1.590   5.455   2.043
 6561TIP3    H119647   1.580   5.393   1.970
 6561TIP3    H219648   1.651   5.412   2.102
 6562TIP3   OH219649   2.977   1.102   4.063
 6562TIP3    H119650   3.063   1.110   4.021
 6562TIP3    H219651   2.996   1.083   4.154
 6563TIP3   OH219652   3.931   1.377   5.665
 6563TIP3    H119653   3.865   1.441   5.693
 6563TIP3    H219654   3.905   1.295   5.706
 6564TIP3   OH219655   5.794   3.468   4.265
 6564TIP3    H119656   5.847   3.477   4.186
 6564TIP3    H219657   5.720   3.527   4.251
 6565TIP3   OH219658   3.235   1.528   1.111
 6565TIP3    H119659   3.312   1.564   1.066
 6565TIP3    H219660   3.239   1.434   1.095
 6566TIP3   OH219661   1.754   0.678   4.225
 6566TIP3    H119662   1.803   0.735   4.284
 6566TIP3    H219663   1.679   0.731   4.196
 6567TIP3   OH219664   5.282   6.351   0.483
 6567TIP3    H119665   5.280   6.432   0.534
 6567TIP3    H219666   5.219   6.366   0.412
 6568TIP3   OH219667   2.585   2.467   1.646
 6568TIP3    H119668   2.588   2.512   1.731
 6568TIP3    H219669   2.506   2.413   1.652
 6569TIP3   OH219670   3.053   0.908   3.363
 6569TIP3    H119671   3.081   0.842   3.300
 6569TIP3    H219672   2.986   0.863   3.415
 6570TIP3   OH219673   7.161   0.593   0.404
 6570TIP3    H119674   7.172   0.644   0.484
 6570TIP3    H219675   7.166   0.658   0.333
 6571TIP3   OH219676   2.003   5.300   4.578
 6571TIP3    H119677   1.948   5.351   4.638
 6571TIP3    H219678   1.953   5.221   4.560
 6572TIP3   OH219679   4.004   0.174   1.995
 6572TIP3    H119680   4.034   0.090   2.029
 6572TIP3    H219681   3.927   0.151   1.942
 6573TIP3   OH219682   3.396   0.327   3.950
 6573TIP3    H119683   3.395   0.419   3.976
 6573TIP3    H219684   3.485   0.298   3.969
 6574TIP3   OH219685   6.905   2.017   4.418
 6574TIP3    H119686   6.996   2.044   4.417
 6574TIP3    H219687   6.877   2.029   4.509
 6575TIP3   OH219688   4.077   1.340   1.389
 6575TIP3    H119689   3.982   1.336   1.383
 6575TIP3    H219690   4.107   1.260   1.346
 6576TIP3   OH219691   2.678   3.118   3.339
 6576TIP3    H119692   2.672   3.105   3.434
 6576TIP3    H219693   2.671   3.030   3.303
 6577TIP3   OH219694   3.016   3.111   3.800
 6577TIP3    H119695   2.996   3.193   3.846
 6577TIP3    H219696   3.095   3.078   3.842
 6578TIP3   OH219697   0.486   5.843   3.745
 6578TIP3    H119698   0.549   5.901   3.703
 6578TIP3    H219699   0.464   5.778   3.678
 6579TIP3   OH219700   1.851   1.901   0.398
 6579TIP3    H119701   1.933   1.865   0.367
 6579TIP3    H219702   1.873   1.941   0.482
 6580TIP3   OH219703   2.120   1.600   1.877
 6580TIP3    H119704   2.211   1.628   1.865
 6580TIP3    H219705   2.121   1.553   1.961
 6581TIP3   OH219706   2.319   6.292   2.723
 6581TIP3    H119707   2.291   6.217   2.670
 6581TIP3    H219708   2.348   6.357   2.659
 6582TIP3   OH219709   6.128   2.053   2.570
 6582TIP3    H119710   6.060   2.100   2.521
 6582TIP3    H219711   6.184   2.122   2.605
 6583TIP3   OH219712   4.666   4.827   5.667
 6583TIP3    H119713   4.681   4.893   5.735
 6583TIP3    H219714   4.587   4.858   5.622
 6584TIP3   OH219715   2.432   0.035   5.269
 6584TIP3    H119716   2.386   0.022   5.352
 6584TIP3    H219717   2.363   0.060   5.207
 6585TIP3   OH219718   3.597   6.353   3.411
 6585TIP3    H119719   3.511   6.339   3.370
 6585TIP3    H219720   3.610   6.276   3.467
 6586TIP3   OH219721   1.678   2.578   2.708
 6586TIP3    H119722   1.647   2.613   2.625
 6586TIP3    H219723   1.730   2.501   2.683
 6587TIP3   OH219724   4.070   5.323   1.549
 6587TIP3    H119725   4.144   5.264   1.561
 6587TIP3    H219726   4.091   5.372   1.469
 6588TIP3   OH219727   4.541   2.826   1.952
 6588TIP3    H119728   4.594   2.751   1.924
 6588TIP3    H219729   4.517   2.870   1.870
 6589TIP3   OH219730   3.739   2.690   2.313
 6589TIP3    H119731   3.828   2.661   2.332
 6589TIP3    H219732   3.741   2.719   2.222
 6590TIP3   OH219733   2.504   0.088   0.806
 6590TIP3    H119734   2.489   0.143   0.883
 6590TIP3    H219735   2.418   0.053   0.785
 6591TIP3   OH219736   5.054   2.213   5.843
 6591TIP3    H119737   4.962   2.212   5.871
 6591TIP3    H219738   5.104   2.209   5.924
 6592TIP3   OH219739   1.659   6.538   4.613
 6592TIP3    H119740   1.617   6.574   4.691
 6592TIP3    H219741   1.587   6.519   4.553
 6593TIP3   OH219742   3.942   3.602   0.900
 6593TIP3    H119743   3.877   3.673   0.900
 6593TIP3    H219744   3.995   3.617   0.978
 6594TIP3   OH219745   4.574   3.690   1.512
 6594TIP3    H119746   4.659   3.647   1.524
 6594TIP3    H219747   4.514   3.619   1.489
 6595TIP3   OH219748   6.818   5.399   0.405
 6595TIP3    H119749   6.853   5.458   0.472
 6595TIP3    H219750   6.727   5.387   0.430
 6596TIP3   OH219751   1.442   6.230   1.513
 6596TIP3    H119752   1.362   6.202   1.558
 6596TIP3    H219753   1.433   6.198   1.424
 6597TIP3   OH219754   4.494   0.879   0.624
 6597TIP3    H119755   4.571   0.921   0.662
 6597TIP3    H219756   4.529   0.807   0.571
 6598TIP3   OH219757   6.878   0.320   2.888
 6598TIP3    H119758   6.796   0.348   2.928
 6598TIP3    H219759   6.930   0.288   2.961
 6599TIP3   OH219760   5.340   5.426   1.765
 6599TIP3    H119761   5.332   5.520   1.751
 6599TIP3    H219762   5.417   5.401   1.714
 6600TIP3   OH219763   1.486   2.972   0.190
 6600TIP3    H119764   1.561   2.924   0.223
 6600TIP3    H219765   1.500   2.977   0.095
 6601TIP3   OH219766   3.905   1.259   1.667
 6601TIP3    H119767   3.886   1.272   1.574
 6601TIP3    H219768   3.998   1.276   1.676
 6602TIP3   OH219769   6.471   4.631   2.655
 6602TIP3    H119770   6.474   4.707   2.713
 6602TIP3    H219771   6.559   4.594   2.658
 6603TIP3   OH219772   1.289   1.734   3.665
 6603TIP3    H119773   1.365   1.676   3.676
 6603TIP3    H219774   1.321   1.820   3.693
 6604TIP3   OH219775   0.382   3.970   4.122
 6604TIP3    H119776   0.473   3.987   4.145
 6604TIP3    H219777   0.334   3.982   4.205
 6605TIP3   OH219778   3.597   1.768   4.575
 6605TIP3    H119779   3.622   1.678   4.596
 6605TIP3    H219780   3.680   1.815   4.572
 6606TIP3   OH219781   6.297   1.481   5.441
 6606TIP3    H119782   6.268   1.461   5.352
 6606TIP3    H219783   6.232   1.439   5.498
 6607TIP3   OH219784   1.194   1.144   3.005
 6607TIP3    H119785   1.234   1.180   3.085
 6607TIP3    H219786   1.154   1.220   2.963
 6608TIP3   OH219787   1.945   3.520   0.311
 6608TIP3    H119788   1.862   3.568   0.307
 6608TIP3    H219789   1.919   3.428   0.317
 6609TIP3   OH219790   0.361   4.848   1.929
 6609TIP3    H119791   0.451   4.877   1.910
 6609TIP3    H219792   0.364   4.753   1.922
 6610TIP3   OH219793   6.619   1.627   4.831
 6610TIP3    H119794   6.690   1.691   4.824
 6610TIP3    H219795   6.557   1.654   4.764
 6611TIP3   OH219796   2.647   6.481   2.074
 6611TIP3    H119797   2.597   6.406   2.107
 6611TIP3    H219798   2.710   6.500   2.143
 6612TIP3   OH219799   3.608   0.171   4.041
 6612TIP3    H119800   3.690   0.123   4.028
 6612TIP3    H219801   3.556   0.116   4.099
 6613TIP3   OH219802   1.805   3.590   2.854
 6613TIP3    H119803   1.826   3.523   2.919
 6613TIP3    H219804   1.843   3.670   2.890
 6614TIP3   OH219805   5.368   5.140   3.209
 6614TIP3    H119806   5.447   5.193   3.198
 6614TIP3    H219807   5.368   5.115   3.302
 6615TIP3   OH219808   2.428   4.922   5.074
 6615TIP3    H119809   2.481   4.846   5.096
 6615TIP3    H219810   2.393   4.904   4.987
 6616TIP3   OH219811   0.231   1.032   2.589
 6616TIP3    H119812   0.223   0.994   2.502
 6616TIP3    H219813   0.253   1.124   2.573
 6617TIP3   OH219814   1.071   4.803   0.178
 6617TIP3    H119815   1.068   4.895   0.204
 6617TIP3    H219816   1.076   4.805   0.083
 6618TIP3   OH219817   2.633   1.262   4.278
 6618TIP3    H119818   2.671   1.187   4.324
 6618TIP3    H219819   2.699   1.331   4.286
 6619TIP3   OH219820   6.866   2.114   5.863
 6619TIP3    H119821   6.790   2.119   5.805
 6619TIP3    H219822   6.928   2.059   5.816
 6620TIP3   OH219823   6.525   1.275   1.483
 6620TIP3    H119824   6.596   1.211   1.493
 6620TIP3    H219825   6.569   1.360   1.485
 6621TIP3   OH219826   4.745   3.971   2.982
 6621TIP3    H119827   4.681   4.043   2.979
 6621TIP3    H219828   4.765   3.953   2.890
 6622TIP3   OH219829   1.849   1.311   3.149
 6622TIP3    H119830   1.927   1.359   3.175
 6622TIP3    H219831   1.776   1.370   3.170
 6623TIP3   OH219832   3.962   4.951   4.159
 6623TIP3    H119833   4.019   5.012   4.112
 6623TIP3    H219834   4.020   4.882   4.191
 6624TIP3   OH219835   4.600   5.892   0.742
 6624TIP3    H119836   4.695   5.887   0.735
 6624TIP3    H219837   4.579   5.982   0.718
 6625TIP3   OH219838   3.100   1.348   1.966
 6625TIP3    H119839   3.059   1.283   1.908
 6625TIP3    H219840   3.138   1.296   2.037
 6626TIP3   OH219841   4.212   5.228   0.996
 6626TIP3    H119842   4.300   5.196   1.019
 6626TIP3    H219843   4.159   5.211   1.074
 6627TIP3   OH219844   2.785   4.353   0.390
 6627TIP3    H119845   2.826   4.423   0.339
 6627TIP3    H219846   2.733   4.399   0.456
 6628TIP3   OH219847   5.456   3.211   0.793
 6628TIP3    H119848   5.391   3.140   0.796
 6628TIP3    H219849   5.517   3.184   0.725
 6629TIP3   OH219850   5.248   2.363   4.012
 6629TIP3    H119851   5.324   2.359   4.069
 6629TIP3    H219852   5.257   2.446   3.965
 6630TIP3   OH219853   7.166   0.596   4.246
 6630TIP3    H119854   7.082   0.608   4.200
 6630TIP3    H219855   7.207   0.682   4.245
 6631TIP3   OH219856   2.034   5.337   2.226
 6631TIP3    H119857   2.118   5.379   2.244
 6631TIP3    H219858   2.049   5.245   2.245
 6632TIP3   OH219859   0.981   1.548   5.903
 6632TIP3    H119860   1.016   1.566   5.816
 6632TIP3    H219861   1.046   1.586   5.963
 6633TIP3   OH219862   1.450   1.440   5.091
 6633TIP3    H119863   1.377   1.478   5.140
 6633TIP3    H219864   1.409   1.379   5.030
 6634TIP3   OH219865   0.201   4.912   1.265
 6634TIP3    H119866   0.155   4.926   1.182
 6634TIP3    H219867   0.169   4.828   1.297
 6635TIP3   OH219868   5.832   3.565   0.545
 6635TIP3    H119869   5.773   3.640   0.537
 6635TIP3    H219870   5.808   3.524   0.629
 6636TIP3   OH219871   5.070   0.466   0.579
 6636TIP3    H119872   5.041   0.384   0.619
 6636TIP3    H219873   5.165   0.459   0.575
 6637TIP3   OH219874   0.927   4.433   4.095
 6637TIP3    H119875   0.970   4.359   4.137
 6637TIP3    H219876   0.998   4.494   4.075
 6638TIP3   OH219877   1.644   4.259   4.193
 6638TIP3    H119878   1.568   4.206   4.217
 6638TIP3    H219879   1.682   4.212   4.118
 6639TIP3   OH219880   5.185   0.352   3.696
 6639TIP3    H119881   5.192   0.361   3.791
 6639TIP3    H219882   5.159   0.439   3.666
 6640TIP3   OH219883   3.078   2.895   3.106
 6640TIP3    H119884   3.128   2.917   3.185
 6640TIP3    H219885   3.021   2.971   3.091
 6641TIP3   OH219886   1.191   5.003   2.784
 6641TIP3    H119887   1.254   5.052   2.837
 6641TIP3    H219888   1.240   4.928   2.751
 6642TIP3   OH219889   3.300   3.124   3.881
 6642TIP3    H119890   3.325   3.211   3.913
 6642TIP3    H219891   3.358   3.109   3.806
 6643TIP3   OH219892   5.436   1.021   4.392
 6643TIP3    H119893   5.439   1.071   4.474
 6643TIP3    H219894   5.385   0.944   4.414
 6644TIP3   OH219895   6.159   4.017   3.162
 6644TIP3    H119896   6.213   3.973   3.227
 6644TIP3    H219897   6.179   3.972   3.080
 6645TIP3   OH219898   3.664   2.001   3.093
 6645TIP3    H119899   3.597   1.952   3.045
 6645TIP3    H219900   3.739   2.004   3.034
 6646TIP3   OH219901   1.477   5.883   1.787
 6646TIP3    H119902   1.521   5.890   1.871
 6646TIP3    H219903   1.394   5.929   1.798
 6647TIP3   OH219904   0.995   6.254   4.376
 6647TIP3    H119905   1.025   6.183   4.432
 6647TIP3    H219906   0.902   6.264   4.395
 6648TIP3   OH219907   4.357   3.850   5.871
 6648TIP3    H119908   4.263   3.837   5.882
 6648TIP3    H219909   4.387   3.774   5.821
 6649TIP3   OH219910   2.305   3.898   3.401
 6649TIP3    H119911   2.300   3.854   3.485
 6649TIP3    H219912   2.331   3.987   3.421
 6650TIP3   OH219913   2.344   3.984   2.519
 6650TIP3    H119914   2.273   3.933   2.557
 6650TIP3    H219915   2.404   4.001   2.593
 6651TIP3   OH219916   6.297   3.317   4.488
 6651TIP3    H119917   6.367   3.352   4.543
 6651TIP3    H219918   6.341   3.258   4.427
 6652TIP3   OH219919   3.351   0.995   4.103
 6652TIP3    H119920   3.302   0.913   4.111
 6652TIP3    H219921   3.364   1.007   4.009
 6653TIP3   OH219922   0.158   0.687   3.978
 6653TIP3    H119923   0.153   0.778   3.947
 6653TIP3    H219924   0.094   0.640   3.925
 6654TIP3   OH219925   7.110   4.741   4.349
 6654TIP3    H119926   7.071   4.792   4.420
 6654TIP3    H219927   7.050   4.752   4.275
 6655TIP3   OH219928   0.447   6.742   0.366
 6655TIP3    H119929   0.420   6.718   0.278
 6655TIP3    H219930   0.429   6.836   0.371
 6656TIP3   OH219931   4.804   2.741   3.371
 6656TIP3    H119932   4.768   2.816   3.324
 6656TIP3    H219933   4.732   2.712   3.428
 6657TIP3   OH219934   7.194   0.752   0.933
 6657TIP3    H119935   7.220   0.830   0.884
 6657TIP3    H219936   7.246   0.757   1.014
 6658TIP3   OH219937   6.178   1.267   5.577
 6658TIP3    H119938   6.186   1.172   5.568
 6658TIP3    H219939   6.170   1.282   5.671
 6659TIP3   OH219940   0.526   6.559   5.210
 6659TIP3    H119941   0.592   6.588   5.273
 6659TIP3    H219942   0.461   6.629   5.209
 6660TIP3   OH219943   6.960   2.455   5.642
 6660TIP3    H119944   6.897   2.528   5.644
 6660TIP3    H219945   6.937   2.406   5.563
 6661TIP3   OH219946   5.338   3.158   3.721
 6661TIP3    H119947   5.364   3.079   3.770
 6661TIP3    H219948   5.263   3.192   3.770
 6662TIP3   OH219949   5.112   4.130   3.068
 6662TIP3    H119950   5.048   4.194   3.036
 6662TIP3    H219951   5.073   4.045   3.048
 6663TIP3   OH219952   1.451   2.485   3.601
 6663TIP3    H119953   1.535   2.508   3.562
 6663TIP3    H219954   1.427   2.562   3.652
 6664TIP3   OH219955   6.062   1.978   0.860
 6664TIP3    H119956   5.968   1.958   0.862
 6664TIP3    H219957   6.085   1.979   0.767
 6665TIP3   OH219958   6.233   1.724   2.887
 6665TIP3    H119959   6.215   1.643   2.839
 6665TIP3    H219960   6.146   1.754   2.916
 6666TIP3   OH219961   2.563   3.695   3.998
 6666TIP3    H119962   2.601   3.627   3.941
 6666TIP3    H219963   2.597   3.674   4.085
 6667TIP3   OH219964   5.957   0.336   3.786
 6667TIP3    H119965   6.035   0.340   3.841
 6667TIP3    H219966   5.959   0.418   3.736
 6668TIP3   OH219967   6.793   5.804   2.439
 6668TIP3    H119968   6.873   5.767   2.477
 6668TIP3    H219969   6.733   5.730   2.432
 6669TIP3   OH219970   0.843   0.673   4.848
 6669TIP3    H119971   0.784   0.658   4.922
 6669TIP3    H219972   0.929   0.649   4.881
 6670TIP3   OH219973   4.916   3.669   1.756
 6670TIP3    H119974   4.926   3.619   1.837
 6670TIP3    H219975   4.823   3.663   1.735
 6671TIP3   OH219976   6.397   2.355   1.700
 6671TIP3    H119977   6.402   2.270   1.656
 6671TIP3    H219978   6.311   2.389   1.677
 6672TIP3   OH219979   3.448   0.929   1.490
 6672TIP3    H119980   3.392   1.002   1.464
 6672TIP3    H219981   3.468   0.946   1.582
 6673TIP3   OH219982   1.089   6.458   2.045
 6673TIP3    H119983   1.021   6.412   1.997
 6673TIP3    H219984   1.054   6.468   2.134
 6674TIP3   OH219985   0.332   5.230   5.537
 6674TIP3    H119986   0.360   5.186   5.457
 6674TIP3    H219987   0.301   5.159   5.594
 6675TIP3   OH219988   0.715   4.758   4.895
 6675TIP3    H119989   0.727   4.734   4.803
 6675TIP3    H219990   0.640   4.818   4.895
 6676TIP3   OH219991   5.066   4.469   5.806
 6676TIP3    H119992   5.132   4.484   5.873
 6676TIP3    H219993   5.006   4.542   5.814
 6677TIP3   OH219994   2.235   5.419   4.633
 6677TIP3    H119995   2.145   5.398   4.609
 6677TIP3    H219996   2.234   5.511   4.656
 6678TIP3   OH219997   0.284   6.635   0.021
 6678TIP3    H119998   0.321   6.644  -0.067
 6678TIP3    H219999   0.319   6.551   0.052
 6679TIP3   OH220000   6.839   4.247   3.968
 6679TIP3    H120001   6.917   4.277   4.016
 6679TIP3    H220002   6.773   4.314   3.984
 6680TIP3   OH220003   5.157   6.639   2.426
 6680TIP3    H120004   5.196   6.593   2.501
 6680TIP3    H220005   5.231   6.680   2.382
 6681TIP3   OH220006   4.914   4.495   5.128
 6681TIP3    H120007   4.992   4.487   5.072
 6681TIP3    H220008   4.845   4.525   5.069
 6682TIP3   OH220009   3.794   4.033   1.510
 6682TIP3    H120010   3.812   3.959   1.452
 6682TIP3    H220011   3.772   4.105   1.452
 6683TIP3   OH220012   7.199   0.804   4.670
 6683TIP3    H120013   7.215   0.882   4.617
 6683TIP3    H220014   7.231   0.826   4.757
 6684TIP3   OH220015   3.336   4.251   4.831
 6684TIP3    H120016   3.363   4.225   4.743
 6684TIP3    H220017   3.271   4.320   4.817
 6685TIP3   OH220018   3.482   4.463   1.759
 6685TIP3    H120019   3.571   4.441   1.786
 6685TIP3    H220020   3.468   4.413   1.679
 6686TIP3   OH220021   4.197   1.541   2.268
 6686TIP3    H120022   4.131   1.611   2.267
 6686TIP3    H220023   4.234   1.542   2.180
 6687TIP3   OH220024   3.336   1.720   3.842
 6687TIP3    H120025   3.248   1.683   3.846
 6687TIP3    H220026   3.324   1.809   3.810
 6688TIP3   OH220027   3.641   4.794   2.147
 6688TIP3    H120028   3.596   4.748   2.218
 6688TIP3    H220029   3.671   4.875   2.187
 6689TIP3   OH220030   2.824   1.933   1.625
 6689TIP3    H120031   2.773   2.006   1.591
 6689TIP3    H220032   2.764   1.888   1.685
 6690TIP3   OH220033   2.622   1.739   4.208
 6690TIP3    H120034   2.671   1.727   4.127
 6690TIP3    H220035   2.530   1.740   4.181
 6691TIP3   OH220036   3.415   1.423   4.700
 6691TIP3    H120037   3.365   1.504   4.710
 6691TIP3    H220038   3.458   1.431   4.615
 6692TIP3   OH220039   3.143   1.718   2.002
 6692TIP3    H120040   3.106   1.712   2.090
 6692TIP3    H220041   3.072   1.689   1.945
 6693TIP3   OH220042   1.271   1.007   2.797
 6693TIP3    H120043   1.230   1.061   2.730
 6693TIP3    H220044   1.246   1.048   2.880
 6694TIP3   OH220045   5.913   6.555   3.734
 6694TIP3    H120046   5.955   6.493   3.793
 6694TIP3    H220047   5.848   6.600   3.787
 6695TIP3   OH220048   5.079   3.858   3.303
 6695TIP3    H120049   5.118   3.941   3.276
 6695TIP3    H220050   5.047   3.875   3.391
 6696TIP3   OH220051   6.719   2.483   5.339
 6696TIP3    H120052   6.774   2.409   5.365
 6696TIP3    H220053   6.781   2.544   5.297
 6697TIP3   OH220054   4.802   3.698   3.528
 6697TIP3    H120055   4.735   3.682   3.594
 6697TIP3    H220056   4.785   3.788   3.499
 6698TIP3   OH220057   0.550   2.252   3.272
 6698TIP3    H120058   0.592   2.237   3.356
 6698TIP3    H220059   0.566   2.171   3.222
 6699TIP3   OH220060   1.869   4.892   4.814
 6699TIP3    H120061   1.808   4.903   4.886
 6699TIP3    H220062   1.927   4.821   4.842
 6700TIP3   OH220063   6.481   6.551   0.305
 6700TIP3    H120064   6.560   6.552   0.359
 6700TIP3    H220065   6.409   6.553   0.368
 6701TIP3   OH220066   3.217   2.118   1.396
 6701TIP3    H120067   3.258   2.033   1.378
 6701TIP3    H220068   3.193   2.152   1.310
 6702TIP3   OH220069   1.127   3.063   3.357
 6702TIP3    H120070   1.045   3.014   3.361
 6702TIP3    H220071   1.112   3.140   3.412
 6703TIP3   OH220072   0.345   0.480   3.347
 6703TIP3    H120073   0.335   0.566   3.308
 6703TIP3    H220074   0.276   0.475   3.413
 6704TIP3   OH220075   0.755   2.217   1.889
 6704TIP3    H120076   0.679   2.268   1.861
 6704TIP3    H220077   0.766   2.238   1.981
 6705TIP3   OH220078   4.701   1.846   1.043
 6705TIP3    H120079   4.765   1.825   0.976
 6705TIP3    H220080   4.739   1.920   1.091
 6706TIP3   OH220081   5.996   3.266   3.750
 6706TIP3    H120082   5.998   3.205   3.823
 6706TIP3    H220083   6.027   3.349   3.787
 6707TIP3   OH220084   6.443   6.386   5.763
 6707TIP3    H120085   6.439   6.419   5.853
 6707TIP3    H220086   6.508   6.316   5.765
 6708TIP3   OH220087   6.443   1.367   4.163
 6708TIP3    H120088   6.356   1.388   4.132
 6708TIP3    H220089   6.498   1.439   4.133
 6709TIP3   OH220090   0.169   3.178   5.589
 6709TIP3    H120091   0.098   3.163   5.526
 6709TIP3    H220092   0.239   3.218   5.538
 6710TIP3   OH220093   0.331   4.126   4.870
 6710TIP3    H120094   0.343   4.035   4.897
 6710TIP3    H220095   0.419   4.163   4.873
 6711TIP3   OH220096   3.867   1.656   4.892
 6711TIP3    H120097   3.914   1.610   4.823
 6711TIP3    H220098   3.777   1.623   4.885
 6712TIP3   OH220099   4.367   2.158   0.946
 6712TIP3    H120100   4.386   2.244   0.984
 6712TIP3    H220101   4.425   2.152   0.871
 6713TIP3   OH220102   2.845   4.921   2.181
 6713TIP3    H120103   2.911   4.976   2.224
 6713TIP3    H220104   2.783   4.983   2.144
 6714TIP3   OH220105   0.044   5.293   0.148
 6714TIP3    H120106   0.025   5.363   0.085
 6714TIP3    H220107   0.120   5.325   0.197
 6715TIP3   OH220108   6.156   2.182   1.453
 6715TIP3    H120109   6.110   2.265   1.440
 6715TIP3    H220110   6.223   2.181   1.384
 6716TIP3   OH220111   4.706   3.833   3.214
 6716TIP3    H120112   4.736   3.883   3.138
 6716TIP3    H220113   4.690   3.900   3.281
 6717TIP3   OH220114   1.836   0.350   4.598
 6717TIP3    H120115   1.878   0.409   4.661
 6717TIP3    H220116   1.767   0.403   4.559
 6718TIP3   OH220117   4.549   2.137   0.732
 6718TIP3    H120118   4.620   2.171   0.678
 6718TIP3    H220119   4.557   2.042   0.724
 6719TIP3   OH220120   6.630   4.963   1.951
 6719TIP3    H120121   6.713   4.945   1.908
 6719TIP3    H220122   6.578   5.010   1.884
 6720TIP3   OH220123   0.370   0.366   4.760
 6720TIP3    H120124   0.339   0.446   4.718
 6720TIP3    H220125   0.444   0.338   4.707
 6721TIP3   OH220126   6.865   4.363   3.113
 6721TIP3    H120127   6.936   4.420   3.084
 6721TIP3    H220128   6.894   4.275   3.090
 6722TIP3   OH220129   1.448   2.520   3.939
 6722TIP3    H120130   1.423   2.589   3.878
 6722TIP3    H220131   1.392   2.534   4.015
 6723TIP3   OH220132   1.480   2.059   5.737
 6723TIP3    H120133   1.408   2.053   5.799
 6723TIP3    H220134   1.496   1.969   5.710
 6724TIP3   OH220135   3.850   0.882   2.776
 6724TIP3    H120136   3.874   0.808   2.719
 6724TIP3    H220137   3.818   0.841   2.856
 6725TIP3   OH220138   5.991   6.323   3.528
 6725TIP3    H120139   5.993   6.318   3.624
 6725TIP3    H220140   5.993   6.231   3.500
 6726TIP3   OH220141   3.906   1.828   1.741
 6726TIP3    H120142   3.892   1.735   1.721
 6726TIP3    H220143   3.905   1.832   1.837
 6727TIP3   OH220144   2.947   3.379   1.245
 6727TIP3    H120145   3.008   3.358   1.315
 6727TIP3    H220146   2.964   3.312   1.178
 6728TIP3   OH220147   0.040   0.111   5.027
 6728TIP3    H120148  -0.008   0.193   5.016
 6728TIP3    H220149  -0.017   0.057   5.082
 6729TIP3   OH220150   5.720   4.225   3.170
 6729TIP3    H120151   5.799   4.207   3.221
 6729TIP3    H220152   5.699   4.142   3.128
 6730TIP3   OH220153   6.824   4.465   5.567
 6730TIP3    H120154   6.909   4.509   5.570
 6730TIP3    H220155   6.803   4.459   5.473
 6731TIP3   OH220156   5.249   5.469   2.247
 6731TIP3    H120157   5.196   5.398   2.210
 6731TIP3    H220158   5.198   5.501   2.321
 6732TIP3   OH220159   1.165   5.873   5.903
 6732TIP3    H120160   1.258   5.885   5.924
 6732TIP3    H220161   1.120   5.884   5.987
 6733TIP3   OH220162   6.498   3.737   3.064
 6733TIP3    H120163   6.508   3.817   3.115
 6733TIP3    H220164   6.449   3.678   3.121
 6734TIP3   OH220165   5.317   3.826   0.878
 6734TIP3    H120166   5.232   3.869   0.868
 6734TIP3    H220167   5.333   3.784   0.794
 6735TIP3   OH220168   4.165   2.344   2.543
 6735TIP3    H120169   4.118   2.309   2.619
 6735TIP3    H220170   4.189   2.433   2.569
 6736TIP3   OH220171   4.237   0.091   2.276
 6736TIP3    H120172   4.264   0.180   2.297
 6736TIP3    H220173   4.143   0.090   2.295
 6737TIP3   OH220174   6.701   1.479   3.414
 6737TIP3    H120175   6.742   1.410   3.362
 6737TIP3    H220176   6.641   1.434   3.473
 6738TIP3   OH220177   3.273   6.698   2.071
 6738TIP3    H120178   3.282   6.777   2.123
 6738TIP3    H220179   3.179   6.690   2.055
 6739TIP3   OH220180   4.703   6.313   2.810
 6739TIP3    H120181   4.719   6.234   2.758
 6739TIP3    H220182   4.791   6.345   2.832
 6740TIP3   OH220183   1.715   3.459   0.744
 6740TIP3    H120184   1.641   3.439   0.802
 6740TIP3    H220185   1.683   3.437   0.656
 6741TIP3   OH220186   3.420   6.395   2.809
 6741TIP3    H120187   3.353   6.457   2.841
 6741TIP3    H220188   3.500   6.422   2.855
 6742TIP3   OH220189   6.361   4.695   2.329
 6742TIP3    H120190   6.278   4.743   2.335
 6742TIP3    H220191   6.335   4.604   2.321
 6743TIP3   OH220192   4.296   3.854   1.109
 6743TIP3    H120193   4.241   3.776   1.101
 6743TIP3    H220194   4.255   3.905   1.179
 6744TIP3   OH220195   6.526   5.080   5.286
 6744TIP3    H120196   6.540   5.166   5.324
 6744TIP3    H220197   6.468   5.095   5.211
 6745TIP3   OH220198   6.410   3.265   5.204
 6745TIP3    H120199   6.480   3.312   5.159
 6745TIP3    H220200   6.330   3.307   5.174
 6746TIP3   OH220201   0.897   6.040   1.611
 6746TIP3    H120202   0.912   6.051   1.517
 6746TIP3    H220203   0.845   6.116   1.636
 6747TIP3   OH220204   0.369   5.274   1.000
 6747TIP3    H120205   0.286   5.259   1.046
 6747TIP3    H220206   0.387   5.367   1.013
 6748TIP3   OH220207   5.178   1.638   3.464
 6748TIP3    H120208   5.109   1.684   3.416
 6748TIP3    H220209   5.145   1.633   3.554
 6749TIP3   OH220210   1.690   2.839   5.476
 6749TIP3    H120211   1.646   2.894   5.411
 6749TIP3    H220212   1.743   2.778   5.424
 6750TIP3   OH220213   3.125   2.050   0.492
 6750TIP3    H120214   3.094   2.026   0.405
 6750TIP3    H220215   3.199   2.109   0.477
 6751TIP3   OH220216   3.750   1.141   4.200
 6751TIP3    H120217   3.734   1.206   4.132
 6751TIP3    H220218   3.713   1.180   4.279
 6752TIP3   OH220219   6.771   3.378   0.737
 6752TIP3    H120220   6.849   3.425   0.709
 6752TIP3    H220221   6.698   3.432   0.708
 6753TIP3   OH220222   5.346   4.303   4.049
 6753TIP3    H120223   5.313   4.227   4.001
 6753TIP3    H220224   5.430   4.275   4.084
 6754TIP3   OH220225   5.405   1.713   5.745
 6754TIP3    H120226   5.348   1.651   5.700
 6754TIP3    H220227   5.480   1.660   5.773
 6755TIP3   OH220228   2.759   0.374   3.945
 6755TIP3    H120229   2.676   0.422   3.939
 6755TIP3    H220230   2.745   0.310   4.014
 6756TIP3   OH220231   0.604   5.246   0.102
 6756TIP3    H120232   0.535   5.232   0.166
 6756TIP3    H220233   0.572   5.205   0.022
 6757TIP3   OH220234   2.390   1.038   0.965
 6757TIP3    H120235   2.423   0.974   0.901
 6757TIP3    H220236   2.467   1.060   1.018
 6758TIP3   OH220237   0.388   2.944   1.517
 6758TIP3    H120238   0.392   3.029   1.561
 6758TIP3    H220239   0.422   2.882   1.582
 6759TIP3   OH220240   1.286   5.554   3.188
 6759TIP3    H120241   1.230   5.489   3.145
 6759TIP3    H220242   1.318   5.509   3.267
 6760TIP3   OH220243   5.270   5.914   1.587
 6760TIP3    H120244   5.359   5.879   1.595
 6760TIP3    H220245   5.234   5.909   1.676
 6761TIP3   OH220246   3.443   1.934   5.795
 6761TIP3    H120247   3.495   1.857   5.820
 6761TIP3    H220248   3.447   1.934   5.699
 6762TIP3   OH220249   2.692   3.675   0.302
 6762TIP3    H120250   2.658   3.596   0.346
 6762TIP3    H220251   2.782   3.651   0.278
 6763TIP3   OH220252   0.554   2.733   5.354
 6763TIP3    H120253   0.559   2.826   5.333
 6763TIP3    H220254   0.620   2.720   5.422
 6764TIP3   OH220255   5.164   2.681   4.410
 6764TIP3    H120256   5.144   2.690   4.317
 6764TIP3    H220257   5.097   2.622   4.444
 6765TIP3   OH220258   4.006   2.298   1.020
 6765TIP3    H120259   4.029   2.230   1.084
 6765TIP3    H220260   3.911   2.305   1.026
 6766TIP3   OH220261   5.522   4.473   2.244
 6766TIP3    H120262   5.433   4.502   2.264
 6766TIP3    H220263   5.558   4.447   2.328
 6767TIP3   OH220264   5.663   6.068   4.436
 6767TIP3    H120265   5.727   6.111   4.379
 6767TIP3    H220266   5.620   6.141   4.482
 6768TIP3   OH220267   5.250   0.992   4.945
 6768TIP3    H120268   5.247   1.025   4.855
 6768TIP3    H220269   5.258   1.071   4.999
 6769TIP3   OH220270   5.224   5.892   5.131
 6769TIP3    H120271   5.154   5.829   5.148
 6769TIP3    H220272   5.186   5.953   5.067
 6770TIP3   OH220273   4.002   4.456   5.154
 6770TIP3    H120274   3.982   4.368   5.185
 6770TIP3    H220275   4.050   4.442   5.072
 6771TIP3   OH220276   6.278   3.020   1.328
 6771TIP3    H120277   6.330   3.096   1.302
 6771TIP3    H220278   6.314   2.948   1.276
 6772TIP3   OH220279   1.321   2.318   5.679
 6772TIP3    H120280   1.326   2.247   5.614
 6772TIP3    H220281   1.402   2.308   5.730
 6773TIP3   OH220282   0.214   1.002   4.615
 6773TIP3    H120283   0.226   0.937   4.547
 6773TIP3    H220284   0.301   1.017   4.651
 6774TIP3   OH220285   2.823   2.566   0.533
 6774TIP3    H120286   2.771   2.616   0.470
 6774TIP3    H220287   2.799   2.603   0.618
 6775TIP3   OH220288   5.270   4.828   4.420
 6775TIP3    H120289   5.182   4.816   4.383
 6775TIP3    H220290   5.313   4.888   4.359
 6776TIP3   OH220291   4.939   2.775   4.648
 6776TIP3    H120292   4.915   2.688   4.616
 6776TIP3    H220293   4.881   2.790   4.722
 6777TIP3   OH220294   6.110   2.373   3.477
 6777TIP3    H120295   6.030   2.329   3.449
 6777TIP3    H220296   6.157   2.391   3.395
 6778TIP3   OH220297   6.938   3.488   1.155
 6778TIP3    H120298   6.845   3.469   1.151
 6778TIP3    H220299   6.980   3.412   1.116
 6779TIP3   OH220300   3.825   3.319   0.156
 6779TIP3    H120301   3.750   3.272   0.192
 6779TIP3    H220302   3.854   3.377   0.227
 6780TIP3   OH220303   0.532   4.728   3.097
 6780TIP3    H120304   0.545   4.664   3.166
 6780TIP3    H220305   0.490   4.802   3.140
 6781TIP3   OH220306   3.334   4.682   1.704
 6781TIP3    H120307   3.393   4.607   1.716
 6781TIP3    H220308   3.391   4.758   1.708
 6782TIP3   OH220309   2.105   5.685   3.332
 6782TIP3    H120310   2.187   5.637   3.341
 6782TIP3    H220311   2.049   5.626   3.281
 6783TIP3   OH220312   4.925   0.053   4.407
 6783TIP3    H120313   5.019   0.070   4.417
 6783TIP3    H220314   4.883   0.119   4.463
 6784TIP3   OH220315   6.335   1.244   1.021
 6784TIP3    H120316   6.384   1.162   1.030
 6784TIP3    H220317   6.244   1.216   1.006
 6785TIP3   OH220318   6.342   4.934   2.648
 6785TIP3    H120319   6.336   4.988   2.569
 6785TIP3    H220320   6.374   4.850   2.617
 6786TIP3   OH220321   1.931   2.473   5.354
 6786TIP3    H120322   1.972   2.449   5.437
 6786TIP3    H220323   1.995   2.449   5.287
 6787TIP3   OH220324   6.452  -0.018   1.916
 6787TIP3    H120325   6.448   0.007   1.824
 6787TIP3    H220326   6.458   0.064   1.964
 6788TIP3   OH220327   4.038   5.205   2.901
 6788TIP3    H120328   4.133   5.198   2.890
 6788TIP3    H220329   4.001   5.180   2.816
 6789TIP3   OH220330   0.047   5.288   5.411
 6789TIP3    H120331   0.027   5.265   5.502
 6789TIP3    H220332   0.136   5.321   5.414
 6790TIP3   OH220333   7.040   5.900   3.641
 6790TIP3    H120334   7.004   5.956   3.572
 6790TIP3    H220335   7.128   5.936   3.657
 6791TIP3   OH220336   1.338   0.012   3.400
 6791TIP3    H120337   1.295   0.068   3.336
 6791TIP3    H220338   1.419  -0.015   3.358
 6792TIP3   OH220339   6.241   1.100   4.254
 6792TIP3    H120340   6.331   1.111   4.222
 6792TIP3    H220341   6.249   1.038   4.326
 6793TIP3   OH220342   1.840   1.209   1.603
 6793TIP3    H120343   1.874   1.209   1.513
 6793TIP3    H220344   1.873   1.290   1.641
 6794TIP3   OH220345   1.171   0.512   3.988
 6794TIP3    H120346   1.141   0.421   3.980
 6794TIP3    H220347   1.165   0.531   4.082
 6795TIP3   OH220348   5.419   0.411   3.294
 6795TIP3    H120349   5.357   0.482   3.309
 6795TIP3    H220350   5.463   0.400   3.378
 6796TIP3   OH220351   4.305   2.391   5.197
 6796TIP3    H120352   4.298   2.359   5.288
 6796TIP3    H220353   4.302   2.311   5.144
 6797TIP3   OH220354   4.508   5.036   4.033
 6797TIP3    H120355   4.543   5.116   4.074
 6797TIP3    H220356   4.582   5.002   3.982
 6798TIP3   OH220357   4.030   2.161   2.301
 6798TIP3    H120358   3.935   2.149   2.302
 6798TIP3    H220359   4.065   2.073   2.305
 6799TIP3   OH220360   6.151   1.349   4.299
 6799TIP3    H120361   6.232   1.397   4.281
 6799TIP3    H220362   6.175   1.257   4.288
 6800TIP3   OH220363   0.386   6.680   5.600
 6800TIP3    H120364   0.406   6.653   5.510
 6800TIP3    H220365   0.322   6.750   5.590
 6801TIP3   OH220366   1.244   6.219   5.111
 6801TIP3    H120367   1.250   6.126   5.088
 6801TIP3    H220368   1.183   6.255   5.046
 6802TIP3   OH220369   0.259   5.775   1.843
 6802TIP3    H120370   0.223   5.699   1.889
 6802TIP3    H220371   0.193   5.797   1.777
 6803TIP3   OH220372   6.906   5.274   5.902
 6803TIP3    H120373   6.810   5.274   5.907
 6803TIP3    H220374   6.925   5.249   5.812
 6804TIP3   OH220375   1.652   5.128   1.035
 6804TIP3    H120376   1.624   5.218   1.016
 6804TIP3    H220377   1.747   5.130   1.026
 6805TIP3   OH220378   1.434   1.944   3.467
 6805TIP3    H120379   1.358   2.001   3.476
 6805TIP3    H220380   1.400   1.865   3.425
 6806TIP3   OH220381   5.567   2.021   4.939
 6806TIP3    H120382   5.538   1.930   4.945
 6806TIP3    H220383   5.487   2.072   4.938
 6807TIP3   OH220384   0.025   4.878   2.877
 6807TIP3    H120385  -0.013   4.814   2.937
 6807TIP3    H220386   0.031   4.832   2.793
 6808TIP3   OH220387   4.222   3.360   5.077
 6808TIP3    H120388   4.276   3.430   5.113
 6808TIP3    H220389   4.184   3.398   4.998
 6809TIP3   OH220390   6.268   0.009   0.075
 6809TIP3    H120391   6.176   0.037   0.077
 6809TIP3    H220392   6.269  -0.067   0.017
 6810TIP3   OH220393   0.924   6.077   0.197
 6810TIP3    H120394   0.867   6.153   0.206
 6810TIP3    H220395   0.973   6.074   0.279
 6811TIP3   OH220396   6.895   1.708   2.624
 6811TIP3    H120397   6.911   1.800   2.606
 6811TIP3    H220398   6.889   1.702   2.719
 6812TIP3   OH220399   2.046   0.036   5.655
 6812TIP3    H120400   2.024  -0.013   5.734
 6812TIP3    H220401   1.962   0.046   5.609
 6813TIP3   OH220402   7.069   4.933   3.460
 6813TIP3    H120403   7.044   4.981   3.540
 6813TIP3    H220404   7.022   4.978   3.390
 6814TIP3   OH220405   6.958   1.373   5.730
 6814TIP3    H120406   7.045   1.345   5.703
 6814TIP3    H220407   6.899   1.306   5.696
 6815TIP3   OH220408   0.716   4.178   5.777
 6815TIP3    H120409   0.622   4.177   5.796
 6815TIP3    H220410   0.754   4.125   5.848
 6816TIP3   OH220411   2.418   5.759   5.178
 6816TIP3    H120412   2.510   5.785   5.179
 6816TIP3    H220413   2.374   5.827   5.230
 6817TIP3   OH220414   2.492   0.952   3.676
 6817TIP3    H120415   2.499   0.859   3.655
 6817TIP3    H220416   2.449   0.954   3.762
 6818TIP3   OH220417   4.447   4.439   1.030
 6818TIP3    H120418   4.488   4.381   1.093
 6818TIP3    H220419   4.456   4.526   1.068
 6819TIP3   OH220420   3.684   0.009   1.802
 6819TIP3    H120421   3.681   0.024   1.897
 6819TIP3    H220422   3.700   0.096   1.765
 6820TIP3   OH220423   2.945   5.361   3.105
 6820TIP3    H120424   2.892   5.440   3.097
 6820TIP3    H220425   2.888   5.300   3.152
 6821TIP3   OH220426   0.149   0.305   2.159
 6821TIP3    H120427   0.056   0.281   2.160
 6821TIP3    H220428   0.178   0.295   2.250
 6822TIP3   OH220429   0.666   6.118   0.435
 6822TIP3    H120430   0.587   6.106   0.487
 6822TIP3    H220431   0.676   6.036   0.386
 6823TIP3   OH220432   0.645   0.279   4.373
 6823TIP3    H120433   0.733   0.302   4.402
 6823TIP3    H220434   0.624   0.347   4.308
 6824TIP3   OH220435   0.182   2.076   2.287
 6824TIP3    H120436   0.245   2.013   2.322
 6824TIP3    H220437   0.200   2.157   2.335
 6825TIP3   OH220438   0.670   6.000   3.048
 6825TIP3    H120439   0.687   6.020   3.140
 6825TIP3    H220440   0.635   5.911   3.047
 6826TIP3   OH220441   2.393   0.711   1.045
 6826TIP3    H120442   2.399   0.796   1.002
 6826TIP3    H220443   2.340   0.728   1.123
 6827TIP3   OH220444   5.049   3.458   5.164
 6827TIP3    H120445   5.023   3.513   5.090
 6827TIP3    H220446   5.022   3.507   5.241
 6828TIP3   OH220447   4.200   0.047   0.555
 6828TIP3    H120448   4.165  -0.006   0.483
 6828TIP3    H220449   4.267  -0.009   0.596
 6829TIP3   OH220450   3.609   4.879   3.747
 6829TIP3    H120451   3.539   4.940   3.773
 6829TIP3    H220452   3.563   4.804   3.711
 6830TIP3   OH220453   5.854   4.487   3.348
 6830TIP3    H120454   5.786   4.494   3.281
 6830TIP3    H220455   5.933   4.464   3.299
 6831TIP3   OH220456   4.525   6.485   4.864
 6831TIP3    H120457   4.546   6.546   4.793
 6831TIP3    H220458   4.567   6.523   4.941
 6832TIP3   OH220459   6.390   6.718   0.933
 6832TIP3    H120460   6.476   6.675   0.934
 6832TIP3    H220461   6.403   6.796   0.880
 6833TIP3   OH220462   1.143   3.469   4.567
 6833TIP3    H120463   1.102   3.472   4.480
 6833TIP3    H220464   1.073   3.492   4.628
 6834TIP3   OH220465   4.811   2.721   0.281
 6834TIP3    H120466   4.780   2.743   0.368
 6834TIP3    H220467   4.779   2.793   0.225
 6835TIP3   OH220468   1.651   1.270   0.196
 6835TIP3    H120469   1.612   1.211   0.132
 6835TIP3    H220470   1.712   1.324   0.145
 6836TIP3   OH220471   0.396   0.182   4.251
 6836TIP3    H120472   0.425   0.272   4.265
 6836TIP3    H220473   0.436   0.133   4.322
 6837TIP3   OH220474   0.501   4.799   5.613
 6837TIP3    H120475   0.497   4.704   5.609
 6837TIP3    H220476   0.418   4.825   5.653
 6838TIP3   OH220477   4.393   6.747   1.629
 6838TIP3    H120478   4.344   6.677   1.587
 6838TIP3    H220479   4.478   6.747   1.585
 6839TIP3   OH220480   2.782   1.383   3.710
 6839TIP3    H120481   2.698   1.361   3.670
 6839TIP3    H220482   2.780   1.339   3.795
 6840TIP3   OH220483   4.176   4.474   4.908
 6840TIP3    H120484   4.161   4.556   4.861
 6840TIP3    H220485   4.174   4.406   4.840
 6841TIP3   OH220486   3.128   4.513   1.957
 6841TIP3    H120487   3.172   4.582   2.006
 6841TIP3    H220488   3.106   4.447   2.023
 6842TIP3   OH220489   1.754   2.985   4.806
 6842TIP3    H120490   1.729   3.054   4.745
 6842TIP3    H220491   1.686   2.987   4.873
 6843TIP3   OH220492   6.725   3.136   0.956
 6843TIP3    H120493   6.742   3.218   0.911
 6843TIP3    H220494   6.708   3.073   0.886
 6844TIP3   OH220495   2.043   0.585   2.979
 6844TIP3    H120496   2.088   0.617   2.901
 6844TIP3    H220497   1.952   0.611   2.966
 6845TIP3   OH220498   6.990   1.111   0.463
 6845TIP3    H120499   7.068   1.098   0.408
 6845TIP3    H220500   6.955   1.023   0.476
 6846TIP3   OH220501   5.448   4.598   4.430
 6846TIP3    H120502   5.513   4.633   4.370
 6846TIP3    H220503   5.379   4.664   4.431
 6847TIP3   OH220504   1.867   1.815   3.674
 6847TIP3    H120505   1.887   1.734   3.626
 6847TIP3    H220506   1.950   1.863   3.675
 6848TIP3   OH220507   4.024   4.557   4.553
 6848TIP3    H120508   4.023   4.577   4.459
 6848TIP3    H220509   3.933   4.568   4.580
 6849TIP3   OH220510   2.038   6.379   0.052
 6849TIP3    H120511   2.055   6.299   0.101
 6849TIP3    H220512   2.125   6.415   0.035
 6850TIP3   OH220513   1.228   5.347   2.199
 6850TIP3    H120514   1.264   5.367   2.113
 6850TIP3    H220515   1.262   5.260   2.219
 6851TIP3   OH220516   0.301   2.644   5.447
 6851TIP3    H120517   0.303   2.739   5.461
 6851TIP3    H220518   0.392   2.620   5.433
 6852TIP3   OH220519   0.168   2.107   3.387
 6852TIP3    H120520   0.111   2.059   3.327
 6852TIP3    H220521   0.240   2.047   3.405
 6853TIP3   OH220522   1.464   0.981   4.693
 6853TIP3    H120523   1.374   0.952   4.677
 6853TIP3    H220524   1.479   0.962   4.786
 6854TIP3   OH220525   3.079   5.919   0.986
 6854TIP3    H120526   3.086   5.941   1.079
 6854TIP3    H220527   2.986   5.900   0.973
 6855TIP3   OH220528   2.035   3.390   2.466
 6855TIP3    H120529   1.984   3.364   2.389
 6855TIP3    H220530   2.014   3.323   2.531
 6856TIP3   OH220531   1.882   1.256   2.041
 6856TIP3    H120532   1.902   1.338   2.085
 6856TIP3    H220533   1.791   1.237   2.066
 6857TIP3   OH220534   2.024   5.642   2.259
 6857TIP3    H120535   1.934   5.616   2.278
 6857TIP3    H220536   2.069   5.560   2.239
 6858TIP3   OH220537   0.458   0.333   1.148
 6858TIP3    H120538   0.453   0.266   1.216
 6858TIP3    H220539   0.535   0.310   1.096
 6859TIP3   OH220540   5.961   4.542   2.034
 6859TIP3    H120541   5.868   4.554   2.050
 6859TIP3    H220542   5.967   4.457   1.989
 6860TIP3   OH220543   1.906   0.312   3.949
 6860TIP3    H120544   1.914   0.324   3.855
 6860TIP3    H220545   1.816   0.340   3.969
 6861TIP3   OH220546   2.652   0.694   2.343
 6861TIP3    H120547   2.656   0.724   2.252
 6861TIP3    H220548   2.606   0.610   2.339
 6862TIP3   OH220549   4.914   0.016   2.929
 6862TIP3    H120550   4.830   0.045   2.895
 6862TIP3    H220551   4.965  -0.006   2.851
 6863TIP3   OH220552   7.193   1.260   2.591
 6863TIP3    H120553   7.123   1.325   2.601
 6863TIP3    H220554   7.267   1.296   2.640
 6864TIP3   OH220555   3.330   4.461   4.038
 6864TIP3    H120556   3.334   4.377   3.992
 6864TIP3    H220557   3.240   4.492   4.024
 6865TIP3   OH220558   1.514   1.944   2.675
 6865TIP3    H120559   1.492   1.921   2.765
 6865TIP3    H220560   1.507   1.861   2.627
 6866TIP3   OH220561   5.438   1.703   4.596
 6866TIP3    H120562   5.440   1.608   4.585
 6866TIP3    H220563   5.450   1.737   4.507
 6867TIP3   OH220564   3.338   4.879   1.960
 6867TIP3    H120565   3.418   4.845   1.921
 6867TIP3    H220566   3.335   4.971   1.935
 6868TIP3   OH220567   4.308   5.370   2.372
 6868TIP3    H120568   4.353   5.341   2.452
 6868TIP3    H220569   4.373   5.360   2.303
 6869TIP3   OH220570   1.512   6.537   0.660
 6869TIP3    H120571   1.535   6.628   0.644
 6869TIP3    H220572   1.420   6.539   0.686
 6870TIP3   OH220573   2.040   5.289   0.390
 6870TIP3    H120574   2.086   5.218   0.345
 6870TIP3    H220575   1.983   5.327   0.323
 6871TIP3   OH220576   4.604   1.311   0.514
 6871TIP3    H120577   4.547   1.342   0.443
 6871TIP3    H220578   4.544   1.270   0.576
 6872TIP3   OH220579   4.940   1.297   0.856
 6872TIP3    H120580   4.937   1.300   0.951
 6872TIP3    H220581   4.850   1.312   0.828
 6873TIP3   OH220582   6.152   3.916   2.378
 6873TIP3    H120583   6.158   3.997   2.429
 6873TIP3    H220584   6.243   3.895   2.356
 6874TIP3   OH220585   2.529   5.189   0.863
 6874TIP3    H120586   2.561   5.101   0.880
 6874TIP3    H220587   2.554   5.240   0.940
 6875TIP3   OH220588   6.881   3.736   5.587
 6875TIP3    H120589   6.803   3.733   5.532
 6875TIP3    H220590   6.945   3.784   5.535
 6876TIP3   OH220591   4.636   6.034   5.022
 6876TIP3    H120592   4.646   6.023   4.927
 6876TIP3    H220593   4.555   5.988   5.043
 6877TIP3   OH220594   0.357   1.983   4.478
 6877TIP3    H120595   0.309   1.918   4.426
 6877TIP3    H220596   0.442   1.990   4.434
 6878TIP3   OH220597   4.693   3.457   2.594
 6878TIP3    H120598   4.642   3.427   2.519
 6878TIP3    H220599   4.784   3.443   2.568
 6879TIP3   OH220600   6.816   1.137   5.643
 6879TIP3    H120601   6.828   1.082   5.566
 6879TIP3    H220602   6.722   1.152   5.648
 6880TIP3   OH220603   0.224   0.892   1.600
 6880TIP3    H120604   0.158   0.883   1.531
 6880TIP3    H220605   0.173   0.909   1.679
 6881TIP3   OH220606   5.076   5.011   0.265
 6881TIP3    H120607   5.120   5.064   0.331
 6881TIP3    H220608   5.010   5.068   0.228
 6882TIP3   OH220609   5.877   1.072   2.921
 6882TIP3    H120610   5.803   1.097   2.866
 6882TIP3    H220611   5.867   0.977   2.933
 6883TIP3   OH220612   0.127   3.921   1.818
 6883TIP3    H120613   0.047   3.970   1.797
 6883TIP3    H220614   0.147   3.946   1.908
 6884TIP3   OH220615   2.161   3.565   4.425
 6884TIP3    H120616   2.122   3.628   4.486
 6884TIP3    H220617   2.128   3.590   4.339
 6885TIP3   OH220618   4.364   1.254   5.141
 6885TIP3    H120619   4.348   1.315   5.212
 6885TIP3    H220620   4.360   1.307   5.062
 6886TIP3   OH220621   1.481   0.652   0.874
 6886TIP3    H120622   1.454   0.732   0.919
 6886TIP3    H220623   1.519   0.597   0.942
 6887TIP3   OH220624   5.022   0.793   4.959
 6887TIP3    H120625   5.114   0.787   4.983
 6887TIP3    H220626   5.022   0.846   4.879
 6888TIP3   OH220627   5.197   2.215   0.337
 6888TIP3    H120628   5.156   2.289   0.292
 6888TIP3    H220629   5.264   2.184   0.277
 6889TIP3   OH220630   6.599   6.081   3.545
 6889TIP3    H120631   6.603   6.176   3.535
 6889TIP3    H220632   6.597   6.066   3.639
 6890TIP3   OH220633   5.377   3.460   3.714
 6890TIP3    H120634   5.378   3.551   3.684
 6890TIP3    H220635   5.293   3.426   3.685
 6891TIP3   OH220636   2.001   6.222   4.865
 6891TIP3    H120637   1.946   6.149   4.837
 6891TIP3    H220638   2.010   6.210   4.960
 6892TIP3   OH220639   4.743   3.407   5.502
 6892TIP3    H120640   4.728   3.416   5.597
 6892TIP3    H220641   4.697   3.482   5.464
 6893TIP3   OH220642   0.704   3.540   4.042
 6893TIP3    H120643   0.780   3.520   3.986
 6893TIP3    H220644   0.628   3.517   3.988
 6894TIP3   OH220645   0.345   2.438   3.848
 6894TIP3    H120646   0.325   2.366   3.789
 6894TIP3    H220647   0.419   2.406   3.900
 6895TIP3   OH220648   3.513   1.909   5.539
 6895TIP3    H120649   3.480   1.882   5.453
 6895TIP3    H220650   3.587   1.850   5.555
 6896TIP3   OH220651   2.327   5.325   1.429
 6896TIP3    H120652   2.350   5.240   1.392
 6896TIP3    H220653   2.302   5.307   1.519
 6897TIP3   OH220654   3.708   1.819   2.645
 6897TIP3    H120655   3.676   1.773   2.568
 6897TIP3    H220656   3.747   1.899   2.612
 6898TIP3   OH220657   3.979   6.253   3.664
 6898TIP3    H120658   3.967   6.184   3.730
 6898TIP3    H220659   4.074   6.266   3.661
 6899TIP3   OH220660   5.348   5.222   2.031
 6899TIP3    H120661   5.261   5.182   2.023
 6899TIP3    H220662   5.346   5.295   1.969
 6900TIP3   OH220663   5.073   4.244   4.132
 6900TIP3    H120664   5.076   4.157   4.171
 6900TIP3    H220665   4.980   4.268   4.134
 6901TIP3   OH220666   7.178   0.596   5.440
 6901TIP3    H120667   7.086   0.590   5.467
 6901TIP3    H220668   7.184   0.678   5.391
 6902TIP3   OH220669   3.656   3.290   3.780
 6902TIP3    H120670   3.590   3.334   3.835
 6902TIP3    H220671   3.633   3.314   3.691
 6903TIP3   OH220672   1.411   3.664   0.403
 6903TIP3    H120673   1.317   3.679   0.404
 6903TIP3    H220674   1.449   3.752   0.404
 6904TIP3   OH220675   5.343   4.909   1.346
 6904TIP3    H120676   5.316   4.971   1.278
 6904TIP3    H220677   5.287   4.931   1.421
 6905TIP3   OH220678   6.105   3.528   3.841
 6905TIP3    H120679   6.177   3.573   3.797
 6905TIP3    H220680   6.030   3.542   3.783
 6906TIP3   OH220681   5.861   2.546   3.160
 6906TIP3    H120682   5.925   2.589   3.217
 6906TIP3    H220683   5.873   2.588   3.075
 6907TIP3   OH220684   4.932   1.045   2.773
 6907TIP3    H120685   4.936   0.957   2.809
 6907TIP3    H220686   4.949   1.033   2.679
 6908TIP3   OH220687   0.551   3.582   5.311
 6908TIP3    H120688   0.506   3.651   5.359
 6908TIP3    H220689   0.626   3.559   5.365
 6909TIP3   OH220690   1.359   2.241   2.962
 6909TIP3    H120691   1.449   2.239   2.995
 6909TIP3    H220692   1.345   2.154   2.925
 6910TIP3   OH220693   7.037   5.865   1.795
 6910TIP3    H120694   6.970   5.873   1.727
 6910TIP3    H220695   7.018   5.937   1.855
 6911TIP3   OH220696   4.847   1.926   5.111
 6911TIP3    H120697   4.764   1.933   5.064
 6911TIP3    H220698   4.910   1.898   5.045
 6912TIP3   OH220699   1.980   6.023   2.537
 6912TIP3    H120700   1.888   6.049   2.538
 6912TIP3    H220701   1.979   5.936   2.497
 6913TIP3   OH220702   0.763   5.924   2.697
 6913TIP3    H120703   0.764   5.870   2.618
 6913TIP3    H220704   0.817   5.875   2.760
 6914TIP3   OH220705   5.174   3.857   4.083
 6914TIP3    H120706   5.246   3.800   4.058
 6914TIP3    H220707   5.097   3.800   4.086
 6915TIP3   OH220708   0.220   2.131   1.015
 6915TIP3    H120709   0.265   2.129   0.931
 6915TIP3    H220710   0.262   2.203   1.063
 6916TIP3   OH220711   1.651   3.454   1.734
 6916TIP3    H120712   1.624   3.534   1.689
 6916TIP3    H220713   1.714   3.485   1.799
 6917TIP3   OH220714   2.419   6.415   3.271
 6917TIP3    H120715   2.353   6.351   3.299
 6917TIP3    H220716   2.493   6.363   3.241
 6918TIP3   OH220717   3.084   2.048   3.243
 6918TIP3    H120718   3.026   1.999   3.302
 6918TIP3    H220719   3.167   2.002   3.248
 6919TIP3   OH220720   5.126   1.546   2.406
 6919TIP3    H120721   5.091   1.480   2.346
 6919TIP3    H220722   5.210   1.511   2.435
 6920TIP3   OH220723   0.417   5.678   5.293
 6920TIP3    H120724   0.348   5.731   5.332
 6920TIP3    H220725   0.497   5.728   5.308
 6921TIP3   OH220726   5.963   4.561   1.601
 6921TIP3    H120727   5.913   4.488   1.566
 6921TIP3    H220728   6.049   4.524   1.621
 6922TIP3   OH220729   6.524   3.627   1.621
 6922TIP3    H120730   6.518   3.532   1.610
 6922TIP3    H220731   6.548   3.639   1.713
 6923TIP3   OH220732   6.070   5.065   5.061
 6923TIP3    H120733   6.078   5.149   5.017
 6923TIP3    H220734   6.093   5.001   4.994
 6924TIP3   OH220735   5.027   1.244   5.844
 6924TIP3    H120736   5.005   1.154   5.821
 6924TIP3    H220737   4.945   1.282   5.874
 6925TIP3   OH220738   2.361   3.069   3.178
 6925TIP3    H120739   2.377   3.096   3.087
 6925TIP3    H220740   2.429   3.004   3.196
 6926TIP3   OH220741   0.124   4.011   4.726
 6926TIP3    H120742   0.182   4.073   4.770
 6926TIP3    H220743   0.123   4.040   4.635
 6927TIP3   OH220744   2.071   5.510   2.725
 6927TIP3    H120745   2.142   5.462   2.767
 6927TIP3    H220746   2.071   5.479   2.635
 6928TIP3   OH220747   3.561   2.364   4.900
 6928TIP3    H120748   3.499   2.302   4.938
 6928TIP3    H220749   3.620   2.387   4.972
 6929TIP3   OH220750   5.314   2.097   1.323
 6929TIP3    H120751   5.301   2.068   1.232
 6929TIP3    H220752   5.317   2.192   1.317
 6930TIP3   OH220753   3.261   5.733   0.874
 6930TIP3    H120754   3.202   5.665   0.840
 6930TIP3    H220755   3.204   5.810   0.886
 6931TIP3   OH220756   4.752   5.633   4.085
 6931TIP3    H120757   4.775   5.652   3.993
 6931TIP3    H220758   4.697   5.555   4.080
 6932TIP3   OH220759   0.122   6.348   0.367
 6932TIP3    H120760   0.186   6.386   0.426
 6932TIP3    H220761   0.165   6.347   0.281
 6933TIP3   OH220762   2.583   6.075   5.050
 6933TIP3    H120763   2.653   6.129   5.014
 6933TIP3    H220764   2.613   5.985   5.036
 6934TIP3   OH220765   5.753   6.749   0.942
 6934TIP3    H120766   5.723   6.836   0.917
 6934TIP3    H220767   5.824   6.765   1.004
 6935TIP3   OH220768   6.410   0.831   0.361
 6935TIP3    H120769   6.357   0.888   0.306
 6935TIP3    H220770   6.498   0.870   0.359
 6936TIP3   OH220771   0.757   1.260   3.936
 6936TIP3    H120772   0.672   1.289   3.904
 6936TIP3    H220773   0.741   1.232   4.026
 6937TIP3   OH220774   0.897   1.563   0.306
 6937TIP3    H120775   0.841   1.498   0.265
 6937TIP3    H220776   0.909   1.630   0.239
 6938TIP3   OH220777   6.657   5.877   2.981
 6938TIP3    H120778   6.573   5.922   2.970
 6938TIP3    H220779   6.719   5.929   2.930
 6939TIP3   OH220780   4.795   2.511   0.105
 6939TIP3    H120781   4.813   2.567   0.029
 6939TIP3    H220782   4.800   2.569   0.180
 6940TIP3   OH220783   6.266   1.669   5.713
 6940TIP3    H120784   6.285   1.616   5.790
 6940TIP3    H220785   6.352   1.697   5.681
 6941TIP3   OH220786   6.978   1.423   2.878
 6941TIP3    H120787   6.954   1.503   2.925
 6941TIP3    H220788   7.047   1.383   2.932
 6942TIP3   OH220789   0.463   0.062   5.072
 6942TIP3    H120790   0.510   0.041   4.991
 6942TIP3    H220791   0.468   0.158   5.077
 6943TIP3   OH220792   1.953   3.774   4.474
 6943TIP3    H120793   1.969   3.728   4.392
 6943TIP3    H220794   1.957   3.867   4.451
 6944TIP3   OH220795   2.426   2.481   5.039
 6944TIP3    H120796   2.458   2.412   4.981
 6944TIP3    H220797   2.345   2.511   4.998
 6945TIP3   OH220798   1.609   5.689   0.694
 6945TIP3    H120799   1.662   5.765   0.715
 6945TIP3    H220800   1.654   5.648   0.620
 6946TIP3   OH220801   5.639   1.293   2.945
 6946TIP3    H120802   5.560   1.345   2.963
 6946TIP3    H220803   5.613   1.203   2.961
 6947TIP3   OH220804   6.685   3.949   0.759
 6947TIP3    H120805   6.599   3.914   0.780
 6947TIP3    H220806   6.711   3.903   0.678
 6948TIP3   OH220807   1.208   1.508   5.205
 6948TIP3    H120808   1.149   1.432   5.198
 6948TIP3    H220809   1.162   1.568   5.263
 6949TIP3   OH220810   2.375   6.150   4.324
 6949TIP3    H120811   2.431   6.219   4.360
 6949TIP3    H220812   2.327   6.192   4.253
 6950TIP3   OH220813   2.122   2.058   2.457
 6950TIP3    H120814   2.126   2.031   2.365
 6950TIP3    H220815   2.029   2.058   2.478
 6951TIP3   OH220816   1.976   5.120   3.975
 6951TIP3    H120817   1.940   5.068   3.903
 6951TIP3    H220818   1.916   5.106   4.048
 6952TIP3   OH220819   2.495   3.175   1.748
 6952TIP3    H120820   2.473   3.247   1.689
 6952TIP3    H220821   2.432   3.183   1.820
 6953TIP3   OH220822   2.394   4.842   4.804
 6953TIP3    H120823   2.382   4.833   4.710
 6953TIP3    H220824   2.466   4.782   4.824
 6954TIP3   OH220825   0.951   3.684   1.274
 6954TIP3    H120826   1.015   3.623   1.236
 6954TIP3    H220827   0.931   3.744   1.202
 6955TIP3   OH220828   3.068   4.689   2.663
 6955TIP3    H120829   3.015   4.660   2.588
 6955TIP3    H220830   3.123   4.759   2.627
 6956TIP3   OH220831   2.324   5.517   5.061
 6956TIP3    H120832   2.268   5.460   5.115
 6956TIP3    H220833   2.361   5.579   5.123
 6957TIP3   OH220834   6.922   3.017   5.064
 6957TIP3    H120835   6.882   3.047   5.146
 6957TIP3    H220836   7.015   3.037   5.074
 6958TIP3   OH220837   5.703   1.182   3.837
 6958TIP3    H120838   5.675   1.091   3.825
 6958TIP3    H220839   5.648   1.232   3.776
 6959TIP3   OH220840   1.898   1.528   1.405
 6959TIP3    H120841   1.946   1.519   1.322
 6959TIP3    H220842   1.934   1.607   1.445
 6960TIP3   OH220843   1.775   0.622   2.842
 6960TIP3    H120844   1.733   0.680   2.906
 6960TIP3    H220845   1.742   0.535   2.865
 6961TIP3   OH220846   1.260   1.702   5.541
 6961TIP3    H120847   1.280   1.609   5.529
 6961TIP3    H220848   1.272   1.740   5.454
 6962TIP3   OH220849   2.711   0.771   4.223
 6962TIP3    H120850   2.744   0.784   4.134
 6962TIP3    H220851   2.759   0.696   4.257
 6963TIP3   OH220852   2.187   5.488   0.520
 6963TIP3    H120853   2.232   5.435   0.586
 6963TIP3    H220854   2.113   5.436   0.493
 6964TIP3   OH220855   0.871   3.156   4.036
 6964TIP3    H120856   0.886   3.145   4.130
 6964TIP3    H220857   0.896   3.246   4.017
 6965TIP3   OH220858   2.858   2.946   4.411
 6965TIP3    H120859   2.865   2.934   4.505
 6965TIP3    H220860   2.812   2.868   4.379
 6966TIP3   OH220861   5.203   1.250   4.505
 6966TIP3    H120862   5.140   1.285   4.568
 6966TIP3    H220863   5.221   1.162   4.536
 6967TIP3   OH220864   2.106   5.443   4.144
 6967TIP3    H120865   2.150   5.368   4.184
 6967TIP3    H220866   2.107   5.425   4.050
 6968TIP3   OH220867   5.179   1.784   2.884
 6968TIP3    H120868   5.199   1.739   2.802
 6968TIP3    H220869   5.262   1.820   2.913
 6969TIP3   OH220870   5.003   2.469   4.866
 6969TIP3    H120871   4.976   2.433   4.781
 6969TIP3    H220872   4.989   2.563   4.858
 6970TIP3   OH220873   2.397   3.102   2.507
 6970TIP3    H120874   2.308   3.080   2.479
 6970TIP3    H220875   2.388   3.189   2.546
 6971TIP3   OH220876   0.789   5.462   3.921
 6971TIP3    H120877   0.765   5.546   3.882
 6971TIP3    H220878   0.857   5.484   3.985
 6972TIP3   OH220879   5.939   1.562   5.161
 6972TIP3    H120880   6.003   1.506   5.205
 6972TIP3    H220881   5.891   1.502   5.103
 6973TIP3   OH220882   0.340   4.459   4.503
 6973TIP3    H120883   0.297   4.463   4.589
 6973TIP3    H220884   0.410   4.524   4.509
 6974TIP3   OH220885   4.083   5.376   3.155
 6974TIP3    H120886   4.003   5.413   3.191
 6974TIP3    H220887   4.056   5.335   3.073
 6975TIP3   OH220888   0.381   0.433   3.010
 6975TIP3    H120889   0.353   0.367   3.074
 6975TIP3    H220890   0.300   0.469   2.976
 6976TIP3   OH220891   2.757   6.647   3.061
 6976TIP3    H120892   2.768   6.738   3.090
 6976TIP3    H220893   2.672   6.645   3.019
 6977TIP3   OH220894   5.729   4.111   2.147
 6977TIP3    H120895   5.824   4.100   2.141
 6977TIP3    H220896   5.710   4.107   2.241
 6978TIP3   OH220897   4.940   3.208   4.099
 6978TIP3    H120898   4.896   3.265   4.161
 6978TIP3    H220899   4.979   3.139   4.153
 6979TIP3   OH220900   6.080   1.259   2.902
 6979TIP3    H120901   6.008   1.197   2.915
 6979TIP3    H220902   6.158   1.204   2.900
 6980TIP3   OH220903   2.993   2.770   1.949
 6980TIP3    H120904   2.948   2.715   1.884
 6980TIP3    H220905   2.936   2.768   2.026
 6981TIP3   OH220906   6.081   5.697   4.551
 6981TIP3    H120907   6.051   5.770   4.606
 6981TIP3    H220908   6.009   5.634   4.556
 6982TIP3   OH220909   6.559   3.367   1.372
 6982TIP3    H120910   6.493   3.333   1.312
 6982TIP3    H220911   6.525   3.348   1.459
 6983TIP3   OH220912   6.660   3.075   4.271
 6983TIP3    H120913   6.734   3.035   4.316
 6983TIP3    H220914   6.694   3.093   4.183
 6984TIP3   OH220915   4.579   6.257   3.238
 6984TIP3    H120916   4.629   6.178   3.217
 6984TIP3    H220917   4.490   6.236   3.212
 6985TIP3   OH220918   5.373   6.119   3.180
 6985TIP3    H120919   5.280   6.143   3.180
 6985TIP3    H220920   5.419   6.200   3.159
 6986TIP3   OH220921   7.172   3.395   3.838
 6986TIP3    H120922   7.173   3.406   3.933
 6986TIP3    H220923   7.166   3.484   3.803
 6987TIP3   OH220924   0.669   5.863   1.643
 6987TIP3    H120925   0.751   5.884   1.600
 6987TIP3    H220926   0.619   5.814   1.577
 6988TIP3   OH220927   6.911   3.837   5.318
 6988TIP3    H120928   6.815   3.836   5.325
 6988TIP3    H220929   6.931   3.924   5.282
 6989TIP3   OH220930   2.914   0.244   3.033
 6989TIP3    H120931   2.987   0.193   2.996
 6989TIP3    H220932   2.854   0.178   3.069
 6990TIP3   OH220933   4.897   0.499   2.210
 6990TIP3    H120934   4.935   0.421   2.249
 6990TIP3    H220935   4.878   0.557   2.284
 6991TIP3   OH220936   5.480   2.614   2.426
 6991TIP3    H120937   5.405   2.659   2.388
 6991TIP3    H220938   5.472   2.629   2.521
 6992TIP3   OH220939   0.766   3.933   0.636
 6992TIP3    H120940   0.818   4.012   0.623
 6992TIP3    H220941   0.723   3.945   0.720
 6993TIP3   OH220942   0.225   0.665   5.869
 6993TIP3    H120943   0.134   0.680   5.845
 6993TIP3    H220944   0.224   0.583   5.917
 6994TIP3   OH220945   5.079   4.773   1.321
 6994TIP3    H120946   5.093   4.704   1.386
 6994TIP3    H220947   5.158   4.827   1.326
 6995TIP3   OH220948   3.710   1.551   0.703
 6995TIP3    H120949   3.693   1.643   0.683
 6995TIP3    H220950   3.698   1.545   0.798
 6996TIP3   OH220951   1.718   6.583   0.449
 6996TIP3    H120952   1.680   6.510   0.497
 6996TIP3    H220953   1.791   6.545   0.400
 6997TIP3   OH220954   0.556   2.748   3.422
 6997TIP3    H120955   0.473   2.741   3.374
 6997TIP3    H220956   0.541   2.700   3.504
 6998TIP3   OH220957   0.387   0.973   4.044
 6998TIP3    H120958   0.432   0.888   4.046
 6998TIP3    H220959   0.313   0.960   3.984
 6999TIP3   OH220960   5.400   1.612   3.766
 6999TIP3    H120961   5.380   1.532   3.816
 6999TIP3    H220962   5.334   1.675   3.794
 7000TIP3   OH220963   4.365   2.998   4.412
 7000TIP3    H120964   4.459   2.988   4.430
 7000TIP3    H220965   4.337   3.070   4.469
 7001TIP3   OH220966   5.275   2.170   1.860
 7001TIP3    H120967   5.263   2.148   1.767
 7001TIP3    H220968   5.208   2.119   1.906
 7002TIP3   OH220969   3.572   5.969   2.031
 7002TIP3    H120970   3.515   5.893   2.037
 7002TIP3    H220971   3.632   5.960   2.106
 7003TIP3   OH220972   3.507   6.487   4.949
 7003TIP3    H120973   3.507   6.528   5.035
 7003TIP3    H220974   3.414   6.469   4.930
 7004TIP3   OH220975   0.270  -0.055   1.681
 7004TIP3    H120976   0.242   0.016   1.739
 7004TIP3    H220977   0.279  -0.130   1.739
 7005TIP3   OH220978   3.751   3.129   0.452
 7005TIP3    H120979   3.705   3.176   0.382
 7005TIP3    H220980   3.841   3.160   0.446
 7006TIP3   OH220981   0.371   3.219   1.865
 7006TIP3    H120982   0.407   3.177   1.943
 7006TIP3    H220983   0.422   3.183   1.792
 7007TIP3   OH220984   1.734   3.809   4.170
 7007TIP3    H120985   1.661   3.864   4.142
 7007TIP3    H220986   1.707   3.720   4.147
 7008TIP3   OH220987   7.042   6.271   2.781
 7008TIP3    H120988   7.094   6.352   2.790
 7008TIP3    H220989   6.993   6.284   2.699
 7009TIP3   OH220990   1.962   4.110   1.872
 7009TIP3    H120991   2.052   4.089   1.897
 7009TIP3    H220992   1.931   4.170   1.940
 7010TIP3   OH220993   2.878   4.565   2.472
 7010TIP3    H120994   2.835   4.648   2.490
 7010TIP3    H220995   2.813   4.513   2.424
 7011TIP3   OH220996   3.869   0.288   2.261
 7011TIP3    H120997   3.913   0.203   2.258
 7011TIP3    H220998   3.892   0.324   2.346
 7012TIP3   OH220999   6.726   3.844   0.422
 7012TIP3    H121000   6.761   3.757   0.402
 7012TIP3    H221001   6.634   3.839   0.395
 7013TIP3   OH221002   3.961   6.219   3.339
 7013TIP3    H121003   3.902   6.219   3.414
 7013TIP3    H221004   3.904   6.233   3.263
 7014TIP3   OH221005   4.788   2.446   2.655
 7014TIP3    H121006   4.706   2.473   2.697
 7014TIP3    H221007   4.852   2.446   2.725
 7015TIP3   OH221008   1.342   1.833   3.077
 7015TIP3    H121009   1.337   1.781   3.157
 7015TIP3    H221010   1.436   1.841   3.059
 7016TIP3   OH221011   5.310   2.813   4.612
 7016TIP3    H121012   5.291   2.810   4.706
 7016TIP3    H221013   5.254   2.745   4.574
 7017TIP3   OH221014   3.199   3.558   0.847
 7017TIP3    H121015   3.178   3.638   0.799
 7017TIP3    H221016   3.174   3.577   0.937
 7018TIP3   OH221017   0.049   6.729   0.337
 7018TIP3    H121018   0.033   6.666   0.267
 7018TIP3    H221019  -0.023   6.792   0.330
 7019TIP3   OH221020   7.116   2.633   1.009
 7019TIP3    H121021   7.044   2.623   1.071
 7019TIP3    H221022   7.178   2.564   1.034
 7020TIP3   OH221023   2.190   0.200   2.793
 7020TIP3    H121024   2.236   0.206   2.876
 7020TIP3    H221025   2.218   0.117   2.755
 7021TIP3   OH221026   3.952   2.664   3.932
 7021TIP3    H121027   3.931   2.624   3.848
 7021TIP3    H221028   4.026   2.612   3.966
 7022TIP3   OH221029   1.607   1.105   4.377
 7022TIP3    H121030   1.612   1.156   4.458
 7022TIP3    H221031   1.626   1.169   4.308
 7023TIP3   OH221032   4.141   1.283   0.418
 7023TIP3    H121033   4.068   1.251   0.471
 7023TIP3    H221034   4.128   1.242   0.332
 7024TIP3   OH221035   5.568   6.238   1.276
 7024TIP3    H121036   5.639   6.267   1.335
 7024TIP3    H221037   5.535   6.319   1.238
 7025TIP3   OH221038   5.299   1.385   2.194
 7025TIP3    H121039   5.286   1.459   2.135
 7025TIP3    H221040   5.394   1.368   2.190
 7026TIP3   OH221041   4.145   0.056   3.723
 7026TIP3    H121042   4.186  -0.020   3.764
 7026TIP3    H221043   4.055   0.054   3.755
 7027TIP3   OH221044   5.463   1.257   5.694
 7027TIP3    H121045   5.527   1.290   5.632
 7027TIP3    H221046   5.510   1.254   5.778
 7028TIP3   OH221047   1.316   2.015   3.800
 7028TIP3    H121048   1.411   2.009   3.808
 7028TIP3    H221049   1.295   2.106   3.823
 7029TIP3   OH221050   4.414   3.609   2.009
 7029TIP3    H121051   4.402   3.649   1.923
 7029TIP3    H221052   4.416   3.683   2.070
 7030TIP3   OH221053   1.694   3.638   3.146
 7030TIP3    H121054   1.773   3.595   3.180
 7030TIP3    H221055   1.705   3.730   3.169
 7031TIP3   OH221056   1.961   6.296   0.462
 7031TIP3    H121057   2.046   6.306   0.418
 7031TIP3    H221058   1.902   6.267   0.393
 7032TIP3   OH221059   5.577   6.041   0.260
 7032TIP3    H121060   5.537   6.111   0.312
 7032TIP3    H221061   5.590   5.969   0.323
 7033TIP3   OH221062   4.902   5.446   3.211
 7033TIP3    H121063   4.902   5.377   3.144
 7033TIP3    H221064   4.984   5.433   3.258
 7034TIP3   OH221065   6.520   1.571   5.857
 7034TIP3    H121066   6.600   1.624   5.860
 7034TIP3    H221067   6.548   1.485   5.888
 7035TIP3   OH221068   1.082   3.476   5.230
 7035TIP3    H121069   1.108   3.440   5.146
 7035TIP3    H221070   1.136   3.431   5.294
 7036TIP3   OH221071   4.936   4.630   4.485
 7036TIP3    H121072   4.996   4.630   4.559
 7036TIP3    H221073   4.938   4.540   4.452
 7037TIP3   OH221074   3.236   1.430   3.635
 7037TIP3    H121075   3.157   1.481   3.653
 7037TIP3    H221076   3.205   1.339   3.630
 7038TIP3   OH221077   2.235   1.881   3.686
 7038TIP3    H121078   2.210   1.973   3.687
 7038TIP3    H221079   2.328   1.881   3.708
 7039TIP3   OH221080   5.392   0.806   5.406
 7039TIP3    H121081   5.475   0.763   5.383
 7039TIP3    H221082   5.353   0.829   5.322
 7040TIP3   OH221083   7.112   5.788   4.965
 7040TIP3    H121084   7.017   5.781   4.965
 7040TIP3    H221085   7.142   5.716   4.909
 7041TIP3   OH221086   6.097   1.236   1.443
 7041TIP3    H121087   6.185   1.222   1.410
 7041TIP3    H221088   6.043   1.175   1.393
 7042TIP3   OH221089   5.012   4.845   1.074
 7042TIP3    H121090   5.041   4.930   1.106
 7042TIP3    H221091   5.021   4.787   1.150
 7043TIP3   OH221092   2.922   1.417   3.326
 7043TIP3    H121093   2.839   1.454   3.354
 7043TIP3    H221094   2.948   1.358   3.397
 7044TIP3   OH221095   0.012   4.099   0.792
 7044TIP3    H121096   0.058   4.020   0.822
 7044TIP3    H221097  -0.075   4.092   0.831
 7045TIP3   OH221098   0.485   4.431   2.844
 7045TIP3    H121099   0.561   4.427   2.787
 7045TIP3    H221100   0.520   4.416   2.932
 7046TIP3   OH221101   4.384   1.177   2.954
 7046TIP3    H121102   4.329   1.151   2.880
 7046TIP3    H221103   4.420   1.261   2.929
 7047TIP3   OH221104   6.303   2.040   1.647
 7047TIP3    H121105   6.269   2.082   1.568
 7047TIP3    H221106   6.260   1.954   1.648
 7048TIP3   OH221107   0.318   1.641   5.700
 7048TIP3    H121108   0.290   1.688   5.779
 7048TIP3    H221109   0.247   1.579   5.683
 7049TIP3   OH221110   2.790   5.066   3.978
 7049TIP3    H121111   2.743   5.149   3.976
 7049TIP3    H221112   2.834   5.065   4.063
 7050TIP3   OH221113   6.961   1.135   1.114
 7050TIP3    H121114   6.956   1.074   1.040
 7050TIP3    H221115   6.909   1.094   1.183
 7051TIP3   OH221116   1.872   3.088   0.617
 7051TIP3    H121117   1.870   3.001   0.579
 7051TIP3    H221118   1.780   3.111   0.629
 7052TIP3   OH221119   6.350   3.348   0.624
 7052TIP3    H121120   6.276   3.329   0.566
 7052TIP3    H221121   6.371   3.264   0.664
 7053TIP3   OH221122   2.948   3.887   4.529
 7053TIP3    H121123   3.031   3.925   4.558
 7053TIP3    H221124   2.969   3.798   4.505
 7054TIP3   OH221125   6.133   6.618   5.098
 7054TIP3    H121126   6.199   6.553   5.075
 7054TIP3    H221127   6.183   6.697   5.118
 7055TIP3   OH221128   0.421   3.997   0.200
 7055TIP3    H121129   0.496   3.987   0.142
 7055TIP3    H221130   0.454   3.971   0.286
 7056TIP3   OH221131   5.785   6.647   0.322
 7056TIP3    H121132   5.705   6.622   0.368
 7056TIP3    H221133   5.818   6.564   0.286
 7057TIP3   OH221134   4.084   4.574   2.320
 7057TIP3    H121135   4.142   4.618   2.259
 7057TIP3    H221136   4.137   4.503   2.357
 7058TIP3   OH221137   3.379   4.118   1.030
 7058TIP3    H121138   3.395   4.119   0.936
 7058TIP3    H221139   3.420   4.199   1.062
 7059TIP3   OH221140   3.592   5.285   4.628
 7059TIP3    H121141   3.497   5.285   4.615
 7059TIP3    H221142   3.612   5.193   4.648
 7060TIP3   OH221143   2.542   0.418   0.094
 7060TIP3    H121144   2.563   0.327   0.117
 7060TIP3    H221145   2.477   0.444   0.160
 7061TIP3   OH221146   6.187   3.552   4.619
 7061TIP3    H121147   6.120   3.578   4.555
 7061TIP3    H221148   6.236   3.483   4.575
 7062TIP3   OH221149   1.570   3.307   1.269
 7062TIP3    H121150   1.628   3.362   1.217
 7062TIP3    H221151   1.613   3.301   1.355
 7063TIP3   OH221152   6.651   5.101   0.601
 7063TIP3    H121153   6.638   5.061   0.687
 7063TIP3    H221154   6.563   5.117   0.568
 7064TIP3   OH221155   2.484   4.967   5.931
 7064TIP3    H121156   2.509   4.887   5.976
 7064TIP3    H221157   2.404   4.944   5.883
 7065TIP3   OH221158   5.884   1.314   0.895
 7065TIP3    H121159   5.953   1.381   0.896
 7065TIP3    H221160   5.805   1.361   0.868
 7066TIP3   OH221161   4.983   5.610   3.544
 7066TIP3    H121162   4.974   5.554   3.621
 7066TIP3    H221163   5.058   5.574   3.496
 7067TIP3   OH221164   2.062   0.948   0.534
 7067TIP3    H121165   2.040   0.988   0.618
 7067TIP3    H221166   2.157   0.938   0.537
 7068TIP3   OH221167   7.064   1.975   1.508
 7068TIP3    H121168   7.138   2.033   1.494
 7068TIP3    H221169   7.003   2.026   1.562
 7069TIP3   OH221170   3.436   4.764   5.608
 7069TIP3    H121171   3.379   4.709   5.555
 7069TIP3    H221172   3.517   4.714   5.616
 7070TIP3   OH221173   5.031   6.466   2.268
 7070TIP3    H121174   5.104   6.442   2.211
 7070TIP3    H221175   5.064   6.541   2.318
 7071TIP3   OH221176   6.837   3.185   3.145
 7071TIP3    H121177   6.759   3.192   3.199
 7071TIP3    H221178   6.831   3.098   3.105
 7072TIP3   OH221179   5.418   1.145   2.804
 7072TIP3    H121180   5.357   1.117   2.736
 7072TIP3    H221181   5.504   1.118   2.772
 7073TIP3   OH221182   0.076   0.931   1.858
 7073TIP3    H121183   0.061   0.969   1.944
 7073TIP3    H221184   0.061   0.837   1.870
 7074TIP3   OH221185   2.571   1.445   5.203
 7074TIP3    H121186   2.636   1.399   5.255
 7074TIP3    H221187   2.502   1.380   5.188
 7075TIP3   OH221188   2.020   3.348   2.087
 7075TIP3    H121189   1.960   3.327   2.158
 7075TIP3    H221190   1.985   3.302   2.011
 7076TIP3   OH221191   1.197   0.712   5.430
 7076TIP3    H121192   1.195   0.739   5.522
 7076TIP3    H221193   1.289   0.721   5.405
 7077TIP3   OH221194   0.755   6.650   3.439
 7077TIP3    H121195   0.820   6.719   3.427
 7077TIP3    H221196   0.675   6.696   3.461
 7078TIP3   OH221197   7.023   6.491   1.858
 7078TIP3    H121198   7.091   6.434   1.893
 7078TIP3    H221199   6.953   6.432   1.832
 7079TIP3   OH221200   3.573   1.517   0.316
 7079TIP3    H121201   3.593   1.506   0.409
 7079TIP3    H221202   3.488   1.475   0.305
 7080TIP3   OH221203   0.511   3.156   2.132
 7080TIP3    H121204   0.493   3.139   2.225
 7080TIP3    H221205   0.549   3.075   2.099
 7081TIP3   OH221206   2.454   3.634   1.542
 7081TIP3    H121207   2.512   3.703   1.574
 7081TIP3    H221208   2.487   3.554   1.584
 7082TIP3   OH221209   0.220   4.495   5.913
 7082TIP3    H121210   0.308   4.463   5.893
 7082TIP3    H221211   0.185   4.526   5.829
 7083TIP3   OH221212   0.082   2.401   4.304
 7083TIP3    H121213   0.118   2.460   4.371
 7083TIP3    H221214   0.000   2.441   4.277
 7084TIP3   OH221215   5.731   3.058   1.467
 7084TIP3    H121216   5.797   3.065   1.537
 7084TIP3    H221217   5.725   2.964   1.449
 7085TIP3   OH221218   7.166   0.839   5.348
 7085TIP3    H121219   7.096   0.874   5.293
 7085TIP3    H221220   7.189   0.912   5.406
 7086TIP3   OH221221   5.657   5.309   4.434
 7086TIP3    H121222   5.668   5.402   4.450
 7086TIP3    H221223   5.593   5.281   4.499
 7087TIP3   OH221224   4.760   3.782   4.238
 7087TIP3    H121225   4.767   3.748   4.149
 7087TIP3    H221226   4.785   3.708   4.294
 7088TIP3   OH221227   6.024   0.726   2.055
 7088TIP3    H121228   6.115   0.721   2.025
 7088TIP3    H221229   6.021   0.669   2.132
 7089TIP3   OH221230   1.130   3.410   3.394
 7089TIP3    H121231   1.223   3.402   3.370
 7089TIP3    H221232   1.088   3.448   3.317
 7090TIP3   OH221233   1.437   5.797   5.657
 7090TIP3    H121234   1.433   5.872   5.598
 7090TIP3    H221235   1.360   5.745   5.635
 7091TIP3   OH221236   1.941   3.313   1.252
 7091TIP3    H121237   1.978   3.376   1.190
 7091TIP3    H221238   1.921   3.236   1.198
 7092TIP3   OH221239   6.909   6.427   3.375
 7092TIP3    H121240   6.917   6.485   3.300
 7092TIP3    H221241   6.994   6.433   3.419
 7093TIP3   OH221242   1.476   2.756   1.430
 7093TIP3    H121243   1.531   2.780   1.355
 7093TIP3    H221244   1.511   2.672   1.460
 7094TIP3   OH221245   1.590   5.412   4.674
 7094TIP3    H121246   1.662   5.470   4.700
 7094TIP3    H221247   1.624   5.324   4.688
 7095TIP3   OH221248   5.777   0.702   1.713
 7095TIP3    H121249   5.845   0.715   1.646
 7095TIP3    H221250   5.815   0.636   1.772
 7096TIP3   OH221251   2.357   4.098   0.883
 7096TIP3    H121252   2.438   4.087   0.932
 7096TIP3    H221253   2.302   4.154   0.938
 7097TIP3   OH221254   0.877   2.223   0.076
 7097TIP3    H121255   0.790   2.236   0.039
 7097TIP3    H221256   0.915   2.152   0.024
 7098TIP3   OH221257   1.835   3.783   1.021
 7098TIP3    H121258   1.915   3.757   0.974
 7098TIP3    H221259   1.866   3.821   1.103
 7099TIP3   OH221260   1.882   2.604   3.319
 7099TIP3    H121261   1.943   2.609   3.392
 7099TIP3    H221262   1.906   2.523   3.273
 7100TIP3   OH221263   1.784   3.204   2.928
 7100TIP3    H121264   1.758   3.113   2.922
 7100TIP3    H221265   1.821   3.213   3.016
 7101TIP3   OH221266   2.592   0.481   0.718
 7101TIP3    H121267   2.663   0.545   0.727
 7101TIP3    H221268   2.532   0.502   0.789
 7102TIP3   OH221269   2.604   1.798   0.965
 7102TIP3    H121270   2.595   1.766   1.055
 7102TIP3    H221271   2.633   1.722   0.915
 7103TIP3   OH221272   0.241   5.254   2.857
 7103TIP3    H121273   0.148   5.275   2.847
 7103TIP3    H221274   0.243   5.160   2.874
 7104TIP3   OH221275   0.904   6.061   2.907
 7104TIP3    H121276   0.814   6.053   2.939
 7104TIP3    H221277   0.934   5.970   2.897
 7105TIP3   OH221278   4.882   4.164   2.302
 7105TIP3    H121279   4.822   4.229   2.337
 7105TIP3    H221280   4.944   4.214   2.249
 7106TIP3   OH221281   3.586   4.617   5.926
 7106TIP3    H121282   3.598   4.679   5.998
 7106TIP3    H221283   3.651   4.643   5.861
 7107TIP3   OH221284   0.925   1.814   0.768
 7107TIP3    H121285   0.842   1.832   0.812
 7107TIP3    H221286   0.900   1.782   0.681
 7108TIP3   OH221287   1.526   1.070   2.273
 7108TIP3    H121288   1.471   1.020   2.213
 7108TIP3    H221289   1.615   1.044   2.251
 7109TIP3   OH221290   4.109   3.634   1.130
 7109TIP3    H121291   4.157   3.551   1.134
 7109TIP3    H221292   4.046   3.629   1.202
 7110TIP3   OH221293   5.078   3.658   0.062
 7110TIP3    H121294   5.106   3.585   0.118
 7110TIP3    H221295   5.128   3.646  -0.018
 7111TIP3   OH221296   5.702   3.888   4.150
 7111TIP3    H121297   5.773   3.861   4.091
 7111TIP3    H221298   5.622   3.873   4.099
 7112TIP3   OH221299   0.332   5.866   2.912
 7112TIP3    H121300   0.314   5.888   3.004
 7112TIP3    H221301   0.366   5.777   2.915
 7113TIP3   OH221302   6.964   6.191   4.197
 7113TIP3    H121303   6.919   6.106   4.200
 7113TIP3    H221304   7.053   6.170   4.168
 7114TIP3   OH221305   2.411   6.182   0.689
 7114TIP3    H121306   2.345   6.245   0.661
 7114TIP3    H221307   2.404   6.110   0.627
 7115TIP3   OH221308   5.769   6.308   2.900
 7115TIP3    H121309   5.689   6.264   2.926
 7115TIP3    H221310   5.831   6.289   2.971
 7116TIP3   OH221311   7.075   3.369   2.844
 7116TIP3    H121312   7.158   3.326   2.823
 7116TIP3    H221313   7.022   3.300   2.883
 7117TIP3   OH221314   2.076   3.957   2.357
 7117TIP3    H121315   2.134   3.915   2.295
 7117TIP3    H221316   2.098   3.918   2.442
 7118TIP3   OH221317   3.004   1.744   3.574
 7118TIP3    H121318   3.020   1.678   3.641
 7118TIP3    H221319   2.915   1.776   3.592
 7119TIP3   OH221320   4.077   3.991   3.871
 7119TIP3    H121321   4.012   3.993   3.941
 7119TIP3    H221322   4.030   4.025   3.794
 7120TIP3   OH221323   2.659   1.617   0.772
 7120TIP3    H121324   2.584   1.651   0.724
 7120TIP3    H221325   2.641   1.523   0.783
 7121TIP3   OH221326   4.383   4.038   4.593
 7121TIP3    H121327   4.379   3.987   4.512
 7121TIP3    H221328   4.405   3.974   4.661
 7122TIP3   OH221329   1.283   4.279   3.233
 7122TIP3    H121330   1.279   4.205   3.174
 7122TIP3    H221331   1.282   4.240   3.321
 7123TIP3   OH221332   5.219   4.668   1.901
 7123TIP3    H121333   5.170   4.705   1.828
 7123TIP3    H221334   5.217   4.574   1.887
 7124TIP3   OH221335   1.322   4.244   4.681
 7124TIP3    H121336   1.405   4.236   4.633
 7124TIP3    H221337   1.335   4.321   4.737
 7125TIP3   OH221338   5.815   3.088   5.194
 7125TIP3    H121339   5.733   3.137   5.194
 7125TIP3    H221340   5.883   3.154   5.180
 7126TIP3   OH221341   5.264   1.062   0.387
 7126TIP3    H121342   5.236   1.006   0.314
 7126TIP3    H221343   5.227   1.148   0.366
 7127TIP3   OH221344   3.996   1.694   2.199
 7127TIP3    H121345   3.985   1.646   2.117
 7127TIP3    H221346   4.032   1.779   2.171
 7128TIP3   OH221347   7.147   1.720   1.476
 7128TIP3    H121348   7.104   1.805   1.476
 7128TIP3    H221349   7.234   1.737   1.441
 7129TIP3   OH221350   2.634   2.843   1.892
 7129TIP3    H121351   2.686   2.889   1.958
 7129TIP3    H221352   2.556   2.896   1.881
 7130TIP3   OH221353   6.959   0.414   5.136
 7130TIP3    H121354   6.936   0.451   5.051
 7130TIP3    H221355   6.946   0.320   5.126
 7131TIP3   OH221356   5.678   1.787   1.906
 7131TIP3    H121357   5.590   1.823   1.897
 7131TIP3    H221358   5.684   1.720   1.838
 7132TIP3   OH221359   2.204   5.053   2.526
 7132TIP3    H121360   2.278   5.087   2.576
 7132TIP3    H221361   2.170   4.982   2.580
 7133TIP3   OH221362   3.168   2.357   4.615
 7133TIP3    H121363   3.085   2.377   4.573
 7133TIP3    H221364   3.178   2.262   4.604
 7134TIP3   OH221365   1.799   1.560   5.518
 7134TIP3    H121366   1.790   1.471   5.482
 7134TIP3    H221367   1.835   1.547   5.606
 7135TIP3   OH221368   1.404   1.779   4.752
 7135TIP3    H121369   1.379   1.871   4.743
 7135TIP3    H221370   1.349   1.746   4.823
 7136TIP3   OH221371   5.137   2.446   1.216
 7136TIP3    H121372   5.121   2.459   1.309
 7136TIP3    H221373   5.060   2.399   1.184
 7137TIP3   OH221374   3.374   6.754   2.746
 7137TIP3    H121375   3.451   6.703   2.721
 7137TIP3    H221376   3.330   6.702   2.813
 7138TIP3   OH221377   6.404   4.415   0.106
 7138TIP3    H121378   6.428   4.448   0.193
 7138TIP3    H221379   6.485   4.377   0.071
 7139TIP3   OH221380   5.142   1.563   0.713
 7139TIP3    H121381   5.194   1.609   0.779
 7139TIP3    H221382   5.205   1.541   0.645
 7140TIP3   OH221383   0.091   4.337   5.656
 7140TIP3    H121384   0.002   4.321   5.687
 7140TIP3    H221385   0.102   4.432   5.663
 7141TIP3   OH221386   3.662   4.917   2.871
 7141TIP3    H121387   3.645   5.007   2.899
 7141TIP3    H221388   3.700   4.875   2.948
 7142TIP3   OH221389   2.873   4.553   0.212
 7142TIP3    H121390   2.862   4.644   0.185
 7142TIP3    H221391   2.958   4.552   0.257
 7143TIP3   OH221392   4.018   5.878   1.342
 7143TIP3    H121393   4.002   5.851   1.252
 7143TIP3    H221394   4.030   5.973   1.336
 7144TIP3   OH221395   1.702   4.638   2.313
 7144TIP3    H121396   1.703   4.623   2.218
 7144TIP3    H221397   1.758   4.569   2.348
 7145TIP3   OH221398   1.018   4.782   2.104
 7145TIP3    H121399   0.966   4.705   2.127
 7145TIP3    H221400   0.991   4.849   2.167
 7146TIP3   OH221401   5.781   5.892   1.240
 7146TIP3    H121402   5.703   5.946   1.228
 7146TIP3    H221403   5.772   5.822   1.175
 7147TIP3   OH221404   5.056   2.785   1.431
 7147TIP3    H121405   5.080   2.777   1.523
 7147TIP3    H221406   4.967   2.751   1.426
 7148TIP3   OH221407   7.040   0.214   3.087
 7148TIP3    H121408   7.132   0.230   3.064
 7148TIP3    H221409   7.037   0.120   3.109
 7149TIP3   OH221410   7.044   4.609   5.574
 7149TIP3    H121411   6.990   4.622   5.652
 7149TIP3    H221412   7.134   4.613   5.607
 7150TIP3   OH221413   3.244   6.477   3.405
 7150TIP3    H121414   3.177   6.409   3.419
 7150TIP3    H221415   3.281   6.493   3.492
 7151TIP3   OH221416   4.695   6.157   1.401
 7151TIP3    H121417   4.655   6.243   1.412
 7151TIP3    H221418   4.768   6.156   1.462
 7152TIP3   OH221419   1.758   2.138   4.921
 7152TIP3    H121420   1.805   2.209   4.965
 7152TIP3    H221421   1.808   2.059   4.942
 7153TIP3   OH221422   3.786   3.982   3.279
 7153TIP3    H121423   3.816   3.892   3.296
 7153TIP3    H221424   3.771   4.018   3.366
 7154TIP3   OH221425   6.575   2.458   4.238
 7154TIP3    H121426   6.563   2.545   4.277
 7154TIP3    H221427   6.549   2.469   4.147
 7155TIP3   OH221428   4.125   3.721   5.489
 7155TIP3    H121429   4.043   3.679   5.516
 7155TIP3    H221430   4.118   3.729   5.394
 7156TIP3   OH221431   3.095   1.326   4.588
 7156TIP3    H121432   3.111   1.355   4.678
 7156TIP3    H221433   3.092   1.231   4.594
 7157TIP3   OH221434   4.765   6.004   2.401
 7157TIP3    H121435   4.831   5.953   2.448
 7157TIP3    H221436   4.800   6.014   2.312
 7158TIP3   OH221437   0.012   2.371   4.703
 7158TIP3    H121438  -0.003   2.388   4.796
 7158TIP3    H221439   0.007   2.276   4.694
 7159TIP3   OH221440   6.516   6.051   0.253
 7159TIP3    H121441   6.477   6.118   0.197
 7159TIP3    H221442   6.464   5.972   0.236
 7160TIP3   OH221443   3.426   0.133   3.023
 7160TIP3    H121444   3.394   0.178   2.946
 7160TIP3    H221445   3.348   0.093   3.062
 7161TIP3   OH221446   3.980   6.333   3.997
 7161TIP3    H121447   3.890   6.313   4.022
 7161TIP3    H221448   4.025   6.344   4.081
 7162TIP3   OH221449   5.562   6.816   3.925
 7162TIP3    H121450   5.499   6.807   3.997
 7162TIP3    H221451   5.526   6.885   3.870
 7163TIP3   OH221452   2.871   1.312   2.189
 7163TIP3    H121453   2.799   1.278   2.136
 7163TIP3    H221454   2.946   1.256   2.168
 7164TIP3   OH221455   6.088   3.058   1.503
 7164TIP3    H121456   6.153   3.076   1.436
 7164TIP3    H221457   6.103   2.966   1.526
 7165TIP3   OH221458   0.895   2.746   2.586
 7165TIP3    H121459   0.930   2.775   2.502
 7165TIP3    H221460   0.952   2.674   2.612
 7166TIP3   OH221461   1.124   3.010   5.294
 7166TIP3    H121462   1.085   2.938   5.345
 7166TIP3    H221463   1.134   2.974   5.206
 7167TIP3   OH221464   2.626   6.670   5.535
 7167TIP3    H121465   2.550   6.612   5.537
 7167TIP3    H221466   2.656   6.668   5.444
 7168TIP3   OH221467   1.969   0.685   1.326
 7168TIP3    H121468   1.925   0.764   1.360
 7168TIP3    H221469   1.958   0.620   1.395
 7169TIP3   OH221470   1.180   1.391   0.221
 7169TIP3    H121471   1.207   1.410   0.311
 7169TIP3    H221472   1.165   1.477   0.183
 7170TIP3   OH221473   1.868   5.719   5.352
 7170TIP3    H121474   1.860   5.649   5.288
 7170TIP3    H221475   1.906   5.792   5.303
 7171TIP3   OH221476   0.010   5.538   5.055
 7171TIP3    H121477  -0.028   5.505   5.137
 7171TIP3    H221478   0.103   5.551   5.075
 7172TIP3   OH221479   6.043   2.445   3.849
 7172TIP3    H121480   6.106   2.375   3.866
 7172TIP3    H221481   6.088   2.503   3.787
 7173TIP3   OH221482   4.054   6.788   4.603
 7173TIP3    H121483   4.073   6.845   4.677
 7173TIP3    H221484   3.964   6.810   4.578
 7174TIP3   OH221485   4.057   6.621   5.320
 7174TIP3    H121486   4.151   6.608   5.305
 7174TIP3    H221487   4.015   6.574   5.248
 7175TIP3   OH221488   3.257   5.630   4.776
 7175TIP3    H121489   3.270   5.678   4.858
 7175TIP3    H221490   3.325   5.564   4.775
 7176TIP3   OH221491   0.716   6.440   2.458
 7176TIP3    H121492   0.643   6.408   2.512
 7176TIP3    H221493   0.789   6.383   2.481
 7177TIP3   OH221494   6.581   3.841   3.827
 7177TIP3    H121495   6.585   3.773   3.895
 7177TIP3    H221496   6.631   3.914   3.864
 7178TIP3   OH221497   5.008   0.240   2.349
 7178TIP3    H121498   5.009   0.206   2.259
 7178TIP3    H221499   5.058   0.321   2.345
 7179TIP3   OH221500   3.605   6.467   5.344
 7179TIP3    H121501   3.696   6.457   5.316
 7179TIP3    H221502   3.571   6.538   5.289
 7180TIP3   OH221503   3.225   3.940   5.643
 7180TIP3    H121504   3.131   3.924   5.639
 7180TIP3    H221505   3.233   4.027   5.682
 7181TIP3   OH221506   6.086   6.622   3.043
 7181TIP3    H121507   6.032   6.693   3.076
 7181TIP3    H221508   6.047   6.599   2.958
 7182TIP3   OH221509   2.479   4.776   4.539
 7182TIP3    H121510   2.464   4.833   4.464
 7182TIP3    H221511   2.570   4.792   4.564
 7183TIP3   OH221512   4.276   5.624   0.074
 7183TIP3    H121513   4.357   5.652   0.117
 7183TIP3    H221514   4.255   5.695   0.013
 7184TIP3   OH221515   0.821   5.714   5.832
 7184TIP3    H121516   0.895   5.769   5.805
 7184TIP3    H221517   0.788   5.677   5.750
 7185TIP3   OH221518   4.406   2.289   3.323
 7185TIP3    H121519   4.409   2.341   3.403
 7185TIP3    H221520   4.451   2.342   3.258
 7186TIP3   OH221521   2.331   3.671   1.271
 7186TIP3    H121522   2.365   3.652   1.359
 7186TIP3    H221523   2.261   3.734   1.285
 7187TIP3   OH221524   4.467   1.219   2.424
 7187TIP3    H121525   4.460   1.266   2.341
 7187TIP3    H221526   4.471   1.288   2.490
 7188TIP3   OH221527   3.032   0.812   5.626
 7188TIP3    H121528   3.011   0.841   5.714
 7188TIP3    H221529   2.948   0.811   5.580
 7189TIP3   OH221530   3.348   6.180   3.681
 7189TIP3    H121531   3.275   6.182   3.742
 7189TIP3    H221532   3.397   6.259   3.700
 7190TIP3   OH221533   1.203   1.498   4.056
 7190TIP3    H121534   1.187   1.586   4.089
 7190TIP3    H221535   1.195   1.506   3.961
 7191TIP3   OH221536   4.066   3.335   4.784
 7191TIP3    H121537   4.059   3.364   4.694
 7191TIP3    H221538   4.075   3.416   4.835
 7192TIP3   OH221539   3.679   4.599   3.763
 7192TIP3    H121540   3.702   4.649   3.841
 7192TIP3    H221541   3.693   4.508   3.788
 7193TIP3   OH221542   6.061   0.544   2.252
 7193TIP3    H121543   6.001   0.480   2.290
 7193TIP3    H221544   6.099   0.589   2.327
 7194TIP3   OH221545   6.119   4.927   5.689
 7194TIP3    H121546   6.124   4.850   5.746
 7194TIP3    H221547   6.028   4.955   5.694
 7195TIP3   OH221548   6.544   1.546   2.776
 7195TIP3    H121549   6.561   1.570   2.867
 7195TIP3    H221550   6.528   1.629   2.731
 7196TIP3   OH221551   5.774   4.843   2.765
 7196TIP3    H121552   5.790   4.767   2.821
 7196TIP3    H221553   5.801   4.815   2.678
 7197TIP3   OH221554  -0.005   6.046   4.222
 7197TIP3    H121555   0.024   6.100   4.295
 7197TIP3    H221556   0.066   5.983   4.208
 7198TIP3   OH221557   2.908   4.867   0.151
 7198TIP3    H121558   2.893   4.961   0.157
 7198TIP3    H221559   2.984   4.858   0.094
 7199TIP3   OH221560   6.552   1.496   3.828
 7199TIP3    H121561   6.635   1.500   3.876
 7199TIP3    H221562   6.489   1.538   3.886
 7200TIP3   OH221563   3.630   6.842   4.171
 7200TIP3    H121564   3.560   6.852   4.106
 7200TIP3    H221565   3.587   6.797   4.244
 7201TIP3   OH221566   5.973   4.715   4.530
 7201TIP3    H121567   5.971   4.701   4.435
 7201TIP3    H221568   6.044   4.778   4.544
 7202TIP3   OH221569   6.786   6.638   1.276
 7202TIP3    H121570   6.705   6.668   1.233
 7202TIP3    H221571   6.759   6.616   1.365
 7203TIP3   OH221572   2.432   6.236   3.580
 7203TIP3    H121573   2.378   6.295   3.526
 7203TIP3    H221574   2.384   6.229   3.662
 7204TIP3   OH221575   6.511   0.420   5.689
 7204TIP3    H121576   6.541   0.391   5.775
 7204TIP3    H221577   6.472   0.505   5.704
 7205TIP3   OH221578   7.222   5.926   0.869
 7205TIP3    H121579   7.270   6.008   0.860
 7205TIP3    H221580   7.277   5.872   0.926
 7206TIP3   OH221581   4.716   6.731   3.452
 7206TIP3    H121582   4.621   6.720   3.446
 7206TIP3    H221583   4.729   6.779   3.534
 7207TIP3   OH221584   5.563   2.557   2.040
 7207TIP3    H121585   5.612   2.497   1.984
 7207TIP3    H221586   5.596   2.644   2.016
 7208TIP3   OH221587   5.516   1.223   4.039
 7208TIP3    H121588   5.581   1.229   3.968
 7208TIP3    H221589   5.485   1.133   4.035
 7209TIP3   OH221590   3.061   4.684   4.216
 7209TIP3    H121591   3.048   4.694   4.310
 7209TIP3    H221592   2.977   4.651   4.183
 7210TIP3   OH221593   6.040   3.173   3.230
 7210TIP3    H121594   5.948   3.150   3.224
 7210TIP3    H221595   6.058   3.176   3.324
 7211TIP3   OH221596   5.568   2.249   3.404
 7211TIP3    H121597   5.490   2.237   3.460
 7211TIP3    H221598   5.577   2.165   3.358
 7212TIP3   OH221599   2.784   1.237   3.930
 7212TIP3    H121600   2.837   1.200   4.000
 7212TIP3    H221601   2.694   1.228   3.962
 7213TIP3   OH221602   1.681   3.025   3.170
 7213TIP3    H121603   1.589   3.040   3.188
 7213TIP3    H221604   1.701   2.943   3.216
 7214TIP3   OH221605   3.215   0.946   1.889
 7214TIP3    H121606   3.306   0.942   1.862
 7214TIP3    H221607   3.218   0.946   1.985
 7215TIP3   OH221608   2.091   4.246   3.038
 7215TIP3    H121609   2.127   4.308   2.974
 7215TIP3    H221610   2.012   4.289   3.071
 7216TIP3   OH221611   3.268   5.241   4.945
 7216TIP3    H121612   3.355   5.258   4.907
 7216TIP3    H221613   3.245   5.324   4.987
 7217TIP3   OH221614   3.103   1.533   1.666
 7217TIP3    H121615   3.081   1.508   1.577
 7217TIP3    H221616   3.181   1.482   1.687
 7218TIP3   OH221617   2.941   4.396   3.368
 7218TIP3    H121618   2.864   4.426   3.417
 7218TIP3    H221619   2.977   4.475   3.329
 7219TIP3   OH221620   4.708   4.593   1.859
 7219TIP3    H121621   4.757   4.651   1.801
 7219TIP3    H221622   4.657   4.652   1.915
 7220TIP3   OH221623   0.451   0.997   3.706
 7220TIP3    H121624   0.461   0.971   3.614
 7220TIP3    H221625   0.541   1.006   3.738
 7221TIP3   OH221626   1.408   4.936   0.103
 7221TIP3    H121627   1.339   4.877   0.072
 7221TIP3    H221628   1.414   4.920   0.197
 7222TIP3   OH221629   5.523   3.174   2.118
 7222TIP3    H121630   5.555   3.150   2.031
 7222TIP3    H221631   5.474   3.097   2.147
 7223TIP3   OH221632   4.171   6.570   4.716
 7223TIP3    H121633   4.147   6.643   4.659
 7223TIP3    H221634   4.244   6.528   4.670
 7224TIP3   OH221635   3.744   6.157   0.825
 7224TIP3    H121636   3.673   6.095   0.841
 7224TIP3    H221637   3.823   6.104   0.826
 7225TIP3   OH221638   2.289   2.276   3.477
 7225TIP3    H121639   2.233   2.341   3.434
 7225TIP3    H221640   2.236   2.241   3.548
 7226TIP3   OH221641   2.832   0.163   1.454
 7226TIP3    H121642   2.853   0.074   1.426
 7226TIP3    H221643   2.904   0.189   1.511
 7227TIP3   OH221644   3.711   3.840   0.664
 7227TIP3    H121645   3.716   3.926   0.623
 7227TIP3    H221646   3.775   3.845   0.735
 7228TIP3   OH221647   1.154   3.864   2.973
 7228TIP3    H121648   1.064   3.860   3.005
 7228TIP3    H221649   1.148   3.905   2.886
 7229TIP3   OH221650   2.458   2.331   0.949
 7229TIP3    H121651   2.510   2.337   0.869
 7229TIP3    H221652   2.459   2.238   0.971
 7230TIP3   OH221653   4.755   2.377   3.674
 7230TIP3    H121654   4.798   2.311   3.728
 7230TIP3    H221655   4.824   2.438   3.649
 7231TIP3   OH221656   6.409   2.123   2.761
 7231TIP3    H121657   6.390   2.205   2.808
 7231TIP3    H221658   6.390   2.055   2.825
 7232TIP3   OH221659   3.444   3.421   3.147
 7232TIP3    H121660   3.424   3.397   3.238
 7232TIP3    H221661   3.362   3.457   3.114
 7233TIP3   OH221662   5.001   0.902   5.270
 7233TIP3    H121663   5.093   0.913   5.246
 7233TIP3    H221664   4.990   0.807   5.276
 7234TIP3   OH221665   1.410   5.169   4.759
 7234TIP3    H121666   1.395   5.152   4.666
 7234TIP3    H221667   1.414   5.265   4.765
 7235TIP3   OH221668   4.589   3.632   3.370
 7235TIP3    H121669   4.656   3.596   3.427
 7235TIP3    H221670   4.634   3.699   3.319
 7236TIP3   OH221671   1.970   5.150   5.367
 7236TIP3    H121672   1.879   5.177   5.381
 7236TIP3    H221673   2.019   5.232   5.366
 7237TIP3   OH221674   6.945   6.619   0.348
 7237TIP3    H121675   6.960   6.686   0.416
 7237TIP3    H221676   6.888   6.662   0.285
 7238TIP3   OH221677   2.328   6.326   1.295
 7238TIP3    H121678   2.356   6.413   1.323
 7238TIP3    H221679   2.357   6.320   1.204
 7239TIP3   OH221680   6.300   5.589   0.814
 7239TIP3    H121681   6.335   5.675   0.790
 7239TIP3    H221682   6.289   5.593   0.909
 7240TIP3   OH221683   5.189   3.853   5.228
 7240TIP3    H121684   5.175   3.933   5.278
 7240TIP3    H221685   5.271   3.868   5.182
 7241TIP3   OH221686   6.311   5.779   4.446
 7241TIP3    H121687   6.223   5.741   4.445
 7241TIP3    H221688   6.369   5.703   4.439
 7242TIP3   OH221689   0.241   5.912   0.658
 7242TIP3    H121690   0.261   5.966   0.735
 7242TIP3    H221691   0.190   5.970   0.602
 7243TIP3   OH221692   6.824   3.302   5.509
 7243TIP3    H121693   6.887   3.362   5.549
 7243TIP3    H221694   6.855   3.214   5.533
 7244TIP3   OH221695   3.880   5.291   1.729
 7244TIP3    H121696   3.840   5.217   1.683
 7244TIP3    H221697   3.943   5.327   1.667
 7245TIP3   OH221698   6.063   3.165   4.458
 7245TIP3    H121699   6.128   3.216   4.507
 7245TIP3    H221700   5.986   3.221   4.457
 7246TIP3   OH221701   1.449   0.717   0.309
 7246TIP3    H121702   1.431   0.721   0.403
 7246TIP3    H221703   1.512   0.786   0.294
 7247TIP3   OH221704   1.090   0.355   2.366
 7247TIP3    H121705   1.039   0.434   2.378
 7247TIP3    H221706   1.063   0.298   2.438
 7248TIP3   OH221707   5.780   2.731   0.023
 7248TIP3    H121708   5.712   2.680  -0.023
 7248TIP3    H221709   5.738   2.758   0.104
 7249TIP3   OH221710   6.218   4.038   5.092
 7249TIP3    H121711   6.169   3.960   5.117
 7249TIP3    H221712   6.171   4.110   5.135
 7250TIP3   OH221713   2.760   6.738   0.811
 7250TIP3    H121714   2.855   6.746   0.823
 7250TIP3    H221715   2.724   6.817   0.851
 7251TIP3   OH221716   2.204   3.903   0.623
 7251TIP3    H121717   2.121   3.862   0.599
 7251TIP3    H221718   2.181   3.992   0.648
 7252TIP3   OH221719   3.773   5.100   0.640
 7252TIP3    H121720   3.780   5.012   0.676
 7252TIP3    H221721   3.685   5.129   0.664
 7253TIP3   OH221722   1.380   2.057   4.104
 7253TIP3    H121723   1.376   2.011   4.188
 7253TIP3    H221724   1.416   1.992   4.044
 7254TIP3   OH221725   2.651   3.148   2.379
 7254TIP3    H121726   2.643   3.229   2.429
 7254TIP3    H221727   2.563   3.129   2.349
 7255TIP3   OH221728   1.555   6.371   5.842
 7255TIP3    H121729   1.634   6.422   5.823
 7255TIP3    H221730   1.576   6.321   5.921
 7256TIP3   OH221731   2.341   0.472   0.952
 7256TIP3    H121732   2.346   0.567   0.962
 7256TIP3    H221733   2.264   0.459   0.896
 7257TIP3   OH221734   4.583   4.363   1.245
 7257TIP3    H121735   4.633   4.381   1.325
 7257TIP3    H221736   4.607   4.273   1.222
 7258TIP3   OH221737   4.100   0.745   1.057
 7258TIP3    H121738   4.145   0.665   1.030
 7258TIP3    H221739   4.093   0.797   0.977
 7259TIP3   OH221740  -0.025   5.581   0.076
 7259TIP3    H121741  -0.047   5.578   0.169
 7259TIP3    H221742  -0.068   5.659   0.043
 7260TIP3   OH221743   1.098   3.106   3.903
 7260TIP3    H121744   1.027   3.125   3.964
 7260TIP3    H221745   1.097   3.010   3.895
 7261TIP3   OH221746   2.359   3.242   1.977
 7261TIP3    H121747   2.381   3.230   2.069
 7261TIP3    H221748   2.316   3.328   1.974
 7262TIP3   OH221749   0.847   4.749   3.932
 7262TIP3    H121750   0.906   4.674   3.936
 7262TIP3    H221751   0.827   4.759   3.839
 7263TIP3   OH221752   2.242   5.283   3.733
 7263TIP3    H121753   2.329   5.303   3.766
 7263TIP3    H221754   2.227   5.191   3.755
 7264TIP3   OH221755   0.953   3.435   1.513
 7264TIP3    H121756   0.916   3.402   1.431
 7264TIP3    H221757   1.020   3.371   1.536
 7265TIP3   OH221758   4.979   2.322   2.110
 7265TIP3    H121759   4.938   2.301   2.027
 7265TIP3    H221760   4.923   2.388   2.150
 7266TIP3   OH221761   4.781   3.441   5.765
 7266TIP3    H121762   4.719   3.482   5.825
 7266TIP3    H221763   4.860   3.496   5.772
 7267TIP3   OH221764   6.442   0.932   5.661
 7267TIP3    H121765   6.481   1.019   5.676
 7267TIP3    H221766   6.360   0.951   5.615
 7268TIP3   OH221767   3.135   0.279   3.854
 7268TIP3    H121768   3.130   0.185   3.837
 7268TIP3    H221769   3.226   0.294   3.883
 7269TIP3   OH221770   5.421   1.890   5.260
 7269TIP3    H121771   5.390   1.842   5.183
 7269TIP3    H221772   5.341   1.922   5.303
 7270TIP3   OH221773   2.501   3.578   1.948
 7270TIP3    H121774   2.433   3.534   1.998
 7270TIP3    H221775   2.490   3.671   1.970
 7271TIP3   OH221776   2.457   0.832   0.775
 7271TIP3    H121777   2.394   0.763   0.755
 7271TIP3    H221778   2.535   0.808   0.726
 7272TIP3   OH221779   4.118   3.568   4.904
 7272TIP3    H121780   4.042   3.625   4.917
 7272TIP3    H221781   4.193   3.623   4.923
 7273TIP3   OH221782   3.793   3.256   2.840
 7273TIP3    H121783   3.739   3.327   2.875
 7273TIP3    H221784   3.730   3.188   2.818
 7274TIP3   OH221785   6.137   2.513   1.674
 7274TIP3    H121786   6.120   2.427   1.714
 7274TIP3    H221787   6.074   2.571   1.716
 7275TIP3   OH221788   1.798   5.992   1.815
 7275TIP3    H121789   1.741   6.008   1.740
 7275TIP3    H221790   1.802   5.897   1.823
 7276TIP3   OH221791   1.672   5.644   4.898
 7276TIP3    H121792   1.709   5.653   4.810
 7276TIP3    H221793   1.687   5.728   4.940
 7277TIP3   OH221794   0.299   6.566   3.411
 7277TIP3    H121795   0.360   6.507   3.455
 7277TIP3    H221796   0.273   6.629   3.478
 7278TIP3   OH221797   5.490   1.254   0.110
 7278TIP3    H121798   5.497   1.349   0.119
 7278TIP3    H221799   5.579   1.226   0.085
 7279TIP3   OH221800   4.742   0.391   2.963
 7279TIP3    H121801   4.733   0.404   3.057
 7279TIP3    H221802   4.729   0.478   2.925
 7280TIP3   OH221803   0.056   2.129   1.831
 7280TIP3    H121804   0.049   2.188   1.906
 7280TIP3    H221805  -0.019   2.071   1.839
 7281TIP3   OH221806   0.180   0.540   1.698
 7281TIP3    H121807   0.245   0.538   1.627
 7281TIP3    H221808   0.231   0.524   1.777
 7282TIP3   OH221809   4.119   3.564   4.453
 7282TIP3    H121810   4.184   3.631   4.434
 7282TIP3    H221811   4.110   3.515   4.371
 7283TIP3   OH221812   4.036   4.923   0.655
 7283TIP3    H121813   4.105   4.857   0.653
 7283TIP3    H221814   4.082   5.006   0.639
 7284TIP3   OH221815   3.764   3.425   4.392
 7284TIP3    H121816   3.734   3.362   4.457
 7284TIP3    H221817   3.697   3.421   4.323
 7285TIP3   OH221818   1.897   4.880   5.302
 7285TIP3    H121819   1.967   4.828   5.262
 7285TIP3    H221820   1.932   4.969   5.306
 7286TIP3   OH221821   2.989   3.605   4.473
 7286TIP3    H121822   2.896   3.618   4.490
 7286TIP3    H221823   3.011   3.523   4.519
 7287TIP3   OH221824   2.505   2.674  -0.019
 7287TIP3    H121825   2.451   2.752  -0.031
 7287TIP3    H221826   2.561   2.695   0.056
 7288TIP3   OH221827   3.509   5.702   2.086
 7288TIP3    H121828   3.477   5.640   2.021
 7288TIP3    H221829   3.576   5.655   2.134
 7289TIP3   OH221830   5.086   3.197   3.856
 7289TIP3    H121831   5.096   3.264   3.923
 7289TIP3    H221832   5.038   3.127   3.899
 7290TIP3   OH221833   0.068   4.351   0.903
 7290TIP3    H121834   0.094   4.330   0.993
 7290TIP3    H221835   0.069   4.266   0.858
 7291TIP3   OH221836   1.166   3.708   1.774
 7291TIP3    H121837   1.077   3.740   1.758
 7291TIP3    H221838   1.208   3.709   1.687
 7292TIP3   OH221839   3.119   6.411   2.647
 7292TIP3    H121840   3.184   6.371   2.588
 7292TIP3    H221841   3.120   6.504   2.624
 7293TIP3   OH221842   2.957   2.448   2.139
 7293TIP3    H121843   3.040   2.490   2.160
 7293TIP3    H221844   2.981   2.371   2.088
 7294TIP3   OH221845   1.460   4.928   3.733
 7294TIP3    H121846   1.425   4.886   3.655
 7294TIP3    H221847   1.540   4.972   3.702
 7295TIP3   OH221848   3.918   5.248   2.022
 7295TIP3    H121849   3.910   5.343   2.022
 7295TIP3    H221850   3.953   5.226   1.936
 7296TIP3   OH221851   1.743   3.288   1.489
 7296TIP3    H121852   1.804   3.308   1.418
 7296TIP3    H221853   1.743   3.367   1.543
 7297TIP3   OH221854   6.328   1.494   2.500
 7297TIP3    H121855   6.361   1.583   2.506
 7297TIP3    H221856   6.233   1.504   2.488
 7298TIP3   OH221857   3.439   2.467   3.257
 7298TIP3    H121858   3.402   2.546   3.217
 7298TIP3    H221859   3.386   2.396   3.221
 7299TIP3   OH221860   0.178   4.984   4.729
 7299TIP3    H121861   0.235   5.056   4.755
 7299TIP3    H221862   0.111   5.026   4.674
 7300TIP3   OH221863   0.152   1.835   4.320
 7300TIP3    H121864   0.205   1.756   4.331
 7300TIP3    H221865   0.165   1.861   4.229
 7301TIP3   OH221866   1.890   2.650   0.825
 7301TIP3    H121867   1.824   2.635   0.757
 7301TIP3    H221868   1.967   2.601   0.795
 7302TIP3   OH221869   0.268   3.215   4.341
 7302TIP3    H121870   0.287   3.170   4.259
 7302TIP3    H221871   0.325   3.173   4.405
 7303TIP3   OH221872   3.325   0.123   0.177
 7303TIP3    H121873   3.394   0.189   0.174
 7303TIP3    H221874   3.345   0.070   0.255
 7304TIP3   OH221875   7.139   2.752   0.078
 7304TIP3    H121876   7.104   2.839   0.058
 7304TIP3    H221877   7.231   2.767   0.100
 7305TIP3   OH221878   0.135   5.476   3.379
 7305TIP3    H121879   0.140   5.456   3.285
 7305TIP3    H221880   0.214   5.436   3.415
 7306TIP3   OH221881   2.983   0.727   0.428
 7306TIP3    H121882   2.934   0.745   0.508
 7306TIP3    H221883   3.052   0.793   0.426
 7307TIP3   OH221884   0.883   6.586   4.077
 7307TIP3    H121885   0.958   6.577   4.135
 7307TIP3    H221886   0.884   6.678   4.051
 7308TIP3   OH221887   1.771   0.957   4.020
 7308TIP3    H121888   1.814   1.024   4.072
 7308TIP3    H221889   1.722   0.905   4.083
 7309TIP3   OH221890   3.678   4.476   5.390
 7309TIP3    H121891   3.621   4.399   5.389
 7309TIP3    H221892   3.667   4.515   5.303
 7310TIP3   OH221893   4.535   6.644   2.283
 7310TIP3    H121894   4.561   6.607   2.199
 7310TIP3    H221895   4.484   6.721   2.261
 7311TIP3   OH221896   1.353   1.671   0.589
 7311TIP3    H121897   1.313   1.644   0.506
 7311TIP3    H221898   1.365   1.590   0.638
 7312TIP3   OH221899   2.452   3.685   2.453
 7312TIP3    H121900   2.400   3.620   2.406
 7312TIP3    H221901   2.395   3.762   2.457
 7313TIP3   OH221902   0.335   5.687   3.966
 7313TIP3    H121903   0.357   5.595   3.954
 7313TIP3    H221904   0.419   5.731   3.975
 7314TIP3   OH221905   2.105   1.841   0.557
 7314TIP3    H121906   2.146   1.847   0.471
 7314TIP3    H221907   2.148   1.910   0.609
 7315TIP3   OH221908   1.676   2.352   3.884
 7315TIP3    H121909   1.609   2.419   3.872
 7315TIP3    H221910   1.749   2.398   3.925
 7316TIP3   OH221911   3.678   1.092   4.910
 7316TIP3    H121912   3.625   1.045   4.974
 7316TIP3    H221913   3.768   1.085   4.943
 7317TIP3   OH221914   6.345   3.584   0.291
 7317TIP3    H121915   6.439   3.599   0.279
 7317TIP3    H221916   6.306   3.671   0.293
 7318TIP3   OH221917   4.051   2.273   0.354
 7318TIP3    H121918   3.991   2.259   0.427
 7318TIP3    H221919   4.110   2.198   0.356
 7319TIP3   OH221920   0.983   5.436   5.733
 7319TIP3    H121921   0.918   5.479   5.679
 7319TIP3    H221922   0.994   5.493   5.809
 7320TIP3   OH221923   6.096   4.202   2.976
 7320TIP3    H121924   6.190   4.219   2.972
 7320TIP3    H221925   6.087   4.126   3.033
 7321TIP3   OH221926   3.970   4.609   3.322
 7321TIP3    H121927   3.882   4.580   3.347
 7321TIP3    H221928   3.998   4.546   3.256
 7322TIP3   OH221929   1.150   4.477   5.861
 7322TIP3    H121930   1.172   4.516   5.776
 7322TIP3    H221931   1.155   4.383   5.847
 7323TIP3   OH221932   7.195   0.795   2.215
 7323TIP3    H121933   7.124   0.801   2.278
 7323TIP3    H221934   7.186   0.708   2.177
 7324TIP3   OH221935   5.656   5.697   3.162
 7324TIP3    H121936   5.615   5.757   3.224
 7324TIP3    H221937   5.628   5.610   3.191
 7325TIP3   OH221938   4.668   6.114   4.505
 7325TIP3    H121939   4.654   6.141   4.596
 7325TIP3    H221940   4.761   6.127   4.490
 7326TIP3   OH221941   3.831   4.915   5.598
 7326TIP3    H121942   3.803   4.971   5.525
 7326TIP3    H221943   3.779   4.835   5.588
 7327TIP3   OH221944   0.890   4.158   5.320
 7327TIP3    H121945   0.894   4.080   5.376
 7327TIP3    H221946   0.970   4.206   5.340
 7328TIP3   OH221947   3.713   2.275   0.394
 7328TIP3    H121948   3.778   2.241   0.456
 7328TIP3    H221949   3.743   2.364   0.375
 7329TIP3   OH221950   2.060   2.563   1.566
 7329TIP3    H121951   2.059   2.658   1.577
 7329TIP3    H221952   1.975   2.542   1.528
 7330TIP3   OH221953   1.177   0.573   3.258
 7330TIP3    H121954   1.119   0.506   3.295
 7330TIP3    H221955   1.118   0.636   3.217
 7331TIP3   OH221956   1.410   5.686   2.102
 7331TIP3    H121957   1.466   5.608   2.107
 7331TIP3    H221958   1.375   5.686   2.013
 7332TIP3   OH221959   1.717   0.083   0.192
 7332TIP3    H121960   1.645   0.065   0.253
 7332TIP3    H221961   1.678   0.140   0.126
 7333TIP3   OH221962   1.672   2.224   1.071
 7333TIP3    H121963   1.727   2.148   1.094
 7333TIP3    H221964   1.583   2.190   1.075
 7334TIP3   OH221965   4.841   1.981   0.577
 7334TIP3    H121966   4.868   2.067   0.610
 7334TIP3    H221967   4.911   1.922   0.604
 7335TIP3   OH221968   0.383   4.433   5.304
 7335TIP3    H121969   0.363   4.344   5.333
 7335TIP3    H221970   0.436   4.421   5.225
 7336TIP3   OH221971   2.563   6.031   2.237
 7336TIP3    H121972   2.658   6.025   2.226
 7336TIP3    H221973   2.543   5.966   2.305
 7337TIP3   OH221974   5.425   6.553   3.521
 7337TIP3    H121975   5.364   6.582   3.452
 7337TIP3    H221976   5.497   6.513   3.473
 7338TIP3   OH221977   0.150   6.579   2.730
 7338TIP3    H121978   0.216   6.510   2.735
 7338TIP3    H221979   0.199   6.661   2.740
 7339TIP3   OH221980   5.572   3.841   5.685
 7339TIP3    H121981   5.558   3.895   5.607
 7339TIP3    H221982   5.550   3.898   5.758
 7340TIP3   OH221983   5.933   0.590   0.102
 7340TIP3    H121984   5.905   0.499   0.110
 7340TIP3    H221985   5.915   0.628   0.188
 7341TIP3   OH221986   5.982   3.136   2.053
 7341TIP3    H121987   5.905   3.082   2.038
 7341TIP3    H221988   5.956   3.224   2.025
 7342TIP3   OH221989   1.309   0.153   1.608
 7342TIP3    H121990   1.228   0.112   1.579
 7342TIP3    H221991   1.378   0.092   1.579
 7343TIP3   OH221992   0.907   2.605   0.463
 7343TIP3    H121993   0.936   2.541   0.397
 7343TIP3    H221994   0.814   2.587   0.474
 7344TIP3   OH221995   1.115   0.033   1.953
 7344TIP3    H121996   1.204   0.015   1.924
 7344TIP3    H221997   1.127   0.086   2.032
 7345TIP3   OH221998   1.413   5.886   3.044
 7345TIP3    H121999   1.336   5.859   2.993
 7345TIP3    H222000   1.480   5.904   2.978
 7346TIP3   OH222001   1.075   1.793   1.202
 7346TIP3    H122002   0.985   1.810   1.229
 7346TIP3    H222003   1.123   1.872   1.228
 7347TIP3   OH222004   0.739   2.909   1.282
 7347TIP3    H122005   0.710   2.897   1.372
 7347TIP3    H222006   0.816   2.966   1.289
 7348TIP3   OH222007   2.679   4.960   3.495
 7348TIP3    H122008   2.600   5.014   3.494
 7348TIP3    H222009   2.682   4.920   3.408
 7349TIP3   OH222010   2.241   1.841   3.421
 7349TIP3    H122011   2.158   1.859   3.378
 7349TIP3    H222012   2.221   1.845   3.515
 7350TIP3   OH222013   3.060   2.413   0.489
 7350TIP3    H122014   2.968   2.430   0.510
 7350TIP3    H222015   3.094   2.498   0.459
 7351TIP3   OH222016   1.448   0.424   4.768
 7351TIP3    H122017   1.508   0.495   4.788
 7351TIP3    H222018   1.449   0.369   4.846
 7352TIP3   OH222019   1.757   4.874   1.974
 7352TIP3    H122020   1.823   4.840   2.035
 7352TIP3    H222021   1.748   4.805   1.908
 7353TIP3   OH222022   4.429   4.487   5.010
 7353TIP3    H122023   4.349   4.460   4.965
 7353TIP3    H222024   4.408   4.572   5.048
 7354TIP3   OH222025   6.198   0.330   2.722
 7354TIP3    H122026   6.152   0.259   2.679
 7354TIP3    H222027   6.137   0.404   2.719
 7355TIP3   OH222028   5.666   2.279   0.218
 7355TIP3    H122029   5.660   2.288   0.123
 7355TIP3    H222030   5.738   2.336   0.242
 7356TIP3   OH222031   1.033   3.363   5.505
 7356TIP3    H122032   1.056   3.288   5.561
 7356TIP3    H222033   1.098   3.430   5.528
 7357TIP3   OH222034   5.380   2.259   4.948
 7357TIP3    H122035   5.417   2.322   4.886
 7357TIP3    H222036   5.339   2.313   5.015
 7358TIP3   OH222037   1.732   1.001   1.129
 7358TIP3    H122038   1.647   1.035   1.156
 7358TIP3    H222039   1.795   1.047   1.185
 7359TIP3   OH222040   5.723   0.440   2.740
 7359TIP3    H122041   5.660   0.427   2.669
 7359TIP3    H222042   5.790   0.373   2.725
 7360TIP3   OH222043   0.643   0.065   0.307
 7360TIP3    H122044   0.583   0.131   0.273
 7360TIP3    H222045   0.635  -0.009   0.247
 7361TIP3   OH222046   6.744   2.766   0.579
 7361TIP3    H122047   6.758   2.672   0.563
 7361TIP3    H222048   6.754   2.806   0.493
 7362TIP3   OH222049   2.129   1.115   1.001
 7362TIP3    H122050   2.216   1.082   0.979
 7362TIP3    H222051   2.121   1.102   1.095
 7363TIP3   OH222052   3.248   5.115   5.195
 7363TIP3    H122053   3.290   5.029   5.207
 7363TIP3    H222054   3.276   5.142   5.107
 7364TIP3   OH222055   4.615   2.676   1.645
 7364TIP3    H122056   4.609   2.648   1.737
 7364TIP3    H222057   4.551   2.747   1.638
 7365TIP3   OH222058   2.573   3.921   4.724
 7365TIP3    H122059   2.585   3.829   4.700
 7365TIP3    H222060   2.533   3.918   4.811
 7366TIP3   OH222061   0.604   4.669   0.261
 7366TIP3    H122062   0.622   4.605   0.330
 7366TIP3    H222063   0.559   4.618   0.193
 7367TIP3   OH222064   1.164   1.216   2.264
 7367TIP3    H122065   1.177   1.127   2.230
 7367TIP3    H222066   1.202   1.214   2.352
 7368TIP3   OH222067   2.073   1.704   5.650
 7368TIP3    H122068   2.080   1.707   5.555
 7368TIP3    H222069   1.986   1.739   5.670
 7369TIP3   OH222070   1.875   0.263   1.356
 7369TIP3    H122071   1.783   0.239   1.348
 7369TIP3    H222072   1.923   0.180   1.350
 7370TIP3   OH222073   1.098   4.190   1.681
 7370TIP3    H122074   1.176   4.144   1.715
 7370TIP3    H222075   1.034   4.183   1.751
 7371TIP3   OH222076   5.761   4.564   0.915
 7371TIP3    H122077   5.672   4.597   0.922
 7371TIP3    H222078   5.792   4.561   1.006
 7372TIP3   OH222079   0.263   6.230   4.981
 7372TIP3    H122080   0.332   6.169   5.007
 7372TIP3    H222081   0.263   6.229   4.886
 7373TIP3   OH222082   4.271   4.812   3.139
 7373TIP3    H122083   4.245   4.863   3.216
 7373TIP3    H222084   4.221   4.730   3.148
 7374TIP3   OH222085   2.601   0.142   0.183
 7374TIP3    H122086   2.560   0.060   0.209
 7374TIP3    H222087   2.652   0.168   0.259
 7375TIP3   OH222088   6.758   2.841   1.100
 7375TIP3    H122089   6.770   2.809   1.010
 7375TIP3    H222090   6.833   2.899   1.115
 7376TIP3   OH222091   4.634   5.255   4.276
 7376TIP3    H122092   4.601   5.322   4.216
 7376TIP3    H222093   4.570   5.252   4.347
 7377TIP3   OH222094   1.366   1.933   0.637
 7377TIP3    H122095   1.372   1.840   0.614
 7377TIP3    H222096   1.284   1.940   0.686
 7378TIP3   OH222097   1.940   0.834   5.711
 7378TIP3    H122098   1.917   0.806   5.800
 7378TIP3    H222099   2.026   0.875   5.720
 7379TIP3   OH222100   1.836   2.456   1.425
 7379TIP3    H122101   1.836   2.455   1.329
 7379TIP3    H222102   1.744   2.454   1.449
 7380TIP3   OH222103   3.209   0.235   5.410
 7380TIP3    H122104   3.173   0.307   5.358
 7380TIP3    H222105   3.254   0.279   5.482
 7381TIP3   OH222106   3.172   5.247   3.399
 7381TIP3    H122107   3.239   5.260   3.332
 7381TIP3    H222108   3.209   5.180   3.457
 7382TIP3   OH222109   4.417   1.431   0.325
 7382TIP3    H122110   4.344   1.374   0.302
 7382TIP3    H222111   4.377   1.518   0.331
 7383TIP3   OH222112   6.683   2.305   0.183
 7383TIP3    H122113   6.661   2.212   0.181
 7383TIP3    H222114   6.642   2.341   0.104
 7384TIP3   OH222115   0.387   5.175   1.815
 7384TIP3    H122116   0.405   5.120   1.738
 7384TIP3    H222117   0.315   5.232   1.787
 7385TIP3   OH222118   3.014   3.413   0.344
 7385TIP3    H122119   2.968   3.394   0.426
 7385TIP3    H222120   2.966   3.364   0.278
 7386TIP3   OH222121   3.771   3.188   5.047
 7386TIP3    H122122   3.788   3.155   4.958
 7386TIP3    H222123   3.803   3.279   5.045
 7387TIP3   OH222124   4.102   5.417   0.655
 7387TIP3    H122125   4.154   5.434   0.576
 7387TIP3    H222126   4.014   5.400   0.622
 7388TIP3   OH222127   5.587   0.138   2.442
 7388TIP3    H122128   5.679   0.112   2.435
 7388TIP3    H222129   5.553   0.133   2.353
 7389TIP3   OH222130   2.411   4.293   1.253
 7389TIP3    H122131   2.480   4.354   1.277
 7389TIP3    H222132   2.421   4.220   1.314
 7390TIP3   OH222133   2.174   1.140   3.178
 7390TIP3    H122134   2.100   1.199   3.191
 7390TIP3    H222135   2.237   1.165   3.246
 7391TIP3   OH222136   5.202   4.937   2.649
 7391TIP3    H122137   5.114   4.935   2.684
 7391TIP3    H222138   5.223   4.845   2.631
 7392TIP3   OH222139   3.023   4.130   5.711
 7392TIP3    H122140   2.959   4.099   5.775
 7392TIP3    H222141   2.975   4.134   5.629
 7393TIP3   OH222142   3.210   1.640   4.701
 7393TIP3    H122143   3.177   1.699   4.633
 7393TIP3    H222144   3.157   1.561   4.692
 7394TIP3   OH222145   6.513   6.799   1.497
 7394TIP3    H122146   6.488   6.762   1.412
 7394TIP3    H222147   6.464   6.747   1.561
 7395TIP3   OH222148   1.515   3.449   2.792
 7395TIP3    H122149   1.608   3.439   2.769
 7395TIP3    H222150   1.485   3.359   2.806
 7396TIP3   OH222151   3.112   5.215   4.629
 7396TIP3    H122152   3.038   5.270   4.653
 7396TIP3    H222153   3.104   5.204   4.534
 7397TIP3   OH222154   0.553   2.551   4.531
 7397TIP3    H122155   0.628   2.506   4.569
 7397TIP3    H222156   0.484   2.542   4.597
 7398TIP3   OH222157   1.680   4.534   2.023
 7398TIP3    H122158   1.593   4.500   2.001
 7398TIP3    H222159   1.707   4.583   1.945
 7399TIP3   OH222160   0.385   3.847   2.760
 7399TIP3    H122161   0.321   3.893   2.815
 7399TIP3    H222162   0.442   3.802   2.822
 7400TIP3   OH222163   0.050   2.899   1.185
 7400TIP3    H122164   0.140   2.903   1.219
 7400TIP3    H222165   0.058   2.926   1.093
 7401TIP3   OH222166   2.847   6.136   3.053
 7401TIP3    H122167   2.874   6.228   3.061
 7401TIP3    H222168   2.870   6.097   3.138
 7402TIP3   OH222169   5.858   4.151   0.030
 7402TIP3    H122170   5.783   4.093   0.022
 7402TIP3    H222171   5.821   4.238   0.041
 7403TIP3   OH222172   0.513   6.244   0.951
 7403TIP3    H122173   0.578   6.286   1.008
 7403TIP3    H222174   0.460   6.317   0.918
 7404TIP3   OH222175   5.856   5.759   3.485
 7404TIP3    H122176   5.891   5.730   3.401
 7404TIP3    H222177   5.918   5.727   3.550
 7405TIP3   OH222178   1.588   5.932   2.028
 7405TIP3    H122179   1.538   5.945   2.108
 7405TIP3    H222180   1.652   6.003   2.027
 7406TIP3   OH222181   2.863   2.543   2.760
 7406TIP3    H122182   2.935   2.480   2.749
 7406TIP3    H222183   2.875   2.578   2.848
 7407TIP3   OH222184   6.375   3.817   5.440
 7407TIP3    H122185   6.352   3.753   5.507
 7407TIP3    H222186   6.367   3.770   5.358
 7408TIP3   OH222187   5.198   2.920   5.610
 7408TIP3    H122188   5.158   2.900   5.525
 7408TIP3    H222189   5.123   2.926   5.670
 7409TIP3   OH222190   1.191   3.443   5.754
 7409TIP3    H122191   1.270   3.448   5.700
 7409TIP3    H222192   1.148   3.362   5.725
 7410TIP3   OH222193   1.177   5.280   5.181
 7410TIP3    H122194   1.228   5.237   5.113
 7410TIP3    H222195   1.113   5.214   5.209
 7411TIP3   OH222196   3.387   2.470   4.503
 7411TIP3    H122197   3.416   2.397   4.448
 7411TIP3    H222198   3.306   2.438   4.543
 7412TIP3   OH222199   3.796   1.466   2.467
 7412TIP3    H122200   3.715   1.491   2.511
 7412TIP3    H222201   3.786   1.372   2.450
 7413TIP3   OH222202   1.861   5.306   0.610
 7413TIP3    H122203   1.906   5.262   0.682
 7413TIP3    H222204   1.917   5.291   0.534
 7414TIP3   OH222205   4.038   5.241   1.240
 7414TIP3    H122206   3.983   5.188   1.183
 7414TIP3    H222207   3.980   5.312   1.270
 7415TIP3   OH222208   5.762   3.819   4.531
 7415TIP3    H122209   5.805   3.879   4.469
 7415TIP3    H222210   5.684   3.789   4.484
 7416TIP3   OH222211   0.062   5.479   1.078
 7416TIP3    H122212   0.125   5.544   1.109
 7416TIP3    H222213   0.096   5.395   1.107
 7417TIP3   OH222214   1.441   2.788   3.370
 7417TIP3    H122215   1.460   2.849   3.441
 7417TIP3    H222216   1.526   2.773   3.328
 7418TIP3   OH222217   3.777   5.371   1.284
 7418TIP3    H122218   3.775   5.462   1.314
 7418TIP3    H222219   3.693   5.358   1.241
 7419TIP3   OH222220   2.962   6.595   1.109
 7419TIP3    H122221   2.990   6.635   1.026
 7419TIP3    H222222   2.933   6.507   1.085
 7420TIP3   OH222223   4.840   2.515   1.210
 7420TIP3    H122224   4.812   2.572   1.282
 7420TIP3    H222225   4.803   2.429   1.232
 7421TIP3   OH222226   4.479   3.810   3.992
 7421TIP3    H122227   4.472   3.847   4.080
 7421TIP3    H222228   4.388   3.799   3.964
 7422TIP3   OH222229   2.463   4.118   5.629
 7422TIP3    H122230   2.478   4.208   5.658
 7422TIP3    H222231   2.390   4.088   5.683
 7423TIP3   OH222232   0.827   1.745   0.518
 7423TIP3    H122233   0.871   1.694   0.450
 7423TIP3    H222234   0.749   1.694   0.539
 7424TIP3   OH222235   1.133   0.447   5.341
 7424TIP3    H122236   1.198   0.460   5.272
 7424TIP3    H222237   1.130   0.530   5.388
 7425TIP3   OH222238   1.847   4.298   2.068
 7425TIP3    H122239   1.862   4.303   2.162
 7425TIP3    H222240   1.799   4.378   2.047
 7426TIP3   OH222241   6.823   1.186   3.555
 7426TIP3    H122242   6.821   1.132   3.476
 7426TIP3    H222243   6.746   1.243   3.547
 7427TIP3   OH222244   2.341   3.254   0.651
 7427TIP3    H122245   2.331   3.219   0.739
 7427TIP3    H222246   2.253   3.282   0.626
 7428TIP3   OH222247   1.876   0.474   0.597
 7428TIP3    H122248   1.884   0.569   0.589
 7428TIP3    H222249   1.847   0.445   0.511
 7429TIP3   OH222250   4.778   6.326   0.690
 7429TIP3    H122251   4.733   6.350   0.609
 7429TIP3    H222252   4.850   6.269   0.662
 7430TIP3   OH222253   2.678   5.975   0.593
 7430TIP3    H122254   2.669   5.991   0.499
 7430TIP3    H222255   2.682   6.062   0.632
 7431TIP3   OH222256   7.087   6.575   3.831
 7431TIP3    H122257   7.144   6.611   3.764
 7431TIP3    H222258   7.140   6.575   3.911
 7432TIP3   OH222259   1.637   0.903   1.566
 7432TIP3    H122260   1.609   0.993   1.584
 7432TIP3    H222261   1.649   0.864   1.652
 7433TIP3   OH222262   5.599   4.956   3.371
 7433TIP3    H122263   5.622   4.901   3.446
 7433TIP3    H222264   5.517   4.919   3.339
 7434TIP3   OH222265   0.118   3.209   4.009
 7434TIP3    H122266   0.161   3.159   4.079
 7434TIP3    H222267   0.025   3.190   4.020
 7435TIP3   OH222268   0.636   2.528   2.685
 7435TIP3    H122269   0.559   2.495   2.730
 7435TIP3    H222270   0.683   2.579   2.751
 7436TIP3   OH222271   6.870   3.847   4.747
 7436TIP3    H122272   6.872   3.825   4.840
 7436TIP3    H222273   6.939   3.793   4.708
 7437TIP3   OH222274  -0.022   0.435   1.933
 7437TIP3    H122275  -0.026   0.430   2.029
 7437TIP3    H222276   0.005   0.525   1.915
 7438TIP3   OH222277   2.774   3.535   2.646
 7438TIP3    H122278   2.756   3.629   2.647
 7438TIP3    H222279   2.827   3.520   2.723
 7439TIP3   OH222280   3.495   3.509   2.625
 7439TIP3    H122281   3.564   3.507   2.559
 7439TIP3    H222282   3.441   3.432   2.606
 7440TIP3   OH222283   5.937   2.755   3.858
 7440TIP3    H122284   5.941   2.737   3.952
 7440TIP3    H222285   5.905   2.674   3.819
 7441TIP3   OH222286   0.201   6.761   3.882
 7441TIP3    H122287   0.195   6.771   3.977
 7441TIP3    H222288   0.170   6.845   3.848
 7442TIP3   OH222289   3.705   1.817   0.585
 7442TIP3    H122290   3.756   1.892   0.615
 7442TIP3    H222291   3.739   1.799   0.498
 7443TIP3   OH222292   4.618   3.961   1.456
 7443TIP3    H122293   4.674   3.962   1.378
 7443TIP3    H222294   4.596   3.868   1.468
 7444TIP3   OH222295   2.087   1.952   1.182
 7444TIP3    H122296   2.091   1.949   1.087
 7444TIP3    H222297   2.025   2.022   1.201
 7445TIP3   OH222298   3.745   0.659   4.528
 7445TIP3    H122299   3.812   0.728   4.532
 7445TIP3    H222300   3.763   0.604   4.604
 7446TIP3   OH222301   4.608   1.127   3.877
 7446TIP3    H122302   4.529   1.074   3.867
 7446TIP3    H222303   4.637   1.143   3.787
 7447TIP3   OH222304   2.449   1.737   1.542
 7447TIP3    H122305   2.414   1.704   1.625
 7447TIP3    H222306   2.418   1.675   1.476
 7448TIP3   OH222307   6.210   4.634   0.388
 7448TIP3    H122308   6.159   4.715   0.378
 7448TIP3    H222309   6.169   4.573   0.327
 7449TIP3   OH222310   5.080   1.796   5.848
 7449TIP3    H122311   5.010   1.817   5.910
 7449TIP3    H222312   5.086   1.701   5.850
 7450TIP3   OH222313   1.295   0.491   2.458
 7450TIP3    H122314   1.288   0.511   2.551
 7450TIP3    H222315   1.217   0.440   2.438
 7451TIP3   OH222316   0.261   0.462   1.969
 7451TIP3    H122317   0.292   0.541   2.012
 7451TIP3    H222318   0.215   0.413   2.038
 7452TIP3   OH222319   5.859   4.767   3.765
 7452TIP3    H122320   5.856   4.747   3.858
 7452TIP3    H222321   5.898   4.689   3.725
 7453TIP3   OH222322   3.735   6.555   0.916
 7453TIP3    H122323   3.757   6.648   0.922
 7453TIP3    H222324   3.683   6.538   0.994
 7454TIP3   OH222325   3.619   0.776   0.279
 7454TIP3    H122326   3.524   0.777   0.263
 7454TIP3    H222327   3.648   0.865   0.259
 7455TIP3   OH222328   6.551   2.189   3.080
 7455TIP3    H122329   6.599   2.110   3.054
 7455TIP3    H222330   6.593   2.216   3.162
 7456TIP3   OH222331   3.741   1.956   1.415
 7456TIP3    H122332   3.783   2.027   1.463
 7456TIP3    H222333   3.748   1.880   1.472
 7457TIP3   OH222334   3.330   6.574   5.512
 7457TIP3    H122335   3.404   6.517   5.492
 7457TIP3    H222336   3.307   6.553   5.603
 7458TIP3   OH222337   5.301   1.535   2.943
 7458TIP3    H122338   5.332   1.544   2.853
 7458TIP3    H222339   5.377   1.559   2.996
 7459TIP3   OH222340   4.109   4.784   2.486
 7459TIP3    H122341   4.069   4.707   2.445
 7459TIP3    H222342   4.099   4.769   2.580
 7460TIP3   OH222343   2.506   4.972   4.101
 7460TIP3    H122344   2.441   5.028   4.144
 7460TIP3    H222345   2.587   4.990   4.148
 7461TIP3   OH222346   4.302   5.360   0.045
 7461TIP3    H122347   4.272   5.326  -0.039
 7461TIP3    H222348   4.291   5.454   0.038
 7462TIP3   OH222349   5.998   5.654   3.852
 7462TIP3    H122350   6.045   5.662   3.769
 7462TIP3    H222351   5.914   5.698   3.836
 7463TIP3   OH222352   4.454   4.689   4.000
 7463TIP3    H122353   4.378   4.744   3.982
 7463TIP3    H222354   4.527   4.752   4.007
 7464TIP3   OH222355   6.031   2.004   2.267
 7464TIP3    H122356   5.969   2.077   2.260
 7464TIP3    H222357   6.101   2.027   2.206
 7465TIP3   OH222358   1.288   3.891   3.645
 7465TIP3    H122359   1.312   3.816   3.590
 7465TIP3    H222360   1.333   3.875   3.728
 7466TIP3   OH222361   0.043   5.005   2.528
 7466TIP3    H122362   0.075   4.922   2.564
 7466TIP3    H222363   0.108   5.070   2.553
 7467TIP3   OH222364   5.101   1.812   1.065
 7467TIP3    H122365   5.117   1.906   1.069
 7467TIP3    H222366   5.013   1.803   1.028
 7468TIP3   OH222367   4.567   0.313   0.993
 7468TIP3    H122368   4.495   0.323   0.931
 7468TIP3    H222369   4.627   0.251   0.951
 7469TIP3   OH222370   0.561   5.473   2.402
 7469TIP3    H122371   0.618   5.468   2.325
 7469TIP3    H222372   0.535   5.382   2.418
 7470TIP3   OH222373   4.858   4.336   3.036
 7470TIP3    H122374   4.861   4.266   2.971
 7470TIP3    H222375   4.767   4.365   3.037
 7471TIP3   OH222376   6.922   5.299   0.164
 7471TIP3    H122377   6.836   5.256   0.163
 7471TIP3    H222378   6.924   5.345   0.248
 7472TIP3   OH222379   6.460   0.408   1.658
 7472TIP3    H122380   6.449   0.456   1.740
 7472TIP3    H222381   6.372   0.381   1.633
 7473TIP3   OH222382   5.467   2.097   5.649
 7473TIP3    H122383   5.459   2.189   5.623
 7473TIP3    H222384   5.380   2.060   5.635
 7474TIP3   OH222385   4.387   4.298   4.363
 7474TIP3    H122386   4.404   4.238   4.435
 7474TIP3    H222387   4.426   4.255   4.286
 7475TIP3   OH222388   5.794   0.179   4.439
 7475TIP3    H122389   5.833   0.104   4.483
 7475TIP3    H222390   5.869   0.232   4.410
 7476TIP3   OH222391   1.566   0.629   1.146
 7476TIP3    H122392   1.659   0.636   1.125
 7476TIP3    H222393   1.565   0.600   1.237
 7477TIP3   OH222394   3.025   2.905   1.106
 7477TIP3    H122395   3.055   2.954   1.183
 7477TIP3    H222396   3.049   2.959   1.031
 7478TIP3   OH222397   7.111   5.204   4.891
 7478TIP3    H122398   7.072   5.126   4.852
 7478TIP3    H222399   7.166   5.171   4.962
 7479TIP3   OH222400   6.011   2.585   5.470
 7479TIP3    H122401   6.078   2.637   5.514
 7479TIP3    H222402   6.029   2.597   5.377
 7480TIP3   OH222403   6.629   0.730   5.614
 7480TIP3    H122404   6.565   0.787   5.656
 7480TIP3    H222405   6.693   0.791   5.577
 7481TIP3   OH222406   6.314   5.798   3.470
 7481TIP3    H122407   6.297   5.749   3.390
 7481TIP3    H222408   6.337   5.886   3.440
 7482TIP3   OH222409   3.051   0.047   3.212
 7482TIP3    H122410   2.996   0.044   3.290
 7482TIP3    H222411   3.062   0.140   3.194
 7483TIP3   OH222412   6.903   6.133   2.559
 7483TIP3    H122413   6.881   6.162   2.470
 7483TIP3    H222414   6.997   6.120   2.558
 7484TIP3   OH222415   3.448   0.830   3.842
 7484TIP3    H122416   3.532   0.803   3.878
 7484TIP3    H222417   3.402   0.748   3.825
 7485TIP3   OH222418   5.913   6.232   1.681
 7485TIP3    H122419   5.941   6.206   1.593
 7485TIP3    H222420   5.967   6.179   1.739
 7486TIP3   OH222421   2.813   2.504   1.182
 7486TIP3    H122422   2.750   2.496   1.254
 7486TIP3    H222423   2.796   2.427   1.128
 7487TIP3   OH222424   1.541   0.348   0.260
 7487TIP3    H122425   1.471   0.413   0.270
 7487TIP3    H222426   1.519   0.279   0.323
 7488TIP3   OH222427   6.423   4.877   1.041
 7488TIP3    H122428   6.384   4.896   1.126
 7488TIP3    H222429   6.420   4.961   0.995
 7489TIP3   OH222430   1.432   2.434   3.230
 7489TIP3    H122431   1.374   2.363   3.258
 7489TIP3    H222432   1.433   2.495   3.304
 7490TIP3   OH222433   1.133   6.762   5.029
 7490TIP3    H122434   1.132   6.857   5.018
 7490TIP3    H222435   1.220   6.735   4.998
 7491TIP3   OH222436   0.745   0.532   2.107
 7491TIP3    H122437   0.682   0.590   2.149
 7491TIP3    H222438   0.817   0.589   2.081
 7492TIP3   OH222439   1.145   6.464   5.422
 7492TIP3    H122440   1.236   6.489   5.438
 7492TIP3    H222441   1.124   6.501   5.336
 7493TIP3   OH222442   3.319   2.498   3.687
 7493TIP3    H122443   3.374   2.450   3.625
 7493TIP3    H222444   3.233   2.502   3.645
 7494TIP3   OH222445   3.240   3.216   3.207
 7494TIP3    H122446   3.179   3.187   3.275
 7494TIP3    H222447   3.309   3.150   3.207
 7495TIP3   OH222448   4.102   1.842   1.309
 7495TIP3    H122449   4.110   1.900   1.233
 7495TIP3    H222450   4.193   1.822   1.333
 7496TIP3   OH222451   3.807   5.349   3.038
 7496TIP3    H122452   3.864   5.285   2.996
 7496TIP3    H222453   3.721   5.307   3.042
 7497TIP3   OH222454   4.350   4.962   4.248
 7497TIP3    H122455   4.428   4.968   4.193
 7497TIP3    H222456   4.332   5.053   4.273
 7498TIP3   OH222457   2.174   2.580   4.960
 7498TIP3    H122458   2.137   2.659   5.000
 7498TIP3    H222459   2.099   2.528   4.934
 7499TIP3   OH222460   0.263   4.902   3.924
 7499TIP3    H122461   0.301   4.977   3.972
 7499TIP3    H222462   0.218   4.942   3.849
 7500TIP3   OH222463   4.804   4.200   4.105
 7500TIP3    H122464   4.734   4.139   4.128
 7500TIP3    H222465   4.864   4.149   4.050
 7501TIP3   OH222466   2.829   1.333   1.354
 7501TIP3    H122467   2.790   1.347   1.267
 7501TIP3    H222468   2.779   1.260   1.391
 7502TIP3   OH222469   0.750   1.925   1.878
 7502TIP3    H122470   0.739   2.020   1.872
 7502TIP3    H222471   0.774   1.909   1.969
 7503TIP3   OH222472   1.800   4.289   5.304
 7503TIP3    H122473   1.875   4.249   5.260
 7503TIP3    H222474   1.787   4.236   5.383
 7504TIP3   OH222475   5.519   0.483   4.583
 7504TIP3    H122476   5.564   0.483   4.667
 7504TIP3    H222477   5.584   0.520   4.522
 7505TIP3   OH222478   5.689   2.637   2.277
 7505TIP3    H122479   5.642   2.579   2.217
 7505TIP3    H222480   5.622   2.665   2.340
 7506TIP3   OH222481   0.873   3.396   3.486
 7506TIP3    H122482   0.963   3.393   3.452
 7506TIP3    H222483   0.869   3.475   3.539
 7507TIP3   OH222484   4.294   5.679   5.546
 7507TIP3    H122485   4.226   5.653   5.484
 7507TIP3    H222486   4.319   5.598   5.591
 7508TIP3   OH222487   6.484   1.550   1.719
 7508TIP3    H122488   6.475   1.626   1.776
 7508TIP3    H222489   6.576   1.552   1.691
 7509TIP3   OH222490   2.364   2.955   1.922
 7509TIP3    H122491   2.285   2.966   1.870
 7509TIP3    H222492   2.361   3.026   1.986
 7510TIP3   OH222493   1.738   6.062   5.037
 7510TIP3    H122494   1.679   5.999   5.079
 7510TIP3    H222495   1.696   6.082   4.953
 7511TIP3   OH222496   6.343   4.705   1.345
 7511TIP3    H122497   6.256   4.733   1.319
 7511TIP3    H222498   6.402   4.763   1.297
 7512TIP3   OH222499   0.044   1.090   5.172
 7512TIP3    H122500   0.054   1.137   5.089
 7512TIP3    H222501  -0.035   1.038   5.160
 7513TIP3   OH222502   6.072   5.262   2.158
 7513TIP3    H122503   6.110   5.284   2.243
 7513TIP3    H222504   5.978   5.276   2.170
 7514TIP3   OH222505   0.656   0.218   3.772
 7514TIP3    H122506   0.718   0.278   3.730
 7514TIP3    H222507   0.609   0.273   3.834
 7515TIP3   OH222508   5.129   4.787   0.618
 7515TIP3    H122509   5.117   4.878   0.646
 7515TIP3    H222510   5.170   4.744   0.694
 7516TIP3   OH222511   6.054   3.531   2.390
 7516TIP3    H122512   6.026   3.519   2.481
 7516TIP3    H222513   5.972   3.534   2.340
 7517TIP3   OH222514   6.502   3.910   4.804
 7517TIP3    H122515   6.416   3.907   4.763
 7517TIP3    H222516   6.521   3.820   4.828
 7518TIP3   OH222517   3.677   2.642   5.405
 7518TIP3    H122518   3.605   2.704   5.389
 7518TIP3    H222519   3.687   2.595   5.323
 7519TIP3   OH222520   1.756   0.812   5.152
 7519TIP3    H122521   1.797   0.738   5.196
 7519TIP3    H222522   1.698   0.772   5.087
 7520TIP3   OH222523   0.701   4.830   4.142
 7520TIP3    H122524   0.764   4.798   4.078
 7520TIP3    H222525   0.645   4.891   4.092
 7521TIP3   OH222526   6.248   5.658   3.246
 7521TIP3    H122527   6.153   5.651   3.241
 7521TIP3    H222528   6.280   5.576   3.210
 7522TIP3   OH222529   2.892   1.224   5.581
 7522TIP3    H122530   2.816   1.189   5.628
 7522TIP3    H222531   2.932   1.148   5.539
 7523TIP3   OH222532   2.222   3.566   2.767
 7523TIP3    H122533   2.132   3.592   2.744
 7523TIP3    H222534   2.229   3.583   2.861
 7524TIP3   OH222535   3.529   6.594   5.952
 7524TIP3    H122536   3.475   6.667   5.921
 7524TIP3    H222537   3.540   6.537   5.876
 7525TIP3   OH222538   3.848   3.615   2.951
 7525TIP3    H122539   3.929   3.630   2.901
 7525TIP3    H222540   3.802   3.547   2.900
 7526TIP3   OH222541   6.302   2.994   2.998
 7526TIP3    H122542   6.238   3.035   2.940
 7526TIP3    H222543   6.250   2.952   3.066
 7527TIP3   OH222544   2.313   1.770   0.327
 7527TIP3    H122545   2.344   1.687   0.291
 7527TIP3    H222546   2.391   1.814   0.361
 7528TIP3   OH222547   4.128   1.857   5.760
 7528TIP3    H122548   4.060   1.834   5.697
 7528TIP3    H222549   4.152   1.774   5.801
 7529TIP3   OH222550   6.586   6.245   2.041
 7529TIP3    H122551   6.600   6.155   2.011
 7529TIP3    H222552   6.507   6.240   2.095
 7530TIP3   OH222553   0.889   3.398   1.812
 7530TIP3    H122554   0.853   3.313   1.789
 7530TIP3    H222555   0.938   3.425   1.734
 7531TIP3   OH222556   6.710   5.943   4.118
 7531TIP3    H122557   6.678   6.019   4.070
 7531TIP3    H222558   6.805   5.948   4.111
 7532TIP3   OH222559   6.943   6.054   0.668
 7532TIP3    H122560   6.967   5.963   0.649
 7532TIP3    H222561   7.027   6.099   0.675
 7533TIP3   OH222562   2.664   6.568   5.793
 7533TIP3    H122563   2.696   6.480   5.774
 7533TIP3    H222564   2.680   6.617   5.712
 7534TIP3   OH222565   3.257   1.186   1.482
 7534TIP3    H122566   3.238   1.264   1.534
 7534TIP3    H222567   3.298   1.221   1.402
 7535TIP3   OH222568   4.800   6.148   1.151
 7535TIP3    H122569   4.785   6.145   1.246
 7535TIP3    H222570   4.722   6.191   1.116
 7536TIP3   OH222571   3.266   0.071   2.054
 7536TIP3    H122572   3.182   0.064   2.008
 7536TIP3    H222573   3.279   0.165   2.066
 7537TIP3   OH222574   0.505   3.621   0.058
 7537TIP3    H122575   0.460   3.704   0.045
 7537TIP3    H222576   0.567   3.638   0.129
 7538TIP3   OH222577   6.420   1.940   5.417
 7538TIP3    H122578   6.467   2.002   5.361
 7538TIP3    H222579   6.352   1.992   5.458
 7539TIP3   OH222580   3.066   4.571   5.157
 7539TIP3    H122581   3.018   4.569   5.074
 7539TIP3    H222582   3.105   4.484   5.165
 7540TIP3   OH222583   4.664   4.967   1.127
 7540TIP3    H122584   4.593   5.030   1.138
 7540TIP3    H222585   4.709   4.995   1.048
 7541TIP3   OH222586   1.307   5.530   1.085
 7541TIP3    H122587   1.335   5.532   0.994
 7541TIP3    H222588   1.382   5.564   1.134
 7542TIP3   OH222589   1.131   1.973   3.192
 7542TIP3    H122590   1.068   1.903   3.208
 7542TIP3    H222591   1.209   1.928   3.157
 7543TIP3   OH222592   6.515   5.591   3.187
 7543TIP3    H122593   6.508   5.615   3.095
 7543TIP3    H222594   6.429   5.611   3.224
 7544TIP3   OH222595   5.943   2.112   3.637
 7544TIP3    H122596   6.031   2.112   3.600
 7544TIP3    H222597   5.892   2.169   3.580
 7545TIP3   OH222598   4.861   4.301   4.723
 7545TIP3    H122599   4.867   4.273   4.632
 7545TIP3    H222600   4.777   4.267   4.753
 7546TIP3   OH222601   2.471   6.455   2.491
 7546TIP3    H122602   2.537   6.396   2.527
 7546TIP3    H222603   2.452   6.418   2.404
 7547TIP3   OH222604   0.398   6.810   2.780
 7547TIP3    H122605   0.434   6.729   2.745
 7547TIP3    H222606   0.353   6.851   2.706
 7548TIP3   OH222607   0.240   1.165   1.767
 7548TIP3    H122608   0.147   1.151   1.747
 7548TIP3    H222609   0.253   1.122   1.851
 7549TIP3   OH222610   0.727   2.208   2.158
 7549TIP3    H122611   0.738   2.113   2.156
 7549TIP3    H222612   0.760   2.234   2.245
 7550TIP3   OH222613   4.476   2.161   5.600
 7550TIP3    H122614   4.443   2.077   5.568
 7550TIP3    H222615   4.456   2.160   5.694
 7551TIP3   OH222616   5.435   0.377   1.871
 7551TIP3    H122617   5.390   0.424   1.941
 7551TIP3    H222618   5.388   0.293   1.865
 7552TIP3   OH222619   3.477   3.117   0.583
 7552TIP3    H122620   3.566   3.117   0.547
 7552TIP3    H222621   3.458   3.025   0.600
 7553TIP3   OH222622   0.214   4.630   1.387
 7553TIP3    H122623   0.193   4.637   1.481
 7553TIP3    H222624   0.216   4.536   1.370
 7554TIP3   OH222625   5.083   4.220   3.582
 7554TIP3    H122626   5.075   4.257   3.670
 7554TIP3    H222627   5.153   4.271   3.541
 7555TIP3   OH222628   6.678   2.910   2.769
 7555TIP3    H122629   6.642   2.822   2.759
 7555TIP3    H222630   6.701   2.936   2.680
 7556TIP3   OH222631   6.895   1.026   2.695
 7556TIP3    H122632   6.892   1.071   2.611
 7556TIP3    H222633   6.973   0.971   2.691
 7557TIP3   OH222634   0.478   5.328   5.244
 7557TIP3    H122635   0.440   5.241   5.230
 7557TIP3    H222636   0.405   5.389   5.229
 7558TIP3   OH222637   6.393   4.123   4.467
 7558TIP3    H122638   6.329   4.053   4.451
 7558TIP3    H222639   6.366   4.162   4.549
 7559TIP3   OH222640   2.385   3.638   0.204
 7559TIP3    H122641   2.292   3.659   0.191
 7559TIP3    H222642   2.384   3.563   0.265
 7560TIP3   OH222643   5.826   1.375   2.497
 7560TIP3    H122644   5.804   1.281   2.501
 7560TIP3    H222645   5.782   1.407   2.419
 7561TIP3   OH222646   0.861   6.734   3.129
 7561TIP3    H122647   0.773   6.769   3.141
 7561TIP3    H222648   0.857   6.645   3.165
 7562TIP3   OH222649   3.253   5.068   1.069
 7562TIP3    H122650   3.204   5.106   0.996
 7562TIP3    H222651   3.328   5.024   1.027
 7563TIP3   OH222652   2.669   3.111   4.249
 7563TIP3    H122653   2.745   3.052   4.245
 7563TIP3    H222654   2.701   3.188   4.295
 7564TIP3   OH222655   4.921   1.364   2.781
 7564TIP3    H122656   4.883   1.442   2.740
 7564TIP3    H222657   4.981   1.399   2.847
 7565TIP3   OH222658   2.049   0.045   4.277
 7565TIP3    H122659   2.007  -0.036   4.249
 7565TIP3    H222660   2.079   0.085   4.195
 7566TIP3   OH222661   1.511   0.692   0.587
 7566TIP3    H122662   1.602   0.669   0.568
 7566TIP3    H222663   1.493   0.652   0.672
 7567TIP3   OH222664   0.332   6.060   0.234
 7567TIP3    H122665   0.243   6.031   0.254
 7567TIP3    H222666   0.388   5.987   0.259
 7568TIP3   OH222667   1.800   1.260   3.963
 7568TIP3    H122668   1.741   1.235   4.034
 7568TIP3    H222669   1.882   1.284   4.006
 7569TIP3   OH222670   3.235   4.622   2.386
 7569TIP3    H122671   3.251   4.673   2.306
 7569TIP3    H222672   3.149   4.582   2.372
 7570TIP3   OH222673   2.650   2.464   4.432
 7570TIP3    H122674   2.576   2.458   4.371
 7570TIP3    H222675   2.609   2.463   4.519
 7571TIP3   OH222676   5.564   0.235   1.574
 7571TIP3    H122677   5.505   0.163   1.551
 7571TIP3    H222678   5.506   0.304   1.606
 7572TIP3   OH222679   3.545   4.249   5.321
 7572TIP3    H122680   3.535   4.270   5.228
 7572TIP3    H222681   3.554   4.154   5.324
 7573TIP3   OH222682   1.842   5.208   2.722
 7573TIP3    H122683   1.815   5.273   2.787
 7573TIP3    H222684   1.927   5.240   2.690
 7574TIP3   OH222685   1.805   4.278   1.709
 7574TIP3    H122686   1.837   4.355   1.756
 7574TIP3    H222687   1.864   4.208   1.736
 7575TIP3   OH222688   6.449   6.578   3.929
 7575TIP3    H122689   6.407   6.517   3.990
 7575TIP3    H222690   6.377   6.628   3.890
 7576TIP3   OH222691   4.325   2.931   5.378
 7576TIP3    H122692   4.244   2.981   5.379
 7576TIP3    H222693   4.390   2.990   5.341
 7577TIP3   OH222694   3.164   3.329   1.380
 7577TIP3    H122695   3.197   3.338   1.469
 7577TIP3    H222696   3.205   3.401   1.332
 7578TIP3   OH222697   4.976   5.039   2.792
 7578TIP3    H122698   5.042   5.107   2.779
 7578TIP3    H222699   4.900   5.086   2.827
 7579TIP3   OH222700   0.121   5.091   3.190
 7579TIP3    H122701   0.152   5.036   3.262
 7579TIP3    H222702   0.055   5.147   3.229
 7580TIP3   OH222703   1.196   6.406   1.393
 7580TIP3    H122704   1.233   6.487   1.429
 7580TIP3    H222705   1.179   6.352   1.469
 7581TIP3   OH222706   1.069   5.260   4.713
 7581TIP3    H122707   1.010   5.216   4.652
 7581TIP3    H222708   1.129   5.191   4.743
 7582TIP3   OH222709   1.560   4.000   1.275
 7582TIP3    H122710   1.573   3.977   1.183
 7582TIP3    H222711   1.616   3.939   1.323
 7583TIP3   OH222712   2.982   4.851   1.290
 7583TIP3    H122713   2.939   4.872   1.373
 7583TIP3    H222714   2.994   4.756   1.293
 7584TIP3   OH222715   0.337   0.666   3.650
 7584TIP3    H122716   0.242   0.678   3.654
 7584TIP3    H222717   0.361   0.696   3.562
 7585TIP3   OH222718   3.955   2.202   5.246
 7585TIP3    H122719   3.988   2.215   5.335
 7585TIP3    H222720   3.894   2.129   5.253
 7586TIP3   OH222721   0.861   4.318   4.684
 7586TIP3    H122722   0.937   4.264   4.661
 7586TIP3    H222723   0.895   4.407   4.686
 7587TIP3   OH222724   2.229   2.899   1.455
 7587TIP3    H122725   2.317   2.925   1.482
 7587TIP3    H222726   2.236   2.805   1.439
 7588TIP3   OH222727   3.506   1.015   5.107
 7588TIP3    H122728   3.435   1.026   5.171
 7588TIP3    H222729   3.547   0.932   5.132
 7589TIP3   OH222730   6.913   2.645   5.192
 7589TIP3    H122731   7.008   2.653   5.189
 7589TIP3    H222732   6.880   2.724   5.148
 7590TIP3   OH222733   0.940   0.931   3.538
 7590TIP3    H122734   0.916   0.991   3.468
 7590TIP3    H222735   1.035   0.918   3.527
 7591TIP3   OH222736   3.139   0.316   3.220
 7591TIP3    H122737   3.180   0.364   3.148
 7591TIP3    H222738   3.136   0.379   3.292
 7592TIP3   OH222739   3.963   3.166   3.592
 7592TIP3    H122740   3.942   3.177   3.685
 7592TIP3    H222741   4.056   3.187   3.585
 7593TIP3   OH222742   3.623   2.612   0.051
 7593TIP3    H122743   3.632   2.674  -0.021
 7593TIP3    H222744   3.641   2.526   0.013
 7594TIP3   OH222745   5.449   4.696   5.830
 7594TIP3    H122746   5.393   4.671   5.903
 7594TIP3    H222747   5.494   4.775   5.859
 7595TIP3   OH222748   4.683   4.655   0.925
 7595TIP3    H122749   4.759   4.711   0.910
 7595TIP3    H222750   4.648   4.638   0.838
 7596TIP3   OH222751   2.078   0.550   5.806
 7596TIP3    H122752   2.006   0.608   5.830
 7596TIP3    H222753   2.036   0.483   5.751
 7597TIP3   OH222754   4.371   3.661   0.908
 7597TIP3    H122755   4.362   3.735   0.968
 7597TIP3    H222756   4.430   3.601   0.953
 7598TIP3   OH222757   1.238   0.611   2.054
 7598TIP3    H122758   1.316   0.629   2.106
 7598TIP3    H222759   1.262   0.536   2.000
 7599TIP3   OH222760   1.588   5.883   1.291
 7599TIP3    H122761   1.622   5.928   1.369
 7599TIP3    H222762   1.662   5.833   1.258
 7600TIP3   OH222763   5.004   0.158   0.831
 7600TIP3    H122764   4.974   0.249   0.831
 7600TIP3    H222765   4.946   0.113   0.892
 7601TIP3   OH222766   1.888   0.609   3.749
 7601TIP3    H122767   1.849   0.530   3.710
 7601TIP3    H222768   1.840   0.681   3.710
 7602TIP3   OH222769   5.871   6.321   2.646
 7602TIP3    H122770   5.832   6.310   2.733
 7602TIP3    H222771   5.932   6.248   2.637
 7603TIP3   OH222772   4.179   3.776   3.038
 7603TIP3    H122773   4.213   3.753   2.951
 7603TIP3    H222774   4.249   3.752   3.098
 7604TIP3   OH222775   0.763   0.937   1.140
 7604TIP3    H122776   0.829   1.006   1.142
 7604TIP3    H222777   0.682   0.981   1.167
 7605TIP3   OH222778   3.868   2.393   5.744
 7605TIP3    H122779   3.793   2.424   5.693
 7605TIP3    H222780   3.894   2.468   5.798
 7606TIP3   OH222781   3.765   6.423   1.493
 7606TIP3    H122782   3.838   6.427   1.431
 7606TIP3    H222783   3.695   6.379   1.443
 7607TIP3   OH222784   3.947   5.166   5.092
 7607TIP3    H122785   3.969   5.229   5.161
 7607TIP3    H222786   4.026   5.158   5.039
 7608TIP3   OH222787   3.410   5.855   2.377
 7608TIP3    H122788   3.479   5.796   2.346
 7608TIP3    H222789   3.335   5.797   2.393
 7609TIP3   OH222790   1.235   0.449   1.388
 7609TIP3    H122791   1.217   0.541   1.368
 7609TIP3    H222792   1.151   0.413   1.415
 7610TIP3   OH222793   2.195   3.469   1.136
 7610TIP3    H122794   2.188   3.489   1.043
 7610TIP3    H222795   2.245   3.543   1.172
 7611TIP3   OH222796   6.461   4.176   2.181
 7611TIP3    H122797   6.489   4.093   2.142
 7611TIP3    H222798   6.450   4.235   2.106
 7612TIP3   OH222799   5.755   6.026   3.750
 7612TIP3    H122800   5.695   5.961   3.715
 7612TIP3    H222801   5.747   6.101   3.691
 7613TIP3   OH222802   2.023   1.406   0.370
 7613TIP3    H122803   1.971   1.370   0.442
 7613TIP3    H222804   2.037   1.332   0.311
 7614TIP3   OH222805   1.989   6.380   1.544
 7614TIP3    H122806   1.902   6.348   1.521
 7614TIP3    H222807   1.998   6.463   1.496
 7615TIP3   OH222808   5.253   2.622   1.878
 7615TIP3    H122809   5.182   2.656   1.932
 7615TIP3    H222810   5.325   2.608   1.939
 7616TIP3   OH222811   5.512   3.217   3.517
 7616TIP3    H122812   5.448   3.175   3.460
 7616TIP3    H222813   5.465   3.231   3.599
 7617TIP3   OH222814   5.255   2.762   2.275
 7617TIP3    H122815   5.170   2.747   2.315
 7617TIP3    H222816   5.275   2.682   2.228
 7618TIP3   OH222817   2.548   6.761   1.609
 7618TIP3    H122818   2.543   6.822   1.535
 7618TIP3    H222819   2.599   6.809   1.675
 7619TIP3   OH222820   4.944   0.083   0.299
 7619TIP3    H122821   4.935  -0.011   0.284
 7619TIP3    H222822   4.977   0.090   0.389
 7620TIP3   OH222823   5.933   2.880   0.398
 7620TIP3    H122824   6.026   2.892   0.378
 7620TIP3    H222825   5.923   2.785   0.404
 7621TIP3   OH222826   5.067   2.230   2.674
 7621TIP3    H122827   5.059   2.210   2.580
 7621TIP3    H222828   5.147   2.282   2.680
 7622TIP3   OH222829   3.756   4.474   1.097
 7622TIP3    H122830   3.755   4.536   1.024
 7622TIP3    H222831   3.836   4.495   1.145
 7623TIP3   OH222832   1.918   3.259   5.211
 7623TIP3    H122833   2.008   3.277   5.238
 7623TIP3    H222834   1.864   3.289   5.284
 7624TIP3   OH222835   2.992   2.647   0.220
 7624TIP3    H122836   3.049   2.646   0.297
 7624TIP3    H222837   3.009   2.564   0.177
 7625TIP3   OH222838   4.419   4.209   5.581
 7625TIP3    H122839   4.413   4.124   5.538
 7625TIP3    H222840   4.504   4.244   5.555
 7626TIP3   OH222841   1.377   6.658   4.893
 7626TIP3    H122842   1.334   6.578   4.865
 7626TIP3    H222843   1.424   6.689   4.816
 7627TIP3   OH222844   5.737   4.652   2.172
 7627TIP3    H122845   5.655   4.603   2.162
 7627TIP3    H222846   5.784   4.605   2.241
 7628TIP3   OH222847   2.791   0.508   1.726
 7628TIP3    H122848   2.726   0.566   1.686
 7628TIP3    H222849   2.856   0.493   1.657
 7629TIP3   OH222850   2.874   5.354   4.735
 7629TIP3    H122851   2.800   5.408   4.707
 7629TIP3    H222852   2.857   5.336   4.827
 7630TIP3   OH222853   1.155   3.615   4.908
 7630TIP3    H122854   1.064   3.632   4.934
 7630TIP3    H222855   1.200   3.698   4.926
 7631TIP3   OH222856   5.932   2.976   0.763
 7631TIP3    H122857   5.966   2.939   0.845
 7631TIP3    H222858   5.908   3.066   0.786
 7632TIP3   OH222859   1.294   0.210   1.285
 7632TIP3    H122860   1.238   0.149   1.334
 7632TIP3    H222861   1.288   0.292   1.333
 7633TIP3   OH222862   5.774   6.568   2.182
 7633TIP3    H122863   5.694   6.563   2.234
 7633TIP3    H222864   5.762   6.646   2.128
 7634TIP3   OH222865   6.800   0.160   0.648
 7634TIP3    H122866   6.767   0.070   0.660
 7634TIP3    H222867   6.843   0.181   0.731
 7635TIP3   OH222868   3.141   6.144   1.797
 7635TIP3    H122869   3.131   6.083   1.870
 7635TIP3    H222870   3.062   6.131   1.744
 7636TIP3   OH222871   4.757   2.454   2.181
 7636TIP3    H122872   4.748   2.477   2.273
 7636TIP3    H222873   4.680   2.402   2.161
 7637TIP3   OH222874   7.022   3.483   5.568
 7637TIP3    H122875   6.979   3.563   5.598
 7637TIP3    H222876   7.077   3.512   5.495
 7638TIP3   OH222877   6.797   6.215   0.511
 7638TIP3    H122878   6.850   6.182   0.584
 7638TIP3    H222879   6.854   6.207   0.435
 7639TIP3   OH222880   4.101   0.296   5.053
 7639TIP3    H122881   4.177   0.254   5.094
 7639TIP3    H222882   4.035   0.227   5.048
 7640TIP3   OH222883   4.920   0.131   4.993
 7640TIP3    H122884   4.829   0.136   5.022
 7640TIP3    H222885   4.937   0.217   4.953
 7641TIP3   OH222886   3.438   1.488   5.547
 7641TIP3    H122887   3.353   1.445   5.559
 7641TIP3    H222888   3.455   1.533   5.630
 7642TIP3   OH222889   3.048   0.867   5.059
 7642TIP3    H122890   3.120   0.905   5.008
 7642TIP3    H222891   2.990   0.829   4.993
 7643TIP3   OH222892   6.326   5.658   5.472
 7643TIP3    H122893   6.305   5.662   5.565
 7643TIP3    H222894   6.393   5.589   5.465
 7644TIP3   OH222895   1.710   2.476   1.896
 7644TIP3    H122896   1.678   2.497   1.808
 7644TIP3    H222897   1.639   2.504   1.954
 7645TIP3   OH222898   2.416   0.868   5.284
 7645TIP3    H122899   2.335   0.890   5.330
 7645TIP3    H222900   2.466   0.815   5.346
 7646TIP3   OH222901   1.171   0.924   4.204
 7646TIP3    H122902   1.221   0.963   4.133
 7646TIP3    H222903   1.205   0.965   4.283
 7647TIP3   OH222904   2.115   1.084   5.821
 7647TIP3    H122905   2.145   1.008   5.771
 7647TIP3    H222906   2.185   1.099   5.885
 7648TIP3   OH222907   1.749   0.869   3.008
 7648TIP3    H122908   1.697   0.855   3.088
 7648TIP3    H222909   1.832   0.905   3.040
 7649TIP3   OH222910   0.628   3.460   3.364
 7649TIP3    H122911   0.546   3.410   3.368
 7649TIP3    H222912   0.687   3.415   3.424
 7650TIP3   OH222913   1.008   0.514   5.706
 7650TIP3    H122914   0.953   0.581   5.664
 7650TIP3    H222915   0.979   0.514   5.798
 7651TIP3   OH222916   0.823   4.900   4.419
 7651TIP3    H122917   0.859   4.814   4.441
 7651TIP3    H222918   0.799   4.893   4.327
 7652TIP3   OH222919   4.103   0.557   1.311
 7652TIP3    H122920   4.089   0.613   1.235
 7652TIP3    H222921   4.029   0.496   1.311
 7653TIP3   OH222922   6.812   1.106   5.209
 7653TIP3    H122923   6.745   1.051   5.169
 7653TIP3    H222924   6.777   1.195   5.204
 7654TIP3   OH222925   5.610   1.032   1.802
 7654TIP3    H122926   5.683   1.087   1.829
 7654TIP3    H222927   5.627   1.013   1.709
 7655TIP3   OH222928   2.710   0.057   2.537
 7655TIP3    H122929   2.747   0.018   2.458
 7655TIP3    H222930   2.625   0.091   2.510
 7656TIP3   OH222931   4.061   0.458   2.015
 7656TIP3    H122932   4.040   0.366   2.027
 7656TIP3    H222933   4.128   0.459   1.947
 7657TIP3   OH222934   3.587   0.909   4.282
 7657TIP3    H122935   3.554   0.851   4.351
 7657TIP3    H222936   3.513   0.968   4.265
 7658TIP3   OH222937   1.814   6.629   2.264
 7658TIP3    H122938   1.876   6.591   2.326
 7658TIP3    H222939   1.833   6.722   2.265
 7659TIP3   OH222940   2.025   6.665   0.340
 7659TIP3    H122941   2.074   6.689   0.261
 7659TIP3    H222942   1.947   6.720   0.337
 7660TIP3   OH222943   1.659   2.703   0.654
 7660TIP3    H122944   1.616   2.713   0.739
 7660TIP3    H222945   1.592   2.728   0.590
 7661TIP3   OH222946   0.727   6.045   4.192
 7661TIP3    H122947   0.719   6.094   4.274
 7661TIP3    H222948   0.798   5.983   4.209
 7662TIP3   OH222949   2.934   0.497   2.689
 7662TIP3    H122950   2.992   0.541   2.628
 7662TIP3    H222951   2.910   0.415   2.645
 7663TIP3   OH222952   3.497   2.218   1.223
 7663TIP3    H122953   3.445   2.253   1.150
 7663TIP3    H222954   3.448   2.244   1.301
 7664TIP3   OH222955   2.224   4.252   5.079
 7664TIP3    H122956   2.292   4.311   5.047
 7664TIP3    H222957   2.232   4.174   5.025
 7665TIP3   OH222958   3.229   2.229   0.279
 7665TIP3    H122959   3.245   2.154   0.222
 7665TIP3    H222960   3.315   2.270   0.290
 7666TIP3   OH222961   4.698   0.688   5.374
 7666TIP3    H122962   4.709   0.593   5.372
 7666TIP3    H222963   4.684   0.712   5.282
 7667TIP3   OH222964   5.486   5.373   4.862
 7667TIP3    H122965   5.392   5.371   4.841
 7667TIP3    H222966   5.528   5.333   4.785
 7668TIP3   OH222967   1.867   3.042   5.535
 7668TIP3    H122968   1.791   2.986   5.547
 7668TIP3    H222969   1.863   3.068   5.442
 7669TIP3   OH222970   6.166   5.464   3.559
 7669TIP3    H122971   6.180   5.385   3.505
 7669TIP3    H222972   6.254   5.489   3.588
 7670TIP3   OH222973   1.368   3.809   3.887
 7670TIP3    H122974   1.426   3.824   3.962
 7670TIP3    H222975   1.298   3.754   3.922
 7671TIP3   OH222976   1.213   2.324   2.745
 7671TIP3    H122977   1.265   2.305   2.824
 7671TIP3    H222978   1.267   2.291   2.673
 7672TIP3   OH222979   2.074   3.685   1.380
 7672TIP3    H122980   2.070   3.593   1.409
 7672TIP3    H222981   2.118   3.730   1.451
 7673TIP3   OH222982   3.520   1.467   1.707
 7673TIP3    H122983   3.431   1.435   1.720
 7673TIP3    H222984   3.509   1.553   1.666
 7674TIP3   OH222985   0.524   4.689   4.314
 7674TIP3    H122986   0.499   4.615   4.258
 7674TIP3    H222987   0.571   4.749   4.256
 7675TIP3   OH222988   5.577   2.330   4.713
 7675TIP3    H122989   5.651   2.276   4.686
 7675TIP3    H222990   5.548   2.372   4.633
 7676TIP3   OH222991   5.339   5.766   0.739
 7676TIP3    H122992   5.335   5.760   0.643
 7676TIP3    H222993   5.251   5.792   0.765
 7677TIP3   OH222994   2.860   1.920   5.222
 7677TIP3    H122995   2.805   1.843   5.234
 7677TIP3    H222996   2.948   1.884   5.206
 7678TIP3   OH222997   4.966   2.363   5.346
 7678TIP3    H122998   4.883   2.360   5.393
 7678TIP3    H222999   5.028   2.396   5.411
 7679TIP3   OH223000   3.363   0.748   5.604
 7679TIP3    H123001   3.369   0.843   5.611
 7679TIP3    H223002   3.297   0.723   5.669
 7680TIP3   OH223003   6.646   1.864   3.903
 7680TIP3    H123004   6.684   1.945   3.870
 7680TIP3    H223005   6.622   1.815   3.824
 7681TIP3   OH223006   4.965   2.069   5.339
 7681TIP3    H123007   4.952   2.164   5.340
 7681TIP3    H223008   4.909   2.039   5.267
 7682TIP3   OH223009   3.517   0.319   4.529
 7682TIP3    H123010   3.430   0.280   4.519
 7682TIP3    H223011   3.501   0.405   4.567
 7683TIP3   OH223012   5.684   6.212   1.534
 7683TIP3    H123013   5.745   6.258   1.591
 7683TIP3    H223014   5.687   6.121   1.564
 7684TIP3   OH223015   2.226   4.891   4.015
 7684TIP3    H123016   2.290   4.845   4.069
 7684TIP3    H223017   2.148   4.896   4.070
 7685TIP3   OH223018   0.512   0.667   4.656
 7685TIP3    H123019   0.500   0.689   4.748
 7685TIP3    H223020   0.528   0.572   4.656
 7686TIP3   OH223021   4.269   2.926   3.278
 7686TIP3    H123022   4.275   2.933   3.374
 7686TIP3    H223023   4.201   2.989   3.254
 7687TIP3   OH223024   5.503   4.649   0.686
 7687TIP3    H123025   5.555   4.692   0.754
 7687TIP3    H223026   5.414   4.646   0.721
 7688TIP3   OH223027   3.358   2.532   5.768
 7688TIP3    H123028   3.398   2.603   5.718
 7688TIP3    H223029   3.264   2.540   5.752
 7689TIP3   OH223030   2.500   5.037   4.389
 7689TIP3    H123031   2.423   5.082   4.423
 7689TIP3    H223032   2.573   5.098   4.404
 7690TIP3   OH223033   2.387   5.984   0.494
 7690TIP3    H123034   2.448   5.999   0.422
 7690TIP3    H223035   2.308   5.950   0.451
 7691TIP3   OH223036   3.813   3.708   2.583
 7691TIP3    H123037   3.839   3.773   2.648
 7691TIP3    H223038   3.852   3.626   2.614
 7692TIP3   OH223039   5.000   4.398   2.467
 7692TIP3    H123040   4.931   4.441   2.517
 7692TIP3    H223041   4.976   4.412   2.376
 7693TIP3   OH223042   5.287   5.501   3.479
 7693TIP3    H123043   5.314   5.524   3.390
 7693TIP3    H223044   5.364   5.517   3.533
 7694TIP3   OH223045   0.797   5.195   3.642
 7694TIP3    H123046   0.731   5.264   3.642
 7694TIP3    H223047   0.777   5.143   3.719
 7695TIP3   OH223048   6.191   0.047   0.854
 7695TIP3    H123049   6.181   0.140   0.835
 7695TIP3    H223050   6.119   0.005   0.806
 7696TIP3   OH223051   2.503   6.618   0.261
 7696TIP3    H123052   2.461   6.595   0.178
 7696TIP3    H223053   2.442   6.587   0.328
 7697TIP3   OH223054   5.548   5.404   2.980
 7697TIP3    H123055   5.584   5.462   2.913
 7697TIP3    H223056   5.579   5.317   2.956
 7698TIP3   OH223057   7.056   1.420   1.966
 7698TIP3    H123058   7.105   1.463   2.035
 7698TIP3    H223059   6.966   1.450   1.979
 7699TIP3   OH223060   2.713   1.748   2.201
 7699TIP3    H123061   2.699   1.694   2.123
 7699TIP3    H223062   2.655   1.822   2.190
 7700TIP3   OH223063   1.690   6.253   4.824
 7700TIP3    H123064   1.724   6.227   4.739
 7700TIP3    H223065   1.722   6.343   4.837
 7701TIP3   OH223066   4.509   2.288   2.241
 7701TIP3    H123067   4.578   2.235   2.199
 7701TIP3    H223068   4.497   2.246   2.326
 7702TIP3   OH223069   7.140   4.076   1.754
 7702TIP3    H123070   7.048   4.098   1.736
 7702TIP3    H223071   7.168   4.140   1.819
 7703TIP3   OH223072   2.248   3.246   1.266
 7703TIP3    H123073   2.218   3.313   1.204
 7703TIP3    H223074   2.244   3.165   1.216
 7704TIP3   OH223075   2.139   6.308   3.770
 7704TIP3    H123076   2.104   6.221   3.791
 7704TIP3    H223077   2.080   6.369   3.815
 7705TIP3   OH223078   1.919   2.185   3.850
 7705TIP3    H123079   1.853   2.164   3.917
 7705TIP3    H223080   1.868   2.210   3.774
 7706TIP3   OH223081   0.054   6.586   1.311
 7706TIP3    H123082   0.050   6.606   1.404
 7706TIP3    H223083   0.018   6.497   1.304
 7707TIP3   OH223084   4.192   1.750   1.001
 7707TIP3    H123085   4.278   1.787   0.980
 7707TIP3    H223086   4.209   1.657   1.016
 7708TIP3   OH223087   3.345   2.385   2.576
 7708TIP3    H123088   3.440   2.395   2.583
 7708TIP3    H223089   3.322   2.437   2.499
 7709TIP3   OH223090   1.882   5.697   0.923
 7709TIP3    H123091   1.927   5.773   0.885
 7709TIP3    H223092   1.953   5.635   0.943
 7710TIP3   OH223093   5.692   5.061   2.407
 7710TIP3    H123094   5.670   4.968   2.399
 7710TIP3    H223095   5.614   5.107   2.375
 7711TIP3   OH223096   5.977   3.901   1.331
 7711TIP3    H123097   6.056   3.847   1.331
 7711TIP3    H223098   5.917   3.857   1.271
 7712TIP3   OH223099   2.647   4.691   3.592
 7712TIP3    H123100   2.573   4.703   3.652
 7712TIP3    H223101   2.648   4.771   3.540
 7713TIP3   OH223102   3.155   3.567   4.733
 7713TIP3    H123103   3.097   3.496   4.760
 7713TIP3    H223104   3.096   3.636   4.703
 7714TIP3   OH223105   0.388   3.610   0.618
 7714TIP3    H123106   0.317   3.549   0.633
 7714TIP3    H223107   0.445   3.566   0.554
 7715TIP3   OH223108   4.896   5.905   0.981
 7715TIP3    H123109   4.860   5.982   1.027
 7715TIP3    H223110   4.978   5.936   0.944
 7716TIP3   OH223111   0.925   3.806   1.745
 7716TIP3    H123112   0.901   3.859   1.668
 7716TIP3    H223113   0.841   3.784   1.785
 7717TIP3   OH223114   3.946   4.583   5.411
 7717TIP3    H123115   3.964   4.551   5.322
 7717TIP3    H223116   3.851   4.576   5.421
 7718TIP3   OH223117   2.288   0.149   5.819
 7718TIP3    H123118   2.319   0.071   5.773
 7718TIP3    H223119   2.272   0.212   5.750
 7719TIP3   OH223120   2.942   3.706   0.723
 7719TIP3    H123121   2.858   3.678   0.686
 7719TIP3    H223122   3.008   3.660   0.672
 7720TIP3   OH223123   0.044   5.762   1.647
 7720TIP3    H123124  -0.025   5.788   1.708
 7720TIP3    H223125   0.009   5.785   1.561
 7721TIP3   OH223126   0.172   2.815   5.941
 7721TIP3    H123127   0.233   2.867   5.889
 7721TIP3    H223128   0.144   2.744   5.883
 7722TIP3   OH223129   1.175   1.262   0.971
 7722TIP3    H123130   1.184   1.187   0.913
 7722TIP3    H223131   1.175   1.338   0.913
 7723TIP3   OH223132   4.892   3.546   2.009
 7723TIP3    H123133   4.870   3.456   1.985
 7723TIP3    H223134   4.815   3.578   2.056
 7724TIP3   OH223135   5.747   4.279   2.898
 7724TIP3    H123136   5.763   4.263   2.991
 7724TIP3    H223137   5.729   4.193   2.861
 7725TIP3   OH223138   5.261   0.287   5.349
 7725TIP3    H123139   5.207   0.320   5.421
 7725TIP3    H223140   5.350   0.288   5.383
 7726TIP3   OH223141   0.950   5.505   1.362
 7726TIP3    H123142   1.006   5.530   1.289
 7726TIP3    H223143   0.896   5.583   1.378
 7727TIP3   OH223144   2.620   6.359   4.373
 7727TIP3    H123145   2.611   6.436   4.429
 7727TIP3    H223146   2.680   6.387   4.304
 7728TIP3   OH223147   2.921   1.999   4.948
 7728TIP3    H123148   2.899   1.907   4.933
 7728TIP3    H223149   2.878   2.021   5.032
 7729TIP3   OH223150   5.419   6.277   0.816
 7729TIP3    H123151   5.498   6.287   0.868
 7729TIP3    H223152   5.392   6.367   0.796
 7730TIP3   OH223153   1.066   3.571   0.701
 7730TIP3    H123154   1.079   3.541   0.611
 7730TIP3    H223155   0.991   3.521   0.732
 7731TIP3   OH223156   3.111   3.066   5.567
 7731TIP3    H123157   3.064   2.998   5.616
 7731TIP3    H223158   3.188   3.022   5.532
 7732TIP3   OH223159   0.445   4.348   4.116
 7732TIP3    H123160   0.421   4.430   4.072
 7732TIP3    H223161   0.523   4.317   4.069
 7733TIP3   OH223162   4.808   3.247   0.166
 7733TIP3    H123163   4.734   3.247   0.106
 7733TIP3    H223164   4.796   3.325   0.220
 7734TIP3   OH223165   2.126   2.939   5.570
 7734TIP3    H123166   2.122   2.914   5.662
 7734TIP3    H223167   2.077   3.021   5.565
 7735TIP3   OH223168   0.899   0.159   1.286
 7735TIP3    H123169   0.957   0.178   1.213
 7735TIP3    H223170   0.846   0.238   1.295
 7736TIP3   OH223171   5.409   3.048   0.449
 7736TIP3    H123172   5.505   3.041   0.453
 7736TIP3    H223173   5.384   2.984   0.381
 7737TIP3   OH223174   6.583   6.058   0.526
 7737TIP3    H123175   6.550   6.046   0.436
 7737TIP3    H223176   6.640   6.135   0.520
 7738TIP3   OH223177   4.995   0.398   5.161
 7738TIP3    H123178   4.980   0.482   5.204
 7738TIP3    H223179   5.087   0.402   5.133
 7739TIP3   OH223180   6.899   4.414   3.394
 7739TIP3    H123181   6.877   4.396   3.303
 7739TIP3    H223182   6.918   4.508   3.397
 7740TIP3   OH223183   2.851   5.835   2.480
 7740TIP3    H123184   2.939   5.868   2.466
 7740TIP3    H223185   2.827   5.792   2.398
 7741TIP3   OH223186   2.512   2.351   4.056
 7741TIP3    H123187   2.539   2.262   4.081
 7741TIP3    H223188   2.594   2.394   4.031
 7742TIP3   OH223189   1.413   2.374   5.166
 7742TIP3    H123190   1.460   2.350   5.087
 7742TIP3    H223191   1.481   2.398   5.229
 7743TIP3   OH223192   6.446   1.489   1.093
 7743TIP3    H123193   6.524   1.437   1.113
 7743TIP3    H223194   6.373   1.427   1.099
 7744TIP3   OH223195   4.840   3.671   2.739
 7744TIP3    H123196   4.838   3.762   2.711
 7744TIP3    H223197   4.794   3.623   2.670
 7745TIP3   OH223198   4.807   1.958   1.892
 7745TIP3    H123199   4.712   1.950   1.901
 7745TIP3    H223200   4.821   2.050   1.869
 7746TIP3   OH223201   5.823   3.601   5.374
 7746TIP3    H123202   5.867   3.534   5.426
 7746TIP3    H223203   5.733   3.602   5.407
 7747TIP3   OH223204   5.263   2.251   2.151
 7747TIP3    H123205   5.181   2.261   2.103
 7747TIP3    H223206   5.289   2.160   2.136
 7748TIP3   OH223207   5.446   4.153   0.650
 7748TIP3    H123208   5.469   4.225   0.709
 7748TIP3    H223209   5.351   4.157   0.643
 7749TIP3   OH223210   2.973   5.421   3.438
 7749TIP3    H123211   2.903   5.360   3.464
 7749TIP3    H223212   3.047   5.365   3.417
 7750TIP3   OH223213   4.120   2.583   0.699
 7750TIP3    H123214   4.066   2.507   0.721
 7750TIP3    H223215   4.110   2.593   0.604
 7751TIP3   OH223216   1.970   3.625   2.655
 7751TIP3    H123217   1.944   3.602   2.566
 7751TIP3    H223218   1.902   3.587   2.711
 7752TIP3   OH223219   0.366   1.238   3.001
 7752TIP3    H123220   0.394   1.307   2.941
 7752TIP3    H223221   0.306   1.184   2.948
 7753TIP3   OH223222   6.729   1.244   0.445
 7753TIP3    H123223   6.728   1.319   0.504
 7753TIP3    H223224   6.820   1.235   0.418
 7754TIP3   OH223225   4.414   4.898   2.916
 7754TIP3    H123226   4.374   4.967   2.863
 7754TIP3    H223227   4.354   4.887   2.990
 7755TIP3   OH223228   2.401   5.068   1.350
 7755TIP3    H123229   2.496   5.061   1.343
 7755TIP3    H223230   2.369   5.027   1.270
 7756TIP3   OH223231   4.885   1.378   2.399
 7756TIP3    H123232   4.815   1.427   2.357
 7756TIP3    H223233   4.891   1.415   2.487
 7757TIP3   OH223234   6.668   6.057   3.819
 7757TIP3    H123235   6.740   5.995   3.832
 7757TIP3    H223236   6.589   6.004   3.829
 7758TIP3   OH223237   6.311   5.762   2.960
 7758TIP3    H123238   6.221   5.733   2.979
 7758TIP3    H223239   6.337   5.811   3.037
 7759TIP3   OH223240   7.028   0.279   3.632
 7759TIP3    H123241   7.020   0.268   3.726
 7759TIP3    H223242   7.108   0.231   3.609
 7760TIP3   OH223243   1.891   5.370   1.616
 7760TIP3    H123244   1.879   5.465   1.607
 7760TIP3    H223245   1.816   5.342   1.668
 7761TIP3   OH223246   1.256   5.171   3.515
 7761TIP3    H123247   1.333   5.127   3.480
 7761TIP3    H223248   1.289   5.225   3.587
 7762TIP3   OH223249   3.996   2.139   1.765
 7762TIP3    H123250   3.923   2.180   1.812
 7762TIP3    H223251   3.959   2.112   1.681
 7763TIP3   OH223252   1.117   1.721   0.944
 7763TIP3    H123253   1.034   1.749   0.905
 7763TIP3    H223254   1.111   1.748   1.035
 7764TIP3   OH223255   6.246   2.140   0.535
 7764TIP3    H123256   6.175   2.076   0.546
 7764TIP3    H223257   6.319   2.089   0.500
 7765TIP3   OH223258   4.837   2.799   0.564
 7765TIP3    H123259   4.859   2.724   0.619
 7765TIP3    H223260   4.743   2.790   0.547
 7766TIP3   OH223261   4.599   2.081   1.414
 7766TIP3    H123262   4.589   2.020   1.487
 7766TIP3    H223263   4.509   2.096   1.383
 7767TIP3   OH223264   6.690   6.045   1.877
 7767TIP3    H123265   6.699   5.952   1.860
 7767TIP3    H223266   6.627   6.075   1.811
 7768TIP3   OH223267   7.086   1.761   0.785
 7768TIP3    H123268   7.112   1.762   0.877
 7768TIP3    H223269   6.999   1.802   0.784
 7769TIP3   OH223270   4.336   0.978   3.282
 7769TIP3    H123271   4.372   0.952   3.197
 7769TIP3    H223272   4.400   1.038   3.318
 7770TIP3   OH223273   3.272   6.588   1.246
 7770TIP3    H123274   3.337   6.525   1.279
 7770TIP3    H223275   3.188   6.555   1.278
 7771TIP3   OH223276   6.326   5.275   3.458
 7771TIP3    H123277   6.301   5.187   3.429
 7771TIP3    H223278   6.421   5.277   3.452
 7772TIP3   OH223279   6.791   0.332   0.432
 7772TIP3    H123280   6.831   0.270   0.371
 7772TIP3    H223281   6.782   0.284   0.514
 7773TIP3   OH223282   6.733   1.065   3.310
 7773TIP3    H123283   6.772   0.978   3.313
 7773TIP3    H223284   6.639   1.050   3.301
 7774TIP3   OH223285   1.832   3.255   2.294
 7774TIP3    H123286   1.750   3.301   2.313
 7774TIP3    H223287   1.823   3.171   2.339
 7775TIP3   OH223288   0.964   6.266   5.314
 7775TIP3    H123289   1.009   6.223   5.241
 7775TIP3    H223290   1.026   6.333   5.344
 7776TIP3   OH223291   3.853   5.212   4.281
 7776TIP3    H123292   3.889   5.123   4.283
 7776TIP3    H223293   3.793   5.212   4.207
 7777TIP3   OH223294   0.154   3.603   3.764
 7777TIP3    H123295   0.082   3.632   3.707
 7777TIP3    H223296   0.193   3.685   3.795
 7778TIP3   OH223297   4.524   4.382   3.381
 7778TIP3    H123298   4.584   4.452   3.356
 7778TIP3    H223299   4.563   4.302   3.344
 7779TIP3   OH223300   6.767   3.113   4.019
 7779TIP3    H123301   6.757   3.177   3.948
 7779TIP3    H223302   6.801   3.035   3.975
 7780TIP3   OH223303   6.018   1.105   0.227
 7780TIP3    H123304   5.944   1.062   0.271
 7780TIP3    H223305   5.993   1.107   0.135
 7781TIP3   OH223306   2.405   4.689   3.739
 7781TIP3    H123307   2.412   4.594   3.728
 7781TIP3    H223308   2.314   4.704   3.764
 7782TIP3   OH223309   1.866   2.193   3.186
 7782TIP3    H123310   1.927   2.266   3.182
 7782TIP3    H223311   1.816   2.207   3.266
 7783TIP3   OH223312   3.554   3.419   2.376
 7783TIP3    H123313   3.467   3.391   2.347
 7783TIP3    H223314   3.607   3.339   2.374
 7784TIP3   OH223315   1.581   4.809   5.869
 7784TIP3    H123316   1.589   4.741   5.936
 7784TIP3    H223317   1.671   4.825   5.841
 7785TIP3   OH223318   2.868   2.195   3.920
 7785TIP3    H123319   2.838   2.129   3.982
 7785TIP3    H223320   2.957   2.168   3.897
 7786TIP3   OH223321   4.304   2.111   3.584
 7786TIP3    H123322   4.314   2.069   3.498
 7786TIP3    H223323   4.210   2.112   3.599
 7787TIP3   OH223324   1.579   4.190   1.939
 7787TIP3    H123325   1.655   4.247   1.931
 7787TIP3    H223326   1.576   4.165   2.031
 7788TIP3   OH223327   6.268   2.091   1.896
 7788TIP3    H123328   6.313   2.059   1.818
 7788TIP3    H223329   6.249   2.182   1.878
 7789TIP3   OH223330   1.254   2.468   2.263
 7789TIP3    H123331   1.259   2.536   2.330
 7789TIP3    H223332   1.183   2.497   2.205
 7790TIP3   OH223333   0.863   1.543   5.120
 7790TIP3    H123334   0.769   1.564   5.121
 7790TIP3    H223335   0.899   1.594   5.193
 7791TIP3   OH223336   4.729   0.067   1.774
 7791TIP3    H123337   4.815   0.039   1.744
 7791TIP3    H223338   4.746   0.119   1.852
 7792TIP3   OH223339   1.100   2.817   0.832
 7792TIP3    H123340   1.102   2.875   0.755
 7792TIP3    H223341   1.083   2.875   0.906
 7793TIP3   OH223342   5.063   6.276   4.597
 7793TIP3    H123343   5.142   6.328   4.582
 7793TIP3    H223344   5.094   6.185   4.598
 7794TIP3   OH223345   5.018   4.866   2.123
 7794TIP3    H123346   4.940   4.905   2.084
 7794TIP3    H223347   5.088   4.885   2.061
 7795TIP3   OH223348   5.975   5.047   3.953
 7795TIP3    H123349   5.907   5.019   4.014
 7795TIP3    H223350   5.929   5.103   3.891
 7796TIP3   OH223351   5.917   1.713   0.577
 7796TIP3    H123352   5.930   1.623   0.548
 7796TIP3    H223353   5.995   1.733   0.629
 7797TIP3   OH223354   0.021   4.672   1.177
 7797TIP3    H123355   0.044   4.624   1.256
 7797TIP3    H223356   0.002   4.604   1.112
 7798TIP3   OH223357   2.422   2.818   5.012
 7798TIP3    H123358   2.464   2.754   5.068
 7798TIP3    H223359   2.329   2.796   5.017
 7799TIP3   OH223360   3.492   4.731   2.391
 7799TIP3    H123361   3.402   4.721   2.423
 7799TIP3    H223362   3.545   4.681   2.453
 7800TIP3   OH223363   0.361   3.031   0.674
 7800TIP3    H123364   0.395   2.948   0.707
 7800TIP3    H223365   0.414   3.098   0.719
 7801TIP3   OH223366   0.317   6.607   1.224
 7801TIP3    H123367   0.224   6.601   1.249
 7801TIP3    H223368   0.320   6.678   1.159
 7802TIP3   OH223369   6.679   0.218   3.922
 7802TIP3    H123370   6.616   0.229   3.993
 7802TIP3    H223371   6.707   0.127   3.929
 7803TIP3   OH223372   1.464   5.873   3.594
 7803TIP3    H123373   1.468   5.887   3.499
 7803TIP3    H223374   1.487   5.781   3.606
 7804TIP3   OH223375   2.153   2.302   4.624
 7804TIP3    H123376   2.247   2.300   4.605
 7804TIP3    H223377   2.126   2.390   4.597
 7805TIP3   OH223378   4.007   3.426   3.751
 7805TIP3    H123379   3.958   3.507   3.741
 7805TIP3    H223380   4.078   3.432   3.687
 7806TIP3   OH223381   2.043   3.638   4.176
 7806TIP3    H123382   2.134   3.655   4.151
 7806TIP3    H223383   2.030   3.545   4.159
 7807TIP3   OH223384   0.228   2.418   5.876
 7807TIP3    H123385   0.318   2.390   5.860
 7807TIP3    H223386   0.220   2.501   5.830
 7808TIP3   OH223387   1.519   3.153   2.784
 7808TIP3    H123388   1.472   3.089   2.837
 7808TIP3    H223389   1.612   3.130   2.796
 7809TIP3   OH223390   5.856   3.123   4.758
 7809TIP3    H123391   5.788   3.145   4.822
 7809TIP3    H223392   5.925   3.187   4.773
 7810TIP3   OH223393   5.836   4.653   4.007
 7810TIP3    H123394   5.757   4.705   4.004
 7810TIP3    H223395   5.882   4.682   4.086
 7811TIP3   OH223396   0.076   0.750   2.661
 7811TIP3    H123397   0.023   0.799   2.724
 7811TIP3    H223398   0.167   0.766   2.689
 7812TIP3   OH223399   4.051   4.742   0.192
 7812TIP3    H123400   4.127   4.692   0.221
 7812TIP3    H223401   4.066   4.831   0.224
 7813TIP3   OH223402   3.595   6.616   0.249
 7813TIP3    H123403   3.615   6.707   0.228
 7813TIP3    H223404   3.642   6.599   0.331
 7814TIP3   OH223405   6.541   0.265   0.827
 7814TIP3    H123406   6.503   0.258   0.915
 7814TIP3    H223407   6.629   0.228   0.836
 7815TIP3   OH223408   2.801   3.416   1.590
 7815TIP3    H123409   2.768   3.430   1.501
 7815TIP3    H223410   2.781   3.324   1.609
 7816TIP3   OH223411   0.291   4.466   3.218
 7816TIP3    H123412   0.278   4.447   3.311
 7816TIP3    H223413   0.386   4.473   3.207
 7817TIP3   OH223414   7.023   1.046   0.788
 7817TIP3    H123415   6.961   0.975   0.772
 7817TIP3    H223416   7.030   1.091   0.703
 7818TIP3   OH223417   3.253   1.117   2.388
 7818TIP3    H123418   3.295   1.055   2.448
 7818TIP3    H223419   3.319   1.133   2.320
 7819TIP3   OH223420   4.527   6.097   2.242
 7819TIP3    H123421   4.582   6.040   2.297
 7819TIP3    H223422   4.451   6.043   2.221
 7820TIP3   OH223423   5.516   4.472   0.219
 7820TIP3    H123424   5.604   4.489   0.251
 7820TIP3    H223425   5.458   4.510   0.285
 7821TIP3   OH223426   6.481   0.720   0.112
 7821TIP3    H123427   6.528   0.791   0.155
 7821TIP3    H223428   6.412   0.696   0.174
 7822TIP3   OH223429   7.005   0.840   3.994
 7822TIP3    H123430   6.924   0.888   3.976
 7822TIP3    H223431   7.042   0.884   4.071
 7823TIP3   OH223432   0.712   1.387   4.822
 7823TIP3    H123433   0.668   1.405   4.906
 7823TIP3    H223434   0.656   1.430   4.757
 7824TIP3   OH223435   3.704   2.667   0.573
 7824TIP3    H123436   3.750   2.614   0.638
 7824TIP3    H223437   3.745   2.753   0.580
 7825TIP3   OH223438   0.607   2.198   4.621
 7825TIP3    H123439   0.586   2.107   4.642
 7825TIP3    H223440   0.544   2.250   4.671
 7826TIP3   OH223441   1.297   2.783   4.200
 7826TIP3    H123442   1.347   2.831   4.134
 7826TIP3    H223443   1.282   2.697   4.161
 7827TIP3   OH223444   1.032   6.793   1.696
 7827TIP3    H123445   0.974   6.727   1.735
 7827TIP3    H223446   1.117   6.776   1.735
 7828TIP3   OH223447   4.182   2.682   5.107
 7828TIP3    H123448   4.231   2.762   5.089
 7828TIP3    H223449   4.102   2.712   5.149
 7829TIP3   OH223450   6.520   1.808   1.938
 7829TIP3    H123451   6.512   1.899   1.967
 7829TIP3    H223452   6.462   1.759   1.997
 7830TIP3   OH223453   6.862   4.415   0.417
 7830TIP3    H123454   6.823   4.332   0.388
 7830TIP3    H223455   6.885   4.400   0.508
 7831TIP3   OH223456   3.078   4.522   3.925
 7831TIP3    H123457   3.029   4.587   3.975
 7831TIP3    H223458   3.030   4.514   3.842
 7832TIP3   OH223459   0.396   2.474   0.743
 7832TIP3    H123460   0.485   2.485   0.778
 7832TIP3    H223461   0.393   2.383   0.715
 7833TIP3   OH223462   0.459   3.887   3.589
 7833TIP3    H123463   0.463   3.796   3.617
 7833TIP3    H223464   0.447   3.937   3.670
 7834TIP3   OH223465   6.181   4.512   0.652
 7834TIP3    H123466   6.249   4.578   0.667
 7834TIP3    H223467   6.179   4.502   0.556
 7835TIP3   OH223468   2.593   6.237   3.185
 7835TIP3    H123469   2.562   6.200   3.102
 7835TIP3    H223470   2.669   6.290   3.162
 7836TIP3   OH223471   1.543   5.886   5.115
 7836TIP3    H123472   1.492   5.870   5.036
 7836TIP3    H223473   1.480   5.879   5.186
 7837TIP3   OH223474   1.372   2.726   3.748
 7837TIP3    H123475   1.295   2.686   3.788
 7837TIP3    H223476   1.336   2.789   3.685
 7838TIP3   OH223477   2.080   5.254   3.151
 7838TIP3    H123478   2.022   5.195   3.198
 7838TIP3    H223479   2.162   5.253   3.201
 7839TIP3   OH223480   0.139   0.175   1.418
 7839TIP3    H123481   0.100   0.233   1.352
 7839TIP3    H223482   0.232   0.172   1.395
 7840TIP3   OH223483   4.244   0.636   1.537
 7840TIP3    H123484   4.339   0.637   1.530
 7840TIP3    H223485   4.213   0.605   1.452
 7841TIP3   OH223486   3.990   2.735   3.449
 7841TIP3    H123487   3.924   2.787   3.404
 7841TIP3    H223488   4.067   2.738   3.392
 7842TIP3   OH223489   5.323   0.547   2.912
 7842TIP3    H123490   5.315   0.521   2.820
 7842TIP3    H223491   5.233   0.564   2.940
 7843TIP3   OH223492   1.207   2.961   5.851
 7843TIP3    H123493   1.132   3.005   5.891
 7843TIP3    H223494   1.241   2.904   5.919
 7844TIP3   OH223495   5.942   2.597   0.463
 7844TIP3    H123496   5.886   2.633   0.531
 7844TIP3    H223497   5.968   2.511   0.495
 7845TIP3   OH223498   2.428   4.402   3.384
 7845TIP3    H123499   2.341   4.405   3.345
 7845TIP3    H223500   2.454   4.310   3.378
 7846TIP3   OH223501   5.768   1.587   2.648
 7846TIP3    H123502   5.807   1.511   2.605
 7846TIP3    H223503   5.815   1.662   2.611
 7847TIP3   OH223504   0.665   1.759   0.881
 7847TIP3    H123505   0.601   1.732   0.815
 7847TIP3    H223506   0.690   1.678   0.925
 7848TIP3   OH223507   4.749   5.555   1.817
 7848TIP3    H123508   4.837   5.591   1.818
 7848TIP3    H223509   4.712   5.585   1.734
 7849TIP3   OH223510   0.489   0.167   1.674
 7849TIP3    H123511   0.394   0.179   1.676
 7849TIP3    H223512   0.503   0.080   1.710
 7850TIP3   OH223513   5.698   5.808   3.980
 7850TIP3    H123514   5.710   5.760   4.063
 7850TIP3    H223515   5.621   5.769   3.941
 7851TIP3   OH223516   4.768   3.903   4.476
 7851TIP3    H123517   4.815   3.985   4.461
 7851TIP3    H223518   4.755   3.867   4.388
 7852TIP3   OH223519   2.514   4.630   2.927
 7852TIP3    H123520   2.458   4.706   2.913
 7852TIP3    H223521   2.470   4.559   2.881
 7853TIP3   OH223522   2.011   4.844   4.191
 7853TIP3    H123523   2.033   4.808   4.277
 7853TIP3    H223524   1.917   4.861   4.195
 7854TIP3   OH223525   5.711   0.610   4.403
 7854TIP3    H123526   5.764   0.530   4.401
 7854TIP3    H223527   5.769   0.679   4.372
 7855TIP3   OH223528   5.675   3.816   4.980
 7855TIP3    H123529   5.727   3.736   4.978
 7855TIP3    H223530   5.617   3.809   4.903
 7856TIP3   OH223531   5.671   3.112   0.111
 7856TIP3    H123532   5.633   3.038   0.065
 7856TIP3    H223533   5.617   3.187   0.084
 7857TIP3   OH223534   4.628   2.947   0.261
 7857TIP3    H123535   4.542   2.909   0.243
 7857TIP3    H223536   4.617   2.991   0.345
 7858TIP3   OH223537   3.405   0.876   0.687
 7858TIP3    H123538   3.476   0.821   0.652
 7858TIP3    H223539   3.343   0.885   0.615
 7859TIP3   OH223540   2.608   3.364   2.529
 7859TIP3    H123541   2.679   3.414   2.569
 7859TIP3    H223542   2.528   3.403   2.564
 7860TIP3   OH223543   1.108   3.271   2.223
 7860TIP3    H123544   1.050   3.201   2.254
 7860TIP3    H223545   1.195   3.244   2.251
 7861TIP3   OH223546   5.054   6.395   3.346
 7861TIP3    H123547   4.972   6.440   3.324
 7861TIP3    H223548   5.061   6.326   3.280
 7862TIP3   OH223549   5.647   0.650   2.148
 7862TIP3    H123550   5.686   0.685   2.068
 7862TIP3    H223551   5.699   0.687   2.219
 7863TIP3   OH223552   2.809   3.390   2.278
 7863TIP3    H123553   2.741   3.406   2.213
 7863TIP3    H223554   2.765   3.340   2.347
 7864TIP3   OH223555   5.203   0.572   1.177
 7864TIP3    H123556   5.170   0.653   1.216
 7864TIP3    H223557   5.196   0.586   1.082
 7865TIP3   OH223558   3.579   6.463   5.700
 7865TIP3    H123559   3.544   6.380   5.667
 7865TIP3    H223560   3.616   6.505   5.623
 7866TIP3   OH223561   0.579   3.951   0.434
 7866TIP3    H123562   0.620   4.037   0.420
 7866TIP3    H223563   0.635   3.909   0.499
 7867TIP3   OH223564   1.947   6.703   1.834
 7867TIP3    H123565   1.926   6.731   1.745
 7867TIP3    H223566   1.866   6.662   1.865
 7868TIP3   OH223567   3.494   5.605   3.757
 7868TIP3    H123568   3.456   5.567   3.678
 7868TIP3    H223569   3.565   5.545   3.780
 7869TIP3   OH223570   3.323   4.194   3.306
 7869TIP3    H123571   3.314   4.287   3.285
 7869TIP3    H223572   3.323   4.150   3.221
 7870TIP3   OH223573   6.710   5.287   1.625
 7870TIP3    H123574   6.712   5.371   1.670
 7870TIP3    H223575   6.780   5.236   1.666
 7871TIP3   OH223576   3.063   5.958   2.318
 7871TIP3    H123577   3.132   5.895   2.296
 7871TIP3    H223578   3.096   6.004   2.395
 7872TIP3   OH223579   3.406   5.569   3.057
 7872TIP3    H123580   3.467   5.547   2.986
 7872TIP3    H223581   3.409   5.664   3.062
 7873TIP3   OH223582   2.780   3.074   2.962
 7873TIP3    H123583   2.785   3.118   2.877
 7873TIP3    H223584   2.829   3.132   3.021
 7874TIP3   OH223585   4.842   4.649   5.831
 7874TIP3    H123586   4.784   4.608   5.767
 7874TIP3    H223587   4.805   4.736   5.845
 7875TIP3   OH223588   0.350   4.950   2.540
 7875TIP3    H123589   0.320   4.861   2.558
 7875TIP3    H223590   0.375   4.985   2.626
 7876TIP3   OH223591   7.128   2.760   5.041
 7876TIP3    H123592   7.220   2.738   5.058
 7876TIP3    H223593   7.133   2.841   4.990
 7877TIP3   OH223594   0.372   4.171   5.377
 7877TIP3    H123595   0.360   4.086   5.334
 7877TIP3    H223596   0.459   4.166   5.417
 7878TIP3   OH223597   4.890   0.405   1.795
 7878TIP3    H123598   4.925   0.458   1.724
 7878TIP3    H223599   4.948   0.422   1.870
 7879TIP3   OH223600   2.484   2.019   3.046
 7879TIP3    H123601   2.472   2.060   3.132
 7879TIP3    H223602   2.397   1.988   3.021
 7880TIP3   OH223603   5.810   4.396   3.920
 7880TIP3    H123604   5.873   4.337   3.962
 7880TIP3    H223605   5.814   4.476   3.972
 7881TIP3   OH223606   3.797   3.399   1.579
 7881TIP3    H123607   3.794   3.384   1.674
 7881TIP3    H223608   3.864   3.339   1.547
 7882TIP3   OH223609   6.256   3.876   3.890
 7882TIP3    H123610   6.314   3.908   3.959
 7882TIP3    H223611   6.315   3.851   3.819
 7883TIP3   OH223612   2.511   5.399   0.441
 7883TIP3    H123613   2.552   5.416   0.356
 7883TIP3    H223614   2.470   5.313   0.430
 7884TIP3   OH223615   4.521   0.596   1.542
 7884TIP3    H123616   4.582   0.631   1.607
 7884TIP3    H223617   4.541   0.502   1.538
 7885TIP3   OH223618   2.733   1.681   3.655
 7885TIP3    H123619   2.712   1.738   3.582
 7885TIP3    H223620   2.735   1.593   3.618
 7886TIP3   OH223621   0.868   5.706   3.131
 7886TIP3    H123622   0.873   5.619   3.170
 7886TIP3    H223623   0.839   5.763   3.203
 7887TIP3   OH223624   5.411   6.149   5.391
 7887TIP3    H123625   5.431   6.218   5.328
 7887TIP3    H223626   5.437   6.185   5.476
 7888TIP3   OH223627   6.557   6.709   1.857
 7888TIP3    H123628   6.475   6.703   1.809
 7888TIP3    H223629   6.601   6.786   1.820
 7889TIP3   OH223630   3.392   5.472   2.373
 7889TIP3    H123631   3.353   5.540   2.428
 7889TIP3    H223632   3.474   5.510   2.341
 7890TIP3   OH223633   2.424   3.167   0.910
 7890TIP3    H123634   2.505   3.210   0.939
 7890TIP3    H223635   2.437   3.075   0.932
 7891TIP3   OH223636   0.549   3.239   2.739
 7891TIP3    H123637   0.598   3.168   2.780
 7891TIP3    H223638   0.461   3.202   2.726
 7892TIP3   OH223639   5.281   1.716   2.652
 7892TIP3    H123640   5.243   1.697   2.567
 7892TIP3    H223641   5.365   1.670   2.652
 7893TIP3   OH223642   0.998   2.888   1.460
 7893TIP3    H123643   1.054   2.828   1.509
 7893TIP3    H223644   0.913   2.882   1.503
 7894TIP3   OH223645   6.354   2.156   1.122
 7894TIP3    H123646   6.311   2.071   1.120
 7894TIP3    H223647   6.335   2.194   1.036
 7895TIP3   OH223648   3.683   3.550   1.358
 7895TIP3    H123649   3.723   3.488   1.419
 7895TIP3    H223650   3.593   3.560   1.389
 7896TIP3   OH223651   6.088   6.596   4.628
 7896TIP3    H123652   6.061   6.588   4.537
 7896TIP3    H223653   6.084   6.507   4.663
 7897TIP3   OH223654   0.632   6.056   5.617
 7897TIP3    H123655   0.671   6.045   5.703
 7897TIP3    H223656   0.692   6.114   5.570
 7898TIP3   OH223657   2.710   5.734   5.455
 7898TIP3    H123658   2.721   5.645   5.488
 7898TIP3    H223659   2.681   5.784   5.531
 7899TIP3   OH223660   5.198   0.848   4.223
 7899TIP3    H123661   5.112   0.827   4.186
 7899TIP3    H223662   5.256   0.781   4.187
 7900TIP3   OH223663   1.412   6.343   5.317
 7900TIP3    H123664   1.352   6.339   5.243
 7900TIP3    H223665   1.400   6.259   5.362
 7901TIP3   OH223666   0.814   2.332   3.196
 7901TIP3    H123667   0.759   2.389   3.251
 7901TIP3    H223668   0.888   2.388   3.172
 7902TIP3   OH223669   0.469   5.025   1.566
 7902TIP3    H123670   0.564   5.029   1.569
 7902TIP3    H223671   0.448   4.940   1.605
 7903TIP3   OH223672   2.265   1.730   0.976
 7903TIP3    H123673   2.314   1.785   1.037
 7903TIP3    H223674   2.239   1.790   0.906
 7904TIP3   OH223675   1.692   1.087   5.170
 7904TIP3    H123676   1.681   1.034   5.091
 7904TIP3    H223677   1.712   1.175   5.138
 7905TIP3   OH223678   5.419   3.904   5.425
 7905TIP3    H123679   5.350   3.967   5.403
 7905TIP3    H223680   5.497   3.938   5.380
 7906TIP3   OH223681   3.808   1.933   4.874
 7906TIP3    H123682   3.774   1.954   4.960
 7906TIP3    H223683   3.804   1.838   4.869
 7907TIP3   OH223684   5.564   1.723   3.104
 7907TIP3    H123685   5.635   1.659   3.099
 7907TIP3    H223686   5.537   1.722   3.195
 7908TIP3   OH223687   6.221   1.800   1.502
 7908TIP3    H123688   6.138   1.821   1.460
 7908TIP3    H223689   6.276   1.766   1.431
 7909TIP3   OH223690   2.542   1.312   0.489
 7909TIP3    H123691   2.559   1.383   0.551
 7909TIP3    H223692   2.449   1.321   0.467
 7910TIP3   OH223693   4.958   2.522   3.463
 7910TIP3    H123694   5.044   2.508   3.424
 7910TIP3    H223695   4.927   2.604   3.424
 7911TIP3   OH223696   4.606   2.369   0.556
 7911TIP3    H123697   4.582   2.332   0.471
 7911TIP3    H223698   4.526   2.364   0.608
 7912TIP3   OH223699   2.528   3.808   3.080
 7912TIP3    H123700   2.559   3.898   3.079
 7912TIP3    H223701   2.580   3.764   3.013
 7913TIP3   OH223702   6.470   3.085   1.026
 7913TIP3    H123703   6.563   3.084   1.004
 7913TIP3    H223704   6.456   3.004   1.075
 7914TIP3   OH223705   2.197   4.817   3.098
 7914TIP3    H123706   2.222   4.869   3.174
 7914TIP3    H223707   2.119   4.860   3.064
 7915TIP3   OH223708   1.175   1.990   5.749
 7915TIP3    H123709   1.184   2.041   5.668
 7915TIP3    H223710   1.089   1.949   5.741
 7916TIP3   OH223711   3.886   3.132   4.811
 7916TIP3    H123712   3.954   3.198   4.800
 7916TIP3    H223713   3.905   3.066   4.745
 7917TIP3   OH223714   5.076   6.214   5.604
 7917TIP3    H123715   5.032   6.164   5.535
 7917TIP3    H223716   5.029   6.190   5.684
 7918TIP3   OH223717   5.639   5.811   0.392
 7918TIP3    H123718   5.692   5.801   0.471
 7918TIP3    H223719   5.555   5.772   0.414
 7919TIP3   OH223720   1.693   1.386   4.545
 7919TIP3    H123721   1.611   1.342   4.524
 7919TIP3    H223722   1.707   1.369   4.638
 7920TIP3   OH223723   0.586   4.746   3.430
 7920TIP3    H123724   0.649   4.680   3.460
 7920TIP3    H223725   0.640   4.821   3.404
 7921TIP3   OH223726   3.197   3.841   5.919
 7921TIP3    H123727   3.287   3.813   5.904
 7921TIP3    H223728   3.180   3.904   5.849
 7922TIP3   OH223729   2.254   0.676   3.154
 7922TIP3    H123730   2.259   0.606   3.219
 7922TIP3    H223731   2.189   0.646   3.091
 7923TIP3   OH223732   0.836   2.111   1.174
 7923TIP3    H123733   0.913   2.157   1.208
 7923TIP3    H223734   0.835   2.029   1.222
 7924TIP3   OH223735   4.952   1.462   2.021
 7924TIP3    H123736   5.031   1.478   1.970
 7924TIP3    H223737   4.913   1.548   2.034
 7925TIP3   OH223738   6.622   6.194   4.098
 7925TIP3    H123739   6.596   6.212   4.188
 7925TIP3    H223740   6.709   6.233   4.090
 7926TIP3   OH223741   3.682   6.152   3.617
 7926TIP3    H123742   3.640   6.135   3.701
 7926TIP3    H223743   3.727   6.236   3.630
 7927TIP3   OH223744   6.985   5.721   4.013
 7927TIP3    H123745   6.911   5.670   3.980
 7927TIP3    H223746   7.062   5.667   3.997
 7928TIP3   OH223747   4.738   1.384   1.812
 7928TIP3    H123748   4.716   1.475   1.793
 7928TIP3    H223749   4.777   1.386   1.899
 7929TIP3   OH223750   3.893   5.034   0.042
 7929TIP3    H123751   3.874   4.963  -0.019
 7929TIP3    H223752   3.870   5.113  -0.006
 7930TIP3   OH223753   3.926   3.269   1.897
 7930TIP3    H123754   3.866   3.343   1.909
 7930TIP3    H223755   4.004   3.307   1.858
 7931TIP3   OH223756   2.332   5.957   5.603
 7931TIP3    H123757   2.357   6.039   5.645
 7931TIP3    H223758   2.406   5.899   5.618
 7932TIP3   OH223759   5.356   6.197   3.493
 7932TIP3    H123760   5.330   6.108   3.470
 7932TIP3    H223761   5.399   6.230   3.414
 7933TIP3   OH223762   1.497   0.519   3.940
 7933TIP3    H123763   1.441   0.441   3.945
 7933TIP3    H223764   1.579   0.492   3.981
 7934TIP3   OH223765   4.797   3.402   3.785
 7934TIP3    H123766   4.752   3.318   3.794
 7934TIP3    H223767   4.872   3.383   3.728
 7935TIP3   OH223768   4.635   5.786   5.715
 7935TIP3    H123769   4.579   5.796   5.792
 7935TIP3    H223770   4.711   5.842   5.733
 7936TIP3   OH223771   3.090   3.291   0.777
 7936TIP3    H123772   3.114   3.375   0.816
 7936TIP3    H223773   3.145   3.285   0.699
 7937TIP3   OH223774   6.522   5.029   4.134
 7937TIP3    H123775   6.473   5.029   4.052
 7937TIP3    H223776   6.610   5.056   4.110
 7938TIP3   OH223777   5.609   3.704   4.343
 7938TIP3    H123778   5.657   3.743   4.270
 7938TIP3    H223779   5.524   3.680   4.306
 7939TIP3   OH223780   3.739   5.034   3.538
 7939TIP3    H123781   3.710   5.018   3.627
 7939TIP3    H223782   3.800   5.108   3.546
 7940TIP3   OH223783   0.515   0.793   4.923
 7940TIP3    H123784   0.520   0.798   5.018
 7940TIP3    H223785   0.432   0.836   4.901
 7941TIP3   OH223786   7.003   2.193   4.662
 7941TIP3    H123787   7.066   2.206   4.591
 7941TIP3    H223788   6.992   2.281   4.700
 7942TIP3   OH223789   6.215   6.184   2.866
 7942TIP3    H123790   6.237   6.276   2.878
 7942TIP3    H223791   6.152   6.184   2.793
 7943TIP3   OH223792   4.477   6.375   3.842
 7943TIP3    H123793   4.562   6.338   3.867
 7943TIP3    H223794   4.413   6.313   3.878
 7944TIP3   OH223795   0.114   4.416   3.988
 7944TIP3    H123796   0.135   4.366   4.067
 7944TIP3    H223797   0.173   4.491   3.991
 7945TIP3   OH223798   5.833   5.843   5.667
 7945TIP3    H123799   5.796   5.892   5.593
 7945TIP3    H223800   5.758   5.804   5.711
 7946TIP3   OH223801   2.648   0.760   5.089
 7946TIP3    H123802   2.600   0.685   5.054
 7946TIP3    H223803   2.583   0.810   5.138
 7947TIP3   OH223804   2.011   4.061   3.309
 7947TIP3    H123805   2.080   4.064   3.375
 7947TIP3    H223806   1.983   4.152   3.299
 7948TIP3   OH223807   0.115   4.881   3.443
 7948TIP3    H123808   0.122   4.807   3.503
 7948TIP3    H223809   0.022   4.903   3.443
 7949TIP3   OH223810   3.439   0.656   1.099
 7949TIP3    H123811   3.424   0.578   1.045
 7949TIP3    H223812   3.366   0.715   1.077
 7950TIP3   OH223813   5.928   3.466   0.097
 7950TIP3    H123814   5.911   3.540   0.155
 7950TIP3    H223815   5.888   3.491   0.013
 7951TIP3   OH223816   3.511   2.128   3.274
 7951TIP3    H123817   3.456   2.185   3.221
 7951TIP3    H223818   3.561   2.077   3.211
 7952TIP3   OH223819   6.896   3.593   0.423
 7952TIP3    H123820   6.930   3.592   0.513
 7952TIP3    H223821   6.938   3.668   0.382
 7953TIP3   OH223822   3.267   0.982   1.160
 7953TIP3    H123823   3.259   0.947   1.071
 7953TIP3    H223824   3.202   0.933   1.211
 7954TIP3   OH223825   6.564   6.735   5.156
 7954TIP3    H123826   6.653   6.731   5.121
 7954TIP3    H223827   6.574   6.777   5.242
 7955TIP3   OH223828   4.885   0.903   1.133
 7955TIP3    H123829   4.939   0.965   1.182
 7955TIP3    H223830   4.798   0.910   1.173
 7956TIP3   OH223831   5.140   5.599   2.450
 7956TIP3    H123832   5.182   5.598   2.536
 7956TIP3    H223833   5.173   5.677   2.408
 7957TIP3   OH223834   5.566   5.646   5.027
 7957TIP3    H123835   5.507   5.571   5.031
 7957TIP3    H223836   5.654   5.608   5.028
 7958TIP3   OH223837   6.653   6.362   3.513
 7958TIP3    H123838   6.584   6.405   3.462
 7958TIP3    H223839   6.726   6.352   3.452
 7959TIP3   OH223840   5.008   2.761   0.097
 7959TIP3    H123841   4.961   2.720   0.170
 7959TIP3    H223842   5.007   2.854   0.117
 7960TIP3   OH223843   2.330   4.635   5.119
 7960TIP3    H123844   2.376   4.558   5.153
 7960TIP3    H223845   2.367   4.649   5.032
 7961TIP3   OH223846   5.146   1.411   4.297
 7961TIP3    H123847   5.194   1.367   4.367
 7961TIP3    H223848   5.191   1.495   4.287
 7962TIP3   OH223849   2.549   1.832   5.381
 7962TIP3    H123850   2.559   1.914   5.333
 7962TIP3    H223851   2.578   1.764   5.320
 7963TIP3   OH223852   5.433   3.737   3.645
 7963TIP3    H123853   5.373   3.810   3.654
 7963TIP3    H223854   5.519   3.774   3.664
 7964TIP3   OH223855   5.885   2.247   4.653
 7964TIP3    H123856   5.829   2.223   4.579
 7964TIP3    H223857   5.949   2.177   4.659
 7965TIP3   OH223858   2.275   3.902   5.724
 7965TIP3    H123859   2.266   3.808   5.710
 7965TIP3    H223860   2.200   3.925   5.778
 7966TIP3   OH223861   3.865   6.492   2.509
 7966TIP3    H123862   3.804   6.528   2.445
 7966TIP3    H223863   3.938   6.458   2.457
 7967TIP3   OH223864   1.382   1.995   4.366
 7967TIP3    H123865   1.467   1.975   4.404
 7967TIP3    H223866   1.364   2.085   4.392
 7968TIP3   OH223867   4.475   4.163   5.014
 7968TIP3    H123868   4.505   4.072   5.015
 7968TIP3    H223869   4.516   4.201   4.936
 7969TIP3   OH223870   2.021   4.721   0.763
 7969TIP3    H123871   2.036   4.653   0.828
 7969TIP3    H223872   2.064   4.689   0.684
 7970TIP3   OH223873   6.277   5.046   1.240
 7970TIP3    H123874   6.195   4.999   1.220
 7970TIP3    H223875   6.258   5.137   1.219
 7971TIP3   OH223876   1.294   5.214   3.987
 7971TIP3    H123877   1.384   5.222   3.956
 7971TIP3    H223878   1.303   5.177   4.075
 7972TIP3   OH223879   1.508   3.828   3.064
 7972TIP3    H123880   1.512   3.813   2.969
 7972TIP3    H223881   1.569   3.764   3.101
 7973TIP3   OH223882   5.108   1.399   5.462
 7973TIP3    H123883   5.090   1.491   5.442
 7973TIP3    H223884   5.022   1.357   5.463
 7974TIP3   OH223885   5.360   0.755   1.460
 7974TIP3    H123886   5.351   0.699   1.537
 7974TIP3    H223887   5.297   0.719   1.397
 7975TIP3   OH223888   7.146   5.267   3.263
 7975TIP3    H123889   7.143   5.345   3.209
 7975TIP3    H223890   7.126   5.298   3.351
 7976TIP3   OH223891   0.860   3.173   0.482
 7976TIP3    H123892   0.890   3.087   0.454
 7976TIP3    H223893   0.766   3.164   0.493
 7977TIP3   OH223894   3.114   0.034   4.267
 7977TIP3    H123895   3.032   0.019   4.219
 7977TIP3    H223896   3.119  -0.038   4.329
 7978TIP3   OH223897   4.136   1.572   2.885
 7978TIP3    H123898   4.095   1.600   2.967
 7978TIP3    H223899   4.230   1.578   2.901
 7979TIP3   OH223900   1.714   0.345   2.846
 7979TIP3    H123901   1.663   0.338   2.927
 7979TIP3    H223902   1.655   0.312   2.779
 7980TIP3   OH223903   2.818   5.543   2.643
 7980TIP3    H123904   2.783   5.570   2.558
 7980TIP3    H223905   2.784   5.608   2.704
 7981TIP3   OH223906   5.439   5.075   3.817
 7981TIP3    H123907   5.513   5.069   3.877
 7981TIP3    H223908   5.460   5.011   3.748
 7982TIP3   OH223909   1.601   0.591   3.079
 7982TIP3    H123910   1.576   0.506   3.113
 7982TIP3    H223911   1.558   0.654   3.138
 7983TIP3   OH223912   5.007   2.238   3.792
 7983TIP3    H123913   4.991   2.167   3.855
 7983TIP3    H223914   5.024   2.193   3.709
 7984TIP3   OH223915   4.952   3.904   0.059
 7984TIP3    H123916   4.857   3.897   0.073
 7984TIP3    H223917   4.984   3.814   0.069
 7985TIP3   OH223918   4.191   3.406   3.074
 7985TIP3    H123919   4.214   3.463   3.001
 7985TIP3    H223920   4.265   3.413   3.134
 7986TIP3   OH223921   0.610   2.790   2.549
 7986TIP3    H123922   0.570   2.713   2.587
 7986TIP3    H223923   0.704   2.780   2.565
 7987TIP3   OH223924   3.675   6.232   1.325
 7987TIP3    H123925   3.603   6.175   1.298
 7987TIP3    H223926   3.753   6.176   1.322
 7988TIP3   OH223927   1.443   6.221   5.654
 7988TIP3    H123928   1.479   6.289   5.711
 7988TIP3    H223929   1.354   6.207   5.686
 7989TIP3   OH223930   3.758   6.708   2.040
 7989TIP3    H123931   3.703   6.767   1.990
 7989TIP3    H223932   3.799   6.651   1.975
 7990TIP3   OH223933   1.250   0.770   2.465
 7990TIP3    H123934   1.265   0.678   2.446
 7990TIP3    H223935   1.215   0.807   2.384
 7991TIP3   OH223936   1.597   1.208   3.463
 7991TIP3    H123937   1.551   1.291   3.447
 7991TIP3    H223938   1.645   1.223   3.544
 7992TIP3   OH223939   4.723   2.255   1.204
 7992TIP3    H123940   4.642   2.279   1.159
 7992TIP3    H223941   4.699   2.178   1.256
 7993TIP3   OH223942   4.898   6.707   3.869
 7993TIP3    H123943   4.948   6.767   3.925
 7993TIP3    H223944   4.813   6.749   3.859
 7994TIP3   OH223945   1.121   2.013   0.770
 7994TIP3    H123946   1.073   1.930   0.774
 7994TIP3    H223947   1.053   2.079   0.757
 7995TIP3   OH223948   0.806   2.798   3.647
 7995TIP3    H123949   0.771   2.886   3.653
 7995TIP3    H223950   0.737   2.742   3.683
 7996TIP3   OH223951   6.099   2.894   3.166
 7996TIP3    H123952   6.011   2.933   3.166
 7996TIP3    H223953   6.094   2.822   3.229
 7997TIP3   OH223954   1.792   4.595   1.179
 7997TIP3    H123955   1.713   4.576   1.229
 7997TIP3    H223956   1.766   4.662   1.116
 7998TIP3   OH223957   3.531   0.692   3.427
 7998TIP3    H123958   3.593   0.730   3.365
 7998TIP3    H223959   3.579   0.619   3.467
 7999TIP3   OH223960   6.890   5.345   4.937
 7999TIP3    H123961   6.965   5.296   4.903
 7999TIP3    H223962   6.815   5.309   4.890
 8000TIP3   OH223963   5.281   5.068   5.670
 8000TIP3    H123964   5.226   5.146   5.674
 8000TIP3    H223965   5.282   5.045   5.577
 8001TIP3   OH223966   6.011   2.985   1.035
 8001TIP3    H123967   5.931   3.024   1.070
 8001TIP3    H223968   6.044   2.931   1.107
 8002TIP3   OH223969   0.783   0.378   3.578
 8002TIP3    H123970   0.693   0.396   3.553
 8002TIP3    H223971   0.821   0.464   3.594
 8003TIP3   OH223972   5.343   4.740   2.187
 8003TIP3    H123973   5.360   4.794   2.264
 8003TIP3    H223974   5.264   4.690   2.210
 8004TIP3   OH223975   4.403   4.240   4.093
 8004TIP3    H123976   4.494   4.270   4.097
 8004TIP3    H223977   4.352   4.319   4.075
 8005TIP3   OH223978   1.483   1.228   3.747
 8005TIP3    H123979   1.506   1.139   3.774
 8005TIP3    H223980   1.566   1.268   3.723
 8006TIP3   OH223981   2.918   4.813   3.217
 8006TIP3    H123982   2.967   4.895   3.228
 8006TIP3    H223983   2.905   4.806   3.122
 8007TIP3   OH223984   3.901   0.525   0.976
 8007TIP3    H123985   3.923   0.618   0.984
 8007TIP3    H223986   3.937   0.499   0.892
 8008TIP3   OH223987   2.265   2.303   2.548
 8008TIP3    H123988   2.347   2.261   2.521
 8008TIP3    H223989   2.196   2.253   2.504
 8009TIP3   OH223990   3.369   1.483   2.382
 8009TIP3    H123991   3.282   1.472   2.343
 8009TIP3    H223992   3.429   1.456   2.313
 8010TIP3   OH223993   5.140   5.995   4.546
 8010TIP3    H123994   5.063   5.941   4.527
 8010TIP3    H223995   5.165   6.030   4.461
 8011TIP3   OH223996   0.826   1.737   2.834
 8011TIP3    H123997   0.731   1.751   2.840
 8011TIP3    H223998   0.864   1.825   2.838
 8012TIP3   OH223999   4.273   4.661   1.220
 8012TIP3    H124000   4.229   4.725   1.164
 8012TIP3    H224001   4.363   4.693   1.227
 8013TIP3   OH224002   3.262   1.926   0.837
 8013TIP3    H124003   3.344   1.949   0.793
 8013TIP3    H224004   3.196   1.934   0.769
 8014TIP3   OH224005   0.781   5.903   4.889
 8014TIP3    H124006   0.696   5.883   4.928
 8014TIP3    H224007   0.839   5.835   4.924
 8015TIP3   OH224008   0.165   2.379   2.708
 8015TIP3    H124009   0.219   2.326   2.649
 8015TIP3    H224010   0.105   2.427   2.649
 8016TIP3   OH224011   6.975   5.134   2.616
 8016TIP3    H124012   6.957   5.226   2.595
 8016TIP3    H224013   7.049   5.137   2.677
 8017TIP3   OH224014   2.895   2.605   3.229
 8017TIP3    H124015   2.881   2.684   3.283
 8017TIP3    H224016   2.820   2.549   3.248
 8018TIP3   OH224017   4.866   6.689   2.694
 8018TIP3    H124018   4.856   6.605   2.649
 8018TIP3    H224019   4.871   6.666   2.787
 8019TIP3   OH224020   3.930   3.775   4.805
 8019TIP3    H124021   3.839   3.797   4.827
 8019TIP3    H224022   3.923   3.707   4.738
 8020TIP3   OH224023   0.016   0.572   2.935
 8020TIP3    H124024   0.089   0.623   2.970
 8020TIP3    H224025   0.057   0.508   2.876
 8021TIP3   OH224026   5.602   4.828   3.924
 8021TIP3    H124027   5.620   4.911   3.967
 8021TIP3    H224028   5.515   4.803   3.956
 8022TIP3   OH224029   2.426   2.472   4.714
 8022TIP3    H124030   2.518   2.453   4.734
 8022TIP3    H224031   2.395   2.395   4.666
 8023TIP3   OH224032   3.141   5.151   1.384
 8023TIP3    H124033   3.166   5.128   1.473
 8023TIP3    H224034   3.220   5.137   1.332
 8024TIP3   OH224035   5.153   4.425   4.989
 8024TIP3    H124036   5.159   4.512   5.029
 8024TIP3    H224037   5.194   4.436   4.903
 8025TIP3   OH224038   4.191   6.037   0.105
 8025TIP3    H124039   4.284   6.039   0.125
 8025TIP3    H224040   4.184   6.082   0.021
 8026TIP3   OH224041   4.063   1.335   4.074
 8026TIP3    H124042   4.156   1.354   4.088
 8026TIP3    H224043   4.053   1.333   3.979
 8027TIP3   OH224044   3.047   2.910   0.036
 8027TIP3    H124045   3.022   2.832   0.084
 8027TIP3    H224046   2.976   2.924  -0.027
 8028TIP3   OH224047   6.572   5.407   4.052
 8028TIP3    H124048   6.518   5.426   3.975
 8028TIP3    H224049   6.516   5.353   4.107
 8029TIP3   OH224050   0.945   2.386   0.287
 8029TIP3    H124051   0.962   2.336   0.366
 8029TIP3    H224052   0.962   2.325   0.215
 8030TIP3   OH224053   4.048   5.365   0.194
 8030TIP3    H124054   4.072   5.307   0.267
 8030TIP3    H224055   4.084   5.322   0.116
 8031TIP3   OH224056   6.374   2.069   4.576
 8031TIP3    H124057   6.392   2.163   4.569
 8031TIP3    H224058   6.425   2.029   4.506
 8032TIP3   OH224059   0.271   6.470   2.370
 8032TIP3    H124060   0.328   6.539   2.334
 8032TIP3    H224061   0.323   6.390   2.364
 8033TIP3   OH224062   7.120   3.387   0.280
 8033TIP3    H124063   7.046   3.348   0.326
 8033TIP3    H224064   7.164   3.312   0.239
 8034TIP3   OH224065   0.637   5.782   4.048
 8034TIP3    H124066   0.605   5.871   4.033
 8034TIP3    H224067   0.671   5.754   3.962
 8035TIP3   OH224068   5.076   1.529   5.807
 8035TIP3    H124069   5.095   1.449   5.857
 8035TIP3    H224070   5.125   1.518   5.726
 8036TIP3   OH224071   5.549   4.720   0.948
 8036TIP3    H124072   5.490   4.668   1.002
 8036TIP3    H224073   5.572   4.795   1.004
 8037TIP3   OH224074   0.156   4.676   3.085
 8037TIP3    H124075   0.199   4.624   3.152
 8037TIP3    H224076   0.098   4.615   3.040
 8038TIP3   OH224077   6.888   5.556   0.622
 8038TIP3    H124078   6.815   5.607   0.657
 8038TIP3    H224079   6.955   5.561   0.690
 8039TIP3   OH224080   4.550   3.602   4.322
 8039TIP3    H124081   4.545   3.548   4.244
 8039TIP3    H224082   4.640   3.592   4.353
 8040TIP3   OH224083   5.537   0.204   0.175
 8040TIP3    H124084   5.461   0.247   0.135
 8040TIP3    H224085   5.511   0.190   0.266
 8041TIP3   OH224086   3.691   1.333  -0.013
 8041TIP3    H124087   3.637   1.255  -0.027
 8041TIP3    H224088   3.723   1.324   0.076
 8042TIP3   OH224089   7.161   5.728   1.402
 8042TIP3    H124090   7.109   5.651   1.427
 8042TIP3    H224091   7.098   5.785   1.357
 8043TIP3   OH224092   3.033   3.018   0.838
 8043TIP3    H124093   2.997   2.983   0.757
 8043TIP3    H224094   3.061   3.107   0.816
 8044TIP3   OH224095   4.389   1.746   1.428
 8044TIP3    H124096   4.480   1.721   1.443
 8044TIP3    H224097   4.350   1.670   1.384
 8045TIP3   OH224098   0.546   4.032   2.978
 8045TIP3    H124099   0.571   3.941   2.962
 8045TIP3    H224100   0.616   4.084   2.940
 8046TIP3   OH224101   2.113   0.376   1.404
 8046TIP3    H124102   2.180   0.396   1.338
 8046TIP3    H224103   2.033   0.360   1.353
 8047TIP3   OH224104   3.313   0.447   5.910
 8047TIP3    H124105   3.349   0.389   5.843
 8047TIP3    H224106   3.248   0.501   5.864
 8048TIP3   OH224107   3.821   1.803   0.320
 8048TIP3    H124108   3.866   1.742   0.261
 8048TIP3    H224109   3.889   1.833   0.381
 8049TIP3   OH224110   4.059   5.082   4.807
 8049TIP3    H124111   4.068   5.171   4.773
 8049TIP3    H224112   4.016   5.034   4.736
 8050TIP3   OH224113   0.059   3.994   0.248
 8050TIP3    H124114   0.007   4.060   0.293
 8050TIP3    H224115   0.126   4.043   0.202
 8051TIP3   OH224116   0.798   1.088   1.621
 8051TIP3    H124117   0.805   0.996   1.594
 8051TIP3    H224118   0.848   1.136   1.555
 8052TIP3   OH224119   3.353   0.455   0.936
 8052TIP3    H124120   3.400   0.376   0.911
 8052TIP3    H224121   3.260   0.431   0.928
 8053TIP3   OH224122   4.420   0.136   0.098
 8053TIP3    H124123   4.356   0.075   0.136
 8053TIP3    H224124   4.477   0.159   0.170
 8054TIP3   OH224125   2.663   0.556   4.701
 8054TIP3    H124126   2.704   0.469   4.703
 8054TIP3    H224127   2.735   0.616   4.681
 8055TIP3   OH224128   0.710   6.215   5.407
 8055TIP3    H124129   0.800   6.225   5.375
 8055TIP3    H224130   0.665   6.170   5.335
 8056TIP3   OH224131   4.299   6.591   5.600
 8056TIP3    H124132   4.286   6.591   5.506
 8056TIP3    H224133   4.324   6.681   5.621
 8057TIP3   OH224134   1.882   4.873   5.826
 8057TIP3    H124135   1.836   4.924   5.760
 8057TIP3    H224136   1.920   4.800   5.779
 8058TIP3   OH224137   5.947  -0.026   3.333
 8058TIP3    H124138   6.041  -0.024   3.352
 8058TIP3    H224139   5.921   0.066   3.331
 8059TIP3   OH224140   6.560   3.801   0.189
 8059TIP3    H124141   6.477   3.846   0.172
 8059TIP3    H224142   6.578   3.754   0.108
 8060TIP3   OH224143   3.411   6.428   0.178
 8060TIP3    H124144   3.361   6.421   0.259
 8060TIP3    H224145   3.479   6.492   0.197
 8061TIP3   OH224146   6.519   2.803   3.852
 8061TIP3    H124147   6.482   2.848   3.928
 8061TIP3    H224148   6.537   2.873   3.789
 8062TIP3   OH224149   4.602   0.407   1.923
 8062TIP3    H124150   4.675   0.428   1.865
 8062TIP3    H224151   4.524   0.433   1.873
 8063TIP3   OH224152   3.232   4.403   0.965
 8063TIP3    H124153   3.267   4.320   0.997
 8063TIP3    H224154   3.137   4.395   0.976
 8064TIP3   OH224155   5.580   1.526   0.105
 8064TIP3    H124156   5.587   1.529   0.009
 8064TIP3    H224157   5.554   1.615   0.130
 8065TIP3   OH224158   4.158   0.191   2.551
 8065TIP3    H124159   4.223   0.129   2.583
 8065TIP3    H224160   4.205   0.243   2.485
 8066TIP3   OH224161   5.127   4.296   0.099
 8066TIP3    H124162   5.095   4.372   0.148
 8066TIP3    H224163   5.115   4.320   0.007
 8067TIP3   OH224164   0.383   1.331   4.837
 8067TIP3    H124165   0.409   1.298   4.752
 8067TIP3    H224166   0.397   1.258   4.897
 8068TIP3   OH224167   3.206   5.858   4.205
 8068TIP3    H124168   3.125   5.846   4.254
 8068TIP3    H224169   3.178   5.865   4.114
 8069TIP3   OH224170   3.057   4.496   0.692
 8069TIP3    H124171   2.996   4.549   0.744
 8069TIP3    H224172   3.040   4.406   0.720
 8070TIP3   OH224173   5.872   2.145   1.330
 8070TIP3    H124174   5.777   2.142   1.315
 8070TIP3    H224175   5.909   2.157   1.243
 8071TIP3   OH224176   6.559   1.454   2.047
 8071TIP3    H124177   6.520   1.531   2.006
 8071TIP3    H224178   6.520   1.380   2.001
 8072TIP3   OH224179   2.725   3.987   3.786
 8072TIP3    H124180   2.658   3.974   3.853
 8072TIP3    H224181   2.744   3.899   3.754
 8073TIP3   OH224182   1.711   2.385   5.163
 8073TIP3    H124183   1.797   2.344   5.164
 8073TIP3    H224184   1.728   2.477   5.182
 8074TIP3   OH224185   2.208   6.032   2.722
 8074TIP3    H124186   2.122   6.051   2.686
 8074TIP3    H224187   2.195   6.031   2.817
 8075TIP3   OH224188   4.445   0.849   4.619
 8075TIP3    H124189   4.494   0.857   4.537
 8075TIP3    H224190   4.506   0.807   4.680
 8076TIP3   OH224191   4.775   2.402   3.311
 8076TIP3    H124192   4.709   2.470   3.323
 8076TIP3    H224193   4.848   2.428   3.367
 8077TIP3   OH224194   6.182   4.148   2.529
 8077TIP3    H124195   6.256   4.162   2.588
 8077TIP3    H224196   6.105   4.153   2.585
 8078TIP3   OH224197   4.960   6.463   5.111
 8078TIP3    H124198   4.999   6.453   5.198
 8078TIP3    H224199   4.985   6.552   5.084
 8079TIP3   OH224200   1.861   6.019   4.763
 8079TIP3    H124201   1.900   6.000   4.678
 8079TIP3    H224202   1.779   5.969   4.764
 8080TIP3   OH224203   2.311   0.617   4.139
 8080TIP3    H124204   2.217   0.600   4.149
 8080TIP3    H224205   2.352   0.563   4.206
 8081TIP3   OH224206   2.152   1.682   1.290
 8081TIP3    H124207   2.162   1.775   1.269
 8081TIP3    H224208   2.141   1.639   1.205
 8082TIP3   OH224209   2.088   4.492   0.911
 8082TIP3    H124210   2.012   4.449   0.872
 8082TIP3    H224211   2.101   4.448   0.995
 8083TIP3   OH224212   1.204   5.343   5.598
 8083TIP3    H124213   1.200   5.247   5.589
 8083TIP3    H224214   1.130   5.365   5.653
 8084TIP3   OH224215   4.001   4.164   1.291
 8084TIP3    H124216   4.058   4.239   1.276
 8084TIP3    H224217   3.963   4.179   1.378
 8085TIP3   OH224218   4.072   4.600   3.971
 8085TIP3    H124219   4.080   4.658   4.047
 8085TIP3    H224220   3.994   4.630   3.925
 8086TIP3   OH224221   4.886   6.082   2.133
 8086TIP3    H124222   4.909   6.016   2.068
 8086TIP3    H224223   4.927   6.162   2.102
 8087TIP3   OH224224   0.786   5.628   5.020
 8087TIP3    H124225   0.753   5.549   4.977
 8087TIP3    H224226   0.775   5.610   5.113
 8088TIP3   OH224227   5.551   4.180   4.200
 8088TIP3    H124228   5.614   4.110   4.184
 8088TIP3    H224229   5.584   4.254   4.149
 8089TIP3   OH224230   5.315   3.016   4.875
 8089TIP3    H124231   5.329   3.083   4.942
 8089TIP3    H224232   5.235   3.044   4.831
 8090TIP3   OH224233   1.300   2.286   3.900
 8090TIP3    H124234   1.299   2.248   3.988
 8090TIP3    H224235   1.347   2.368   3.910
 8091TIP3   OH224236   0.811   3.153   1.799
 8091TIP3    H124237   0.820   3.105   1.882
 8091TIP3    H224238   0.820   3.086   1.732
 8092TIP3   OH224239   3.566   3.680   4.396
 8092TIP3    H124240   3.528   3.618   4.333
 8092TIP3    H224241   3.660   3.664   4.390
 8093TIP3   OH224242   6.731   0.647   1.605
 8093TIP3    H124243   6.641   0.680   1.596
 8093TIP3    H224244   6.722   0.552   1.596
 8094TIP3   OH224245   3.823   6.862   3.330
 8094TIP3    H124246   3.868   6.879   3.413
 8094TIP3    H224247   3.893   6.838   3.269
 8095TIP3   OH224248   3.859   1.035   1.819
 8095TIP3    H124249   3.811   0.963   1.779
 8095TIP3    H224250   3.881   1.093   1.746
 8096TIP3   OH224251   5.541   4.943   5.587
 8096TIP3    H124252   5.478   4.875   5.561
 8096TIP3    H224253   5.505   5.024   5.551
 8097TIP3   OH224254   4.385   5.802   1.160
 8097TIP3    H124255   4.395   5.825   1.253
 8097TIP3    H224256   4.474   5.786   1.130
 8098TIP3   OH224257   3.112   3.512   5.655
 8098TIP3    H124258   3.119   3.443   5.589
 8098TIP3    H224259   3.172   3.580   5.625
 8099TIP3   OH224260   6.873   6.282   0.215
 8099TIP3    H124261   6.965   6.275   0.241
 8099TIP3    H224262   6.844   6.365   0.253
 8100TIP3   OH224263   5.288   5.759   3.727
 8100TIP3    H124264   5.240   5.768   3.810
 8100TIP3    H224265   5.279   5.667   3.704
 8101TIP3   OH224266   5.461   5.240   2.621
 8101TIP3    H124267   5.527   5.304   2.595
 8101TIP3    H224268   5.511   5.160   2.636
 8102TIP3   OH224269   6.994   0.301   1.809
 8102TIP3    H124270   7.028   0.369   1.868
 8102TIP3    H224271   7.064   0.288   1.745
 8103TIP3   OH224272   2.567   6.757   4.818
 8103TIP3    H124273   2.647   6.754   4.764
 8103TIP3    H224274   2.572   6.840   4.864
 8104TIP3   OH224275   4.883   1.652  -0.034
 8104TIP3    H124276   4.970   1.687  -0.055
 8104TIP3    H224277   4.853   1.704   0.041
 8105TIP3   OH224278   1.476   2.892   4.026
 8105TIP3    H124279   1.537   2.832   4.070
 8105TIP3    H224280   1.517   2.908   3.941
 8106TIP3   OH224281   3.307   1.941   5.248
 8106TIP3    H124282   3.348   2.018   5.208
 8106TIP3    H224283   3.273   1.890   5.175
 8107TIP3   OH224284   6.621   0.283   1.943
 8107TIP3    H124285   6.666   0.271   1.859
 8107TIP3    H224286   6.579   0.368   1.936
 8108TIP3   OH224287   0.204   2.440   1.725
 8108TIP3    H124288   0.126   2.458   1.673
 8108TIP3    H224289   0.201   2.505   1.796
 8109TIP3   OH224290   7.087   4.157   1.344
 8109TIP3    H124291   7.075   4.082   1.286
 8109TIP3    H224292   7.012   4.213   1.325
 8110TIP3   OH224293   4.320   4.829   4.503
 8110TIP3    H124294   4.291   4.743   4.472
 8110TIP3    H224295   4.340   4.879   4.424
 8111TIP3   OH224296   2.783   0.709   2.589
 8111TIP3    H124297   2.844   0.652   2.543
 8111TIP3    H224298   2.724   0.742   2.521
 8112TIP3   OH224299   3.754   4.086   4.301
 8112TIP3    H124300   3.802   4.024   4.356
 8112TIP3    H224301   3.742   4.163   4.357
 8113TIP3   OH224302   7.012   4.126   3.057
 8113TIP3    H124303   7.105   4.106   3.069
 8113TIP3    H224304   6.977   4.048   3.013
 8114TIP3   OH224305   5.530   0.090   4.567
 8114TIP3    H124306   5.589   0.106   4.493
 8114TIP3    H224307   5.556   0.155   4.633
 8115TIP3   OH224308   3.084   4.473   0.391
 8115TIP3    H124309   3.056   4.443   0.477
 8115TIP3    H224310   3.130   4.555   0.408
 8116TIP3   OH224311   2.375   1.533   1.355
 8116TIP3    H124312   2.291   1.574   1.333
 8116TIP3    H224313   2.356   1.439   1.354
 8117TIP3   OH224314   4.585   5.254   0.439
 8117TIP3    H124315   4.677   5.230   0.429
 8117TIP3    H224316   4.571   5.324   0.376
 8118TIP3   OH224317   0.239   5.380   1.741
 8118TIP3    H124318   0.184   5.423   1.807
 8118TIP3    H224319   0.258   5.449   1.677
 8119TIP3   OH224320   1.960   2.044   4.498
 8119TIP3    H124321   2.006   1.990   4.562
 8119TIP3    H224322   1.991   2.133   4.515
 8120TIP3   OH224323   0.977   5.031   3.989
 8120TIP3    H124324   1.060   5.046   3.945
 8120TIP3    H224325   0.954   4.941   3.968
 8121TIP3   OH224326   7.177   2.585   5.324
 8121TIP3    H124327   7.252   2.546   5.279
 8121TIP3    H224328   7.168   2.534   5.404
 8122TIP3   OH224329   5.268   1.269   0.946
 8122TIP3    H124330   5.208   1.217   1.000
 8122TIP3    H224331   5.230   1.356   0.944
 8123TIP3   OH224332   0.064   5.223   4.160
 8123TIP3    H124333   0.033   5.190   4.244
 8123TIP3    H224334   0.056   5.149   4.100
 8124TIP3   OH224335   4.583   5.023   0.210
 8124TIP3    H124336   4.645   5.065   0.269
 8124TIP3    H224337   4.539   5.095   0.165
 8125TIP3   OH224338   0.477   0.958   0.864
 8125TIP3    H124339   0.490   0.878   0.812
 8125TIP3    H224340   0.548   1.015   0.838
 8126TIP3   OH224341   2.398   4.418   3.720
 8126TIP3    H124342   2.368   4.423   3.810
 8126TIP3    H224343   2.464   4.348   3.720
 8127TIP3   OH224344   4.824   4.942   1.951
 8127TIP3    H124345   4.730   4.961   1.952
 8127TIP3    H224346   4.837   4.899   1.866
 8128TIP3   OH224347   4.750   1.618   1.212
 8128TIP3    H124348   4.835   1.632   1.255
 8128TIP3    H224349   4.737   1.696   1.159
 8129TIP3   OH224350   7.162   5.350   0.573
 8129TIP3    H124351   7.085   5.294   0.582
 8129TIP3    H224352   7.184   5.375   0.663
 8130TIP3   OH224353   1.458   0.786   3.211
 8130TIP3    H124354   1.520   0.832   3.268
 8130TIP3    H224355   1.387   0.848   3.198
 8131TIP3   OH224356   5.725   3.624   3.294
 8131TIP3    H124357   5.682   3.577   3.365
 8131TIP3    H224358   5.658   3.685   3.261
 8132TIP3   OH224359   6.862   6.529   2.960
 8132TIP3    H124360   6.834   6.449   2.915
 8132TIP3    H224361   6.792   6.546   3.023
 8133TIP3   OH224362   0.249   3.839   3.898
 8133TIP3    H124363   0.229   3.909   3.836
 8133TIP3    H224364   0.297   3.882   3.969
 8134TIP3   OH224365   4.301   6.528   5.318
 8134TIP3    H124366   4.380   6.570   5.282
 8134TIP3    H224367   4.318   6.434   5.308
 8135TIP3   OH224368   1.144   4.545   3.329
 8135TIP3    H124369   1.155   4.450   3.331
 8135TIP3    H224370   1.217   4.578   3.277
 8136TIP3   OH224371   2.850   0.232   2.296
 8136TIP3    H124372   2.899   0.235   2.378
 8136TIP3    H224373   2.917   0.246   2.228
 8137TIP3   OH224374   6.354   0.283   0.380
 8137TIP3    H124375   6.413   0.261   0.308
 8137TIP3    H224376   6.384   0.229   0.453
 8138TIP3   OH224377   6.431   3.870   1.655
 8138TIP3    H124378   6.448   3.778   1.636
 8138TIP3    H224379   6.486   3.918   1.593
 8139TIP3   OH224380   5.478   0.195   2.702
 8139TIP3    H124381   5.520   0.167   2.620
 8139TIP3    H224382   5.412   0.128   2.719
 8140TIP3   OH224383   2.344   5.680   4.339
 8140TIP3    H124384   2.353   5.721   4.425
 8140TIP3    H224385   2.255   5.703   4.311
 8141TIP3   OH224386   2.475   2.797   3.974
 8141TIP3    H124387   2.476   2.887   4.007
 8141TIP3    H224388   2.403   2.796   3.910
 8142TIP3   OH224389   3.110   1.545   5.291
 8142TIP3    H124390   3.090   1.616   5.351
 8142TIP3    H224391   3.024   1.507   5.270
 8143TIP3   OH224392   6.867   5.032   3.004
 8143TIP3    H124393   6.942   5.065   2.956
 8143TIP3    H224394   6.869   4.937   2.990
 8144TIP3   OH224395   3.118   2.287   2.014
 8144TIP3    H124396   3.190   2.230   1.989
 8144TIP3    H224397   3.082   2.318   1.931
 8145TIP3   OH224398   1.466   1.399   3.959
 8145TIP3    H124399   1.456   1.344   3.881
 8145TIP3    H224400   1.388   1.455   3.959
 8146TIP3   OH224401   0.842   1.288   1.813
 8146TIP3    H124402   0.794   1.223   1.761
 8146TIP3    H224403   0.926   1.296   1.769
 8147TIP3   OH224404   0.743   0.046   0.779
 8147TIP3    H124405   0.666   0.096   0.805
 8147TIP3    H224406   0.766   0.081   0.694
 8148TIP3   OH224407   0.892   0.288   3.964
 8148TIP3    H124408   0.868   0.195   3.963
 8148TIP3    H224409   0.975   0.292   3.917
 8149TIP3   OH224410   4.081   5.005   5.647
 8149TIP3    H124411   3.988   5.018   5.627
 8149TIP3    H224412   4.093   4.911   5.645
 8150TIP3   OH224413   3.869   2.359   2.490
 8150TIP3    H124414   3.963   2.368   2.476
 8150TIP3    H224415   3.832   2.363   2.402
 8151TIP3   OH224416   5.379   0.317   4.382
 8151TIP3    H124417   5.415   0.391   4.431
 8151TIP3    H224418   5.455   0.278   4.339
 8152TIP3   OH224419   7.068   4.015   4.994
 8152TIP3    H124420   7.150   4.024   5.044
 8152TIP3    H224421   7.032   4.103   4.991
 8153TIP3   OH224422   4.444   5.361   3.544
 8153TIP3    H124423   4.365   5.324   3.503
 8153TIP3    H224424   4.452   5.448   3.505
 8154TIP3   OH224425   2.888   2.863   4.086
 8154TIP3    H124426   2.982   2.878   4.080
 8154TIP3    H224427   2.876   2.774   4.051
 8155TIP3   OH224428   6.837   4.263   2.725
 8155TIP3    H124429   6.821   4.224   2.640
 8155TIP3    H224430   6.811   4.195   2.788
 8156TIP3   OH224431   0.325   0.575   0.416
 8156TIP3    H124432   0.316   0.601   0.508
 8156TIP3    H224433   0.300   0.482   0.415
 8157TIP3   OH224434   3.026   2.349   0.119
 8157TIP3    H124435   3.105   2.309   0.156
 8157TIP3    H224436   2.954   2.307   0.166
 8158TIP3   OH224437   0.475   6.789   3.734
 8158TIP3    H124438   0.471   6.694   3.720
 8158TIP3    H224439   0.388   6.811   3.769
 8159TIP3   OH224440   1.306   0.194   4.905
 8159TIP3    H124441   1.337   0.148   4.827
 8159TIP3    H224442   1.213   0.208   4.890
 8160TIP3   OH224443   4.304   5.851   3.257
 8160TIP3    H124444   4.353   5.814   3.330
 8160TIP3    H224445   4.290   5.776   3.198
 8161TIP3   OH224446   6.787   4.919   2.623
 8161TIP3    H124447   6.850   4.987   2.596
 8161TIP3    H224448   6.786   4.857   2.551
 8162TIP3   OH224449   6.739   3.927   3.156
 8162TIP3    H124450   6.822   3.894   3.123
 8162TIP3    H224451   6.723   3.878   3.236
 8163TIP3   OH224452   1.827   5.640   1.604
 8163TIP3    H124453   1.744   5.679   1.575
 8163TIP3    H224454   1.890   5.667   1.537
 8164TIP3   OH224455   4.878   3.313   1.465
 8164TIP3    H124456   4.860   3.255   1.539
 8164TIP3    H224457   4.965   3.350   1.483
 8165TIP3   OH224458   2.543   4.793   0.066
 8165TIP3    H124459   2.597   4.868   0.091
 8165TIP3    H224460   2.496   4.770   0.146
 8166TIP3   OH224461   5.423   1.915   2.946
 8166TIP3    H124462   5.453   1.856   3.015
 8166TIP3    H224463   5.488   1.906   2.877
 8167TIP3   OH224464   4.744   0.177   2.055
 8167TIP3    H124465   4.669   0.125   2.084
 8167TIP3    H224466   4.707   0.264   2.036
 8168TIP3   OH224467   2.877   5.303   1.320
 8168TIP3    H124468   2.945   5.240   1.347
 8168TIP3    H224469   2.880   5.301   1.224
 8169TIP3   OH224470   5.808   5.491   5.073
 8169TIP3    H124471   5.897   5.488   5.107
 8169TIP3    H224472   5.759   5.430   5.127
 8170TIP3   OH224473   6.661   4.754   5.575
 8170TIP3    H124474   6.585   4.807   5.599
 8170TIP3    H224475   6.633   4.664   5.592
 8171TIP3   OH224476   0.870   3.906   3.023
 8171TIP3    H124477   0.847   3.923   3.114
 8171TIP3    H224478   0.877   3.993   2.984
 8172TIP3   OH224479   0.131   5.926   5.000
 8172TIP3    H124480   0.128   6.003   4.944
 8172TIP3    H224481   0.092   5.856   4.948
 8173TIP3   OH224482   3.149   3.659   3.590
 8173TIP3    H124483   3.152   3.754   3.600
 8173TIP3    H224484   3.122   3.645   3.499
 8174TIP3   OH224485   5.439   4.484   5.431
 8174TIP3    H124486   5.504   4.508   5.497
 8174TIP3    H224487   5.428   4.389   5.442
 8175TIP3   OH224488   2.655   6.704   0.541
 8175TIP3    H124489   2.570   6.680   0.578
 8175TIP3    H224490   2.707   6.733   0.617
 8176TIP3   OH224491   4.119   2.991   1.266
 8176TIP3    H124492   4.039   2.981   1.214
 8176TIP3    H224493   4.105   3.070   1.317
 8177TIP3   OH224494   1.921   2.700   4.845
 8177TIP3    H124495   1.906   2.788   4.811
 8177TIP3    H224496   1.886   2.703   4.935
 8178TIP3   OH224497   3.597   5.766   4.373
 8178TIP3    H124498   3.510   5.732   4.394
 8178TIP3    H224499   3.605   5.751   4.278
 8179TIP3   OH224500   4.338   2.142   5.061
 8179TIP3    H124501   4.278   2.124   4.988
 8179TIP3    H224502   4.321   2.072   5.124
 8180TIP3   OH224503   1.275   1.566   1.706
 8180TIP3    H124504   1.251   1.620   1.630
 8180TIP3    H224505   1.277   1.628   1.779
 8181TIP3   OH224506   6.683   5.783   3.520
 8181TIP3    H124507   6.616   5.847   3.544
 8181TIP3    H224508   6.708   5.806   3.430
 8182TIP3   OH224509   0.352   3.904   2.497
 8182TIP3    H124510   0.343   3.824   2.447
 8182TIP3    H224511   0.328   3.879   2.586
 8183TIP3   OH224512   2.608   3.498   5.785
 8183TIP3    H124513   2.607   3.403   5.796
 8183TIP3    H224514   2.700   3.522   5.788
 8184TIP3   OH224515   6.114   1.495   2.770
 8184TIP3    H124516   6.075   1.482   2.684
 8184TIP3    H224517   6.079   1.423   2.823
 8185TIP3   OH224518   6.302   5.566   1.107
 8185TIP3    H124519   6.364   5.563   1.179
 8185TIP3    H224520   6.278   5.475   1.092
 8186TIP3   OH224521   3.080   1.066   5.414
 8186TIP3    H124522   3.109   1.025   5.495
 8186TIP3    H224523   3.144   1.135   5.397
 8187TIP3   OH224524   2.910   5.684   3.437
 8187TIP3    H124525   2.946   5.698   3.350
 8187TIP3    H224526   2.911   5.588   3.448
 8188TIP3   OH224527   1.581   5.262   0.809
 8188TIP3    H124528   1.636   5.227   0.739
 8188TIP3    H224529   1.621   5.346   0.830
 8189TIP3   OH224530   2.777   5.935   5.878
 8189TIP3    H124531   2.770   5.840   5.881
 8189TIP3    H224532   2.857   5.952   5.828
 8190TIP3   OH224533   5.185   0.441   2.331
 8190TIP3    H124534   5.233   0.463   2.411
 8190TIP3    H224535   5.198   0.516   2.273
 8191TIP3   OH224536   1.785   4.662   3.554
 8191TIP3    H124537   1.724   4.665   3.627
 8191TIP3    H224538   1.815   4.571   3.551
 8192TIP3   OH224539   5.978   3.845   5.570
 8192TIP3    H124540   6.038   3.801   5.631
 8192TIP3    H224541   5.989   3.799   5.487
 8193TIP3   OH224542   0.551   1.025   0.059
 8193TIP3    H124543   0.479   0.984   0.012
 8193TIP3    H224544   0.511   1.061   0.138
 8194TIP3   OH224545   5.551   4.356   4.897
 8194TIP3    H124546   5.520   4.378   4.985
 8194TIP3    H224547   5.646   4.358   4.903
 8195TIP3   OH224548   1.508   6.096   5.411
 8195TIP3    H124549   1.489   6.132   5.498
 8195TIP3    H224550   1.583   6.039   5.425
 8196TIP3   OH224551   1.002   6.256   1.050
 8196TIP3    H124552   0.930   6.282   0.992
 8196TIP3    H224553   1.048   6.338   1.069
 8197TIP3   OH224554   3.140   3.120   4.563
 8197TIP3    H124555   3.125   3.070   4.483
 8197TIP3    H224556   3.225   3.090   4.596
 8198TIP3   OH224557   1.821   5.972   0.448
 8198TIP3    H124558   1.773   5.894   0.423
 8198TIP3    H224559   1.905   5.940   0.482
 8199TIP3   OH224560   4.974   2.509   3.796
 8199TIP3    H124561   4.992   2.421   3.829
 8199TIP3    H224562   5.060   2.542   3.770
 8200TIP3   OH224563   1.673   6.394   0.845
 8200TIP3    H124564   1.609   6.444   0.793
 8200TIP3    H224565   1.753   6.399   0.794
 8201TIP3   OH224566   0.967   0.631   1.981
 8201TIP3    H124567   1.055   0.659   2.006
 8201TIP3    H224568   0.981   0.555   1.924
 8202TIP3   OH224569   6.005   5.965   2.390
 8202TIP3    H124570   5.993   5.870   2.384
 8202TIP3    H224571   5.955   6.001   2.317
 8203TIP3   OH224572   5.936   2.137   0.066
 8203TIP3    H124573   5.989   2.058   0.064
 8203TIP3    H224574   5.978   2.193   0.132
 8204TIP3   OH224575   7.102   6.017   2.878
 8204TIP3    H124576   7.076   6.109   2.865
 8204TIP3    H224577   7.165   6.020   2.950
 8205TIP3   OH224578   4.903   2.948   5.065
 8205TIP3    H124579   4.991   2.924   5.096
 8205TIP3    H224580   4.901   3.044   5.072
 8206TIP3   OH224581   6.250   0.194   1.885
 8206TIP3    H124582   6.262   0.247   1.963
 8206TIP3    H224583   6.182   0.131   1.909
 8207TIP3   OH224584   2.225   2.192   1.253
 8207TIP3    H124585   2.145   2.204   1.305
 8207TIP3    H224586   2.204   2.119   1.195
 8208TIP3   OH224587   1.783   4.560   5.312
 8208TIP3    H124588   1.872   4.570   5.346
 8208TIP3    H224589   1.769   4.465   5.310
 8209TIP3   OH224590   1.363   0.719   5.027
 8209TIP3    H124591   1.366   0.641   5.082
 8209TIP3    H224592   1.442   0.714   4.973
 8210TIP3   OH224593   1.125   5.205   0.659
 8210TIP3    H124594   1.153   5.212   0.751
 8210TIP3    H224595   1.042   5.251   0.656
 8211TIP3   OH224596   4.329   5.926   5.405
 8211TIP3    H124597   4.273   5.931   5.327
 8211TIP3    H224598   4.321   5.834   5.433
 8212TIP3   OH224599   6.817   0.439   3.320
 8212TIP3    H124600   6.902   0.468   3.286
 8212TIP3    H224601   6.761   0.516   3.314
 8213TIP3   OH224602   6.950   5.653   5.576
 8213TIP3    H124603   6.915   5.586   5.516
 8213TIP3    H224604   7.042   5.628   5.588
 8214TIP3   OH224605   2.674   3.007   4.986
 8214TIP3    H124606   2.652   3.097   4.961
 8214TIP3    H224607   2.589   2.966   5.004
 8215TIP3   OH224608   4.718   2.509   3.948
 8215TIP3    H124609   4.637   2.527   3.900
 8215TIP3    H224610   4.782   2.487   3.881
 8216TIP3   OH224611   6.477   1.018   1.074
 8216TIP3    H124612   6.526   0.988   0.998
 8216TIP3    H224613   6.521   0.979   1.149
 8217TIP3   OH224614   0.274   2.339   2.030
 8217TIP3    H124615   0.350   2.388   2.060
 8217TIP3    H224616   0.233   2.308   2.111
 8218TIP3   OH224617   1.414   5.588   4.812
 8218TIP3    H124618   1.360   5.567   4.736
 8218TIP3    H224619   1.502   5.562   4.786
 8219TIP3   OH224620   0.113   5.692   2.475
 8219TIP3    H124621   0.145   5.625   2.415
 8219TIP3    H224622   0.169   5.768   2.458
 8220TIP3   OH224623   1.128   4.675   1.078
 8220TIP3    H124624   1.168   4.726   1.007
 8220TIP3    H224625   1.036   4.704   1.079
 8221TIP3   OH224626   2.216   2.994   5.307
 8221TIP3    H124627   2.183   2.959   5.390
 8221TIP3    H224628   2.179   2.937   5.240
 8222TIP3   OH224629   6.196   0.980   5.561
 8222TIP3    H124630   6.197   0.921   5.486
 8222TIP3    H224631   6.115   0.960   5.608
 8223TIP3   OH224632   3.837   0.645   3.746
 8223TIP3    H124633   3.794   0.620   3.827
 8223TIP3    H224634   3.806   0.582   3.681
 8224TIP3   OH224635   1.627   1.199   0.893
 8224TIP3    H124636   1.545   1.156   0.916
 8224TIP3    H224637   1.686   1.178   0.965
 8225TIP3   OH224638   2.062   0.817   4.819
 8225TIP3    H124639   2.138   0.867   4.791
 8225TIP3    H224640   2.097   0.747   4.873
 8226TIP3   OH224641   3.335   4.525   4.357
 8226TIP3    H124642   3.384   4.442   4.363
 8226TIP3    H224643   3.281   4.515   4.278
 8227TIP3   OH224644   4.280   2.480   0.399
 8227TIP3    H124645   4.292   2.430   0.319
 8227TIP3    H224646   4.193   2.454   0.431
 8228TIP3   OH224647   2.588   4.749   1.975
 8228TIP3    H124648   2.530   4.781   2.044
 8228TIP3    H224649   2.533   4.693   1.921
 8229TIP3   OH224650   4.154   0.600   2.533
 8229TIP3    H124651   4.248   0.606   2.548
 8229TIP3    H224652   4.146   0.594   2.438
 8230TIP3   OH224653   3.762   0.278   0.991
 8230TIP3    H124654   3.743   0.257   0.900
 8230TIP3    H224655   3.794   0.368   0.990
 8231TIP3   OH224656   1.583   2.329   1.681
 8231TIP3    H124657   1.528   2.265   1.726
 8231TIP3    H224658   1.639   2.277   1.623
 8232TIP3   OH224659   6.628   2.436   1.837
 8232TIP3    H124660   6.544   2.445   1.792
 8232TIP3    H224661   6.687   2.400   1.772
 8233TIP3   OH224662   4.558   4.534   4.737
 8233TIP3    H124663   4.538   4.519   4.829
 8233TIP3    H224664   4.472   4.539   4.694
 8234TIP3   OH224665   6.110   3.352   3.032
 8234TIP3    H124666   6.083   3.296   3.105
 8234TIP3    H224667   6.114   3.293   2.957
 8235TIP3   OH224668   3.788   0.156   5.266
 8235TIP3    H124669   3.728   0.087   5.293
 8235TIP3    H224670   3.799   0.143   5.171
 8236TIP3   OH224671   1.210   2.145   4.649
 8236TIP3    H124672   1.128   2.195   4.650
 8236TIP3    H224673   1.182   2.053   4.651
 8237TIP3   OH224674   6.855   3.321   0.401
 8237TIP3    H124675   6.844   3.412   0.373
 8237TIP3    H224676   6.775   3.300   0.448
 8238TIP3   OH224677   2.854   0.355   5.732
 8238TIP3    H124678   2.837   0.262   5.723
 8238TIP3    H224679   2.898   0.364   5.817
 8239TIP3   OH224680   0.742   0.150   5.390
 8239TIP3    H124681   0.813   0.186   5.335
 8239TIP3    H224682   0.679   0.221   5.397
 8240TIP3   OH224683   5.888   3.784   4.775
 8240TIP3    H124684   5.852   3.772   4.687
 8240TIP3    H224685   5.926   3.872   4.773
 8241TIP3   OH224686   5.447   5.335   5.141
 8241TIP3    H124687   5.466   5.320   5.048
 8241TIP3    H224688   5.386   5.266   5.165
 8242TIP3   OH224689   3.954   6.518   3.115
 8242TIP3    H124690   3.997   6.436   3.089
 8242TIP3    H224691   3.986   6.535   3.204
 8243TIP3   OH224692   5.137   0.881   2.010
 8243TIP3    H124693   5.147   0.966   1.966
 8243TIP3    H224694   5.143   0.817   1.939
 8244TIP3   OH224695   7.075   4.507   0.991
 8244TIP3    H124696   7.000   4.489   0.935
 8244TIP3    H224697   7.146   4.454   0.954
 8245TIP3   OH224698   6.626   3.701   5.111
 8245TIP3    H124699   6.660   3.696   5.200
 8245TIP3    H224700   6.590   3.790   5.104
 8246TIP3   OH224701   4.970   3.531   5.433
 8246TIP3    H124702   5.042   3.521   5.496
 8246TIP3    H224703   4.898   3.479   5.470
 8247TIP3   OH224704   0.097   2.632   3.252
 8247TIP3    H124705   0.104   2.691   3.177
 8247TIP3    H224706   0.018   2.581   3.235
 8248TIP3   OH224707   3.282   2.884   1.680
 8248TIP3    H124708   3.229   2.815   1.719
 8248TIP3    H224709   3.254   2.887   1.588
 8249TIP3   OH224710   5.524   6.159   2.490
 8249TIP3    H124711   5.470   6.145   2.568
 8249TIP3    H224712   5.568   6.076   2.475
 8250TIP3   OH224713   5.014   1.140   4.768
 8250TIP3    H124714   4.945   1.154   4.833
 8250TIP3    H224715   5.054   1.226   4.756
 8251TIP3   OH224716   4.994   0.047   2.096
 8251TIP3    H124717   4.917   0.103   2.104
 8251TIP3    H224718   4.978  -0.026   2.156
 8252TIP3   OH224719   0.651   4.517   0.478
 8252TIP3    H124720   0.639   4.429   0.444
 8252TIP3    H224721   0.638   4.509   0.572
 8253TIP3   OH224722   6.213   3.798   0.790
 8253TIP3    H124723   6.161   3.741   0.734
 8253TIP3    H224724   6.164   3.802   0.873
 8254TIP3   OH224725   1.172   4.121   3.984
 8254TIP3    H124726   1.098   4.094   3.929
 8254TIP3    H224727   1.190   4.043   4.037
 8255TIP3   OH224728   3.192   1.750   1.542
 8255TIP3    H124729   3.145   1.678   1.583
 8255TIP3    H224730   3.154   1.756   1.454
 8256TIP3   OH224731   1.072   0.319   1.099
 8256TIP3    H124732   1.156   0.317   1.144
 8256TIP3    H224733   1.049   0.412   1.096
 8257TIP3   OH224734   1.172   1.918   5.037
 8257TIP3    H124735   1.171   1.828   5.005
 8257TIP3    H224736   1.252   1.956   4.999
 8258TIP3   OH224737   5.061   0.647   4.636
 8258TIP3    H124738   5.019   0.733   4.629
 8258TIP3    H224739   5.015   0.592   4.573
 8259TIP3   OH224740   4.680   3.824   2.313
 8259TIP3    H124741   4.635   3.851   2.233
 8259TIP3    H224742   4.686   3.729   2.306
 8260TIP3   OH224743   3.521   6.047   5.185
 8260TIP3    H124744   3.472   6.109   5.132
 8260TIP3    H224745   3.613   6.071   5.172
 8261TIP3   OH224746   5.307   4.864   2.921
 8261TIP3    H124747   5.245   4.794   2.940
 8261TIP3    H224748   5.255   4.944   2.920
 8262TIP3   OH224749   1.175   5.072   5.492
 8262TIP3    H124750   1.098   5.082   5.436
 8262TIP3    H224751   1.160   4.990   5.539
 8263TIP3   OH224752   2.774   0.277   4.806
 8263TIP3    H124753   2.786   0.217   4.880
 8263TIP3    H224754   2.719   0.227   4.745
 8264TIP3   OH224755   2.605   4.474   2.490
 8264TIP3    H124756   2.624   4.558   2.449
 8264TIP3    H224757   2.543   4.431   2.431
 8265TIP3   OH224758   1.471   4.625   0.279
 8265TIP3    H124759   1.466   4.715   0.312
 8265TIP3    H224760   1.381   4.593   0.283
 8266TIP3   OH224761   1.355   6.651   1.454
 8266TIP3    H124762   1.424   6.619   1.394
 8266TIP3    H224763   1.390   6.732   1.490
 8267TIP3   OH224764   2.466   4.976   2.350
 8267TIP3    H124765   2.460   5.032   2.427
 8267TIP3    H224766   2.525   5.023   2.291
 8268TIP3   OH224767   2.913   1.987   2.452
 8268TIP3    H124768   2.943   2.074   2.425
 8268TIP3    H224769   2.877   1.999   2.540
 8269TIP3   OH224770   1.460   6.530   3.467
 8269TIP3    H124771   1.413   6.586   3.406
 8269TIP3    H224772   1.472   6.447   3.420
 8270TIP3   OH224773   6.081   1.010   3.559
 8270TIP3    H124774   5.989   0.990   3.543
 8270TIP3    H224775   6.125   0.986   3.478
 8271TIP3   OH224776   2.005   3.780   3.297
 8271TIP3    H124777   2.078   3.722   3.319
 8271TIP3    H224778   2.044   3.867   3.290
 8272TIP3   OH224779   2.228   2.842   3.522
 8272TIP3    H124780   2.245   2.926   3.479
 8272TIP3    H224781   2.314   2.813   3.552
 8273TIP3   OH224782   5.359   3.582   2.045
 8273TIP3    H124783   5.404   3.665   2.028
 8273TIP3    H224784   5.306   3.567   1.966
 8274TIP3   OH224785   2.895   5.592   0.985
 8274TIP3    H124786   2.843   5.672   0.976
 8274TIP3    H224787   2.936   5.579   0.899
 8275TIP3   OH224788   4.847   4.772   1.701
 8275TIP3    H124789   4.843   4.802   1.610
 8275TIP3    H224790   4.940   4.767   1.721
 8276TIP3   OH224791   5.062   2.773   1.701
 8276TIP3    H124792   5.102   2.714   1.765
 8276TIP3    H224793   4.981   2.802   1.742
 8277TIP3   OH224794   3.813   4.737   4.001
 8277TIP3    H124795   3.799   4.804   4.068
 8277TIP3    H224796   3.848   4.785   3.926
 8278TIP3   OH224797   0.567   5.279   2.013
 8278TIP3    H124798   0.497   5.248   1.956
 8278TIP3    H224799   0.549   5.373   2.025
 8279TIP3   OH224800   1.220   1.711   2.729
 8279TIP3    H124801   1.313   1.696   2.750
 8279TIP3    H224802   1.220   1.790   2.675
 8280TIP3   OH224803   0.724   3.442   4.303
 8280TIP3    H124804   0.722   3.498   4.225
 8280TIP3    H224805   0.632   3.436   4.330
 8281TIP3   OH224806   6.524   1.274   5.088
 8281TIP3    H124807   6.493   1.349   5.138
 8281TIP3    H224808   6.614   1.297   5.063
 8282TIP3   OH224809   0.696   5.889   0.281
 8282TIP3    H124810   0.787   5.886   0.251
 8282TIP3    H224811   0.692   5.821   0.349
 8283TIP3   OH224812   5.836   2.089   3.879
 8283TIP3    H124813   5.807   1.999   3.892
 8283TIP3    H224814   5.856   2.095   3.786
 8284TIP3   OH224815   1.438   1.455   0.723
 8284TIP3    H124816   1.373   1.387   0.742
 8284TIP3    H224817   1.485   1.467   0.805
 8285TIP3   OH224818   2.020   1.724   1.543
 8285TIP3    H124819   2.060   1.763   1.621
 8285TIP3    H224820   2.092   1.719   1.480
 8286TIP3   OH224821   6.532   6.252   4.350
 8286TIP3    H124822   6.504   6.302   4.427
 8286TIP3    H224823   6.542   6.163   4.381
 8287TIP3   OH224824   4.576   3.962   2.532
 8287TIP3    H124825   4.499   4.012   2.504
 8287TIP3    H224826   4.605   3.917   2.452
 8288TIP3   OH224827   4.822   1.945   2.515
 8288TIP3    H124828   4.795   2.037   2.524
 8288TIP3    H224829   4.892   1.935   2.579
 8289TIP3   OH224830   4.101   6.343   2.331
 8289TIP3    H124831   4.141   6.331   2.417
 8289TIP3    H224832   4.106   6.437   2.314
 8290TIP3   OH224833   0.122   2.323   5.238
 8290TIP3    H124834   0.190   2.332   5.170
 8290TIP3    H224835   0.172   2.308   5.318
 8291TIP3   OH224836   2.837   3.277   0.526
 8291TIP3    H124837   2.871   3.238   0.606
 8291TIP3    H224838   2.808   3.202   0.473
 8292TIP3   OH224839   6.258   6.812   4.735
 8292TIP3    H124840   6.197   6.739   4.725
 8292TIP3    H224841   6.322   6.780   4.799
 8293TIP3   OH224842   4.621   4.007   4.171
 8293TIP3    H124843   4.650   3.919   4.193
 8293TIP3    H224844   4.541   4.020   4.221
 8294TIP3   OH224845   6.073   6.788   4.296
 8294TIP3    H124846   6.099   6.696   4.290
 8294TIP3    H224847   6.121   6.831   4.225
 8295TIP3   OH224848   4.552   6.563   5.202
 8295TIP3    H124849   4.611   6.608   5.142
 8295TIP3    H224850   4.603   6.550   5.282
 8296TIP3   OH224851   1.040   5.584   1.103
 8296TIP3    H124852   1.127   5.547   1.115
 8296TIP3    H224853   1.056   5.673   1.072
 8297TIP3   OH224854   4.467   5.769   4.992
 8297TIP3    H124855   4.376   5.762   4.962
 8297TIP3    H224856   4.504   5.682   4.976
 8298TIP3   OH224857   5.668   5.605   4.555
 8298TIP3    H124858   5.735   5.636   4.616
 8298TIP3    H224859   5.629   5.684   4.519
 8299TIP3   OH224860   6.757   6.589   4.218
 8299TIP3    H124861   6.770   6.601   4.124
 8299TIP3    H224862   6.664   6.569   4.228
 8300TIP3   OH224863   2.716   3.722   5.017
 8300TIP3    H124864   2.798   3.726   4.968
 8300TIP3    H224865   2.708   3.631   5.044
 8301TIP3   OH224866   0.941   5.999   5.191
 8301TIP3    H124867   0.854   6.025   5.163
 8301TIP3    H224868   0.929   5.965   5.280
 8302TIP3   OH224869   1.896   0.347   2.392
 8302TIP3    H124870   1.988   0.331   2.415
 8302TIP3    H224871   1.858   0.385   2.471
 8303TIP3   OH224872   5.765   4.072   3.529
 8303TIP3    H124873   5.801   4.094   3.443
 8303TIP3    H224874   5.728   4.155   3.562
 8304TIP3   OH224875   3.991   6.510   1.886
 8304TIP3    H124876   4.010   6.570   1.959
 8304TIP3    H224877   3.993   6.567   1.809
 8305TIP3   OH224878   3.031   5.331   5.504
 8305TIP3    H124879   3.012   5.258   5.564
 8305TIP3    H224880   3.070   5.290   5.427
 8306TIP3   OH224881   4.048   0.898   0.836
 8306TIP3    H124882   4.005   0.980   0.860
 8306TIP3    H224883   4.122   0.925   0.781
 8307TIP3   OH224884   4.833   5.099   4.173
 8307TIP3    H124885   4.774   5.161   4.216
 8307TIP3    H224886   4.812   5.014   4.212
 8308TIP3   OH224887   2.834   4.070   5.028
 8308TIP3    H124888   2.860   3.994   4.976
 8308TIP3    H224889   2.837   4.144   4.968
 8309TIP3   OH224890   4.585   6.376   1.488
 8309TIP3    H124891   4.598   6.383   1.583
 8309TIP3    H224892   4.511   6.435   1.470
 8310TIP3   OH224893   1.517   1.566   3.704
 8310TIP3    H124894   1.591   1.536   3.755
 8310TIP3    H224895   1.556   1.614   3.631
 8311TIP3   OH224896   2.559   4.750   1.072
 8311TIP3    H124897   2.494   4.776   1.137
 8311TIP3    H224898   2.621   4.696   1.121
 8312TIP3   OH224899   3.507   4.360   1.056
 8312TIP3    H124900   3.461   4.430   1.011
 8312TIP3    H224901   3.566   4.404   1.118
 8313TIP3   OH224902   2.787   3.009   2.076
 8313TIP3    H124903   2.853   3.053   2.022
 8313TIP3    H224904   2.773   3.069   2.149
 8314TIP3   OH224905   1.534   0.031   5.631
 8314TIP3    H124906   1.496   0.108   5.672
 8314TIP3    H224907   1.462  -0.009   5.582
 8315TIP3   OH224908   4.261   5.598   4.486
 8315TIP3    H124909   4.172   5.574   4.459
 8315TIP3    H224910   4.251   5.680   4.533
 8316TIP3   OH224911   3.636   5.927   1.575
 8316TIP3    H124912   3.630   5.997   1.640
 8316TIP3    H224913   3.595   5.852   1.617
 8317TIP3   OH224914   1.413   4.830   2.642
 8317TIP3    H124915   1.442   4.861   2.556
 8317TIP3    H224916   1.460   4.886   2.704
 8318TIP3   OH224917   0.442   0.519   2.457
 8318TIP3    H124918   0.347   0.527   2.467
 8318TIP3    H224919   0.476   0.535   2.545
 8319TIP3   OH224920   0.153   5.845   4.424
 8319TIP3    H124921   0.104   5.802   4.354
 8319TIP3    H224922   0.085   5.883   4.480
 8320TIP3   OH224923   5.608   6.338   3.348
 8320TIP3    H124924   5.621   6.327   3.442
 8320TIP3    H224925   5.660   6.415   3.325
 8321TIP3   OH224926   3.524   0.571   2.976
 8321TIP3    H124927   3.571   0.636   2.923
 8321TIP3    H224928   3.593   0.520   3.018
 8322TIP3   OH224929   3.226   6.405   0.418
 8322TIP3    H124930   3.236   6.381   0.510
 8322TIP3    H224931   3.152   6.465   0.417
 8323TIP3   OH224932   3.196   3.559   5.907
 8323TIP3    H124933   3.161   3.648   5.914
 8323TIP3    H224934   3.167   3.528   5.821
 8324TIP3   OH224935   5.890   0.562   5.612
 8324TIP3    H124936   5.962   0.574   5.549
 8324TIP3    H224937   5.817   0.610   5.574
 8325TIP3   OH224938   4.694   2.493   4.322
 8325TIP3    H124939   4.622   2.496   4.385
 8325TIP3    H224940   4.671   2.422   4.262
 8326TIP3   OH224941   3.217   2.832   4.541
 8326TIP3    H124942   3.139   2.791   4.579
 8326TIP3    H224943   3.199   2.834   4.447
 8327TIP3   OH224944   4.628   3.684   1.782
 8327TIP3    H124945   4.548   3.719   1.742
 8327TIP3    H224946   4.664   3.757   1.832
 8328TIP3   OH224947   6.475   6.051   2.584
 8328TIP3    H124948   6.493   6.081   2.673
 8328TIP3    H224949   6.478   5.955   2.591
 8329TIP3   OH224950   5.992   6.652   0.493
 8329TIP3    H124951   5.941   6.692   0.563
 8329TIP3    H224952   5.932   6.647   0.419
 8330TIP3   OH224953   1.901   3.753   3.933
 8330TIP3    H124954   1.913   3.722   4.023
 8330TIP3    H224955   1.908   3.848   3.940
 8331TIP3   OH224956   0.267   1.044   0.541
 8331TIP3    H124957   0.262   1.084   0.628
 8331TIP3    H224958   0.207   1.096   0.487
 8332TIP3   OH224959   6.938   4.424   4.626
 8332TIP3    H124960   7.010   4.430   4.689
 8332TIP3    H224961   6.978   4.388   4.547
 8333TIP3   OH224962   5.193   5.846   1.334
 8333TIP3    H124963   5.222   5.886   1.416
 8333TIP3    H224964   5.195   5.918   1.271
 8334TIP3   OH224965   1.351   4.744   1.947
 8334TIP3    H124966   1.377   4.659   1.981
 8334TIP3    H224967   1.399   4.753   1.865
 8335TIP3   OH224968   7.233   4.938   5.569
 8335TIP3    H124969   7.207   4.909   5.482
 8335TIP3    H224970   7.323   4.906   5.578
 8336TIP3   OH224971   4.413   6.604   3.724
 8336TIP3    H124972   4.445   6.518   3.752
 8336TIP3    H224973   4.352   6.585   3.653
 8337TIP3   OH224974   6.378   5.998   3.777
 8337TIP3    H124975   6.393   5.936   3.705
 8337TIP3    H224976   6.282   5.999   3.787
 8338TIP3   OH224977   2.607   6.228   2.587
 8338TIP3    H124978   2.616   6.243   2.681
 8338TIP3    H224979   2.557   6.147   2.580
 8339TIP3   OH224980   5.282   4.591   4.783
 8339TIP3    H124981   5.190   4.601   4.758
 8339TIP3    H224982   5.317   4.527   4.721
 8340TIP3   OH224983   1.810   2.198   2.432
 8340TIP3    H124984   1.785   2.157   2.515
 8340TIP3    H224985   1.826   2.290   2.454
 8341TIP3   OH224986   4.166   2.374   3.767
 8341TIP3    H124987   4.257   2.347   3.762
 8341TIP3    H224988   4.117   2.305   3.722
 8342TIP3   OH224989   0.299   3.542   5.559
 8342TIP3    H124990   0.296   3.503   5.472
 8342TIP3    H224991   0.210   3.572   5.575
 8343TIP3   OH224992   4.081   3.883   4.160
 8343TIP3    H124993   4.069   3.789   4.168
 8343TIP3    H224994   4.050   3.919   4.243
 8344TIP3   OH224995   5.644   5.785   0.728
 8344TIP3    H124996   5.553   5.810   0.715
 8344TIP3    H224997   5.680   5.853   0.785
 8345TIP3   OH224998   4.794   1.641   0.364
 8345TIP3    H124999   4.865   1.699   0.392
 8345TIP3    H225000   4.750   1.690   0.293
 8346TIP3   OH225001   4.810   5.120   4.609
 8346TIP3    H125002   4.859   5.072   4.543
 8346TIP3    H225003   4.820   5.212   4.584
 8347TIP3   OH225004   5.710   2.983   5.829
 8347TIP3    H125005   5.622   3.017   5.814
 8347TIP3    H225006   5.714   2.902   5.779
 8348TIP3   OH225007   4.790   4.619   2.254
 8348TIP3    H125008   4.831   4.585   2.174
 8348TIP3    H225009   4.697   4.597   2.244
 8349TIP3   OH225010   3.984   4.429   0.434
 8349TIP3    H125011   3.897   4.467   0.421
 8349TIP3    H225012   4.025   4.483   0.502
 8350TIP3   OH225013   6.567   4.364   2.338
 8350TIP3    H125014   6.544   4.286   2.287
 8350TIP3    H225015   6.636   4.407   2.288
 8351TIP3   OH225016   4.068   1.275   2.385
 8351TIP3    H125017   4.103   1.363   2.376
 8351TIP3    H225018   4.071   1.257   2.479
 8352TIP3   OH225019   0.670   6.687   5.716
 8352TIP3    H125020   0.659   6.594   5.697
 8352TIP3    H225021   0.602   6.731   5.666
 8353TIP3   OH225022   3.555   4.621   4.100
 8353TIP3    H125023   3.610   4.546   4.078
 8353TIP3    H225024   3.473   4.605   4.054
 8354TIP3   OH225025   4.219   4.584   3.600
 8354TIP3    H125026   4.209   4.517   3.668
 8354TIP3    H225027   4.229   4.534   3.519
 8355TIP3   OH225028   5.729   6.713   2.602
 8355TIP3    H125029   5.788   6.752   2.538
 8355TIP3    H225030   5.704   6.785   2.660
 8356TIP3   OH225031   5.645   6.181   2.148
 8356TIP3    H125032   5.585   6.222   2.210
 8356TIP3    H225033   5.688   6.254   2.104
 8357TIP3   OH225034   4.601   5.983   2.726
 8357TIP3    H125035   4.618   5.965   2.818
 8357TIP3    H225036   4.529   5.925   2.703
 8358TIP3   OH225037   1.862   3.492   3.410
 8358TIP3    H125038   1.912   3.573   3.417
 8358TIP3    H225039   1.915   3.426   3.454
 8359TIP3   OH225040   3.940   0.078   2.956
 8359TIP3    H125041   4.013   0.137   2.937
 8359TIP3    H225042   3.907   0.107   3.041
 8360TIP3   OH225043   2.724   1.055   3.492
 8360TIP3    H125044   2.629   1.049   3.498
 8360TIP3    H225045   2.755   1.029   3.579
 8361TIP3   OH225046   5.350   1.799   1.176
 8361TIP3    H125047   5.257   1.801   1.154
 8361TIP3    H225048   5.354   1.752   1.259
 8362TIP3   OH225049   4.271   0.552   1.836
 8362TIP3    H125050   4.314   0.595   1.910
 8362TIP3    H225051   4.252   0.623   1.775
 8363TIP3   OH225052   4.628   5.570   1.263
 8363TIP3    H125053   4.697   5.526   1.312
 8363TIP3    H225054   4.672   5.643   1.220
 8364TIP3   OH225055   6.382   2.754   1.757
 8364TIP3    H125056   6.314   2.697   1.794
 8364TIP3    H225057   6.349   2.778   1.670
 8365TIP3   OH225058   6.206   1.031   2.657
 8365TIP3    H125059   6.208   1.070   2.570
 8365TIP3    H225060   6.293   1.050   2.694
 8366TIP3   OH225061   5.135   6.013   0.915
 8366TIP3    H125062   5.198   5.946   0.941
 8366TIP3    H225063   5.182   6.096   0.929
 8367TIP3   OH225064   2.742   4.878   4.519
 8367TIP3    H125065   2.768   4.970   4.509
 8367TIP3    H225066   2.723   4.849   4.429
 8368TIP3   OH225067   1.097   6.033   4.958
 8368TIP3    H125068   1.025   6.069   4.905
 8368TIP3    H225069   1.053   5.993   5.033
 8369TIP3   OH225070   5.800   0.239   3.338
 8369TIP3    H125071   5.823   0.285   3.258
 8369TIP3    H225072   5.781   0.308   3.402
 8370TIP3   OH225073   1.441   5.844   3.311
 8370TIP3    H125074   1.376   5.794   3.262
 8370TIP3    H225075   1.501   5.877   3.245
 8371TIP3   OH225076   4.210   5.712   2.294
 8371TIP3    H125077   4.250   5.679   2.213
 8371TIP3    H225078   4.275   5.774   2.328
 8372TIP3   OH225079   2.446   5.756   2.727
 8372TIP3    H125080   2.393   5.772   2.805
 8372TIP3    H225081   2.526   5.714   2.761
 8373TIP3   OH225082   1.901   4.906   1.646
 8373TIP3    H125083   1.813   4.917   1.682
 8373TIP3    H225084   1.888   4.851   1.568
 8374TIP3   OH225085   3.863   1.946   2.912
 8374TIP3    H125086   3.785   1.916   2.866
 8374TIP3    H225087   3.924   1.970   2.843
 8375TIP3   OH225088   6.808   1.492   5.501
 8375TIP3    H125089   6.725   1.457   5.535
 8375TIP3    H225090   6.791   1.585   5.486
 8376TIP3   OH225091   1.786   3.274   4.981
 8376TIP3    H125092   1.823   3.286   5.069
 8376TIP3    H225093   1.714   3.336   4.977
 8377TIP3   OH225094   0.295   4.630   2.849
 8377TIP3    H125095   0.368   4.568   2.856
 8377TIP3    H225096   0.274   4.653   2.939
 8378TIP3   OH225097   6.289   6.450   2.933
 8378TIP3    H125098   6.210   6.501   2.950
 8378TIP3    H225099   6.345   6.509   2.883
 8379TIP3   OH225100   3.299   5.354   3.784
 8379TIP3    H125101   3.235   5.425   3.793
 8379TIP3    H225102   3.339   5.368   3.698
 8380TIP3   OH225103   3.399   3.259  -0.020
 8380TIP3    H125104   3.383   3.164  -0.016
 8380TIP3    H225105   3.398   3.286   0.072
 8381TIP3   OH225106   6.838   1.836   5.255
 8381TIP3    H125107   6.795   1.760   5.215
 8381TIP3    H225108   6.929   1.830   5.227
 8382TIP3   OH225109   2.912   2.197   0.334
 8382TIP3    H125110   2.996   2.231   0.364
 8382TIP3    H225111   2.860   2.188   0.413
 8383TIP3   OH225112   6.329   5.597   5.028
 8383TIP3    H125113   6.403   5.646   5.063
 8383TIP3    H225114   6.306   5.641   4.947
 8384TIP3   OH225115   1.723   2.847   1.996
 8384TIP3    H125116   1.702   2.865   1.904
 8384TIP3    H225117   1.815   2.872   2.005
 8385TIP3   OH225118   3.114   3.321   4.834
 8385TIP3    H125119   3.053   3.248   4.835
 8385TIP3    H225120   3.132   3.339   4.926
 8386TIP3   OH225121   2.497   3.910   5.002
 8386TIP3    H125122   2.526   3.949   5.085
 8386TIP3    H225123   2.549   3.830   4.994
 8387TIP3   OH225124   3.132   3.999   2.009
 8387TIP3    H125125   3.091   3.923   2.050
 8387TIP3    H225126   3.224   3.992   2.035
 8388TIP3   OH225127   6.715   2.350   2.907
 8388TIP3    H125128   6.735   2.369   2.815
 8388TIP3    H225129   6.661   2.271   2.904
 8389TIP3   OH225130   7.223   5.140   0.874
 8389TIP3    H125131   7.166   5.121   0.949
 8389TIP3    H225132   7.211   5.234   0.858
 8390TIP3   OH225133   1.848   3.524   1.901
 8390TIP3    H125134   1.865   3.462   1.971
 8390TIP3    H225135   1.835   3.608   1.946
 8391TIP3   OH225136   6.611   4.824   4.719
 8391TIP3    H125137   6.551   4.773   4.666
 8391TIP3    H225138   6.695   4.778   4.712
 8392TIP3   OH225139   0.504   1.019   5.840
 8392TIP3    H125140   0.536   1.077   5.909
 8392TIP3    H225141   0.463   0.946   5.888
 8393TIP3   OH225142   3.707   4.259   0.893
 8393TIP3    H125143   3.634   4.280   0.951
 8393TIP3    H225144   3.727   4.341   0.848
 8394TIP3   OH225145   3.080   6.728   4.811
 8394TIP3    H125146   3.073   6.781   4.731
 8394TIP3    H225147   3.172   6.701   4.814
 8395TIP3   OH225148   1.398   4.832   4.518
 8395TIP3    H125149   1.361   4.916   4.545
 8395TIP3    H225150   1.439   4.850   4.433
 8396TIP3   OH225151   2.789   3.261   3.631
 8396TIP3    H125152   2.854   3.325   3.604
 8396TIP3    H225153   2.717   3.313   3.665
 8397TIP3   OH225154   2.089   4.022   4.709
 8397TIP3    H125155   2.105   3.937   4.749
 8397TIP3    H225156   2.000   4.016   4.675
 8398TIP3   OH225157   2.951   3.468   5.301
 8398TIP3    H125158   2.878   3.463   5.363
 8398TIP3    H225159   3.027   3.441   5.352
 8399TIP3   OH225160   3.831   6.014   5.253
 8399TIP3    H125161   3.859   5.950   5.319
 8399TIP3    H225162   3.849   5.971   5.169
 8400TIP3   OH225163   4.494   3.250   3.941
 8400TIP3    H125164   4.495   3.183   4.010
 8400TIP3    H225165   4.518   3.331   3.987
 8401TIP3   OH225166   5.271   6.654   5.668
 8401TIP3    H125167   5.207   6.725   5.663
 8401TIP3    H225168   5.346   6.692   5.715
 8402TIP3   OH225169   5.302   3.549   3.400
 8402TIP3    H125170   5.298   3.625   3.342
 8402TIP3    H225171   5.348   3.581   3.478
 8403TIP3   OH225172   3.349   2.618   1.151
 8403TIP3    H125173   3.322   2.537   1.195
 8403TIP3    H225174   3.433   2.641   1.192
 8404TIP3   OH225175   2.673   0.992   0.353
 8404TIP3    H125176   2.691   0.917   0.411
 8404TIP3    H225177   2.710   0.965   0.268
 8405TIP3   OH225178   0.687   2.088   0.337
 8405TIP3    H125179   0.747   2.149   0.295
 8405TIP3    H225180   0.744   2.023   0.379
 8406TIP3   OH225181   0.475   0.191   5.558
 8406TIP3    H125182   0.485   0.280   5.524
 8406TIP3    H225183   0.511   0.195   5.646
 8407TIP3   OH225184   7.027   3.486   4.582
 8407TIP3    H125185   7.017   3.546   4.508
 8407TIP3    H225186   7.122   3.473   4.591
 8408TIP3   OH225187   5.651   0.727   5.547
 8408TIP3    H125188   5.622   0.818   5.551
 8408TIP3    H225189   5.592   0.680   5.605
 8409TIP3   OH225190   5.758   1.071   5.331
 8409TIP3    H125191   5.722   1.038   5.413
 8409TIP3    H225192   5.687   1.120   5.291
 8410TIP3   OH225193   3.053   3.049   0.273
 8410TIP3    H125194   3.005   3.130   0.254
 8410TIP3    H225195   3.058   3.004   0.189
 8411TIP3   OH225196   7.066   3.748   3.466
 8411TIP3    H125197   7.024   3.827   3.431
 8411TIP3    H225198   7.069   3.763   3.561
 8412TIP3   OH225199   6.421   1.835   3.428
 8412TIP3    H125200   6.343   1.790   3.397
 8412TIP3    H225201   6.422   1.918   3.380
 8413TIP3   OH225202   6.644   3.058   0.337
 8413TIP3    H125203   6.661   3.087   0.427
 8413TIP3    H225204   6.682   3.126   0.282
 8414TIP3   OH225205   3.645   0.548   1.537
 8414TIP3    H125206   3.665   0.562   1.445
 8414TIP3    H225207   3.633   0.453   1.545
 8415TIP3   OH225208   6.981   6.119   4.703
 8415TIP3    H125209   6.909   6.073   4.745
 8415TIP3    H225210   6.940   6.192   4.657
 8416TIP3   OH225211   6.990   1.989   4.840
 8416TIP3    H125212   6.899   1.977   4.870
 8416TIP3    H225213   6.984   2.054   4.770
 8417TIP3   OH225214   2.282   5.648   2.525
 8417TIP3    H125215   2.341   5.698   2.582
 8417TIP3    H225216   2.194   5.670   2.557
 8418TIP3   OH225217   6.927   0.540   5.670
 8418TIP3    H125218   6.930   0.486   5.591
 8418TIP3    H225219   6.849   0.594   5.659
 8419TIP3   OH225220   5.311   2.309   2.768
 8419TIP3    H125221   5.330   2.403   2.759
 8419TIP3    H225222   5.397   2.268   2.769
 8420TIP3   OH225223   5.378   3.117   2.401
 8420TIP3    H125224   5.386   3.051   2.332
 8420TIP3    H225225   5.358   3.066   2.480
 8421TIP3   OH225226   4.303   6.460   1.562
 8421TIP3    H125227   4.270   6.412   1.486
 8421TIP3    H225228   4.263   6.416   1.637
 8422TIP3   OH225229   4.501   1.051   1.876
 8422TIP3    H125230   4.410   1.038   1.849
 8422TIP3    H225231   4.553   1.022   1.801
 8423TIP3   OH225232   6.957   0.486   0.192
 8423TIP3    H125233   6.926   0.534   0.115
 8423TIP3    H225234   6.951   0.550   0.263
 8424TIP3   OH225235   0.574   4.996   3.944
 8424TIP3    H125236   0.652   5.051   3.940
 8424TIP3    H225237   0.505   5.055   3.974
 8425TIP3   OH225238   3.827   2.241   1.415
 8425TIP3    H125239   3.916   2.204   1.421
 8425TIP3    H225240   3.817   2.267   1.324
 8426TIP3   OH225241   3.073   1.152   1.774
 8426TIP3    H125242   3.134   1.078   1.774
 8426TIP3    H225243   3.000   1.122   1.720
 8427TIP3   OH225244   2.551   5.118   5.395
 8427TIP3    H125245   2.620   5.103   5.330
 8427TIP3    H225246   2.496   5.185   5.355
 8428TIP3   OH225247   1.040   5.487   5.369
 8428TIP3    H125248   1.097   5.418   5.402
 8428TIP3    H225249   1.098   5.548   5.324
 8429TIP3   OH225250   2.038   0.393   0.977
 8429TIP3    H125251   1.949   0.358   0.977
 8429TIP3    H225252   2.088   0.330   1.028
 8430TIP3   OH225253   4.914   5.864   1.966
 8430TIP3    H125254   4.934   5.791   2.025
 8430TIP3    H225255   4.823   5.851   1.940
 8431TIP3   OH225256   4.074   1.070   3.359
 8431TIP3    H125257   4.139   1.103   3.296
 8431TIP3    H225258   4.126   1.019   3.421
 8432TIP3   OH225259   2.103   5.802   0.505
 8432TIP3    H125260   2.144   5.725   0.545
 8432TIP3    H225261   2.072   5.771   0.420
 8433TIP3   OH225262   3.860   4.553   5.776
 8433TIP3    H125263   3.949   4.578   5.753
 8433TIP3    H225264   3.860   4.549   5.872
 8434TIP3   OH225265   6.244   2.128   4.942
 8434TIP3    H125266   6.311   2.190   4.914
 8434TIP3    H225267   6.190   2.178   5.003
 8435TIP3   OH225268   3.776   2.135   4.484
 8435TIP3    H125269   3.784   2.221   4.444
 8435TIP3    H225270   3.700   2.142   4.542
 8436TIP3   OH225271   5.597   2.658   1.015
 8436TIP3    H125272   5.511   2.621   0.997
 8436TIP3    H225273   5.580   2.730   1.076
 8437TIP3   OH225274   1.127   1.287   4.754
 8437TIP3    H125275   1.061   1.220   4.772
 8437TIP3    H225276   1.096   1.365   4.798
 8438TIP3   OH225277   4.810   6.729   4.183
 8438TIP3    H125278   4.813   6.723   4.087
 8438TIP3    H225279   4.762   6.651   4.210
 8439TIP3   OH225280   6.515   3.304   2.495
 8439TIP3    H125281   6.448   3.238   2.514
 8439TIP3    H225282   6.477   3.357   2.425
 8440TIP3   OH225283   4.415   0.632   5.043
 8440TIP3    H125284   4.363   0.664   4.969
 8440TIP3    H225285   4.379   0.677   5.119
 8441TIP3   OH225286   7.185   1.048   2.957
 8441TIP3    H125287   7.157   0.967   2.915
 8441TIP3    H225288   7.177   1.031   3.050
 8442TIP3   OH225289   3.965   5.517   3.629
 8442TIP3    H125290   3.971   5.579   3.557
 8442TIP3    H225291   4.004   5.563   3.704
 8443TIP3   OH225292   4.390   1.561   5.528
 8443TIP3    H125293   4.419   1.642   5.571
 8443TIP3    H225294   4.296   1.558   5.545
 8444TIP3   OH225295   7.160   0.065   1.187
 8444TIP3    H125296   7.252   0.086   1.203
 8444TIP3    H225297   7.156  -0.030   1.188
 8445TIP3   OH225298  -0.025   1.236   5.725
 8445TIP3    H125299  -0.046   1.155   5.679
 8445TIP3    H225300   0.044   1.211   5.786
 8446TIP3   OH225301   3.389   3.387   0.799
 8446TIP3    H125302   3.318   3.443   0.827
 8446TIP3    H225303   3.356   3.344   0.720
 8447TIP3   OH225304   5.735   4.319   3.637
 8447TIP3    H125305   5.734   4.389   3.572
 8447TIP3    H225306   5.800   4.345   3.701
 8448TIP3   OH225307   5.425   0.921   3.571
 8448TIP3    H125308   5.438   0.883   3.484
 8448TIP3    H225309   5.375   0.855   3.619
 8449TIP3   OH225310   5.103   2.139   5.087
 8449TIP3    H125311   5.140   2.060   5.125
 8449TIP3    H225312   5.057   2.181   5.160
 8450TIP3   OH225313   3.127   2.672   2.592
 8450TIP3    H125314   3.106   2.581   2.571
 8450TIP3    H225315   3.168   2.668   2.679
 8451TIP3   OH225316   5.353   2.602   2.761
 8451TIP3    H125317   5.273   2.655   2.766
 8451TIP3    H225318   5.422   2.666   2.741
 8452TIP3   OH225319   0.838   5.713   2.507
 8452TIP3    H125320   0.888   5.635   2.482
 8452TIP3    H225321   0.839   5.767   2.428
 8453TIP3   OH225322   1.216   6.745   0.754
 8453TIP3    H125323   1.261   6.799   0.689
 8453TIP3    H225324   1.173   6.677   0.702
 8454TIP3   OH225325   4.166   4.770   4.191
 8454TIP3    H125326   4.227   4.843   4.195
 8454TIP3    H225327   4.207   4.701   4.243
 8455TIP3   OH225328   5.220   4.074   3.880
 8455TIP3    H125329   5.149   4.137   3.868
 8455TIP3    H225330   5.209   4.041   3.969
 8456TIP3   OH225331   2.063   5.835   4.861
 8456TIP3    H125332   2.152   5.870   4.869
 8456TIP3    H225333   2.008   5.913   4.853
 8457TIP3   OH225334   1.128   5.949   0.049
 8457TIP3    H125335   1.146   5.859   0.077
 8457TIP3    H225336   1.064   5.982   0.112
 8458TIP3   OH225337   6.831   3.723   1.284
 8458TIP3    H125338   6.862   3.656   1.223
 8458TIP3    H225339   6.869   3.699   1.368
 8459TIP3   OH225340   5.577   3.321   1.469
 8459TIP3    H125341   5.614   3.233   1.476
 8459TIP3    H225342   5.654   3.379   1.464
 8460TIP3   OH225343   2.352   6.235   5.084
 8460TIP3    H125344   2.417   6.171   5.054
 8460TIP3    H225345   2.333   6.288   5.006
 8461TIP3   OH225346   7.222   6.602   4.938
 8461TIP3    H125347   7.233   6.562   5.025
 8461TIP3    H225348   7.132   6.581   4.913
 8462TIP3   OH225349   2.118   2.980   0.737
 8462TIP3    H125350   2.031   3.001   0.703
 8462TIP3    H225351   2.171   2.962   0.660
 8463TIP3   OH225352   5.178   5.655   1.815
 8463TIP3    H125353   5.163   5.743   1.849
 8463TIP3    H225354   5.118   5.647   1.741
 8464TIP3   OH225355   3.971   6.038   3.858
 8464TIP3    H125356   3.926   5.957   3.833
 8464TIP3    H225357   3.946   6.053   3.949
 8465TIP3   OH225358   3.859   0.703   4.076
 8465TIP3    H125359   3.949   0.729   4.097
 8465TIP3    H225360   3.815   0.786   4.057
 8466TIP3   OH225361   3.352   1.267   5.023
 8466TIP3    H125362   3.358   1.355   5.061
 8466TIP3    H225363   3.440   1.231   5.032
 8467TIP3   OH225364   0.094   2.733   2.213
 8467TIP3    H125365   0.017   2.777   2.176
 8467TIP3    H225366   0.082   2.739   2.308
 8468TIP3   OH225367   6.152   3.753   5.174
 8468TIP3    H125368   6.062   3.775   5.200
 8468TIP3    H225369   6.146   3.732   5.081
 8469TIP3   OH225370   2.507   4.227   5.010
 8469TIP3    H125371   2.560   4.245   4.932
 8469TIP3    H225372   2.479   4.136   4.999
 8470TIP3   OH225373   3.377   4.615   3.800
 8470TIP3    H125374   3.358   4.580   3.887
 8470TIP3    H225375   3.471   4.598   3.787
 8471TIP3   OH225376   2.674   2.678   3.827
 8471TIP3    H125377   2.640   2.763   3.855
 8471TIP3    H225378   2.657   2.620   3.901
 8472TIP3   OH225379   0.921   6.101   3.207
 8472TIP3    H125380   0.835   6.134   3.231
 8472TIP3    H225381   0.945   6.151   3.129
 8473TIP3   OH225382   3.379   2.867   0.589
 8473TIP3    H125383   3.286   2.882   0.605
 8473TIP3    H225384   3.392   2.774   0.603
 8474TIP3   OH225385   6.538   5.922   0.934
 8474TIP3    H125386   6.584   5.889   1.011
 8474TIP3    H225387   6.589   5.998   0.906
 8475TIP3   OH225388   5.148   2.919   3.085
 8475TIP3    H125389   5.228   2.904   3.136
 8475TIP3    H225390   5.124   3.009   3.104
 8476TIP3   OH225391   3.874   5.719   4.477
 8476TIP3    H125392   3.901   5.724   4.385
 8476TIP3    H225393   3.798   5.660   4.476
 8477TIP3   OH225394   2.140   2.350   0.069
 8477TIP3    H125395   2.064   2.293   0.074
 8477TIP3    H225396   2.211   2.299   0.107
 8478TIP3   OH225397   2.493   0.256   1.033
 8478TIP3    H125398   2.578   0.299   1.036
 8478TIP3    H225399   2.438   0.315   0.982
 8479TIP3   OH225400   2.636   3.933   5.692
 8479TIP3    H125401   2.622   3.911   5.785
 8479TIP3    H225402   2.566   3.996   5.672
 8480TIP3   OH225403  -0.004   5.300   1.602
 8480TIP3    H125404   0.070   5.302   1.663
 8480TIP3    H225405   0.022   5.238   1.534
 8481TIP3   OH225406   4.170   3.292   5.351
 8481TIP3    H125407   4.188   3.286   5.257
 8481TIP3    H225408   4.249   3.331   5.387
 8482TIP3   OH225409   2.393   4.615   2.213
 8482TIP3    H125410   2.361   4.693   2.168
 8482TIP3    H225411   2.474   4.643   2.255
 8483TIP3   OH225412   3.192   2.809   3.596
 8483TIP3    H125413   3.125   2.838   3.659
 8483TIP3    H225414   3.269   2.792   3.650
 8484TIP3   OH225415   1.097   4.788   4.662
 8484TIP3    H125416   1.063   4.811   4.748
 8484TIP3    H225417   1.187   4.820   4.662
 8485TIP3   OH225418   1.598   4.184   1.462
 8485TIP3    H125419   1.569   4.121   1.395
 8485TIP3    H225420   1.538   4.257   1.453
 8486TIP3   OH225421   4.707   2.710   3.018
 8486TIP3    H125422   4.694   2.696   3.111
 8486TIP3    H225423   4.773   2.780   3.013
 8487TIP3   OH225424   2.958   5.722   1.952
 8487TIP3    H125425   2.868   5.693   1.943
 8487TIP3    H225426   3.010   5.654   1.909
 8488TIP3   OH225427   1.755   5.619   2.355
 8488TIP3    H125428   1.719   5.689   2.301
 8488TIP3    H225429   1.757   5.656   2.443
 8489TIP3   OH225430   3.307   0.684   1.418
 8489TIP3    H125431   3.377   0.714   1.476
 8489TIP3    H225432   3.258   0.764   1.397
 8490TIP3   OH225433   5.867   6.033   4.007
 8490TIP3    H125434   5.830   5.948   4.032
 8490TIP3    H225435   5.854   6.038   3.913
 8491TIP3   OH225436   5.890   2.892   2.720
 8491TIP3    H125437   5.857   2.981   2.707
 8491TIP3    H225438   5.976   2.892   2.677
 8492TIP3   OH225439   3.620   1.083   3.807
 8492TIP3    H125440   3.589   1.174   3.804
 8492TIP3    H225441   3.595   1.046   3.722
 8493TIP3   OH225442   7.044   3.798   0.322
 8493TIP3    H125443   7.086   3.748   0.252
 8493TIP3    H225444   7.106   3.795   0.395
 8494TIP3   OH225445   4.418   3.514   3.177
 8494TIP3    H125446   4.430   3.588   3.117
 8494TIP3    H225447   4.420   3.552   3.264
 8495TIP3   OH225448   5.417   0.818   3.321
 8495TIP3    H125449   5.362   0.751   3.280
 8495TIP3    H225450   5.415   0.891   3.259
 8496TIP3   OH225451   3.572   3.813   4.852
 8496TIP3    H125452   3.580   3.792   4.945
 8496TIP3    H225453   3.536   3.734   4.812
 8497TIP3   OH225454   6.997   0.386   2.368
 8497TIP3    H125455   7.070   0.414   2.424
 8497TIP3    H225456   7.032   0.312   2.319
 8498TIP3   OH225457   6.883   4.316   1.312
 8498TIP3    H125458   6.871   4.387   1.250
 8498TIP3    H225459   6.797   4.303   1.352
 8499TIP3   OH225460   2.832   6.316   0.280
 8499TIP3    H125461   2.762   6.253   0.294
 8499TIP3    H225462   2.817   6.348   0.191
 8500TIP3   OH225463   5.911   3.189   3.492
 8500TIP3    H125464   5.903   3.100   3.525
 8500TIP3    H225465   5.923   3.243   3.571
 8501TIP3   OH225466   7.249   4.039   3.309
 8501TIP3    H125467   7.265   4.133   3.306
 8501TIP3    H225468   7.154   4.031   3.318
 8502TIP3   OH225469   2.713   6.451   1.452
 8502TIP3    H125470   2.793   6.435   1.502
 8502TIP3    H225471   2.648   6.474   1.518
 8503TIP3   OH225472   5.682   0.459   1.938
 8503TIP3    H125473   5.594   0.447   1.902
 8503TIP3    H225474   5.668   0.490   2.027
 8504TIP3   OH225475   4.549   1.916   4.739
 8504TIP3    H125476   4.586   1.863   4.669
 8504TIP3    H225477   4.457   1.888   4.744
 8505TIP3   OH225478   2.183   4.394   0.284
 8505TIP3    H125479   2.122   4.467   0.276
 8505TIP3    H225480   2.250   4.412   0.218
 8506TIP3   OH225481   4.451   3.850   3.685
 8506TIP3    H125482   4.472   3.769   3.731
 8506TIP3    H225483   4.414   3.907   3.752
 8507TIP3   OH225484   3.606   0.718   2.735
 8507TIP3    H125485   3.589   0.812   2.732
 8507TIP3    H225486   3.701   0.711   2.742
 8508TIP3   OH225487   2.812   2.049   3.475
 8508TIP3    H125488   2.773   2.119   3.424
 8508TIP3    H225489   2.775   1.969   3.439
 8509TIP3   OH225490   3.333   2.351   0.564
 8509TIP3    H125491   3.239   2.349   0.544
 8509TIP3    H225492   3.372   2.401   0.492
 8510TIP3   OH225493   0.603   4.340   0.111
 8510TIP3    H125494   0.688   4.368   0.143
 8510TIP3    H225495   0.570   4.415   0.061
 8511TIP3   OH225496   6.884   5.964   1.555
 8511TIP3    H125497   6.854   5.892   1.500
 8511TIP3    H225498   6.918   6.029   1.493
 8512TIP3   OH225499   2.614   6.208   1.047
 8512TIP3    H125500   2.569   6.285   1.082
 8512TIP3    H225501   2.613   6.144   1.118
 8513TIP3   OH225502  -0.002   1.805   0.152
 8513TIP3    H125503  -0.069   1.773   0.211
 8513TIP3    H225504   0.045   1.727   0.124
 8514TIP3   OH225505   6.376   3.933   1.909
 8514TIP3    H125506   6.461   3.938   1.954
 8514TIP3    H225507   6.393   3.881   1.831
 8515TIP3   OH225508   6.222   1.413   2.106
 8515TIP3    H125509   6.169   1.374   2.175
 8515TIP3    H225510   6.269   1.339   2.067
 8516TIP3   OH225511   5.496   4.614   3.493
 8516TIP3    H125512   5.588   4.640   3.482
 8516TIP3    H225513   5.460   4.620   3.404
 8517TIP3   OH225514   5.694   5.705   1.032
 8517TIP3    H125515   5.751   5.737   0.962
 8517TIP3    H225516   5.621   5.662   0.986
 8518TIP3   OH225517   5.580   2.104   2.223
 8518TIP3    H125518   5.607   2.024   2.268
 8518TIP3    H225519   5.513   2.142   2.279
 8519TIP3   OH225520   4.020   6.569   3.379
 8519TIP3    H125521   4.009   6.660   3.352
 8519TIP3    H225522   3.935   6.545   3.415
 8520TIP3   OH225523   3.134   1.452   4.352
 8520TIP3    H125524   3.110   1.417   4.438
 8520TIP3    H225525   3.141   1.547   4.366
 8521TIP3   OH225526   4.706   2.885   5.832
 8521TIP3    H125527   4.619   2.848   5.847
 8521TIP3    H225528   4.728   2.928   5.915
 8522TIP3   OH225529   1.656   1.657   3.478
 8522TIP3    H125530   1.721   1.587   3.468
 8522TIP3    H225531   1.649   1.695   3.390
 8523TIP3   OH225532   0.050   4.187   2.999
 8523TIP3    H125533   0.123   4.229   2.954
 8523TIP3    H225534   0.063   4.207   3.091
 8524TIP3   OH225535   3.821   2.195   4.830
 8524TIP3    H125536   3.815   2.235   4.916
 8524TIP3    H225537   3.802   2.102   4.845
 8525TIP3   OH225538   1.399   1.025   3.509
 8525TIP3    H125539   1.457   1.093   3.476
 8525TIP3    H225540   1.341   1.071   3.570
 8526TIP3   OH225541   1.411   5.209   2.521
 8526TIP3    H125542   1.338   5.149   2.505
 8526TIP3    H225543   1.445   5.230   2.434
 8527TIP3   OH225544   3.426   0.617   1.705
 8527TIP3    H125545   3.450   0.585   1.792
 8527TIP3    H225546   3.491   0.578   1.647
 8528TIP3   OH225547   3.058   5.099   0.871
 8528TIP3    H125548   3.071   5.113   0.777
 8528TIP3    H225549   2.964   5.107   0.884
 8529TIP3   OH225550   2.328   0.411   3.801
 8529TIP3    H125551   2.239   0.431   3.831
 8529TIP3    H225552   2.385   0.448   3.867
 8530TIP3   OH225553   2.735   4.555   0.624
 8530TIP3    H125554   2.661   4.598   0.667
 8530TIP3    H225555   2.795   4.626   0.601
 8531TIP3   OH225556   0.141   6.525   3.730
 8531TIP3    H125557   0.140   6.602   3.786
 8531TIP3    H225558   0.231   6.494   3.732
 8532TIP3   OH225559   0.417   2.917   0.182
 8532TIP3    H125560   0.483   2.908   0.251
 8532TIP3    H225561   0.348   2.970   0.221
 8533TIP3   OH225562   3.223   1.690   0.341
 8533TIP3    H125563   3.144   1.693   0.394
 8533TIP3    H225564   3.287   1.743   0.390
 8534TIP3   OH225565   2.279   6.639   2.804
 8534TIP3    H125566   2.243   6.621   2.891
 8534TIP3    H225567   2.368   6.604   2.807
 8535TIP3   OH225568   2.241   3.437   2.295
 8535TIP3    H125569   2.184   3.417   2.221
 8535TIP3    H225570   2.182   3.447   2.370
 8536TIP3   OH225571   4.304   4.731   0.667
 8536TIP3    H125572   4.394   4.720   0.637
 8536TIP3    H225573   4.311   4.784   0.746
 8537TIP3   OH225574   2.690   2.484   4.751
 8537TIP3    H125575   2.695   2.579   4.763
 8537TIP3    H225576   2.779   2.453   4.769
 8538TIP3   OH225577   5.168   2.913   5.142
 8538TIP3    H125578   5.229   2.840   5.153
 8538TIP3    H225579   5.212   2.988   5.184
 8539TIP3   OH225580   2.563   5.294   3.407
 8539TIP3    H125581   2.536   5.381   3.434
 8539TIP3    H225582   2.659   5.296   3.411
 8540TIP3   OH225583   6.711   6.298   2.899
 8540TIP3    H125584   6.630   6.327   2.857
 8540TIP3    H225585   6.722   6.207   2.872
 8541TIP3   OH225586   5.962   4.820   0.087
 8541TIP3    H125587   5.922   4.733   0.094
 8541TIP3    H225588   5.890   4.881   0.104
 8542TIP3   OH225589   4.834   5.688   3.074
 8542TIP3    H125590   4.854   5.614   3.131
 8542TIP3    H225591   4.759   5.730   3.116
 8543TIP3   OH225592   1.968   6.597   3.523
 8543TIP3    H125593   2.010   6.668   3.571
 8543TIP3    H225594   1.941   6.534   3.591
 8544TIP3   OH225595   0.109   2.319   0.568
 8544TIP3    H125596   0.089   2.412   0.580
 8544TIP3    H225597   0.056   2.274   0.634
 8545TIP3   OH225598   4.750   2.288   4.114
 8545TIP3    H125599   4.842   2.263   4.122
 8545TIP3    H225600   4.751   2.373   4.070
 8546TIP3   OH225601   1.230   2.424   1.363
 8546TIP3    H125602   1.269   2.474   1.292
 8546TIP3    H225603   1.189   2.490   1.420
 8547TIP3   OH225604   6.932   1.245   4.105
 8547TIP3    H125605   6.972   1.293   4.178
 8547TIP3    H225606   6.878   1.310   4.061
 8548TIP3   OH225607   3.887   0.275   0.434
 8548TIP3    H125608   3.963   0.331   0.451
 8548TIP3    H225609   3.925   0.193   0.402
 8549TIP3   OH225610   0.305   1.821   5.467
 8549TIP3    H125611   0.307   1.755   5.536
 8549TIP3    H225612   0.314   1.771   5.386
 8550TIP3   OH225613   5.898   5.145   0.478
 8550TIP3    H125614   5.834   5.087   0.438
 8550TIP3    H225615   5.864   5.160   0.567
 8551TIP3   OH225616   3.485   5.005   2.451
 8551TIP3    H125617   3.549   4.941   2.419
 8551TIP3    H225618   3.537   5.066   2.503
 8552TIP3   OH225619   7.086   6.608   1.007
 8552TIP3    H125620   7.151   6.629   1.075
 8552TIP3    H225621   7.044   6.528   1.038
 8553TIP3   OH225622   0.532   5.770   3.272
 8553TIP3    H125623   0.547   5.684   3.232
 8553TIP3    H225624   0.609   5.785   3.327
 8554TIP3   OH225625   3.787   6.262   3.149
 8554TIP3    H125626   3.762   6.353   3.136
 8554TIP3    H225627   3.713   6.211   3.117
 8555TIP3   OH225628   4.464   5.815   2.417
 8555TIP3    H125629   4.423   5.745   2.467
 8555TIP3    H225630   4.465   5.890   2.476
 8556TIP3   OH225631   5.839   3.229   2.726
 8556TIP3    H125632   5.767   3.240   2.663
 8556TIP3    H225633   5.800   3.179   2.798
 8557TIP3   OH225634   2.918   1.691   0.107
 8557TIP3    H125635   2.930   1.633   0.182
 8557TIP3    H225636   2.887   1.634   0.037
 8558TIP3   OH225637   4.788   2.726   1.385
 8558TIP3    H125638   4.776   2.795   1.321
 8558TIP3    H225639   4.704   2.718   1.429
 8559TIP3   OH225640   4.466   0.300   2.868
 8559TIP3    H125641   4.512   0.238   2.811
 8559TIP3    H225642   4.517   0.302   2.948
 8560TIP3   OH225643   0.008   3.088   0.273
 8560TIP3    H125644   0.021   3.014   0.331
 8560TIP3    H225645   0.096   3.118   0.251
 8561TIP3   OH225646   4.771   5.402   4.538
 8561TIP3    H125647   4.680   5.431   4.532
 8561TIP3    H225648   4.800   5.431   4.625
 8562TIP3   OH225649   4.910   3.915   2.424
 8562TIP3    H125650   4.838   3.877   2.374
 8562TIP3    H225651   4.926   4.000   2.383
 8563TIP3   OH225652   5.007   4.613   0.449
 8563TIP3    H125653   5.047   4.654   0.526
 8563TIP3    H225654   4.947   4.679   0.415
 8564TIP3   OH225655   3.635   4.034   1.796
 8564TIP3    H125656   3.633   4.128   1.810
 8564TIP3    H225657   3.588   3.998   1.872
 8565TIP3   OH225658   2.941   4.940   3.595
 8565TIP3    H125659   2.939   4.932   3.691
 8565TIP3    H225660   2.853   4.970   3.572
 8566TIP3   OH225661   7.167   2.188   5.838
 8566TIP3    H125662   7.242   2.203   5.781
 8566TIP3    H225663   7.091   2.213   5.784
 8567TIP3   OH225664   7.093   2.289   4.937
 8567TIP3    H125665   7.050   2.209   4.968
 8567TIP3    H225666   7.041   2.360   4.976
 8568TIP3   OH225667   1.389   0.133   4.126
 8568TIP3    H125668   1.474   0.104   4.158
 8568TIP3    H225669   1.408   0.211   4.073
 8569TIP3   OH225670   4.336   2.312   5.448
 8569TIP3    H125671   4.283   2.373   5.500
 8569TIP3    H225672   4.378   2.255   5.513
 8570TIP3   OH225673   0.253   6.238   2.880
 8570TIP3    H125674   0.216   6.240   2.792
 8570TIP3    H225675   0.343   6.207   2.868
 8571TIP3   OH225676   6.431   4.894   0.056
 8571TIP3    H125677   6.402   4.983   0.073
 8571TIP3    H225678   6.376   4.864  -0.016
 8572TIP3   OH225679   6.490   1.982   4.807
 8572TIP3    H125680   6.472   2.002   4.715
 8572TIP3    H225681   6.427   2.035   4.856
 8573TIP3   OH225682   4.473   5.727   3.497
 8573TIP3    H125683   4.406   5.724   3.565
 8573TIP3    H225684   4.542   5.783   3.532
 8574TIP3   OH225685   4.536   2.863   3.243
 8574TIP3    H125686   4.564   2.936   3.187
 8574TIP3    H225687   4.442   2.876   3.253
 8575TIP3   OH225688   2.459   0.154   3.832
 8575TIP3    H125689   2.366   0.137   3.846
 8575TIP3    H225690   2.461   0.206   3.752
 8576TIP3   OH225691   1.008   1.665   3.502
 8576TIP3    H125692   1.061   1.729   3.455
 8576TIP3    H225693   0.982   1.602   3.435
 8577TIP3   OH225694   5.842   0.772   2.966
 8577TIP3    H125695   5.766   0.739   3.014
 8577TIP3    H225696   5.847   0.716   2.888
 8578TIP3   OH225697   3.395   6.669   0.502
 8578TIP3    H125698   3.314   6.643   0.459
 8578TIP3    H225699   3.437   6.730   0.441
 8579TIP3   OH225700   5.848   2.321   5.279
 8579TIP3    H125701   5.783   2.256   5.255
 8579TIP3    H225702   5.806   2.405   5.263
 8580TIP3   OH225703   6.955   3.983   5.758
 8580TIP3    H125704   7.005   4.018   5.684
 8580TIP3    H225705   7.022   3.951   5.818
 8581TIP3   OH225706   4.630   0.001   3.651
 8581TIP3    H125707   4.721   0.024   3.632
 8581TIP3    H225708   4.578   0.059   3.595
 8582TIP3   OH225709   2.628   3.536   4.210
 8582TIP3    H125710   2.647   3.612   4.264
 8582TIP3    H225711   2.675   3.464   4.252
 8583TIP3   OH225712   2.645   5.022   0.622
 8583TIP3    H125713   2.718   5.009   0.682
 8583TIP3    H225714   2.570   5.038   0.680
 8584TIP3   OH225715   0.898   5.476   2.834
 8584TIP3    H125716   0.811   5.511   2.813
 8584TIP3    H225717   0.883   5.422   2.912
 8585TIP3   OH225718   6.014   5.375   2.597
 8585TIP3    H125719   5.926   5.339   2.607
 8585TIP3    H225720   6.053   5.324   2.527
 8586TIP3   OH225721   4.986   2.406   2.880
 8586TIP3    H125722   4.913   2.375   2.933
 8586TIP3    H225723   4.989   2.347   2.805
 8587TIP3   OH225724   3.589   1.777   1.829
 8587TIP3    H125725   3.509   1.830   1.839
 8587TIP3    H225726   3.658   1.842   1.813
 8588TIP3   OH225727   2.351   4.931   1.577
 8588TIP3    H125728   2.350   4.976   1.492
 8588TIP3    H225729   2.297   4.986   1.634
 8589TIP3   OH225730   0.375   6.016   5.079
 8589TIP3    H125731   0.283   5.994   5.066
 8589TIP3    H225732   0.386   6.021   5.174
 8590TIP3   OH225733   1.107   6.092   4.574
 8590TIP3    H125734   1.110   6.069   4.667
 8590TIP3    H225735   1.182   6.046   4.535
 8591TIP3   OH225736   0.233   0.046   5.666
 8591TIP3    H125737   0.190   0.085   5.590
 8591TIP3    H225738   0.217   0.109   5.737
 8592TIP3   OH225739   4.694   3.183   1.613
 8592TIP3    H125740   4.633   3.110   1.611
 8592TIP3    H225741   4.641   3.258   1.638
 8593TIP3   OH225742   0.769   6.367   2.806
 8593TIP3    H125743   0.808   6.385   2.892
 8593TIP3    H225744   0.733   6.452   2.779
 8594TIP3   OH225745   1.814   3.074   1.657
 8594TIP3    H125746   1.789   3.156   1.613
 8594TIP3    H225747   1.905   3.061   1.631
 8595TIP3   OH225748   4.624   5.081   3.161
 8595TIP3    H125749   4.648   4.989   3.168
 8595TIP3    H225750   4.631   5.115   3.251
 8596TIP3   OH225751   1.685   0.747   5.605
 8596TIP3    H125752   1.695   0.652   5.608
 8596TIP3    H225753   1.774   0.779   5.588
 8597TIP3   OH225754   1.911   4.743   1.414
 8597TIP3    H125755   1.826   4.716   1.379
 8597TIP3    H225756   1.970   4.670   1.395
 8598TIP3   OH225757   6.609   4.808   2.358
 8598TIP3    H125758   6.625   4.806   2.264
 8598TIP3    H225759   6.532   4.752   2.371
 8599TIP3   OH225760   4.372   5.588   2.541
 8599TIP3    H125761   4.374   5.559   2.633
 8599TIP3    H225762   4.321   5.520   2.496
 8600TIP3   OH225763   2.517   2.300   5.866
 8600TIP3    H125764   2.599   2.349   5.869
 8600TIP3    H225765   2.537   2.224   5.811
 8601TIP3   OH225766   0.785   0.424   1.714
 8601TIP3    H125767   0.714   0.471   1.758
 8601TIP3    H225768   0.820   0.365   1.781
 8602TIP3   OH225769   3.495   3.029   5.640
 8602TIP3    H125770   3.568   3.051   5.583
 8602TIP3    H225771   3.487   3.103   5.700
 8603TIP3   OH225772   1.850   4.832   3.091
 8603TIP3    H125773   1.859   4.792   3.177
 8603TIP3    H225774   1.800   4.769   3.040
 8604TIP3   OH225775   2.216   1.566   3.435
 8604TIP3    H125776   2.140   1.568   3.493
 8604TIP3    H225777   2.221   1.655   3.399
 8605TIP3   OH225778   5.589   6.486   0.426
 8605TIP3    H125779   5.510   6.468   0.476
 8605TIP3    H225780   5.641   6.406   0.432
 8606TIP3   OH225781   1.519   5.640   5.369
 8606TIP3    H125782   1.566   5.678   5.295
 8606TIP3    H225783   1.485   5.557   5.336
 8607TIP3   OH225784   2.992   6.544   5.702
 8607TIP3    H125785   2.970   6.533   5.610
 8607TIP3    H225786   2.963   6.633   5.724
 8608TIP3   OH225787   3.652   4.110   0.660
 8608TIP3    H125788   3.612   4.194   0.635
 8608TIP3    H225789   3.685   4.125   0.748
 8609TIP3   OH225790   0.635   0.761   4.143
 8609TIP3    H125791   0.714   0.731   4.187
 8609TIP3    H225792   0.584   0.804   4.212
 8610TIP3   OH225793   0.205   0.440   2.789
 8610TIP3    H125794   0.184   0.456   2.697
 8610TIP3    H225795   0.283   0.384   2.786
 8611TIP3   OH225796   5.850   0.930   4.473
 8611TIP3    H125797   5.906   1.005   4.493
 8611TIP3    H225798   5.910   0.857   4.460
 8612TIP3   OH225799   5.270   1.388   1.232
 8612TIP3    H125800   5.272   1.452   1.160
 8612TIP3    H225801   5.361   1.384   1.263
 8613TIP3   OH225802   3.566   5.345   1.115
 8613TIP3    H125803   3.555   5.431   1.075
 8613TIP3    H225804   3.490   5.335   1.172
 8614TIP3   OH225805   4.427   2.282   3.742
 8614TIP3    H125806   4.507   2.240   3.772
 8614TIP3    H225807   4.389   2.220   3.680
 8615TIP3   OH225808   6.407   3.674   5.708
 8615TIP3    H125809   6.441   3.598   5.755
 8615TIP3    H225810   6.473   3.742   5.723
 8616TIP3   OH225811   1.247   1.691   0.311
 8616TIP3    H125812   1.193   1.769   0.301
 8616TIP3    H225813   1.324   1.708   0.257
 8617TIP3   OH225814   5.676   0.564   4.818
 8617TIP3    H125815   5.730   0.494   4.855
 8617TIP3    H225816   5.736   0.638   4.809
 8618TIP3   OH225817   2.098   4.706   2.447
 8618TIP3    H125818   2.039   4.631   2.453
 8618TIP3    H225819   2.041   4.782   2.460
 8619TIP3   OH225820   2.163   6.141   1.471
 8619TIP3    H125821   2.233   6.180   1.419
 8619TIP3    H225822   2.143   6.058   1.427
 8620TIP3   OH225823   2.890   2.245   4.737
 8620TIP3    H125824   2.905   2.168   4.793
 8620TIP3    H225825   2.800   2.236   4.708
 8621TIP3   OH225826   2.509   3.401   2.270
 8621TIP3    H125827   2.419   3.415   2.297
 8621TIP3    H225828   2.559   3.395   2.352
 8622TIP3   OH225829   6.474   4.254   3.909
 8622TIP3    H125830   6.455   4.192   3.980
 8622TIP3    H225831   6.458   4.204   3.829
 8623TIP3   OH225832   4.002   5.962   3.217
 8623TIP3    H125833   4.000   6.043   3.268
 8623TIP3    H225834   4.082   5.918   3.246
 8624TIP3   OH225835   6.737   5.861   3.267
 8624TIP3    H125836   6.799   5.931   3.245
 8624TIP3    H225837   6.684   5.850   3.188
 8625TIP3   OH225838   1.173   2.863   4.819
 8625TIP3    H125839   1.251   2.889   4.769
 8625TIP3    H225840   1.205   2.851   4.908
 8626TIP3   OH225841   2.404   4.646   0.299
 8626TIP3    H125842   2.445   4.569   0.339
 8626TIP3    H225843   2.413   4.715   0.365
 8627TIP3   OH225844   2.477   0.027   3.081
 8627TIP3    H125845   2.438   0.096   3.027
 8627TIP3    H225846   2.419  -0.048   3.068
 8628TIP3   OH225847   3.733   6.529   0.495
 8628TIP3    H125848   3.670   6.478   0.546
 8628TIP3    H225849   3.817   6.517   0.540
 8629TIP3   OH225850   2.579   4.442   2.762
 8629TIP3    H125851   2.607   4.433   2.671
 8629TIP3    H225852   2.576   4.537   2.777
 8630TIP3   OH225853   6.600   3.420   5.095
 8630TIP3    H125854   6.635   3.507   5.116
 8630TIP3    H225855   6.677   3.367   5.075
 8631TIP3   OH225856   3.178   2.464   5.170
 8631TIP3    H125857   3.267   2.433   5.187
 8631TIP3    H225858   3.129   2.441   5.249
 8632TIP3   OH225859   1.764   2.506   0.125
 8632TIP3    H125860   1.796   2.498   0.035
 8632TIP3    H225861   1.671   2.483   0.119
 8633TIP3   OH225862   2.453   3.391   4.694
 8633TIP3    H125863   2.368   3.393   4.648
 8633TIP3    H225864   2.471   3.299   4.708
 8634TIP3   OH225865   2.474   4.380   4.662
 8634TIP3    H125866   2.514   4.296   4.639
 8634TIP3    H225867   2.400   4.356   4.718
 8635TIP3   OH225868   7.086   6.186   0.390
 8635TIP3    H125869   7.090   6.127   0.315
 8635TIP3    H225870   7.144   6.259   0.366
 8636TIP3   OH225871   7.165   2.265   3.554
 8636TIP3    H125872   7.257   2.262   3.580
 8636TIP3    H225873   7.126   2.331   3.610
 8637TIP3   OH225874   5.385   6.320   5.177
 8637TIP3    H125875   5.424   6.392   5.128
 8637TIP3    H225876   5.409   6.242   5.128
 8638TIP3   OH225877   7.028   2.333   3.322
 8638TIP3    H125878   7.099   2.329   3.387
 8638TIP3    H225879   7.053   2.269   3.256
 8639TIP3   OH225880   6.639   5.492   1.812
 8639TIP3    H125881   6.545   5.477   1.804
 8639TIP3    H225882   6.670   5.422   1.870
 8640TIP3   OH225883   6.851   2.437   4.780
 8640TIP3    H125884   6.855   2.415   4.873
 8640TIP3    H225885   6.906   2.514   4.771
 8641TIP3   OH225886   1.531   4.529   1.072
 8641TIP3    H125887   1.507   4.556   0.983
 8641TIP3    H225888   1.589   4.455   1.060
 8642TIP3   OH225889   1.116   0.024   1.418
 8642TIP3    H125890   1.081  -0.049   1.470
 8642TIP3    H225891   1.042   0.052   1.364
 8643TIP3   OH225892   3.370   1.235   4.241
 8643TIP3    H125893   3.455   1.226   4.284
 8643TIP3    H225894   3.358   1.152   4.195
 8644TIP3   OH225895   2.545   3.675   3.333
 8644TIP3    H125896   2.603   3.608   3.296
 8644TIP3    H225897   2.516   3.726   3.258
 8645TIP3   OH225898   5.085   1.134   2.987
 8645TIP3    H125899   5.057   1.225   2.996
 8645TIP3    H225900   5.031   1.099   2.916
 8646TIP3   OH225901   0.687   4.435   1.262
 8646TIP3    H125902   0.747   4.376   1.219
 8646TIP3    H225903   0.676   4.508   1.200
 8647TIP3   OH225904   4.360   3.231   0.850
 8647TIP3    H125905   4.450   3.259   0.834
 8647TIP3    H225906   4.360   3.195   0.939
 8648TIP3   OH225907   5.031   0.711   0.732
 8648TIP3    H125908   4.986   0.771   0.672
 8648TIP3    H225909   5.032   0.627   0.686
 8649TIP3   OH225910   1.431   4.605   0.647
 8649TIP3    H125911   1.520   4.636   0.661
 8649TIP3    H225912   1.398   4.587   0.735
 8650TIP3   OH225913   2.371   6.611   1.420
 8650TIP3    H125914   2.425   6.624   1.498
 8650TIP3    H225915   2.428   6.632   1.347
 8651TIP3   OH225916   7.139   1.785   1.077
 8651TIP3    H125917   7.074   1.734   1.124
 8651TIP3    H225918   7.216   1.784   1.134
 8652TIP3   OH225919   6.366   3.237   3.120
 8652TIP3    H125920   6.362   3.150   3.079
 8652TIP3    H225921   6.382   3.297   3.048
 8653TIP3   OH225922   4.631   5.513   5.246
 8653TIP3    H125923   4.605   5.579   5.311
 8653TIP3    H225924   4.708   5.471   5.284
 8654TIP3   OH225925   6.869   1.619   4.574
 8654TIP3    H125926   6.885   1.639   4.666
 8654TIP3    H225927   6.836   1.701   4.537
 8655TIP3   OH225928   0.599   3.457   5.084
 8655TIP3    H125929   0.553   3.487   5.005
 8655TIP3    H225930   0.564   3.512   5.154
 8656TIP3   OH225931   0.852   1.668   5.585
 8656TIP3    H125932   0.761   1.659   5.611
 8656TIP3    H225933   0.896   1.592   5.624
 8657TIP3   OH225934   6.370   6.500   5.133
 8657TIP3    H125935   6.405   6.417   5.165
 8657TIP3    H225936   6.383   6.561   5.205
 8658TIP3   OH225937   3.018   1.931   0.201
 8658TIP3    H125938   3.106   1.963   0.182
 8658TIP3    H225939   3.003   1.861   0.137
 8659TIP3   OH225940   3.132   6.132   2.522
 8659TIP3    H125941   3.221   6.159   2.501
 8659TIP3    H225942   3.139   6.090   2.607
 8660TIP3   OH225943   1.947   3.468   3.065
 8660TIP3    H125944   2.040   3.445   3.066
 8660TIP3    H225945   1.902   3.390   3.094
 8661TIP3   OH225946   7.120   0.575   2.532
 8661TIP3    H125947   7.190   0.620   2.579
 8661TIP3    H225948   7.051   0.640   2.523
 8662TIP3   OH225949  -0.061   5.102   3.907
 8662TIP3    H125950   0.016   5.115   3.852
 8662TIP3    H225951  -0.072   5.186   3.952
 8663TIP3   OH225952   4.366   1.345   3.216
 8663TIP3    H125953   4.394   1.433   3.192
 8663TIP3    H225954   4.375   1.294   3.135
 8664TIP3   OH225955   1.170   6.172   5.729
 8664TIP3    H125956   1.149   6.257   5.767
 8664TIP3    H225957   1.125   6.109   5.785
 8665TIP3   OH225958   3.982   0.775   0.231
 8665TIP3    H125959   3.963   0.859   0.274
 8665TIP3    H225960   3.903   0.757   0.180
 8666TIP3   OH225961   7.024   5.924   5.426
 8666TIP3    H125962   6.992   5.853   5.370
 8666TIP3    H225963   7.082   5.974   5.369
 8667TIP3   OH225964   2.791   0.879   3.984
 8667TIP3    H125965   2.874   0.913   4.018
 8667TIP3    H225966   2.798   0.889   3.889
 8668TIP3   OH225967   5.750   2.063   0.606
 8668TIP3    H125968   5.705   2.014   0.674
 8668TIP3    H225969   5.688   2.065   0.533
 8669TIP3   OH225970   6.886   5.231   3.500
 8669TIP3    H125971   6.938   5.307   3.477
 8669TIP3    H225972   6.889   5.175   3.423
 8670TIP3   OH225973   1.311   5.946   5.278
 8670TIP3    H125974   1.370   6.020   5.261
 8670TIP3    H225975   1.238   5.985   5.325
 8671TIP3   OH225976   6.531   2.193   4.101
 8671TIP3    H125977   6.549   2.254   4.172
 8671TIP3    H225978   6.618   2.163   4.073
 8672TIP3   OH225979   5.544   4.404   1.077
 8672TIP3    H125980   5.630   4.442   1.097
 8672TIP3    H225981   5.539   4.326   1.134
 8673TIP3   OH225982   6.702   5.769   1.924
 8673TIP3    H125983   6.694   5.674   1.938
 8673TIP3    H225984   6.688   5.807   2.010
 8674TIP3   OH225985   5.551   2.885   1.184
 8674TIP3    H125986   5.499   2.896   1.263
 8674TIP3    H225987   5.491   2.905   1.112
 8675TIP3   OH225988   7.026   0.564   3.219
 8675TIP3    H125989   7.102   0.606   3.259
 8675TIP3    H225990   7.060   0.524   3.139
 8676TIP3   OH225991   5.338   0.914   0.946
 8676TIP3    H125992   5.267   0.970   0.977
 8676TIP3    H225993   5.298   0.827   0.937
 8677TIP3   OH225994   3.661   5.567   0.450
 8677TIP3    H125995   3.689   5.645   0.402
 8677TIP3    H225996   3.571   5.552   0.421
 8678TIP3   OH225997   5.002   0.484   2.866
 8678TIP3    H125998   5.008   0.530   2.950
 8678TIP3    H225999   4.976   0.395   2.888
 8679TIP3   OH226000   4.429   1.413   4.895
 8679TIP3    H126001   4.372   1.488   4.876
 8679TIP3    H226002   4.505   1.451   4.938
 8680TIP3   OH226003   4.153   2.635   1.861
 8680TIP3    H126004   4.171   2.574   1.790
 8680TIP3    H226005   4.240   2.660   1.894
 8681TIP3   OH226006   6.025   3.468   1.158
 8681TIP3    H126007   6.080   3.406   1.112
 8681TIP3    H226008   5.973   3.414   1.219
 8682TIP3   OH226009   0.611   3.613   2.575
 8682TIP3    H126010   0.666   3.600   2.652
 8682TIP3    H226011   0.564   3.531   2.564
 8683TIP3   OH226012   1.135   3.657   5.483
 8683TIP3    H126013   1.182   3.647   5.401
 8683TIP3    H226014   1.083   3.737   5.471
 8684TIP3   OH226015   3.718   3.733   1.145
 8684TIP3    H126016   3.699   3.666   1.210
 8684TIP3    H226017   3.637   3.741   1.095
 8685TIP3   OH226018   0.752   5.087   0.819
 8685TIP3    H126019   0.836   5.044   0.831
 8685TIP3    H226020   0.700   5.024   0.769
 8686TIP3   OH226021   3.550   0.217   3.253
 8686TIP3    H126022   3.480   0.211   3.319
 8686TIP3    H226023   3.508   0.192   3.171
 8687TIP3   OH226024   1.984   2.946   1.978
 8687TIP3    H126025   2.030   2.906   1.904
 8687TIP3    H226026   1.970   3.036   1.951
 8688TIP3   OH226027   2.536   1.057   5.089
 8688TIP3    H126028   2.488   0.994   5.143
 8688TIP3    H226029   2.503   1.043   5.001
 8689TIP3   OH226030   4.835   3.672   4.668
 8689TIP3    H126031   4.805   3.747   4.617
 8689TIP3    H226032   4.920   3.648   4.630
 8690TIP3   OH226033   0.082   6.409   5.110
 8690TIP3    H126034   0.012   6.351   5.139
 8690TIP3    H226035   0.150   6.350   5.077
 8691TIP3   OH226036   1.543   2.531   2.094
 8691TIP3    H126037   1.568   2.615   2.131
 8691TIP3    H226038   1.464   2.506   2.141
 8692TIP3   OH226039   1.984   6.455   5.607
 8692TIP3    H126040   2.021   6.543   5.614
 8692TIP3    H226041   1.940   6.454   5.522
 8693TIP3   OH226042   4.327   0.348   1.643
 8693TIP3    H126043   4.304   0.279   1.705
 8693TIP3    H226044   4.290   0.428   1.681
 8694TIP3   OH226045   5.265   3.744   5.686
 8694TIP3    H126046   5.282   3.709   5.598
 8694TIP3    H226047   5.351   3.747   5.727
 8695TIP3   OH226048   6.228   2.207   2.234
 8695TIP3    H126049   6.288   2.248   2.172
 8695TIP3    H226050   6.275   2.211   2.318
 8696TIP3   OH226051   1.638   3.023   5.292
 8696TIP3    H126052   1.608   3.114   5.285
 8696TIP3    H226053   1.616   2.984   5.207
 8697TIP3   OH226054   5.778   5.164   4.219
 8697TIP3    H126055   5.743   5.176   4.308
 8697TIP3    H226056   5.808   5.073   4.218
 8698TIP3   OH226057   1.431   3.657   2.331
 8698TIP3    H126058   1.401   3.601   2.259
 8698TIP3    H226059   1.370   3.639   2.402
 8699TIP3   OH226060   7.120   3.941   3.948
 8699TIP3    H126061   7.189   3.963   4.009
 8699TIP3    H226062   7.042   3.930   4.002
 8700TIP3   OH226063   4.619   5.713   1.628
 8700TIP3    H126064   4.600   5.729   1.535
 8700TIP3    H226065   4.645   5.799   1.662
 8701TIP3   OH226066   7.077   2.889   0.641
 8701TIP3    H126067   7.047   2.822   0.579
 8701TIP3    H226068   7.039   2.970   0.609
 8702TIP3   OH226069   2.699   2.718   4.361
 8702TIP3    H126070   2.651   2.673   4.292
 8702TIP3    H226071   2.683   2.666   4.440
 8703TIP3   OH226072   2.902   4.985   1.062
 8703TIP3    H126073   2.896   4.923   1.135
 8703TIP3    H226074   2.996   5.000   1.050
 8704TIP3   OH226075   4.017   5.529   1.929
 8704TIP3    H126076   4.087   5.464   1.932
 8704TIP3    H226077   4.009   5.552   1.836
 8705TIP3   OH226078   0.346   1.662   1.356
 8705TIP3    H126079   0.302   1.577   1.351
 8705TIP3    H226080   0.312   1.702   1.436
 8706TIP3   OH226081   5.214  -0.025   4.685
 8706TIP3    H126082   5.263   0.030   4.746
 8706TIP3    H226083   5.211   0.026   4.604
 8707TIP3   OH226084   0.455   0.816   1.722
 8707TIP3    H126085   0.440   0.858   1.807
 8707TIP3    H226086   0.369   0.818   1.679
 8708TIP3   OH226087   6.475   4.553   0.362
 8708TIP3    H126088   6.504   4.515   0.445
 8708TIP3    H226089   6.382   4.571   0.375
 8709TIP3   OH226090   3.557   5.059   1.730
 8709TIP3    H126091   3.620   4.987   1.736
 8709TIP3    H226092   3.534   5.078   1.821
 8710TIP3   OH226093  -0.003   1.516   2.169
 8710TIP3    H126094   0.027   1.470   2.248
 8710TIP3    H226095   0.078   1.543   2.126
 8711TIP3   OH226096   6.322   5.344   5.667
 8711TIP3    H126097   6.270   5.393   5.731
 8711TIP3    H226098   6.404   5.324   5.713
 8712TIP3   OH226099   3.396   3.003   0.258
 8712TIP3    H126100   3.330   3.015   0.326
 8712TIP3    H226101   3.346   2.995   0.177
 8713TIP3   OH226102   6.682   4.357   4.732
 8713TIP3    H126103   6.772   4.382   4.708
 8713TIP3    H226104   6.680   4.262   4.718
 8714TIP3   OH226105   1.824   6.458   5.825
 8714TIP3    H126106   1.899   6.456   5.766
 8714TIP3    H226107   1.853   6.511   5.899
 8715TIP3   OH226108   6.624   5.090   5.596
 8715TIP3    H126109   6.610   5.127   5.683
 8715TIP3    H226110   6.536   5.067   5.565
 8716TIP3   OH226111   4.310   2.911   4.753
 8716TIP3    H126112   4.308   3.006   4.741
 8716TIP3    H226113   4.300   2.899   4.847
 8717TIP3   OH226114   2.911   1.986   1.971
 8717TIP3    H126115   2.847   1.990   1.899
 8717TIP3    H226116   2.995   1.973   1.928
 8718TIP3   OH226117   2.585   6.547   0.861
 8718TIP3    H126118   2.530   6.568   0.785
 8718TIP3    H226119   2.655   6.612   0.858
 8719TIP3   OH226120   4.242   2.545   1.609
 8719TIP3    H126121   4.226   2.637   1.587
 8719TIP3    H226122   4.288   2.510   1.533
 8720TIP3   OH226123   3.785   2.191   3.744
 8720TIP3    H126124   3.847   2.237   3.800
 8720TIP3    H226125   3.698   2.220   3.774
 8721TIP3   OH226126   4.358   3.610   5.023
 8721TIP3    H126127   4.415   3.626   4.948
 8721TIP3    H226128   4.404   3.544   5.075
 8722TIP3   OH226129   4.891   0.902   3.600
 8722TIP3    H126130   4.929   0.882   3.685
 8722TIP3    H226131   4.963   0.889   3.538
 8723TIP3   OH226132   5.607   5.420   1.325
 8723TIP3    H126133   5.605   5.500   1.273
 8723TIP3    H226134   5.526   5.375   1.303
 8724TIP3   OH226135   3.160   2.963   3.370
 8724TIP3    H126136   3.086   3.012   3.406
 8724TIP3    H226137   3.198   2.917   3.445
 8725TIP3   OH226138   0.197   0.485   4.152
 8725TIP3    H126139   0.114   0.483   4.199
 8725TIP3    H226140   0.184   0.550   4.083
 8726TIP3   OH226141   4.925   3.739   0.634
 8726TIP3    H126142   4.978   3.774   0.563
 8726TIP3    H226143   4.834   3.752   0.604
 8727TIP3   OH226144   3.586   0.864   1.240
 8727TIP3    H126145   3.532   0.867   1.319
 8727TIP3    H226146   3.544   0.799   1.184
 8728TIP3   OH226147   1.588   0.475   4.519
 8728TIP3    H126148   1.541   0.440   4.595
 8728TIP3    H226149   1.529   0.460   4.445
 8729TIP3   OH226150   6.703   4.098   4.721
 8729TIP3    H126151   6.618   4.066   4.753
 8729TIP3    H226152   6.756   4.020   4.711
 8730TIP3   OH226153   5.731   2.697   5.738
 8730TIP3    H126154   5.687   2.663   5.816
 8730TIP3    H226155   5.765   2.620   5.693
 8731TIP3   OH226156   0.744   2.080   3.124
 8731TIP3    H126157   0.765   2.166   3.161
 8731TIP3    H226158   0.827   2.032   3.126
 8732TIP3   OH226159   3.871   4.849   3.757
 8732TIP3    H126160   3.782   4.817   3.741
 8732TIP3    H226161   3.923   4.813   3.685
 8733TIP3   OH226162   1.777   0.487   5.545
 8733TIP3    H126163   1.852   0.432   5.566
 8733TIP3    H226164   1.703   0.426   5.542
 8734TIP3   OH226165   4.179   6.323   1.765
 8734TIP3    H126166   4.108   6.383   1.791
 8734TIP3    H226167   4.138   6.237   1.762
 8735TIP3   OH226168   7.173   2.204   4.444
 8735TIP3    H126169   7.181   2.146   4.369
 8735TIP3    H226170   7.221   2.283   4.418
 8736TIP3   OH226171   5.808   5.901   0.144
 8736TIP3    H126172   5.792   5.903   0.050
 8736TIP3    H226173   5.722   5.917   0.183
 8737TIP3   OH226174   0.310   3.195   2.580
 8737TIP3    H126175   0.230   3.143   2.582
 8737TIP3    H226176   0.379   3.132   2.557
 8738TIP3   OH226177   5.045   4.311   3.840
 8738TIP3    H126178   4.960   4.269   3.851
 8738TIP3    H226179   5.043   4.384   3.902
 8739TIP3   OH226180   2.287   4.385   3.959
 8739TIP3    H126181   2.214   4.446   3.964
 8739TIP3    H226182   2.341   4.405   4.035
 8740TIP3   OH226183   0.702   3.443   5.561
 8740TIP3    H126184   0.633   3.380   5.542
 8740TIP3    H226185   0.753   3.402   5.631
 8741TIP3   OH226186   3.252   4.581   1.460
 8741TIP3    H126187   3.254   4.608   1.552
 8741TIP3    H226188   3.330   4.527   1.449
 8742TIP3   OH226189  -0.059   3.640   1.934
 8742TIP3    H126190  -0.008   3.659   1.855
 8742TIP3    H226191   0.004   3.607   1.997
 8743TIP3   OH226192   4.889   3.157   2.794
 8743TIP3    H126193   4.978   3.190   2.800
 8743TIP3    H226194   4.834   3.228   2.826
 8744TIP3   OH226195   2.064   3.413   4.912
 8744TIP3    H126196   1.979   3.389   4.875
 8744TIP3    H226197   2.120   3.427   4.835
 8745TIP3   OH226198   4.568   4.762   2.028
 8745TIP3    H126199   4.554   4.681   2.077
 8745TIP3    H226200   4.560   4.831   2.094
 8746TIP3   OH226201   0.689   3.620   1.289
 8746TIP3    H126202   0.784   3.611   1.299
 8746TIP3    H226203   0.675   3.626   1.195
 8747TIP3   OH226204   4.419   0.734   3.482
 8747TIP3    H126205   4.378   0.670   3.540
 8747TIP3    H226206   4.346   0.784   3.446
 8748TIP3   OH226207   3.939   4.042   5.716
 8748TIP3    H126208   3.901   3.991   5.645
 8748TIP3    H226209   3.879   4.030   5.790
 8749TIP3   OH226210   6.247   1.686   3.281
 8749TIP3    H126211   6.287   1.627   3.217
 8749TIP3    H226212   6.154   1.688   3.258
 8750TIP3   OH226213   4.181   2.269   1.913
 8750TIP3    H126214   4.235   2.312   1.846
 8750TIP3    H226215   4.129   2.205   1.864
 8751TIP3   OH226216   0.792   1.351   0.160
 8751TIP3    H126217   0.836   1.266   0.169
 8751TIP3    H226218   0.752   1.348   0.073
 8752TIP3   OH226219   2.233   4.279   1.057
 8752TIP3    H126220   2.305   4.292   1.119
 8752TIP3    H226221   2.157   4.317   1.101
 8753TIP3   OH226222   1.578   6.039   0.701
 8753TIP3    H126223   1.517   6.007   0.768
 8753TIP3    H226224   1.645   6.086   0.750
 8754TIP3   OH226225   2.615   2.259   5.037
 8754TIP3    H126226   2.626   2.326   4.970
 8754TIP3    H226227   2.679   2.281   5.104
 8755TIP3   OH226228   4.629   1.424   1.051
 8755TIP3    H126229   4.686   1.478   1.106
 8755TIP3    H226230   4.598   1.355   1.110
 8756TIP3   OH226231   3.364   2.753   2.172
 8756TIP3    H126232   3.304   2.716   2.237
 8756TIP3    H226233   3.324   2.733   2.087
 8757TIP3   OH226234   5.262   5.814   2.350
 8757TIP3    H126235   5.219   5.880   2.297
 8757TIP3    H226236   5.350   5.806   2.313
 8758TIP3   OH226237   4.710   4.563   3.322
 8758TIP3    H126238   4.783   4.506   3.345
 8758TIP3    H226239   4.741   4.614   3.248
 8759TIP3   OH226240   4.058   1.333   1.068
 8759TIP3    H126241   3.997   1.267   1.033
 8759TIP3    H226242   4.002   1.409   1.087
 8760TIP3   OH226243   6.136   1.882   4.821
 8760TIP3    H126244   6.184   1.959   4.854
 8760TIP3    H226245   6.115   1.832   4.900
 8761TIP3   OH226246   1.372   4.047   4.849
 8761TIP3    H126247   1.347   4.117   4.789
 8761TIP3    H226248   1.467   4.042   4.842
 8762TIP3   OH226249   5.648   3.069   1.848
 8762TIP3    H126250   5.721   3.101   1.795
 8762TIP3    H226251   5.571   3.114   1.812
 8763TIP3   OH226252   3.036   0.691   4.501
 8763TIP3    H126253   2.965   0.734   4.547
 8763TIP3    H226254   3.085   0.644   4.569
 8764TIP3   OH226255   1.206   3.890   4.136
 8764TIP3    H126256   1.235   3.806   4.101
 8764TIP3    H226257   1.137   3.868   4.199
 8765TIP3   OH226258   6.516   1.879   5.125
 8765TIP3    H126259   6.520   1.929   5.206
 8765TIP3    H226260   6.430   1.902   5.087
 8766TIP3   OH226261   3.755   1.512   5.839
 8766TIP3    H126262   3.732   1.599   5.871
 8766TIP3    H226263   3.695   1.453   5.885
 8767TIP3   OH226264   1.983   6.088   2.929
 8767TIP3    H126265   1.889   6.103   2.934
 8767TIP3    H226266   2.021   6.176   2.918
 8768TIP3   OH226267   1.323   4.137   2.510
 8768TIP3    H126268   1.395   4.180   2.556
 8768TIP3    H226269   1.364   4.069   2.457
 8769TIP3   OH226270   1.092   0.879   0.262
 8769TIP3    H126271   1.071   0.817   0.333
 8769TIP3    H226272   1.055   0.838   0.184
 8770TIP3   OH226273   6.859   0.830   3.425
 8770TIP3    H126274   6.954   0.841   3.431
 8770TIP3    H226275   6.842   0.743   3.461
 8771TIP3   OH226276   3.807   3.823   5.574
 8771TIP3    H126277   3.783   3.731   5.589
 8771TIP3    H226278   3.729   3.862   5.534
 8772TIP3   OH226279   1.367   5.426   1.356
 8772TIP3    H126280   1.423   5.353   1.328
 8772TIP3    H226281   1.413   5.504   1.325
 8773TIP3   OH226282   3.470   2.332   0.236
 8773TIP3    H126283   3.508   2.345   0.149
 8773TIP3    H226284   3.545   2.326   0.295
 8774TIP3   OH226285   2.648   4.074   3.049
 8774TIP3    H126286   2.706   4.138   3.090
 8774TIP3    H226287   2.704   4.024   2.990
 8775TIP3   OH226288   6.454   2.633   0.336
 8775TIP3    H126289   6.440   2.543   0.305
 8775TIP3    H226290   6.515   2.624   0.410
 8776TIP3   OH226291   4.260   3.080   2.111
 8776TIP3    H126292   4.333   3.120   2.064
 8776TIP3    H226293   4.290   3.071   2.201
 8777TIP3   OH226294   0.602   3.374   1.416
 8777TIP3    H126295   0.681   3.332   1.382
 8777TIP3    H226296   0.610   3.465   1.388
 8778TIP3   OH226297   1.560   3.398   4.162
 8778TIP3    H126298   1.591   3.485   4.135
 8778TIP3    H226299   1.596   3.339   4.096
 8779TIP3   OH226300   5.833   2.915   5.414
 8779TIP3    H126301   5.798   2.970   5.344
 8779TIP3    H226302   5.919   2.888   5.383
 8780TIP3   OH226303   1.376   6.275   4.368
 8780TIP3    H126304   1.317   6.216   4.415
 8780TIP3    H226305   1.460   6.264   4.413
 8781TIP3   OH226306   2.008   4.660   2.817
 8781TIP3    H126307   2.001   4.591   2.751
 8781TIP3    H226308   2.024   4.613   2.899
 8782TIP3   OH226309   2.955   6.788   3.808
 8782TIP3    H126310   2.866   6.759   3.787
 8782TIP3    H226311   2.998   6.710   3.843
 8783TIP3   OH226312   0.327   6.039   3.865
 8783TIP3    H126313   0.386   5.974   3.826
 8783TIP3    H226314   0.304   6.003   3.950
 8784TIP3   OH226315   2.871   6.206   1.730
 8784TIP3    H126316   2.839   6.203   1.820
 8784TIP3    H226317   2.803   6.163   1.678
 8785TIP3   OH226318   0.422   5.399   3.030
 8785TIP3    H126319   0.470   5.442   2.959
 8785TIP3    H226320   0.334   5.385   2.995
 8786TIP3   OH226321   3.347   2.140   2.000
 8786TIP3    H126322   3.394   2.217   1.968
 8786TIP3    H226323   3.391   2.116   2.081
 8787TIP3   OH226324   2.992   4.371   1.108
 8787TIP3    H126325   2.943   4.420   1.042
 8787TIP3    H226326   3.010   4.436   1.176
 8788TIP3   OH226327   4.335   0.229   5.193
 8788TIP3    H126328   4.362   0.254   5.282
 8788TIP3    H226329   4.389   0.283   5.136
 8789TIP3   OH226330   0.435   1.224   1.190
 8789TIP3    H126331   0.379   1.296   1.160
 8789TIP3    H226332   0.442   1.238   1.285
 8790TIP3   OH226333   4.515   2.962   0.931
 8790TIP3    H126334   4.446   2.967   0.997
 8790TIP3    H226335   4.474   2.992   0.850
 8791TIP3   OH226336   1.064   3.754   2.639
 8791TIP3    H126337   0.984   3.750   2.586
 8791TIP3    H226338   1.135   3.742   2.576
 8792TIP3   OH226339   6.817   0.441   4.059
 8792TIP3    H126340   6.751   0.510   4.063
 8792TIP3    H226341   6.779   0.375   4.000
 8793TIP3   OH226342   4.633   2.110   4.281
 8793TIP3    H126343   4.647   2.020   4.255
 8793TIP3    H226344   4.686   2.162   4.220
 8794TIP3   OH226345   1.940   6.817   0.952
 8794TIP3    H126346   2.025   6.845   0.918
 8794TIP3    H226347   1.946   6.721   0.954
 8795TIP3   OH226348   2.140   1.703   4.483
 8795TIP3    H126349   2.187   1.758   4.420
 8795TIP3    H226350   2.088   1.644   4.429
 8796TIP3   OH226351   5.083   5.692   3.915
 8796TIP3    H126352   4.995   5.656   3.907
 8796TIP3    H226353   5.097   5.700   4.010
 8797TIP3   OH226354   0.809   3.659   3.273
 8797TIP3    H126355   0.744   3.712   3.319
 8797TIP3    H226356   0.789   3.569   3.297
 8798TIP3   OH226357   0.491   4.509   5.846
 8798TIP3    H126358   0.545   4.579   5.884
 8798TIP3    H226359   0.501   4.521   5.751
 8799TIP3   OH226360   2.707   0.158   5.044
 8799TIP3    H126361   2.631   0.213   5.021
 8799TIP3    H226362   2.692   0.076   4.996
 8800TIP3   OH226363   2.148   4.457   1.536
 8800TIP3    H126364   2.224   4.423   1.584
 8800TIP3    H226365   2.109   4.380   1.494
 8801TIP3   OH226366   2.145   3.004   2.449
 8801TIP3    H126367   2.164   2.992   2.356
 8801TIP3    H226368   2.062   2.958   2.463
 8802TIP3   OH226369   5.378   1.302   3.489
 8802TIP3    H126370   5.400   1.354   3.412
 8802TIP3    H226371   5.458   1.301   3.541
 8803TIP3   OH226372   0.866   2.525   5.371
 8803TIP3    H126373   0.859   2.438   5.412
 8803TIP3    H226374   0.842   2.511   5.280
 8804TIP3   OH226375   1.518   6.633   2.502
 8804TIP3    H126376   1.584   6.571   2.471
 8804TIP3    H226377   1.535   6.642   2.596
 8805TIP3   OH226378   4.129   2.418   1.248
 8805TIP3    H126379   4.099   2.390   1.162
 8805TIP3    H226380   4.087   2.503   1.262
 8806TIP3   OH226381   2.671   1.021   2.339
 8806TIP3    H126382   2.604   0.953   2.343
 8806TIP3    H226383   2.675   1.057   2.427
 8807TIP3   OH226384   6.338   2.554   2.281
 8807TIP3    H126385   6.285   2.489   2.234
 8807TIP3    H226386   6.302   2.556   2.369
 8808TIP3   OH226387   2.276   6.247   4.082
 8808TIP3    H126388   2.303   6.203   4.001
 8808TIP3    H226389   2.318   6.333   4.077
 8809TIP3   OH226390   5.481   0.190   0.465
 8809TIP3    H126391   5.408   0.131   0.481
 8809TIP3    H226392   5.530   0.191   0.547
 8810TIP3   OH226393   2.588   0.073   4.168
 8810TIP3    H126394   2.508   0.021   4.165
 8810TIP3    H226395   2.559   0.163   4.156
 8811TIP3   OH226396   5.808   0.423   3.137
 8811TIP3    H126397   5.734   0.482   3.123
 8811TIP3    H226398   5.871   0.446   3.068
 8812TIP3   OH226399   3.298   3.651   2.441
 8812TIP3    H126400   3.388   3.662   2.471
 8812TIP3    H226401   3.289   3.557   2.427
 8813TIP3   OH226402   1.381   2.143   1.733
 8813TIP3    H126403   1.338   2.068   1.775
 8813TIP3    H226404   1.348   2.219   1.782
 8814TIP3   OH226405   6.095   2.043   4.605
 8814TIP3    H126406   6.190   2.050   4.596
 8814TIP3    H226407   6.082   1.965   4.659
 8815TIP3   OH226408   2.755   5.160   4.551
 8815TIP3    H126409   2.778   5.191   4.639
 8815TIP3    H226410   2.749   5.239   4.498
 8816TIP3   OH226411   2.138   0.199   4.048
 8816TIP3    H126412   2.178   0.174   3.965
 8816TIP3    H226413   2.059   0.247   4.023
 8817TIP3   OH226414   4.337   0.321   0.576
 8817TIP3    H126415   4.432   0.309   0.570
 8817TIP3    H226416   4.302   0.232   0.582
 8818TIP3   OH226417   0.680   5.212   1.638
 8818TIP3    H126418   0.771   5.241   1.640
 8818TIP3    H226419   0.629   5.292   1.628
 8819TIP3   OH226420   6.657   5.033   1.161
 8819TIP3    H126421   6.695   5.073   1.240
 8819TIP3    H226422   6.631   4.945   1.189
 8820TIP3   OH226423   5.031   4.826   5.273
 8820TIP3    H126424   4.990   4.784   5.349
 8820TIP3    H226425   4.958   4.867   5.227
 8821TIP3   OH226426   1.937  -0.016   0.808
 8821TIP3    H126427   1.893   0.058   0.767
 8821TIP3    H226428   2.030   0.005   0.801
 8822TIP3   OH226429   6.574   1.403   2.363
 8822TIP3    H126430   6.620   1.412   2.446
 8822TIP3    H226431   6.482   1.419   2.384
 8823TIP3   OH226432   3.039   4.767   4.522
 8823TIP3    H126433   2.956   4.812   4.537
 8823TIP3    H226434   3.019   4.675   4.534
 8824TIP3   OH226435   3.811   4.471   4.964
 8824TIP3    H126436   3.837   4.492   5.054
 8824TIP3    H226437   3.864   4.394   4.941
 8825TIP3   OH226438   0.192   2.058   1.326
 8825TIP3    H126439   0.199   2.106   1.243
 8825TIP3    H226440   0.280   2.023   1.340
 8826TIP3   OH226441   6.088   5.788   0.138
 8826TIP3    H126442   6.024   5.849   0.101
 8826TIP3    H226443   6.036   5.724   0.186
 8827TIP3   OH226444   4.329   3.683   3.433
 8827TIP3    H126445   4.421   3.701   3.412
 8827TIP3    H226446   4.280   3.751   3.388
 8828TIP3   OH226447   6.737   1.382   4.922
 8828TIP3    H126448   6.715   1.468   4.887
 8828TIP3    H226449   6.723   1.322   4.849
 8829TIP3   OH226450   0.520   6.584   4.931
 8829TIP3    H126451   0.579   6.659   4.919
 8829TIP3    H226452   0.497   6.587   5.024
 8830TIP3   OH226453   5.633   3.932   1.776
 8830TIP3    H126454   5.613   3.957   1.686
 8830TIP3    H226455   5.683   4.006   1.811
 8831TIP3   OH226456   5.302   0.570   4.741
 8831TIP3    H126457   5.237   0.595   4.675
 8831TIP3    H226458   5.369   0.522   4.693
 8832TIP3   OH226459   6.726   3.482   5.734
 8832TIP3    H126460   6.745   3.390   5.754
 8832TIP3    H226461   6.653   3.478   5.673
 8833TIP3   OH226462   0.291   4.647   3.678
 8833TIP3    H126463   0.215   4.692   3.715
 8833TIP3    H226464   0.366   4.685   3.723
 8834TIP3   OH226465   1.252   5.045   4.552
 8834TIP3    H126466   1.162   5.035   4.522
 8834TIP3    H226467   1.290   5.111   4.493
 8835TIP3   OH226468   4.995   3.386   2.566
 8835TIP3    H126469   5.048   3.460   2.593
 8835TIP3    H226470   5.033   3.357   2.483
 8836TIP3   OH226471   1.559   6.780   1.264
 8836TIP3    H126472   1.549   6.794   1.170
 8836TIP3    H226473   1.551   6.868   1.302
 8837TIP3   OH226474   2.844   4.131   5.491
 8837TIP3    H126475   2.915   4.149   5.430
 8837TIP3    H226476   2.780   4.081   5.440
 8838TIP3   OH226477   1.925   6.459   4.541
 8838TIP3    H126478   1.971   6.537   4.510
 8838TIP3    H226479   1.849   6.494   4.587
 8839TIP3   OH226480   0.139   6.006   1.230
 8839TIP3    H126481   0.056   6.029   1.272
 8839TIP3    H226482   0.155   6.078   1.169
 8840TIP3   OH226483   1.827   6.386   4.120
 8840TIP3    H126484   1.911   6.345   4.101
 8840TIP3    H226485   1.763   6.332   4.073
 8841TIP3   OH226486   6.159   3.779   5.767
 8841TIP3    H126487   6.175   3.843   5.836
 8841TIP3    H226488   6.245   3.763   5.728
 8842TIP3   OH226489   5.488   0.469   3.920
 8842TIP3    H126490   5.428   0.394   3.924
 8842TIP3    H226491   5.540   0.463   4.000
 8843TIP3   OH226492   2.189   0.665   0.386
 8843TIP3    H126493   2.140   0.600   0.336
 8843TIP3    H226494   2.214   0.732   0.323
 8844TIP3   OH226495   4.643   1.710   2.495
 8844TIP3    H126496   4.696   1.790   2.496
 8844TIP3    H226497   4.554   1.741   2.516
 8845TIP3   OH226498   4.010   2.239   0.091
 8845TIP3    H126499   3.940   2.175   0.100
 8845TIP3    H226500   4.040   2.254   0.181
 8846TIP3   OH226501   7.123   2.771   1.714
 8846TIP3    H126502   7.191   2.810   1.769
 8846TIP3    H226503   7.144   2.678   1.713
 8847TIP3   OH226504   5.785   5.200   1.875
 8847TIP3    H126505   5.828   5.126   1.832
 8847TIP3    H226506   5.791   5.271   1.811
 8848TIP3   OH226507   3.033   3.902   3.973
 8848TIP3    H126508   3.027   3.828   3.914
 8848TIP3    H226509   3.003   3.977   3.921
 8849TIP3   OH226510   6.947   5.184   0.590
 8849TIP3    H126511   6.853   5.204   0.587
 8849TIP3    H226512   6.951   5.089   0.595
 8850TIP3   OH226513   4.488   0.855   5.547
 8850TIP3    H126514   4.503   0.894   5.633
 8850TIP3    H226515   4.573   0.817   5.523
 8851TIP3   OH226516   3.688   5.344   0.241
 8851TIP3    H126517   3.713   5.393   0.319
 8851TIP3    H226518   3.700   5.406   0.168
 8852TIP3   OH226519   6.754   3.473   3.297
 8852TIP3    H126520   6.748   3.507   3.208
 8852TIP3    H226521   6.699   3.394   3.297
 8853TIP3   OH226522   6.039   6.029   1.858
 8853TIP3    H126523   5.969   6.007   1.920
 8853TIP3    H226524   6.118   6.033   1.912
 8854TIP3   OH226525   2.173   4.177   2.133
 8854TIP3    H126526   2.246   4.145   2.186
 8854TIP3    H226527   2.098   4.174   2.191
 8855TIP3   OH226528   5.260   2.522   4.775
 8855TIP3    H126529   5.175   2.489   4.806
 8855TIP3    H226530   5.290   2.457   4.712
 8856TIP3   OH226531   0.129   4.091   4.458
 8856TIP3    H126532   0.060   4.102   4.392
 8856TIP3    H226533   0.197   4.154   4.432
 8857TIP3   OH226534   4.082   3.679   1.597
 8857TIP3    H126535   4.119   3.609   1.651
 8857TIP3    H226536   4.079   3.643   1.509
 8858TIP3   OH226537   4.483   2.375   1.074
 8858TIP3    H126538   4.513   2.394   0.984
 8858TIP3    H226539   4.469   2.462   1.112
 8859TIP3   OH226540   3.954   3.999   3.028
 8859TIP3    H126541   3.884   3.991   3.094
 8859TIP3    H226542   3.970   3.909   3.001
 8860TIP3   OH226543   2.925   2.490   4.441
 8860TIP3    H126544   2.956   2.420   4.384
 8860TIP3    H226545   2.829   2.486   4.434
 8861TIP3   OH226546   2.386   1.862   4.761
 8861TIP3    H126547   2.424   1.787   4.806
 8861TIP3    H226548   2.420   1.938   4.808
 8862TIP3   OH226549   2.058   2.620   3.519
 8862TIP3    H126550   2.093   2.705   3.547
 8862TIP3    H226551   2.037   2.575   3.601
 8863TIP3   OH226552   6.855   2.933   4.413
 8863TIP3    H126553   6.920   3.003   4.402
 8863TIP3    H226554   6.891   2.859   4.363
 8864TIP3   OH226555   0.249   4.652   4.042
 8864TIP3    H126556   0.230   4.735   3.999
 8864TIP3    H226557   0.227   4.668   4.134
 8865TIP3   OH226558   3.122   0.128   2.654
 8865TIP3    H126559   3.122   0.033   2.642
 8865TIP3    H226560   3.179   0.162   2.586
 8866TIP3   OH226561   4.053   5.479   2.330
 8866TIP3    H126562   4.114   5.405   2.335
 8866TIP3    H226563   4.108   5.555   2.315
 8867TIP3   OH226564   2.452   6.728   4.094
 8867TIP3    H126565   2.490   6.800   4.145
 8867TIP3    H226566   2.404   6.771   4.024
 8868TIP3   OH226567   2.397   2.473   3.831
 8868TIP3    H126568   2.418   2.448   3.921
 8868TIP3    H226569   2.352   2.557   3.839
 8869TIP3   OH226570   4.858   0.513   5.637
 8869TIP3    H126571   4.843   0.484   5.727
 8869TIP3    H226572   4.867   0.608   5.642
 8870TIP3   OH226573   4.831   4.438   1.070
 8870TIP3    H126574   4.824   4.474   0.981
 8870TIP3    H226575   4.776   4.495   1.124
 8871TIP3   OH226576   4.926   2.709   2.250
 8871TIP3    H126577   4.870   2.758   2.310
 8871TIP3    H226578   4.962   2.638   2.302
 8872TIP3   OH226579   0.429   4.946   3.538
 8872TIP3    H126580   0.467   4.867   3.501
 8872TIP3    H226581   0.335   4.934   3.531
 8873TIP3   OH226582   0.936   2.099   4.244
 8873TIP3    H126583   0.992   2.161   4.292
 8873TIP3    H226584   0.897   2.044   4.312
 8874TIP3   OH226585   4.901   0.982   3.117
 8874TIP3    H126586   4.929   0.920   3.184
 8874TIP3    H226587   4.978   1.036   3.100
 8875TIP3   OH226588   4.073   4.538   0.702
 8875TIP3    H126589   4.146   4.595   0.677
 8875TIP3    H226590   4.114   4.468   0.753
 8876TIP3   OH226591   3.257   4.808   2.979
 8876TIP3    H126592   3.326   4.861   3.019
 8876TIP3    H226593   3.176   4.856   2.997
 8877TIP3   OH226594   0.277   2.363   5.472
 8877TIP3    H126595   0.279   2.458   5.460
 8877TIP3    H226596   0.366   2.341   5.500
 8878TIP3   OH226597   4.732   5.465   0.847
 8878TIP3    H126598   4.730   5.390   0.788
 8878TIP3    H226599   4.811   5.513   0.822
 8879TIP3   OH226600   1.347   3.390   4.703
 8879TIP3    H126601   1.284   3.440   4.651
 8879TIP3    H226602   1.325   3.299   4.686
 8880TIP3   OH226603   4.690   1.439   3.897
 8880TIP3    H126604   4.632   1.424   3.822
 8880TIP3    H226605   4.772   1.395   3.872
 8881TIP3   OH226606   6.032   4.343   5.067
 8881TIP3    H126607   6.069   4.350   5.155
 8881TIP3    H226608   6.106   4.359   5.008
 8882TIP3   OH226609   2.901   0.016   3.450
 8882TIP3    H126610   2.870   0.023   3.540
 8882TIP3    H226611   2.821   0.021   3.396
 8883TIP3   OH226612   6.367   5.369   1.835
 8883TIP3    H126613   6.328   5.288   1.804
 8883TIP3    H226614   6.394   5.350   1.925
 8884TIP3   OH226615   6.605   6.238   1.511
 8884TIP3    H126616   6.525   6.243   1.459
 8884TIP3    H226617   6.578   6.193   1.591
 8885TIP3   OH226618   1.138   5.143   1.049
 8885TIP3    H126619   1.212   5.196   1.018
 8885TIP3    H226620   1.108   5.188   1.129
 8886TIP3   OH226621   2.514   5.236   5.668
 8886TIP3    H126622   2.503   5.182   5.590
 8886TIP3    H226623   2.425   5.254   5.698
 8887TIP3   OH226624   6.474   2.732   5.712
 8887TIP3    H126625   6.548   2.685   5.750
 8887TIP3    H226626   6.434   2.668   5.653
 8888TIP3   OH226627   3.560   1.970   3.742
 8888TIP3    H126628   3.549   2.031   3.814
 8888TIP3    H226629   3.493   1.996   3.678
 8889TIP3   OH226630   3.087   5.176   3.708
 8889TIP3    H126631   3.106   5.097   3.656
 8889TIP3    H226632   3.168   5.193   3.755
 8890TIP3   OH226633   5.286   4.448   3.515
 8890TIP3    H126634   5.359   4.504   3.489
 8890TIP3    H226635   5.269   4.473   3.606
 8891TIP3   OH226636   5.147   4.532   1.048
 8891TIP3    H126637   5.168   4.447   1.010
 8891TIP3    H226638   5.051   4.535   1.050
 8892TIP3   OH226639   2.828   2.637   1.769
 8892TIP3    H126640   2.758   2.698   1.791
 8892TIP3    H226641   2.794   2.587   1.696
 8893TIP3   OH226642   6.023   6.348   4.476
 8893TIP3    H126643   6.042   6.300   4.395
 8893TIP3    H226644   6.088   6.316   4.539
 8894TIP3   OH226645   0.447   4.571   1.853
 8894TIP3    H126646   0.398   4.489   1.862
 8894TIP3    H226647   0.538   4.544   1.837
 8895TIP3   OH226648   2.229   6.609   2.538
 8895TIP3    H126649   2.255   6.617   2.630
 8895TIP3    H226650   2.295   6.550   2.500
 8896TIP3   OH226651   6.708   5.890   2.179
 8896TIP3    H126652   6.739   5.884   2.269
 8896TIP3    H226653   6.617   5.918   2.186
 8897TIP3   OH226654   6.640   2.630   2.357
 8897TIP3    H126655   6.590   2.697   2.311
 8897TIP3    H226656   6.593   2.548   2.338
 8898TIP3   OH226657   2.862   6.036   3.759
 8898TIP3    H126658   2.827   5.972   3.697
 8898TIP3    H226659   2.793   6.101   3.768
 8899TIP3   OH226660   3.815   4.538   2.218
 8899TIP3    H126661   3.774   4.624   2.215
 8899TIP3    H226662   3.900   4.553   2.261
 8900TIP3   OH226663   6.524   5.933   4.368
 8900TIP3    H126664   6.451   5.870   4.369
 8900TIP3    H226665   6.562   5.923   4.280
 8901TIP3   OH226666   0.588   3.057   4.739
 8901TIP3    H126667   0.607   3.140   4.696
 8901TIP3    H226668   0.575   3.080   4.831
 8902TIP3   OH226669   3.403   5.422   1.995
 8902TIP3    H126670   3.477   5.410   1.936
 8902TIP3    H226671   3.410   5.351   2.058
 8903TIP3   OH226672   3.737   3.747   0.095
 8903TIP3    H126673   3.719   3.759   0.001
 8903TIP3    H226674   3.694   3.665   0.117
 8904TIP3   OH226675   4.233   0.180   4.467
 8904TIP3    H126676   4.238   0.270   4.434
 8904TIP3    H226677   4.200   0.189   4.557
 8905TIP3   OH226678   3.246   1.302   5.314
 8905TIP3    H126679   3.231   1.396   5.311
 8905TIP3    H226680   3.341   1.292   5.316
 8906TIP3   OH226681   5.814   3.762   0.900
 8906TIP3    H126682   5.757   3.778   0.975
 8906TIP3    H226683   5.760   3.711   0.839
 8907TIP3   OH226684   4.505   3.208   3.686
 8907TIP3    H126685   4.576   3.144   3.675
 8907TIP3    H226686   4.499   3.222   3.780
 8908TIP3   OH226687   1.795   3.942   5.825
 8908TIP3    H126688   1.754   3.993   5.894
 8908TIP3    H226689   1.728   3.933   5.758
 8909TIP3   OH226690   6.595   0.889   3.037
 8909TIP3    H126691   6.666   0.864   2.978
 8909TIP3    H226692   6.580   0.981   3.018
 8910TIP3   OH226693   3.955   1.595   1.948
 8910TIP3    H126694   3.923   1.571   1.862
 8910TIP3    H226695   4.043   1.630   1.932
 8911TIP3   OH226696   7.055   0.554   2.145
 8911TIP3    H126697   7.033   0.501   2.222
 8911TIP3    H226698   6.972   0.563   2.097
 8912TIP3   OH226699   0.920   0.990   2.247
 8912TIP3    H126700   0.979   0.951   2.311
 8912TIP3    H226701   0.964   1.071   2.220
 8913TIP3   OH226702   6.795   1.756   0.784
 8913TIP3    H126703   6.752   1.690   0.839
 8913TIP3    H226704   6.750   1.838   0.805
 8914TIP3   OH226705   5.476   0.812   4.727
 8914TIP3    H126706   5.434   0.789   4.809
 8914TIP3    H226707   5.408   0.798   4.660
 8915TIP3   OH226708   6.790   5.780   5.757
 8915TIP3    H126709   6.722   5.712   5.755
 8915TIP3    H226710   6.867   5.739   5.718
 8916TIP3   OH226711   0.090   4.608   5.694
 8916TIP3    H126712   0.156   4.628   5.627
 8916TIP3    H226713   0.082   4.690   5.744
 8917TIP3   OH226714   7.219   2.501   2.527
 8917TIP3    H126715   7.231   2.596   2.524
 8917TIP3    H226716   7.127   2.488   2.502
 8918TIP3   OH226717   6.213   4.453   0.912
 8918TIP3    H126718   6.210   4.535   0.960
 8918TIP3    H226719   6.182   4.476   0.824
 8919TIP3   OH226720   6.338   5.887   1.769
 8919TIP3    H126721   6.287   5.915   1.845
 8919TIP3    H226722   6.320   5.793   1.761
 8920TIP3   OH226723   6.405   5.406   2.128
 8920TIP3    H126724   6.325   5.426   2.177
 8920TIP3    H226725   6.461   5.482   2.141
 8921TIP3   OH226726   4.211   5.471   0.412
 8921TIP3    H126727   4.186   5.473   0.320
 8921TIP3    H226728   4.253   5.556   0.427
 8922TIP3   OH226729   0.410   3.401   0.187
 8922TIP3    H126730   0.454   3.428   0.268
 8922TIP3    H226731   0.435   3.468   0.124
 8923TIP3   OH226732   3.915   4.249   2.883
 8923TIP3    H126733   3.958   4.165   2.900
 8923TIP3    H226734   3.822   4.228   2.878
 8924TIP3   OH226735   5.176   5.481   4.604
 8924TIP3    H126736   5.235   5.544   4.563
 8924TIP3    H226737   5.121   5.449   4.532
 8925TIP3   OH226738   2.969   4.167   1.347
 8925TIP3    H126739   3.009   4.234   1.293
 8925TIP3    H226740   3.037   4.141   1.409
 8926TIP3   OH226741   6.037   0.104   1.526
 8926TIP3    H126742   6.070   0.031   1.473
 8926TIP3    H226743   5.953   0.073   1.558
 8927TIP3   OH226744   6.090   4.945   0.704
 8927TIP3    H126745   6.105   4.927   0.612
 8927TIP3    H226746   5.995   4.937   0.714
 8928TIP3   OH226747   6.414   4.816   5.308
 8928TIP3    H126748   6.476   4.760   5.261
 8928TIP3    H226749   6.435   4.905   5.279
 8929TIP3   OH226750   1.058   4.004   3.577
 8929TIP3    H126751   0.988   4.002   3.642
 8929TIP3    H226752   1.127   3.950   3.614
 8930TIP3   OH226753   2.913   2.266   0.772
 8930TIP3    H126754   2.998   2.295   0.804
 8930TIP3    H226755   2.850   2.315   0.825
 8931TIP3   OH226756   6.405   3.576   2.650
 8931TIP3    H126757   6.402   3.531   2.565
 8931TIP3    H226758   6.405   3.505   2.714
 8932TIP3   OH226759   6.974   1.138   3.763
 8932TIP3    H126760   6.924   1.163   3.685
 8932TIP3    H226761   6.910   1.093   3.818
 8933TIP3   OH226762   0.507   4.596   4.004
 8933TIP3    H126763   0.570   4.667   4.014
 8933TIP3    H226764   0.422   4.640   3.995
 8934TIP3   OH226765   4.072   5.013   0.254
 8934TIP3    H126766   4.022   4.998   0.175
 8934TIP3    H226767   4.019   5.075   0.305
 8935TIP3   OH226768   0.051   0.252   2.975
 8935TIP3    H126769   0.133   0.293   2.999
 8935TIP3    H226770   0.019   0.304   2.900
 8936TIP3   OH226771   3.089   5.773   0.360
 8936TIP3    H126772   3.040   5.849   0.329
 8936TIP3    H226773   3.155   5.808   0.420
 8937TIP3   OH226774   6.919   0.292   0.873
 8937TIP3    H126775   6.862   0.290   0.950
 8937TIP3    H226776   6.994   0.239   0.897
 8938TIP3   OH226777   5.079   3.603   3.958
 8938TIP3    H126778   4.987   3.602   3.984
 8938TIP3    H226779   5.077   3.587   3.863
 8939TIP3   OH226780   1.188   5.601   4.000
 8939TIP3    H126781   1.104   5.607   4.047
 8939TIP3    H226782   1.167   5.551   3.921
 8940TIP3   OH226783   6.774   3.492   5.299
 8940TIP3    H126784   6.800   3.439   5.374
 8940TIP3    H226785   6.689   3.457   5.273
 8941TIP3   OH226786   4.370   2.673   2.125
 8941TIP3    H126787   4.404   2.653   2.213
 8941TIP3    H226788   4.431   2.738   2.090
 8942TIP3   OH226789   3.718   0.451   5.129
 8942TIP3    H126790   3.763   0.481   5.050
 8942TIP3    H226791   3.787   0.440   5.194
 8943TIP3   OH226792   4.183   2.523   4.149
 8943TIP3    H126793   4.241   2.480   4.087
 8943TIP3    H226794   4.209   2.489   4.234
 8944TIP3   OH226795   1.264   4.813   0.881
 8944TIP3    H126796   1.282   4.863   0.802
 8944TIP3    H226797   1.322   4.850   0.947
 8945TIP3   OH226798   5.340   4.036   3.599
 8945TIP3    H126799   5.258   4.045   3.648
 8945TIP3    H226800   5.315   4.044   3.507
 8946TIP3   OH226801   2.459   5.862   0.230
 8946TIP3    H126802   2.438   5.769   0.228
 8946TIP3    H226803   2.516   5.876   0.154
 8947TIP3   OH226804   6.362   3.235   1.209
 8947TIP3    H126805   6.420   3.195   1.143
 8947TIP3    H226806   6.295   3.279   1.158
 8948TIP3   OH226807   4.899   4.804   0.832
 8948TIP3    H126808   4.947   4.824   0.913
 8948TIP3    H226809   4.929   4.870   0.770
 8949TIP3   OH226810   3.493   5.158   4.355
 8949TIP3    H126811   3.561   5.109   4.400
 8949TIP3    H226812   3.441   5.091   4.310
 8950TIP3   OH226813   1.899   3.109   1.061
 8950TIP3    H126814   1.839   3.119   0.987
 8950TIP3    H226815   1.986   3.125   1.025
 8951TIP3   OH226816   6.084   2.422   1.055
 8951TIP3    H126817   6.131   2.505   1.060
 8951TIP3    H226818   6.134   2.369   0.993
 8952TIP3   OH226819   4.684   6.290   2.168
 8952TIP3    H126820   4.755   6.236   2.132
 8952TIP3    H226821   4.610   6.229   2.176
 8953TIP3   OH226822   6.830   2.839   0.312
 8953TIP3    H126823   6.815   2.795   0.229
 8953TIP3    H226824   6.790   2.925   0.301
 8954TIP3   OH226825   3.466   4.280   3.017
 8954TIP3    H126826   3.371   4.286   3.021
 8954TIP3    H226827   3.496   4.305   3.105
 8955TIP3   OH226828   2.659   2.302   3.076
 8955TIP3    H126829   2.639   2.393   3.096
 8955TIP3    H226830   2.662   2.298   2.981
 8956TIP3   OH226831   5.495   5.972   2.963
 8956TIP3    H126832   5.587   5.948   2.971
 8956TIP3    H226833   5.470   6.005   3.049
 8957TIP3   OH226834   5.960   0.940   2.608
 8957TIP3    H126835   5.947   0.853   2.646
 8957TIP3    H226836   6.029   0.980   2.660
 8958TIP3   OH226837   1.237   5.127   4.974
 8958TIP3    H126838   1.301   5.120   4.903
 8958TIP3    H226839   1.156   5.093   4.936
 8959TIP3   OH226840   4.209   0.228   3.238
 8959TIP3    H126841   4.189   0.210   3.330
 8959TIP3    H226842   4.256   0.311   3.239
 8960TIP3   OH226843   6.346   2.550   5.075
 8960TIP3    H126844   6.417   2.604   5.039
 8960TIP3    H226845   6.386   2.505   5.150
 8961TIP3   OH226846   4.523   0.133   4.626
 8961TIP3    H126847   4.527   0.226   4.647
 8961TIP3    H226848   4.614   0.105   4.621
 8962TIP3   OH226849   5.971   3.470   2.660
 8962TIP3    H126850   5.968   3.528   2.735
 8962TIP3    H226851   5.930   3.389   2.691
 8963TIP3   OH226852   1.747   5.619   2.631
 8963TIP3    H126853   1.786   5.589   2.713
 8963TIP3    H226854   1.659   5.648   2.655
 8964TIP3   OH226855   5.949   0.054   3.693
 8964TIP3    H126856   6.043   0.060   3.676
 8964TIP3    H226857   5.923   0.144   3.713
 8965TIP3   OH226858   0.765   3.648   0.582
 8965TIP3    H126859   0.768   3.743   0.572
 8965TIP3    H226860   0.851   3.624   0.615
 8966TIP3   OH226861  -0.005   2.425   3.943
 8966TIP3    H126862   0.079   2.396   3.979
 8966TIP3    H226863  -0.043   2.480   4.011
 8967TIP3   OH226864   6.604   5.582   2.287
 8967TIP3    H126865   6.642   5.498   2.310
 8967TIP3    H226866   6.546   5.603   2.359
 8968TIP3   OH226867   6.351   2.728   2.841
 8968TIP3    H126868   6.287   2.788   2.802
 8968TIP3    H226869   6.298   2.656   2.875
 8969TIP3   OH226870   4.125   5.027   1.365
 8969TIP3    H126871   4.219   5.026   1.346
 8969TIP3    H226872   4.098   5.117   1.348
 8970TIP3   OH226873   5.725   3.381   3.110
 8970TIP3    H126874   5.636   3.349   3.124
 8970TIP3    H226875   5.734   3.456   3.168
 8971TIP3   OH226876   0.657   5.261   5.796
 8971TIP3    H126877   0.730   5.260   5.735
 8971TIP3    H226878   0.603   5.336   5.767
 8972TIP3   OH226879   4.906   5.889   4.802
 8972TIP3    H126880   4.847   5.964   4.800
 8972TIP3    H226881   4.943   5.884   4.714
 8973TIP3   OH226882   5.934   4.516   3.703
 8973TIP3    H126883   5.989   4.440   3.682
 8973TIP3    H226884   5.894   4.493   3.787
 8974TIP3   OH226885   1.404   3.191   4.463
 8974TIP3    H126886   1.345   3.175   4.536
 8974TIP3    H226887   1.363   3.146   4.389
 8975TIP3   OH226888   7.192   6.011   4.539
 8975TIP3    H126889   7.240   6.087   4.505
 8975TIP3    H226890   7.112   6.048   4.577
 8976TIP3   OH226891   4.190   6.205   2.631
 8976TIP3    H126892   4.280   6.218   2.660
 8976TIP3    H226893   4.138   6.262   2.689
 8977TIP3   OH226894   4.565   1.487   4.542
 8977TIP3    H126895   4.526   1.529   4.618
 8977TIP3    H226896   4.556   1.551   4.472
 8978TIP3   OH226897   4.753   3.393   3.457
 8978TIP3    H126898   4.770   3.374   3.365
 8978TIP3    H226899   4.835   3.368   3.501
 8979TIP3   OH226900   3.955   3.020   1.620
 8979TIP3    H126901   3.985   3.088   1.560
 8979TIP3    H226902   3.861   3.016   1.606
 8980TIP3   OH226903   1.978   1.413   4.633
 8980TIP3    H126904   1.981   1.336   4.690
 8980TIP3    H226905   1.890   1.448   4.644
 8981TIP3   OH226906   5.253   2.576   3.784
 8981TIP3    H126907   5.273   2.644   3.719
 8981TIP3    H226908   5.323   2.512   3.774
 8982TIP3   OH226909   3.943   2.315   3.039
 8982TIP3    H126910   3.920   2.389   3.096
 8982TIP3    H226911   4.004   2.263   3.092
 8983TIP3   OH226912   5.072   4.023   1.085
 8983TIP3    H126913   5.027   3.967   1.022
 8983TIP3    H226914   5.006   4.087   1.112
 8984TIP3   OH226915   5.205   6.432   1.160
 8984TIP3    H126916   5.127   6.409   1.109
 8984TIP3    H226917   5.179   6.417   1.251
 8985TIP3   OH226918   0.266   4.486   0.579
 8985TIP3    H126919   0.176   4.470   0.549
 8985TIP3    H226920   0.308   4.401   0.575
 8986TIP3   OH226921   2.232   3.003   1.146
 8986TIP3    H126922   2.290   2.948   1.200
 8986TIP3    H226923   2.168   2.942   1.110
 8987TIP3   OH226924   6.403   0.413   3.697
 8987TIP3    H126925   6.432   0.368   3.618
 8987TIP3    H226926   6.463   0.488   3.705
 8988TIP3   OH226927   0.532   3.744   4.281
 8988TIP3    H126928   0.479   3.667   4.264
 8988TIP3    H226929   0.469   3.812   4.306
 8989TIP3   OH226930   4.564   1.203   4.765
 8989TIP3    H126931   4.580   1.162   4.850
 8989TIP3    H226932   4.501   1.273   4.784
 8990TIP3   OH226933   5.919   6.047   5.048
 8990TIP3    H126934   5.846   6.058   5.109
 8990TIP3    H226935   5.911   6.120   4.987
 8991TIP3   OH226936   6.743   4.110   3.475
 8991TIP3    H126937   6.692   4.184   3.441
 8991TIP3    H226938   6.795   4.148   3.546
 8992TIP3   OH226939   4.030   4.993   2.713
 8992TIP3    H126940   4.008   4.927   2.779
 8992TIP3    H226941   3.963   4.981   2.645
 8993TIP3   OH226942   2.183   1.586   0.536
 8993TIP3    H126943   2.127   1.661   0.560
 8993TIP3    H226944   2.124   1.525   0.492
 8994TIP3   OH226945   1.133   3.970   0.918
 8994TIP3    H126946   1.121   4.065   0.915
 8994TIP3    H226947   1.133   3.943   0.827
 8995TIP3   OH226948   2.615   2.942   2.592
 8995TIP3    H126949   2.557   3.006   2.552
 8995TIP3    H226950   2.701   2.983   2.592
 8996TIP3   OH226951   4.133   1.652   3.999
 8996TIP3    H126952   4.115   1.723   4.061
 8996TIP3    H226953   4.200   1.598   4.042
 8997TIP3   OH226954   2.622   3.625   4.663
 8997TIP3    H126955   2.577   3.541   4.660
 8997TIP3    H226956   2.690   3.614   4.730
 8998TIP3   OH226957   1.854   4.029   2.746
 8998TIP3    H126958   1.798   4.103   2.769
 8998TIP3    H226959   1.929   4.068   2.701
 8999TIP3   OH226960   4.531   0.634   0.469
 8999TIP3    H126961   4.451   0.582   0.456
 8999TIP3    H226962   4.583   0.618   0.390
 9000TIP3   OH226963   5.953   5.765   4.997
 9000TIP3    H126964   5.919   5.724   5.077
 9000TIP3    H226965   5.932   5.858   5.006
 9001TIP3   OH226966   3.140   6.214   3.476
 9001TIP3    H126967   3.048   6.202   3.500
 9001TIP3    H226968   3.188   6.164   3.541
 9002TIP3   OH226969   4.517   0.163   3.467
 9002TIP3    H126970   4.574   0.240   3.473
 9002TIP3    H226971   4.429   0.198   3.483
 9003TIP3   OH226972   6.277   6.298   3.460
 9003TIP3    H126973   6.280   6.269   3.551
 9003TIP3    H226974   6.184   6.318   3.445
 9004TIP3   OH226975   2.602   4.218   3.737
 9004TIP3    H126976   2.639   4.130   3.740
 9004TIP3    H226977   2.644   4.258   3.660
 9005TIP3   OH226978   0.554   6.522   0.477
 9005TIP3    H126979   0.497   6.592   0.445
 9005TIP3    H226980   0.571   6.468   0.400
 9006TIP3   OH226981   6.722   2.076   1.471
 9006TIP3    H126982   6.658   2.004   1.477
 9006TIP3    H226983   6.764   2.077   1.557
 9007TIP3   OH226984   0.875   1.576   4.341
 9007TIP3    H126985   0.959   1.596   4.301
 9007TIP3    H226986   0.894   1.511   4.408
 9008TIP3   OH226987   4.340   4.398   5.839
 9008TIP3    H126988   4.367   4.482   5.802
 9008TIP3    H226989   4.338   4.413   5.933
 9009TIP3   OH226990   7.086   2.594   2.838
 9009TIP3    H126991   7.172   2.603   2.879
 9009TIP3    H226992   7.080   2.501   2.815
 9010TIP3   OH226993   2.861   0.439   0.417
 9010TIP3    H126994   2.926   0.484   0.363
 9010TIP3    H226995   2.780   0.486   0.400
 9011TIP3   OH226996   6.314   5.343   5.364
 9011TIP3    H126997   6.260   5.390   5.300
 9011TIP3    H226998   6.401   5.339   5.324
 9012TIP3   OH226999   2.969   0.255   4.369
 9012TIP3    H127000   3.039   0.197   4.338
 9012TIP3    H227001   2.957   0.318   4.297
 9013TIP3   OH227002   4.629   1.385   5.622
 9013TIP3    H127003   4.681   1.460   5.649
 9013TIP3    H227004   4.552   1.423   5.578
 9014TIP3   OH227005   0.323   5.137   4.389
 9014TIP3    H127006   0.319   5.044   4.411
 9014TIP3    H227007   0.293   5.183   4.467
 9015TIP3   OH227008   1.732   0.801   3.715
 9015TIP3    H127009   1.728   0.807   3.619
 9015TIP3    H227010   1.674   0.872   3.745
 9016TIP3   OH227011   3.722   5.079   1.966
 9016TIP3    H127012   3.802   5.124   1.997
 9016TIP3    H227013   3.754   5.004   1.917
 9017TIP3   OH227014   0.442   1.489   2.906
 9017TIP3    H127015   0.452   1.580   2.878
 9017TIP3    H227016   0.448   1.494   3.002
 9018TIP3   OH227017   4.147   4.300   3.541
 9018TIP3    H127018   4.188   4.328   3.459
 9018TIP3    H227019   4.058   4.273   3.515
 9019TIP3   OH227020   6.299   2.542   5.549
 9019TIP3    H127021   6.295   2.492   5.630
 9019TIP3    H227022   6.239   2.496   5.490
 9020TIP3   OH227023   3.758   6.232   0.199
 9020TIP3    H127024   3.818   6.306   0.205
 9020TIP3    H227025   3.746   6.203   0.290
 9021TIP3   OH227026   2.820   6.073   2.241
 9021TIP3    H127027   2.843   6.148   2.297
 9021TIP3    H227028   2.893   6.012   2.253
 9022TIP3   OH227029   1.018   3.723   2.281
 9022TIP3    H127030   0.957   3.774   2.335
 9022TIP3    H227031   0.962   3.663   2.232
 9023TIP3   OH227032   1.487   5.010   3.382
 9023TIP3    H127033   1.472   4.919   3.410
 9023TIP3    H227034   1.475   5.007   3.287
 9024TIP3   OH227035   3.595   1.623   3.871
 9024TIP3    H127036   3.501   1.641   3.875
 9024TIP3    H227037   3.627   1.644   3.959
 9025TIP3   OH227038   2.232   1.298   4.145
 9025TIP3    H127039   2.300   1.357   4.178
 9025TIP3    H227040   2.165   1.297   4.213
 9026TIP3   OH227041   1.437   1.347   1.668
 9026TIP3    H127042   1.401   1.418   1.721
 9026TIP3    H227043   1.487   1.391   1.599
 9027TIP3   OH227044   4.337   1.325   5.843
 9027TIP3    H127045   4.313   1.286   5.758
 9027TIP3    H227046   4.292   1.271   5.907
 9028TIP3   OH227047   5.780   6.357   4.626
 9028TIP3    H127048   5.750   6.447   4.625
 9028TIP3    H227049   5.846   6.352   4.557
 9029TIP3   OH227050   3.534   1.142   2.349
 9029TIP3    H127051   3.532   1.237   2.344
 9029TIP3    H227052   3.623   1.122   2.380
 9030TIP3   OH227053   3.110   3.129   5.144
 9030TIP3    H127054   3.174   3.089   5.203
 9030TIP3    H227055   3.131   3.223   5.145
 9031TIP3   OH227056   7.179   2.787   1.423
 9031TIP3    H127057   7.251   2.727   1.405
 9031TIP3    H227058   7.189   2.857   1.358
 9032TIP3   OH227059   2.170   0.852   3.385
 9032TIP3    H127060   2.222   0.794   3.329
 9032TIP3    H227061   2.191   0.825   3.474
 9033TIP3   OH227062   4.943   2.548   4.428
 9033TIP3    H127063   4.971   2.482   4.492
 9033TIP3    H227064   4.866   2.509   4.386
 9034TIP3   OH227065   3.687   4.045   4.759
 9034TIP3    H127066   3.617   3.996   4.803
 9034TIP3    H227067   3.718   4.107   4.825
 9035TIP3   OH227068   0.968   4.187   5.001
 9035TIP3    H127069   0.972   4.149   5.089
 9035TIP3    H227070   0.960   4.111   4.943
 9036TIP3   OH227071   3.263   0.417   3.590
 9036TIP3    H127072   3.227   0.337   3.627
 9036TIP3    H227073   3.198   0.445   3.525
 9037TIP3   OH227074   5.470   5.487   5.402
 9037TIP3    H127075   5.464   5.473   5.307
 9037TIP3    H227076   5.391   5.536   5.424
 9038TIP3   OH227077   3.561   3.253   2.066
 9038TIP3    H127078   3.495   3.245   2.135
 9038TIP3    H227079   3.534   3.329   2.015
 9039TIP3   OH227080   6.550   4.960   4.952
 9039TIP3    H127081   6.569   4.904   4.877
 9039TIP3    H227082   6.456   4.978   4.945
 9040TIP3   OH227083   3.424   2.685   5.271
 9040TIP3    H127084   3.406   2.715   5.182
 9040TIP3    H227085   3.429   2.590   5.264
 9041TIP3   OH227086   2.269   6.624   5.090
 9041TIP3    H127087   2.210   6.699   5.096
 9041TIP3    H227088   2.258   6.578   5.173
 9042TIP3   OH227089   3.028   0.089   5.280
 9042TIP3    H127090   3.078   0.007   5.286
 9042TIP3    H227091   3.087   0.155   5.315
 9043TIP3   OH227092   1.594   1.464   3.206
 9043TIP3    H127093   1.537   1.471   3.130
 9043TIP3    H227094   1.535   1.466   3.281
 9044TIP3   OH227095   3.168   2.438   0.817
 9044TIP3    H127096   3.143   2.525   0.847
 9044TIP3    H227097   3.214   2.454   0.734
 9045TIP3   OH227098   6.456   3.602   3.277
 9045TIP3    H127099   6.421   3.679   3.321
 9045TIP3    H227100   6.530   3.574   3.331
 9046TIP3   OH227101   0.613   3.497   2.838
 9046TIP3    H127102   0.669   3.464   2.909
 9046TIP3    H227103   0.613   3.427   2.773
 9047TIP3   OH227104   3.014   5.722   5.822
 9047TIP3    H127105   3.028   5.664   5.747
 9047TIP3    H227106   2.927   5.698   5.854
 9048TIP3   OH227107   3.104   2.959   2.347
 9048TIP3    H127108   3.196   2.968   2.372
 9048TIP3    H227109   3.058   2.945   2.430
 9049TIP3   OH227110   1.874   5.564   2.925
 9049TIP3    H127111   1.936   5.510   2.875
 9049TIP3    H227112   1.895   5.654   2.901
 9050TIP3   OH227113   6.382   2.356   4.513
 9050TIP3    H127114   6.455   2.350   4.452
 9050TIP3    H227115   6.401   2.433   4.566
 9051TIP3   OH227116   4.487   0.064   5.848
 9051TIP3    H127117   4.423   0.078   5.918
 9051TIP3    H227118   4.456   0.119   5.775
 9052TIP3   OH227119   6.078   3.533   5.897
 9052TIP3    H127120   6.135   3.579   5.959
 9052TIP3    H227121   6.089   3.581   5.815
 9053TIP3   OH227122   0.936   3.990   3.859
 9053TIP3    H127123   0.860   4.047   3.851
 9053TIP3    H227124   0.907   3.918   3.916
 9054TIP3   OH227125   0.715   0.050   4.224
 9054TIP3    H127126   0.648  -0.002   4.269
 9054TIP3    H227127   0.715   0.134   4.271
 9055TIP3   OH227128   5.359   6.497   4.293
 9055TIP3    H127129   5.309   6.477   4.372
 9055TIP3    H227130   5.402   6.415   4.270
 9056TIP3   OH227131   5.254   5.598   1.545
 9056TIP3    H127132   5.257   5.676   1.489
 9056TIP3    H227133   5.213   5.530   1.490
 9057TIP3   OH227134   1.784   6.434   3.026
 9057TIP3    H127135   1.837   6.422   3.105
 9057TIP3    H227136   1.731   6.511   3.045
 9058TIP3   OH227137   3.419   4.967   5.435
 9058TIP3    H127138   3.399   5.046   5.486
 9058TIP3    H227139   3.436   4.900   5.501
 9059TIP3   OH227140   3.484   2.048   2.249
 9059TIP3    H127141   3.444   1.962   2.232
 9059TIP3    H227142   3.423   2.091   2.309
 9060TIP3   OH227143   1.354   1.448   5.558
 9060TIP3    H127144   1.377   1.411   5.643
 9060TIP3    H227145   1.369   1.376   5.496
 9061TIP3   OH227146   5.205   4.564   1.463
 9061TIP3    H127147   5.201   4.473   1.491
 9061TIP3    H227148   5.287   4.571   1.413
 9062TIP3   OH227149   3.511   4.316   4.262
 9062TIP3    H127150   3.473   4.377   4.198
 9062TIP3    H227151   3.605   4.329   4.254
 9063TIP3   OH227152   0.609   1.855   4.092
 9063TIP3    H127153   0.537   1.912   4.067
 9063TIP3    H227154   0.610   1.858   4.188
 9064TIP3   OH227155   4.151   2.096   4.859
 9064TIP3    H127156   4.085   2.033   4.891
 9064TIP3    H227157   4.106   2.144   4.790
 9065TIP3   OH227158   0.511   5.040   4.987
 9065TIP3    H127159   0.451   5.005   4.921
 9065TIP3    H227160   0.458   5.047   5.066
 9066TIP3   OH227161   3.380   4.820   4.949
 9066TIP3    H127162   3.323   4.818   4.872
 9066TIP3    H227163   3.415   4.731   4.956
 9067TIP3   OH227164   3.591   1.851   0.919
 9067TIP3    H127165   3.626   1.923   0.867
 9067TIP3    H227166   3.627   1.866   1.007
 9068TIP3   OH227167   6.666   5.710   4.594
 9068TIP3    H127168   6.729   5.769   4.554
 9068TIP3    H227169   6.606   5.767   4.642
 9069TIP3   OH227170   2.277   3.215   4.130
 9069TIP3    H127171   2.314   3.270   4.199
 9069TIP3    H227172   2.196   3.258   4.106
 9070TIP3   OH227173   5.784   0.223   1.849
 9070TIP3    H127174   5.739   0.172   1.783
 9070TIP3    H227175   5.737   0.306   1.852
 9071TIP3   OH227176   6.242   6.508   1.459
 9071TIP3    H127177   6.267   6.465   1.377
 9071TIP3    H227178   6.147   6.498   1.464
 9072TIP3   OH227179   5.437   6.753   1.707
 9072TIP3    H127180   5.467   6.761   1.617
 9072TIP3    H227181   5.517   6.755   1.760
 9073TIP3   OH227182   4.413   4.903   5.576
 9073TIP3    H127183   4.364   4.973   5.620
 9073TIP3    H227184   4.366   4.888   5.494
 9074TIP3   OH227185   5.106   2.403   1.800
 9074TIP3    H127186   5.167   2.334   1.826
 9074TIP3    H227187   5.156   2.484   1.809
 9075TIP3   OH227188   5.170   2.098   1.009
 9075TIP3    H127189   5.246   2.152   0.990
 9075TIP3    H227190   5.101   2.160   1.030
 9076TIP3   OH227191   0.376   5.419   3.988
 9076TIP3    H127192   0.453   5.373   4.021
 9076TIP3    H227193   0.309   5.405   4.055
 9077TIP3   OH227194   0.995   4.975   1.674
 9077TIP3    H127195   1.061   4.978   1.605
 9077TIP3    H227196   0.913   4.955   1.627
 9078TIP3   OH227197   3.818   4.458   1.493
 9078TIP3    H127198   3.903   4.449   1.535
 9078TIP3    H227199   3.838   4.487   1.404
 9079TIP3   OH227200   0.584   4.456   5.112
 9079TIP3    H127201   0.635   4.380   5.137
 9079TIP3    H227202   0.570   4.446   5.018
 9080TIP3   OH227203   6.977   2.301   0.269
 9080TIP3    H127204   6.886   2.272   0.261
 9080TIP3    H227205   7.002   2.278   0.358
 9081TIP3   OH227206   5.587   3.192   4.164
 9081TIP3    H127207   5.576   3.267   4.223
 9081TIP3    H227208   5.527   3.126   4.198
 9082TIP3   OH227209   5.277   2.131   2.986
 9082TIP3    H127210   5.338   2.058   2.970
 9082TIP3    H227211   5.279   2.182   2.905
 9083TIP3   OH227212   4.604   3.638   5.441
 9083TIP3    H127213   4.584   3.695   5.367
 9083TIP3    H227214   4.677   3.682   5.485
 9084TIP3   OH227215   0.608   1.623   5.690
 9084TIP3    H127216   0.515   1.644   5.703
 9084TIP3    H227217   0.642   1.612   5.779
 9085TIP3   OH227218   0.457   1.329   0.841
 9085TIP3    H127219   0.511   1.253   0.822
 9085TIP3    H227220   0.469   1.387   0.766
 9086TIP3   OH227221   5.164   0.369   4.211
 9086TIP3    H127222   5.086   0.345   4.260
 9086TIP3    H227223   5.231   0.386   4.278
 9087TIP3   OH227224   1.773   3.492   4.499
 9087TIP3    H127225   1.679   3.482   4.481
 9087TIP3    H227226   1.777   3.544   4.579
 9088TIP3   OH227227   4.988   4.166   1.786
 9088TIP3    H127228   4.912   4.178   1.729
 9088TIP3    H227229   4.972   4.084   1.832
 9089TIP3   OH227230   0.453   5.082   0.278
 9089TIP3    H127231   0.408   5.008   0.320
 9089TIP3    H227232   0.523   5.105   0.339
 9090TIP3   OH227233   3.217   6.113   0.328
 9090TIP3    H127234   3.187   6.195   0.369
 9090TIP3    H227235   3.197   6.045   0.392
 9091TIP3   OH227236   0.739   5.345   0.953
 9091TIP3    H127237   0.710   5.401   0.881
 9091TIP3    H227238   0.739   5.256   0.917
 9092TIP3   OH227239   1.888   5.907   2.263
 9092TIP3    H127240   1.949   5.840   2.232
 9092TIP3    H227241   1.868   5.960   2.186
 9093TIP3   OH227242   1.379   2.713   0.583
 9093TIP3    H127243   1.359   2.747   0.670
 9093TIP3    H227244   1.294   2.689   0.547
 9094TIP3   OH227245   1.726   2.432   5.805
 9094TIP3    H127246   1.662   2.473   5.746
 9094TIP3    H227247   1.716   2.480   5.887
 9095TIP3   OH227248   0.695   0.533   3.211
 9095TIP3    H127249   0.730   0.568   3.293
 9095TIP3    H227250   0.669   0.444   3.232
 9096TIP3   OH227251   3.505   5.437   4.300
 9096TIP3    H127252   3.432   5.447   4.239
 9096TIP3    H227253   3.494   5.348   4.335
 9097TIP3   OH227254   3.030   1.695   5.549
 9097TIP3    H127255   3.075   1.768   5.509
 9097TIP3    H227256   3.000   1.728   5.634
 9098TIP3   OH227257   1.422   5.423   1.634
 9098TIP3    H127258   1.436   5.358   1.703
 9098TIP3    H227259   1.389   5.373   1.560
 9099TIP3   OH227260   6.179   0.564   1.539
 9099TIP3    H127261   6.199   0.471   1.548
 9099TIP3    H227262   6.256   0.602   1.495
 9100TIP3   OH227263   4.029   1.931   3.750
 9100TIP3    H127264   4.013   1.925   3.844
 9100TIP3    H227265   4.055   2.022   3.736
 9101TIP3   OH227266   5.579   6.067   3.972
 9101TIP3    H127267   5.600   5.979   4.004
 9101TIP3    H227268   5.655   6.094   3.920
 9102TIP3   OH227269   4.781   1.714   4.570
 9102TIP3    H127270   4.799   1.670   4.654
 9102TIP3    H227271   4.820   1.657   4.505
 9103TIP3   OH227272   3.667   3.296   5.333
 9103TIP3    H127273   3.680   3.232   5.264
 9103TIP3    H227274   3.577   3.327   5.321
 9104TIP3   OH227275   0.471   2.541   0.257
 9104TIP3    H127276   0.380   2.572   0.260
 9104TIP3    H227277   0.503   2.568   0.170
 9105TIP3   OH227278   4.785   2.563   0.920
 9105TIP3    H127279   4.823   2.576   1.007
 9105TIP3    H227280   4.776   2.469   0.911
 9106TIP3   OH227281   2.343   6.401   1.980
 9106TIP3    H127282   2.272   6.360   2.030
 9106TIP3    H227283   2.303   6.480   1.943
 9107TIP3   OH227284   7.087   3.639   5.292
 9107TIP3    H127285   7.057   3.587   5.217
 9107TIP3    H227286   7.015   3.699   5.310
 9108TIP3   OH227287   6.728   5.893   0.238
 9108TIP3    H127288   6.663   5.847   0.186
 9108TIP3    H227289   6.687   5.977   0.260
 9109TIP3   OH227290   7.086   1.516   2.642
 9109TIP3    H127291   7.008   1.562   2.613
 9109TIP3    H227292   7.068   1.491   2.733
 9110TIP3   OH227293   2.083   6.150   3.415
 9110TIP3    H127294   2.039   6.203   3.349
 9110TIP3    H227295   2.136   6.213   3.464
 9111TIP3   OH227296   0.974   1.347   4.473
 9111TIP3    H127297   1.050   1.312   4.426
 9111TIP3    H227298   0.994   1.334   4.566
 9112TIP3   OH227299   4.332   4.102   2.530
 9112TIP3    H127300   4.348   4.134   2.441
 9112TIP3    H227301   4.254   4.047   2.522
 9113TIP3   OH227302   6.312   5.086   3.115
 9113TIP3    H127303   6.257   5.036   3.055
 9113TIP3    H227304   6.400   5.080   3.077
 9114TIP3   OH227305   0.567   3.139   0.477
 9114TIP3    H127306   0.521   3.117   0.558
 9114TIP3    H227307   0.547   3.066   0.418
 9115TIP3   OH227308   2.595   6.595   4.525
 9115TIP3    H127309   2.659   6.644   4.575
 9115TIP3    H227310   2.566   6.655   4.456
 9116TIP3   OH227311   5.560   5.259   3.527
 9116TIP3    H127312   5.603   5.174   3.514
 9116TIP3    H227313   5.472   5.247   3.490
 9117TIP3   OH227314   1.124   6.781   4.736
 9117TIP3    H127315   1.029   6.770   4.729
 9117TIP3    H227316   1.157   6.693   4.753
 9118TIP3   OH227317   6.585   5.789   3.905
 9118TIP3    H127318   6.633   5.829   3.978
 9118TIP3    H227319   6.498   5.771   3.940
 9119TIP3   OH227320   1.959   4.057   0.970
 9119TIP3    H127321   2.052   4.075   0.983
 9119TIP3    H227322   1.931   4.015   1.052
 9120TIP3   OH227323   1.998   6.540   2.438
 9120TIP3    H127324   2.070   6.589   2.479
 9120TIP3    H227325   1.993   6.459   2.488
 9121TIP3   OH227326   2.654   5.846   4.863
 9121TIP3    H127327   2.598   5.768   4.875
 9121TIP3    H227328   2.707   5.825   4.786
 9122TIP3   OH227329   1.128   6.370   4.893
 9122TIP3    H127330   1.061   6.302   4.894
 9122TIP3    H227331   1.122   6.410   4.806
 9123TIP3   OH227332   2.776   2.455   3.977
 9123TIP3    H127333   2.856   2.507   3.965
 9123TIP3    H227334   2.786   2.381   3.917
 9124TIP3   OH227335   0.662   6.006   3.628
 9124TIP3    H127336   0.736   6.021   3.569
 9124TIP3    H227337   0.607   6.083   3.618
 9125TIP3   OH227338   4.823   1.170   0.509
 9125TIP3    H127339   4.895   1.206   0.561
 9125TIP3    H227340   4.745   1.217   0.540
 9126TIP3   OH227341   4.951   6.389   1.081
 9126TIP3    H127342   4.923   6.432   1.000
 9126TIP3    H227343   4.875   6.337   1.108
 9127TIP3   OH227344   3.319   3.382   4.256
 9127TIP3    H127345   3.327   3.386   4.161
 9127TIP3    H227346   3.257   3.451   4.278
 9128TIP3   OH227347   1.459   0.955   2.519
 9128TIP3    H127348   1.382   0.901   2.501
 9128TIP3    H227349   1.517   0.897   2.569
 9129TIP3   OH227350   0.894   4.542   2.165
 9129TIP3    H127351   0.891   4.465   2.220
 9129TIP3    H227352   0.810   4.542   2.119
 9130TIP3   OH227353   2.060   5.893   3.520
 9130TIP3    H127354   2.075   5.970   3.465
 9130TIP3    H227355   2.053   5.820   3.459
 9131TIP3   OH227356   4.519   4.141   0.895
 9131TIP3    H127357   4.553   4.051   0.891
 9131TIP3    H227358   4.431   4.131   0.931
 9132TIP3   OH227359   4.936   1.728   3.383
 9132TIP3    H127360   4.919   1.724   3.288
 9132TIP3    H227361   4.869   1.787   3.417
 9133TIP3   OH227362   2.486   3.343   1.508
 9133TIP3    H127363   2.550   3.400   1.464
 9133TIP3    H227364   2.482   3.265   1.453
 9134TIP3   OH227365   3.487   3.085   3.078
 9134TIP3    H127366   3.545   3.076   3.154
 9134TIP3    H227367   3.507   3.010   3.022
 9135TIP3   OH227368   3.979   6.174   2.896
 9135TIP3    H127369   3.899   6.165   2.845
 9135TIP3    H227370   3.964   6.251   2.952
 9136TIP3   OH227371   0.318   6.486   5.817
 9136TIP3    H127372   0.315   6.401   5.772
 9136TIP3    H227373   0.387   6.534   5.772
 9137TIP3   OH227374   2.693   3.313   5.063
 9137TIP3    H127375   2.598   3.311   5.067
 9137TIP3    H227376   2.721   3.341   5.150
 9138TIP3   OH227377   2.689   1.574   5.487
 9138TIP3    H127378   2.737   1.638   5.539
 9138TIP3    H227379   2.629   1.533   5.549
 9139TIP3   OH227380   6.469   2.139   5.244
 9139TIP3    H127381   6.425   2.222   5.265
 9139TIP3    H227382   6.523   2.159   5.167
 9140TIP3   OH227383   4.095   6.092   5.449
 9140TIP3    H127384   4.178   6.050   5.424
 9140TIP3    H227385   4.117   6.144   5.526
 9141TIP3   OH227386   3.675   3.167   2.302
 9141TIP3    H127387   3.651   3.154   2.210
 9141TIP3    H227388   3.659   3.081   2.342
 9142TIP3   OH227389   3.208   2.706   0.935
 9142TIP3    H127390   3.255   2.691   1.017
 9142TIP3    H227391   3.145   2.776   0.956
 9143TIP3   OH227392   1.954   5.744   4.472
 9143TIP3    H127393   2.028   5.720   4.416
 9143TIP3    H227394   1.965   5.838   4.487
 9144TIP3   OH227395   4.161   4.978   2.302
 9144TIP3    H127396   4.116   5.054   2.337
 9144TIP3    H227397   4.143   4.908   2.365
 9145TIP3   OH227398   1.385   4.611   3.178
 9145TIP3    H127399   1.403   4.525   3.140
 9145TIP3    H227400   1.399   4.673   3.107
 9146TIP3   OH227401   0.633   4.459   4.826
 9146TIP3    H127402   0.621   4.549   4.797
 9146TIP3    H227403   0.694   4.421   4.762
 9147TIP3   OH227404   2.627   1.915   2.427
 9147TIP3    H127405   2.609   1.891   2.518
 9147TIP3    H227406   2.710   1.872   2.407
 9148TIP3   OH227407   3.822   4.918   5.192
 9148TIP3    H127408   3.884   4.985   5.163
 9148TIP3    H227409   3.854   4.837   5.151
 9149TIP3   OH227410   6.747   5.098   4.000
 9149TIP3    H127411   6.745   5.070   3.909
 9149TIP3    H227412   6.754   5.193   3.996
 9150TIP3   OH227413   0.970   6.614   1.309
 9150TIP3    H127414   0.957   6.570   1.393
 9150TIP3    H227415   0.977   6.543   1.245
 9151TIP3   OH227416   1.919   5.120   0.038
 9151TIP3    H127417   1.903   5.113   0.132
 9151TIP3    H227418   1.999   5.071   0.023
 9152TIP3   OH227419   0.443   6.777   4.201
 9152TIP3    H127420   0.366   6.834   4.197
 9152TIP3    H227421   0.414   6.694   4.165
 9153TIP3   OH227422   2.125   3.231   3.144
 9153TIP3    H127423   2.168   3.149   3.117
 9153TIP3    H227424   2.036   3.205   3.166
 9154TIP3   OH227425   4.764   1.488   0.642
 9154TIP3    H127426   4.795   1.519   0.557
 9154TIP3    H227427   4.713   1.410   0.623
 9155TIP3   OH227428   4.173   0.417   3.782
 9155TIP3    H127429   4.223   0.362   3.842
 9155TIP3    H227430   4.087   0.425   3.822
 9156TIP3   OH227431   0.806   6.045   3.935
 9156TIP3    H127432   0.801   6.048   4.030
 9156TIP3    H227433   0.824   6.135   3.909
 9157TIP3   OH227434   6.081   4.884   0.408
 9157TIP3    H127435   6.085   4.970   0.367
 9157TIP3    H227436   5.989   4.874   0.433
 9158TIP3   OH227437   3.987   5.734   4.188
 9158TIP3    H127438   3.930   5.805   4.160
 9158TIP3    H227439   3.969   5.663   4.126
 9159TIP3   OH227440   5.749   2.021   0.252
 9159TIP3    H127441   5.811   2.023   0.179
 9159TIP3    H227442   5.726   2.113   0.267
 9160TIP3   OH227443   0.879   3.362   0.683
 9160TIP3    H127444   0.904   3.294   0.745
 9160TIP3    H227445   0.860   3.314   0.602
 9161TIP3   OH227446   5.721   5.992   4.725
 9161TIP3    H127447   5.740   6.076   4.767
 9161TIP3    H227448   5.685   6.016   4.640
 9162TIP3   OH227449   6.095   0.964   1.852
 9162TIP3    H127450   6.036   0.896   1.884
 9162TIP3    H227451   6.039   1.023   1.802
 9163TIP3   OH227452   3.155   0.567   5.023
 9163TIP3    H127453   3.228   0.614   4.982
 9163TIP3    H227454   3.191   0.531   5.104
 9164TIP3   OH227455   5.931   6.416   0.629
 9164TIP3    H127456   5.865   6.362   0.585
 9164TIP3    H227457   5.906   6.506   0.607
 9165TIP3   OH227458   2.821   0.673   1.955
 9165TIP3    H127459   2.826   0.623   1.873
 9165TIP3    H227460   2.875   0.750   1.939
 9166TIP3   OH227461   3.762   2.219   1.848
 9166TIP3    H127462   3.731   2.238   1.760
 9166TIP3    H227463   3.750   2.301   1.896
 9167TIP3   OH227464   6.260   1.306   4.621
 9167TIP3    H127465   6.325   1.346   4.678
 9167TIP3    H227466   6.285   1.334   4.533
 9168TIP3   OH227467   5.513   2.354   0.480
 9168TIP3    H127468   5.544   2.308   0.402
 9168TIP3    H227469   5.559   2.438   0.478
 9169TIP3   OH227470   4.566   2.798   4.047
 9169TIP3    H127471   4.574   2.736   3.975
 9169TIP3    H227472   4.473   2.800   4.067
 9170TIP3   OH227473   3.598   1.773   3.400
 9170TIP3    H127474   3.671   1.712   3.404
 9170TIP3    H227475   3.541   1.739   3.331
 9171TIP3   OH227476   0.801   3.857   2.485
 9171TIP3    H127477   0.742   3.924   2.450
 9171TIP3    H227478   0.745   3.780   2.497
 9172TIP3   OH227479   1.537   3.405   0.931
 9172TIP3    H127480   1.584   3.450   1.001
 9172TIP3    H227481   1.449   3.441   0.933
 9173TIP3   OH227482   6.066   5.270   4.848
 9173TIP3    H127483   6.141   5.325   4.872
 9173TIP3    H227484   5.994   5.332   4.836
 9174TIP3   OH227485   1.363   5.560   5.081
 9174TIP3    H127486   1.372   5.566   4.986
 9174TIP3    H227487   1.275   5.593   5.099
 9175TIP3   OH227488   6.582   5.041   0.866
 9175TIP3    H127489   6.634   4.961   0.857
 9175TIP3    H227490   6.611   5.078   0.949
 9176TIP3   OH227491   4.214   3.535   0.168
 9176TIP3    H127492   4.216   3.506   0.259
 9176TIP3    H227493   4.136   3.590   0.162
 9177TIP3   OH227494   1.089   3.546   3.151
 9177TIP3    H127495   1.135   3.583   3.076
 9177TIP3    H227496   1.020   3.609   3.171
 9178TIP3   OH227497   2.553   5.818   5.687
 9178TIP3    H127498   2.530   5.725   5.697
 9178TIP3    H227499   2.602   5.838   5.766
 9179TIP3   OH227500   6.646   6.535   1.535
 9179TIP3    H127501   6.666   6.444   1.557
 9179TIP3    H227502   6.584   6.563   1.603
 9180TIP3   OH227503   4.047   1.604   3.747
 9180TIP3    H127504   4.038   1.509   3.742
 9180TIP3    H227505   4.083   1.621   3.834
 9181TIP3   OH227506   0.604   2.428   1.833
 9181TIP3    H127507   0.517   2.440   1.797
 9181TIP3    H227508   0.659   2.492   1.787
 9182TIP3   OH227509   6.008   6.216   3.054
 9182TIP3    H127510   6.045   6.273   3.121
 9182TIP3    H227511   6.083   6.191   2.999
 9183TIP3   OH227512   2.564   4.418   5.786
 9183TIP3    H127513   2.570   4.510   5.812
 9183TIP3    H227514   2.652   4.396   5.756
 9184TIP3   OH227515   2.952   5.305   1.803
 9184TIP3    H127516   2.937   5.224   1.753
 9184TIP3    H227517   2.943   5.278   1.894
 9185TIP3   OH227518   0.989   1.914   1.517
 9185TIP3    H127519   0.987   1.866   1.600
 9185TIP3    H227520   0.929   1.987   1.530
 9186TIP3   OH227521   2.678   4.575   3.146
 9186TIP3    H127522   2.622   4.602   3.073
 9186TIP3    H227523   2.619   4.527   3.205
 9187TIP3   OH227524   1.030   0.356   1.884
 9187TIP3    H127525   1.101   0.360   1.820
 9187TIP3    H227526   1.075   0.350   1.969
 9188TIP3   OH227527   0.685   1.152   0.795
 9188TIP3    H127528   0.752   1.084   0.803
 9188TIP3    H227529   0.734   1.231   0.772
 9189TIP3   OH227530   0.736   2.661   4.001
 9189TIP3    H127531   0.809   2.713   4.034
 9189TIP3    H227532   0.658   2.714   4.020
 9190TIP3   OH227533   5.833   6.165   0.214
 9190TIP3    H127534   5.769   6.193   0.149
 9190TIP3    H227535   5.849   6.073   0.192
 9191TIP3   OH227536   4.469   0.365   4.986
 9191TIP3    H127537   4.454   0.460   4.993
 9191TIP3    H227538   4.466   0.347   4.892
 9192TIP3   OH227539   4.715   4.825   2.441
 9192TIP3    H127540   4.784   4.803   2.504
 9192TIP3    H227541   4.703   4.745   2.390
 9193TIP3   OH227542   3.416   5.450   3.544
 9193TIP3    H127543   3.415   5.363   3.504
 9193TIP3    H227544   3.389   5.509   3.474
 9194TIP3   OH227545   4.619   1.654   3.238
 9194TIP3    H127546   4.573   1.676   3.319
 9194TIP3    H227547   4.666   1.734   3.215
 9195TIP3   OH227548   7.152   1.176   1.982
 9195TIP3    H127549   7.131   1.270   1.980
 9195TIP3    H227550   7.069   1.133   1.958
 9196TIP3   OH227551   6.787   5.498   2.811
 9196TIP3    H127552   6.714   5.494   2.749
 9196TIP3    H227553   6.806   5.406   2.831
 9197TIP3   OH227554   4.045   1.602   2.531
 9197TIP3    H127555   4.057   1.551   2.611
 9197TIP3    H227556   3.954   1.589   2.507
 9198TIP3   OH227557   6.389   5.975   5.284
 9198TIP3    H127558   6.339   6.019   5.352
 9198TIP3    H227559   6.456   5.926   5.332
 9199TIP3   OH227560   2.670   5.847   5.216
 9199TIP3    H127561   2.686   5.793   5.293
 9199TIP3    H227562   2.705   5.933   5.240
 9200TIP3   OH227563   0.098   6.250   5.713
 9200TIP3    H127564   0.058   6.275   5.797
 9200TIP3    H227565   0.079   6.325   5.655
 9201TIP3   OH227566   0.101   5.921   2.745
 9201TIP3    H127567   0.015   5.930   2.786
 9201TIP3    H227568   0.154   5.874   2.809
 9202TIP3   OH227569   1.485   0.916   1.027
 9202TIP3    H127570   1.579   0.900   1.026
 9202TIP3    H227571   1.462   0.920   1.119
 9203TIP3   OH227572   5.771   4.346   0.759
 9203TIP3    H127573   5.677   4.327   0.758
 9203TIP3    H227574   5.781   4.416   0.825
 9204TIP3   OH227575   7.064   2.685   0.457
 9204TIP3    H127576   7.067   2.740   0.379
 9204TIP3    H227577   6.976   2.647   0.456
 9205TIP3   OH227578   4.501   5.505   4.561
 9205TIP3    H127579   4.419   5.546   4.532
 9205TIP3    H227580   4.473   5.436   4.621
 9206TIP3   OH227581   1.028   3.837   3.275
 9206TIP3    H127582   0.979   3.918   3.264
 9206TIP3    H227583   0.961   3.768   3.276
 9207TIP3   OH227584   1.176   3.891   4.970
 9207TIP3    H127585   1.106   3.923   4.913
 9207TIP3    H227586   1.255   3.933   4.937
 9208TIP3   OH227587   6.576   6.538   5.534
 9208TIP3    H127588   6.605   6.470   5.473
 9208TIP3    H227589   6.537   6.490   5.607
 9209TIP3   OH227590   1.487   3.925   4.123
 9209TIP3    H127591   1.409   3.881   4.159
 9209TIP3    H227592   1.467   4.018   4.128
 9210TIP3   OH227593   4.670   4.475   5.660
 9210TIP3    H127594   4.689   4.465   5.567
 9210TIP3    H227595   4.607   4.548   5.664
 9211TIP3   OH227596   5.738   3.487   3.754
 9211TIP3    H127597   5.681   3.415   3.782
 9211TIP3    H227598   5.772   3.523   3.836
 9212TIP3   OH227599   5.507   5.248   5.783
 9212TIP3    H127600   5.551   5.175   5.828
 9212TIP3    H227601   5.418   5.217   5.769
 9213TIP3   OH227602   1.093   3.837   0.694
 9213TIP3    H127603   1.007   3.859   0.659
 9213TIP3    H227604   1.097   3.742   0.693
 9214TIP3   OH227605   2.004   2.427   3.145
 9214TIP3    H127606   1.994   2.485   3.070
 9214TIP3    H227607   2.090   2.386   3.132
 9215TIP3   OH227608   2.545   5.974   1.452
 9215TIP3    H127609   2.627   5.928   1.470
 9215TIP3    H227610   2.542   6.045   1.516
 9216TIP3   OH227611   1.618   4.615   1.406
 9216TIP3    H127612   1.612   4.579   1.495
 9216TIP3    H227613   1.540   4.581   1.362
 9217TIP3   OH227614   4.419   5.519   2.819
 9217TIP3    H127615   4.490   5.480   2.868
 9217TIP3    H227616   4.370   5.571   2.883
 9218TIP3   OH227617   6.551   3.921   5.712
 9218TIP3    H127618   6.557   3.974   5.632
 9218TIP3    H227619   6.563   3.983   5.783
 9219TIP3   OH227620   1.193   4.362   2.868
 9219TIP3    H127621   1.236   4.287   2.909
 9219TIP3    H227622   1.219   4.358   2.776
 9220TIP3   OH227623   0.070   6.302   4.111
 9220TIP3    H127624   0.046   6.388   4.076
 9220TIP3    H227625   0.023   6.240   4.055
 9221TIP3   OH227626   1.666   2.490   3.472
 9221TIP3    H127627   1.685   2.399   3.449
 9221TIP3    H227628   1.728   2.541   3.420
 9222TIP3   OH227629   4.523   4.117   2.905
 9222TIP3    H127630   4.446   4.150   2.950
 9222TIP3    H227631   4.552   4.189   2.849
 9223TIP3   OH227632   3.157   2.982   2.067
 9223TIP3    H127633   3.154   2.988   2.162
 9223TIP3    H227634   3.093   2.915   2.045
 9224TIP3   OH227635   4.054   5.663   3.381
 9224TIP3    H127636   3.985   5.612   3.340
 9224TIP3    H227637   4.135   5.634   3.338
 9225TIP3   OH227638   2.302   6.391   5.720
 9225TIP3    H127639   2.278   6.408   5.811
 9225TIP3    H227640   2.260   6.461   5.670
 9226TIP3   OH227641   0.384   0.614   5.212
 9226TIP3    H127642   0.421   0.644   5.129
 9226TIP3    H227643   0.338   0.690   5.248
 9227TIP3   OH227644   5.914   4.184   4.072
 9227TIP3    H127645   5.957   4.108   4.033
 9227TIP3    H227646   5.962   4.200   4.153
 9228TIP3   OH227647   1.642   3.759   4.677
 9228TIP3    H127648   1.604   3.820   4.739
 9228TIP3    H227649   1.647   3.808   4.595
 9229TIP3   OH227650   5.992   5.725   3.246
 9229TIP3    H127651   5.955   5.715   3.159
 9229TIP3    H227652   6.048   5.802   3.240
 9230TIP3   OH227653   3.238   2.300   4.165
 9230TIP3    H127654   3.288   2.372   4.125
 9230TIP3    H227655   3.153   2.338   4.186
 9231TIP3   OH227656   5.135   1.396   1.670
 9231TIP3    H127657   5.144   1.425   1.761
 9231TIP3    H227658   5.170   1.469   1.618
 9232TIP3   OH227659   3.628   1.238   3.510
 9232TIP3    H127660   3.544   1.223   3.466
 9232TIP3    H227661   3.605   1.259   3.600
 9233TIP3   OH227662   6.883   4.777   2.852
 9233TIP3    H127663   6.824   4.701   2.859
 9233TIP3    H227664   6.847   4.830   2.781
 9234TIP3   OH227665   4.939   6.665   5.430
 9234TIP3    H127666   4.994   6.743   5.429
 9234TIP3    H227667   4.959   6.620   5.347
 9235TIP3   OH227668   5.761   2.679   0.663
 9235TIP3    H127669   5.725   2.760   0.698
 9235TIP3    H227670   5.817   2.645   0.733
 9236TIP3   OH227671   2.677   2.111   2.129
 9236TIP3    H127672   2.745   2.078   2.069
 9236TIP3    H227673   2.637   2.184   2.081
 9237TIP3   OH227674   1.062   4.978   3.203
 9237TIP3    H127675   0.973   4.975   3.169
 9237TIP3    H227676   1.109   4.912   3.151
 9238TIP3   OH227677   7.137   1.304   3.098
 9238TIP3    H127678   7.162   1.222   3.056
 9238TIP3    H227679   7.155   1.290   3.191
 9239TIP3   OH227680   5.510   2.815   2.655
 9239TIP3    H127681   5.430   2.851   2.617
 9239TIP3    H227682   5.513   2.852   2.743
 9240TIP3   OH227683   6.440   1.880   4.047
 9240TIP3    H127684   6.520   1.859   3.998
 9240TIP3    H227685   6.393   1.940   3.991
 9241TIP3   OH227686   3.287   0.097   3.433
 9241TIP3    H127687   3.278   0.130   3.522
 9241TIP3    H227688   3.203   0.113   3.391
 9242TIP3   OH227689   0.721   5.667   1.347
 9242TIP3    H127690   0.635   5.696   1.376
 9242TIP3    H227691   0.722   5.685   1.253
 9243TIP3   OH227692   6.130   4.254   0.464
 9243TIP3    H127693   6.039   4.258   0.493
 9243TIP3    H227694   6.175   4.203   0.531
 9244TIP3   OH227695   4.741   5.310   0.200
 9244TIP3    H127696   4.696   5.395   0.202
 9244TIP3    H227697   4.699   5.263   0.128
 9245TIP3   OH227698   2.224   0.235   0.039
 9245TIP3    H127699   2.150   0.246   0.099
 9245TIP3    H227700   2.252   0.324   0.018
 9246TIP3   OH227701   1.099   3.180   3.624
 9246TIP3    H127702   1.171   3.230   3.662
 9246TIP3    H227703   1.048   3.150   3.700
 9247TIP3   OH227704   2.495   2.634   4.218
 9247TIP3    H127705   2.435   2.566   4.187
 9247TIP3    H227706   2.505   2.692   4.143
 9248TIP3   OH227707   6.472   4.135   1.695
 9248TIP3    H127708   6.559   4.148   1.733
 9248TIP3    H227709   6.434   4.064   1.746
 9249TIP3   OH227710   6.069   3.222   5.493
 9249TIP3    H127711   6.008   3.290   5.523
 9249TIP3    H227712   6.017   3.141   5.496
 9250TIP3   OH227713   1.949   2.223   5.112
 9250TIP3    H127714   2.014   2.277   5.159
 9250TIP3    H227715   1.896   2.185   5.182
 9251TIP3   OH227716   2.258   3.089   3.434
 9251TIP3    H127717   2.265   3.055   3.344
 9251TIP3    H227718   2.332   3.148   3.443
 9252TIP3   OH227719   0.201   1.683   0.900
 9252TIP3    H127720   0.159   1.706   0.983
 9252TIP3    H227721   0.135   1.635   0.851
 9253TIP3   OH227722   1.670   3.469   2.355
 9253TIP3    H127723   1.742   3.530   2.374
 9253TIP3    H227724   1.593   3.525   2.344
 9254TIP3   OH227725   5.442   5.482   4.222
 9254TIP3    H127726   5.362   5.450   4.179
 9254TIP3    H227727   5.512   5.459   4.161
 9255TIP3   OH227728   6.102   2.861   4.910
 9255TIP3    H127729   6.052   2.876   4.830
 9255TIP3    H227730   6.055   2.792   4.956
 9256TIP3   OH227731   4.424   5.580   1.412
 9256TIP3    H127732   4.492   5.587   1.345
 9256TIP3    H227733   4.401   5.671   1.433
 9257TIP3   OH227734   0.803   3.157   3.115
 9257TIP3    H127735   0.897   3.144   3.105
 9257TIP3    H227736   0.779   3.100   3.188
 9258TIP3   OH227737   0.620   4.163   4.907
 9258TIP3    H127738   0.598   4.166   5.000
 9258TIP3    H227739   0.705   4.207   4.901
 9259TIP3   OH227740   5.053   3.713   0.390
 9259TIP3    H127741   5.136   3.680   0.359
 9259TIP3    H227742   4.987   3.669   0.336
 9260TIP3   OH227743   4.758   1.011   4.495
 9260TIP3    H127744   4.694   0.950   4.457
 9260TIP3    H227745   4.762   1.083   4.432
 9261TIP3   OH227746   5.365   2.133   0.745
 9261TIP3    H127747   5.284   2.134   0.695
 9261TIP3    H227748   5.426   2.083   0.691
 9262TIP3   OH227749   6.233   5.900   2.032
 9262TIP3    H127750   6.203   5.809   2.034
 9262TIP3    H227751   6.287   5.910   2.110
 9263TIP3   OH227752   1.283   4.844   2.254
 9263TIP3    H127753   1.371   4.877   2.234
 9263TIP3    H227754   1.261   4.790   2.178
 9264TIP3   OH227755   5.044   6.439   4.202
 9264TIP3    H127756   5.135   6.463   4.220
 9264TIP3    H227757   5.040   6.428   4.107
 9265TIP3   OH227758   3.793   1.467   2.163
 9265TIP3    H127759   3.856   1.479   2.091
 9265TIP3    H227760   3.841   1.416   2.229
 9266TIP3   OH227761   4.309   0.889   4.175
 9266TIP3    H127762   4.302   0.982   4.195
 9266TIP3    H227763   4.334   0.886   4.082
 9267TIP3   OH227764   1.047   5.861   0.755
 9267TIP3    H127765   1.095   5.901   0.683
 9267TIP3    H227766   1.108   5.866   0.830
 9268TIP3   OH227767   3.198   1.653   0.809
 9268TIP3    H127768   3.198   1.746   0.832
 9268TIP3    H227769   3.115   1.620   0.843
 9269TIP3   OH227770   5.962   3.976   4.300
 9269TIP3    H127771   5.921   4.041   4.356
 9269TIP3    H227772   5.900   3.965   4.228
 9270TIP3   OH227773   6.621   1.848   2.752
 9270TIP3    H127774   6.695   1.799   2.789
 9270TIP3    H227775   6.581   1.892   2.827
 9271TIP3   OH227776   5.155   4.679   5.069
 9271TIP3    H127777   5.118   4.721   5.147
 9271TIP3    H227778   5.163   4.750   5.005
 9272TIP3   OH227779   0.169   0.274   0.406
 9272TIP3    H127780   0.097   0.258   0.467
 9272TIP3    H227781   0.128   0.321   0.333
 9273TIP3   OH227782   3.275   0.962   4.840
 9273TIP3    H127783   3.199   0.996   4.792
 9273TIP3    H227784   3.338   1.034   4.839
 9274TIP3   OH227785   0.844   4.602   4.427
 9274TIP3    H127786   0.917   4.572   4.482
 9274TIP3    H227787   0.849   4.548   4.349
 9275TIP3   OH227788   3.460   5.535   0.723
 9275TIP3    H127789   3.547   5.562   0.693
 9275TIP3    H227790   3.423   5.615   0.760
 9276TIP3   OH227791   5.916   1.779   3.984
 9276TIP3    H127792   6.006   1.799   4.010
 9276TIP3    H227793   5.925   1.705   3.923
 9277TIP3   OH227794   5.752   0.500   3.506
 9277TIP3    H127795   5.658   0.499   3.527
 9277TIP3    H227796   5.794   0.527   3.588
 9278TIP3   OH227797   4.767   3.322   4.271
 9278TIP3    H127798   4.676   3.308   4.243
 9278TIP3    H227799   4.759   3.371   4.353
 9279TIP3   OH227800   6.411   0.362   2.877
 9279TIP3    H127801   6.357   0.385   2.802
 9279TIP3    H227802   6.395   0.269   2.891
 9280TIP3   OH227803   4.775   6.214   3.677
 9280TIP3    H127804   4.726   6.278   3.626
 9280TIP3    H227805   4.862   6.213   3.636
 9281TIP3   OH227806   2.910   5.225   5.133
 9281TIP3    H127807   2.861   5.160   5.083
 9281TIP3    H227808   2.994   5.183   5.152
 9282TIP3   OH227809   3.390   6.230   1.024
 9282TIP3    H127810   3.300   6.229   1.057
 9282TIP3    H227811   3.434   6.162   1.074
 9283TIP3   OH227812   4.002   6.184   4.481
 9283TIP3    H127813   4.023   6.183   4.574
 9283TIP3    H227814   4.032   6.099   4.449
 9284TIP3   OH227815   2.466   4.192   5.379
 9284TIP3    H127816   2.475   4.151   5.465
 9284TIP3    H227817   2.476   4.121   5.317
 9285TIP3   OH227818   0.739   0.788   3.397
 9285TIP3    H127819   0.691   0.742   3.465
 9285TIP3    H227820   0.795   0.850   3.444
 9286TIP3   OH227821   3.791   6.327   4.424
 9286TIP3    H127822   3.808   6.369   4.509
 9286TIP3    H227823   3.855   6.256   4.420
 9287TIP3   OH227824   6.521   6.607   2.786
 9287TIP3    H127825   6.595   6.567   2.740
 9287TIP3    H227826   6.482   6.666   2.723
 9288TIP3   OH227827   5.278   4.657   3.770
 9288TIP3    H127828   5.245   4.642   3.859
 9288TIP3    H227829   5.367   4.622   3.771
 9289TIP3   OH227830   7.113   1.442   4.243
 9289TIP3    H127831   7.161   1.401   4.315
 9289TIP3    H227832   7.098   1.532   4.273
 9290TIP3   OH227833   5.543   5.868   3.698
 9290TIP3    H127834   5.464   5.819   3.720
 9290TIP3    H227835   5.526   5.902   3.610
 9291TIP3   OH227836   2.848   2.848   3.351
 9291TIP3    H127837   2.851   2.915   3.283
 9291TIP3    H227838   2.873   2.894   3.431
 9292TIP3   OH227839   3.517   0.657   4.364
 9292TIP3    H127840   3.520   0.570   4.324
 9292TIP3    H227841   3.592   0.659   4.422
 9293TIP3   OH227842   4.221   0.255   3.525
 9293TIP3    H127843   4.241   0.169   3.562
 9293TIP3    H227844   4.194   0.308   3.600
 9294TIP3   OH227845   3.900   0.089   5.022
 9294TIP3    H127846   3.916  -0.005   5.008
 9294TIP3    H227847   3.883   0.123   4.934
 9295TIP3   OH227848   5.440   3.412   2.228
 9295TIP3    H127849   5.442   3.326   2.186
 9295TIP3    H227850   5.388   3.467   2.169
 9296TIP3   OH227851   1.440   0.918   1.302
 9296TIP3    H127852   1.504   0.853   1.330
 9296TIP3    H227853   1.406   0.955   1.384
 9297TIP3   OH227854   2.121   1.338   5.339
 9297TIP3    H127855   2.078   1.290   5.410
 9297TIP3    H227856   2.199   1.286   5.319
 9298TIP3   OH227857   3.428   6.397   1.349
 9298TIP3    H127858   3.426   6.412   1.443
 9298TIP3    H227859   3.396   6.308   1.338
 9299TIP3   OH227860   6.577   6.714   3.033
 9299TIP3    H127861   6.546   6.689   2.946
 9299TIP3    H227862   6.600   6.632   3.076
 9300TIP3   OH227863   6.478   1.054   2.289
 9300TIP3    H127864   6.418   1.109   2.338
 9300TIP3    H227865   6.459   1.073   2.197
 9301TIP3   OH227866   0.622   0.675   1.013
 9301TIP3    H127867   0.681   0.749   1.027
 9301TIP3    H227868   0.546   0.694   1.069
 9302TIP3   OH227869   1.637   5.752   0.402
 9302TIP3    H127870   1.586   5.745   0.321
 9302TIP3    H227871   1.680   5.666   0.411
 9303TIP3   OH227872   6.136   3.488   5.252
 9303TIP3    H127873   6.158   3.576   5.219
 9303TIP3    H227874   6.164   3.490   5.343
 9304TIP3   OH227875   1.592   4.870   2.403
 9304TIP3    H127876   1.557   4.895   2.318
 9304TIP3    H227877   1.632   4.784   2.389
 9305TIP3   OH227878   4.751   0.681   3.529
 9305TIP3    H127879   4.667   0.706   3.490
 9305TIP3    H227880   4.790   0.764   3.558
 9306TIP3   OH227881   5.897   3.859   3.245
 9306TIP3    H127882   5.864   3.783   3.292
 9306TIP3    H227883   5.890   3.836   3.153
 9307TIP3   OH227884   3.523   3.779   3.772
 9307TIP3    H127885   3.497   3.777   3.864
 9307TIP3    H227886   3.483   3.701   3.734
 9308TIP3   OH227887   6.831   2.799   4.655
 9308TIP3    H127888   6.853   2.706   4.648
 9308TIP3    H227889   6.861   2.837   4.573
 9309TIP3   OH227890   6.819   4.208   5.793
 9309TIP3    H127891   6.897   4.264   5.796
 9309TIP3    H227892   6.852   4.124   5.760
 9310TIP3   OH227893   0.587   0.374   0.218
 9310TIP3    H127894   0.607   0.465   0.242
 9310TIP3    H227895   0.654   0.351   0.154
 9311TIP3   OH227896   3.179   0.452   0.337
 9311TIP3    H127897   3.192   0.532   0.387
 9311TIP3    H227898   3.267   0.414   0.328
 9312TIP3   OH227899   4.734   1.939   5.744
 9312TIP3    H127900   4.766   2.028   5.734
 9312TIP3    H227901   4.801   1.884   5.703
 9313TIP3   OH227902   4.710   3.351   2.838
 9313TIP3    H127903   4.694   3.388   2.751
 9313TIP3    H227904   4.748   3.423   2.888
 9314TIP3   OH227905   6.342   4.501   5.735
 9314TIP3    H127906   6.349   4.588   5.696
 9314TIP3    H227907   6.432   4.471   5.742
 9315TIP3   OH227908   4.710   6.032   3.048
 9315TIP3    H127909   4.755   5.991   2.974
 9315TIP3    H227910   4.623   5.992   3.048
 9316TIP3   OH227911   5.414   3.467   0.108
 9316TIP3    H127912   5.437   3.387   0.155
 9316TIP3    H227913   5.441   3.538   0.166
 9317TIP3   OH227914   2.186   2.606   0.147
 9317TIP3    H127915   2.196   2.650   0.062
 9317TIP3    H227916   2.151   2.520   0.125
 9318TIP3   OH227917   3.453   5.222   3.421
 9318TIP3    H127918   3.480   5.135   3.452
 9318TIP3    H227919   3.510   5.239   3.346
 9319TIP3   OH227920   2.637   3.886   3.457
 9319TIP3    H127921   2.601   3.804   3.423
 9319TIP3    H227922   2.693   3.860   3.530
 9320TIP3   OH227923   6.608   0.156   2.994
 9320TIP3    H127924   6.670   0.127   2.927
 9320TIP3    H227925   6.522   0.136   2.958
 9321TIP3   OH227926   0.607   2.900   2.081
 9321TIP3    H127927   0.528   2.873   2.127
 9321TIP3    H227928   0.665   2.824   2.085
 9322TIP3   OH227929   4.277   5.528   3.983
 9322TIP3    H127930   4.238   5.549   3.898
 9322TIP3    H227931   4.284   5.612   4.028
 9323TIP3   OH227932   3.642   3.777   1.629
 9323TIP3    H127933   3.563   3.761   1.680
 9323TIP3    H227934   3.638   3.713   1.558
 9324TIP3   OH227935   5.314   0.932   0.158
 9324TIP3    H127936   5.399   0.906   0.193
 9324TIP3    H227937   5.334   0.997   0.092
 9325TIP3   OH227938   6.492   4.062   3.163
 9325TIP3    H127939   6.455   4.122   3.228
 9325TIP3    H227940   6.587   4.071   3.172
 9326TIP3   OH227941   3.852   3.059   0.833
 9326TIP3    H127942   3.868   3.005   0.911
 9326TIP3    H227943   3.889   3.144   0.855
 9327TIP3   OH227944   1.313   2.286   4.256
 9327TIP3    H127945   1.344   2.201   4.227
 9327TIP3    H227946   1.348   2.295   4.345
 9328TIP3   OH227947   0.804   5.487   0.401
 9328TIP3    H127948   0.824   5.549   0.331
 9328TIP3    H227949   0.717   5.513   0.431
 9329TIP3   OH227950   0.936   5.606   0.811
 9329TIP3    H127951   0.993   5.571   0.880
 9329TIP3    H227952   0.968   5.695   0.796
 9330TIP3   OH227953   5.692   6.100   5.779
 9330TIP3    H127954   5.784   6.091   5.755
 9330TIP3    H227955   5.688   6.068   5.869
 9331TIP3   OH227956   7.163   0.169   0.930
 9331TIP3    H127957   7.158   0.161   1.026
 9331TIP3    H227958   7.243   0.121   0.907
 9332TIP3   OH227959   2.206   5.036   5.157
 9332TIP3    H127960   2.178   4.990   5.236
 9332TIP3    H227961   2.288   4.994   5.132
 9333TIP3   OH227962   4.359   5.282   1.304
 9333TIP3    H127963   4.370   5.374   1.332
 9333TIP3    H227964   4.323   5.239   1.381
 9334TIP3   OH227965   2.487   1.121   4.554
 9334TIP3    H127966   2.542   1.117   4.475
 9334TIP3    H227967   2.422   1.052   4.541
 9335TIP3   OH227968   1.550   1.030   5.666
 9335TIP3    H127969   1.573   0.963   5.601
 9335TIP3    H227970   1.635   1.057   5.702
 9336TIP3   OH227971   0.356   5.170   0.749
 9336TIP3    H127972   0.319   5.082   0.744
 9336TIP3    H227973   0.374   5.183   0.842
 9337TIP3   OH227974   2.501   2.999   5.337
 9337TIP3    H127975   2.408   3.010   5.322
 9337TIP3    H227976   2.507   2.963   5.426
 9338TIP3   OH227977   0.332   6.821   3.039
 9338TIP3    H127978   0.346   6.841   2.947
 9338TIP3    H227979   0.238   6.828   3.052
 9339TIP3   OH227980   0.484   5.702   4.793
 9339TIP3    H127981   0.549   5.643   4.756
 9339TIP3    H227982   0.528   5.742   4.868
 9340TIP3   OH227983   0.079   5.772   0.345
 9340TIP3    H127984   0.065   5.679   0.326
 9340TIP3    H227985   0.173   5.777   0.365
 9341TIP3   OH227986   2.311   2.288   2.835
 9341TIP3    H127987   2.402   2.260   2.841
 9341TIP3    H227988   2.297   2.305   2.742
 9342TIP3   OH227989   6.156   1.160   0.456
 9342TIP3    H127990   6.131   1.069   0.471
 9342TIP3    H227991   6.099   1.189   0.384
 9343TIP3   OH227992   1.171   6.715   3.072
 9343TIP3    H127993   1.140   6.656   3.003
 9343TIP3    H227994   1.123   6.797   3.057
 9344TIP3   OH227995   4.430   2.063   4.483
 9344TIP3    H127996   4.489   2.073   4.558
 9344TIP3    H227997   4.483   2.088   4.408
 9345TIP3   OH227998   4.254   0.507   1.040
 9345TIP3    H127999   4.291   0.508   1.128
 9345TIP3    H228000   4.270   0.418   1.008
 9346TIP3   OH228001   2.185   4.351   3.288
 9346TIP3    H128002   2.115   4.388   3.235
 9346TIP3    H228003   2.222   4.282   3.233
 9347TIP3   OH228004   1.002   3.726   4.689
 9347TIP3    H128005   0.991   3.685   4.775
 9347TIP3    H228006   0.953   3.670   4.630
 9348TIP3   OH228007   1.405   6.420   4.132
 9348TIP3    H128008   1.345   6.386   4.198
 9348TIP3    H228009   1.353   6.485   4.084
 9349TIP3   OH228010   3.403   4.613   0.925
 9349TIP3    H128011   3.380   4.675   0.855
 9349TIP3    H228012   3.328   4.554   0.930
 9350TIP3   OH228013   2.281   0.963   3.009
 9350TIP3    H128014   2.235   1.019   3.071
 9350TIP3    H228015   2.366   0.946   3.051
 9351TIP3   OH228016   3.416   3.665   1.795
 9351TIP3    H128017   3.332   3.695   1.761
 9351TIP3    H228018   3.446   3.736   1.852
 9352TIP3   OH228019   0.245   0.259   1.768
 9352TIP3    H128020   0.149   0.260   1.764
 9352TIP3    H228021   0.266   0.321   1.838
 9353TIP3   OH228022   1.596   3.492   4.774
 9353TIP3    H128023   1.510   3.452   4.762
 9353TIP3    H228024   1.593   3.574   4.724
 9354TIP3   OH228025   6.433   5.821   4.723
 9354TIP3    H128026   6.429   5.824   4.627
 9354TIP3    H228027   6.348   5.785   4.749
 9355TIP3   OH228028   6.560   4.475   1.302
 9355TIP3    H128029   6.503   4.551   1.315
 9355TIP3    H228030   6.518   4.426   1.231
 9356TIP3   OH228031   0.242   3.773   0.102
 9356TIP3    H128032   0.255   3.845   0.164
 9356TIP3    H228033   0.227   3.815   0.018
 9357TIP3   OH228034   4.975   1.778   4.900
 9357TIP3    H128035   5.026   1.790   4.820
 9357TIP3    H228036   4.910   1.711   4.877
 9358TIP3   OH228037   1.691   4.463   0.321
 9358TIP3    H128038   1.602   4.498   0.323
 9358TIP3    H228039   1.679   4.369   0.304
 9359TIP3   OH228040   3.164   2.905   4.029
 9359TIP3    H128041   3.207   2.973   3.978
 9359TIP3    H228042   3.231   2.838   4.041
 9360TIP3   OH228043   4.421   0.447   5.388
 9360TIP3    H128044   4.397   0.534   5.419
 9360TIP3    H228045   4.516   0.442   5.401
 9361TIP3   OH228046   4.981   5.432   3.752
 9361TIP3    H128047   4.936   5.391   3.826
 9361TIP3    H228048   5.063   5.465   3.789
 9362TIP3   OH228049   6.143   3.253   1.030
 9362TIP3    H128050   6.122   3.299   0.949
 9362TIP3    H228051   6.108   3.165   1.017
 9363TIP3   OH228052   6.025   2.530   2.357
 9363TIP3    H128053   5.970   2.473   2.411
 9363TIP3    H228054   5.974   2.542   2.276
 9364TIP3   OH228055   3.263   4.061   3.068
 9364TIP3    H128056   3.173   4.093   3.073
 9364TIP3    H228057   3.287   4.069   2.976
 9365TIP3   OH228058   5.892   6.346   2.058
 9365TIP3    H128059   5.856   6.368   1.972
 9365TIP3    H228060   5.863   6.418   2.115
 9366TIP3   OH228061   5.297   0.682   1.891
 9366TIP3    H128062   5.322   0.640   1.808
 9366TIP3    H228063   5.363   0.750   1.903
 9367TIP3   OH228064   3.751   2.136   2.259
 9367TIP3    H128065   3.669   2.088   2.267
 9367TIP3    H228066   3.725   2.228   2.266
 9368TIP3   OH228067   2.760   3.106   5.286
 9368TIP3    H128068   2.792   3.121   5.197
 9368TIP3    H228069   2.671   3.073   5.274
 9369TIP3   OH228070   3.117   5.923   1.972
 9369TIP3    H128071   3.134   5.912   2.066
 9369TIP3    H228072   3.035   5.876   1.957
 9370TIP3   OH228073   3.324   0.039   5.760
 9370TIP3    H128074   3.240   0.036   5.804
 9370TIP3    H228075   3.319  -0.030   5.694
 9371TIP3   OH228076   3.866   0.415   4.259
 9371TIP3    H128077   3.860   0.510   4.269
 9371TIP3    H228078   3.920   0.387   4.333
 9372TIP3   OH228079   6.781   4.941   0.300
 9372TIP3    H128080   6.840   4.914   0.371
 9372TIP3    H228081   6.709   4.878   0.303
 9373TIP3   OH228082   3.750   3.849   4.571
 9373TIP3    H128083   3.696   3.777   4.539
 9373TIP3    H228084   3.704   3.881   4.649
 9374TIP3   OH228085   1.704   1.275   4.774
 9374TIP3    H128086   1.629   1.247   4.827
 9374TIP3    H228087   1.755   1.330   4.833
 9375TIP3   OH228088   0.472   2.782   4.046
 9375TIP3    H128089   0.491   2.866   4.005
 9375TIP3    H228090   0.456   2.803   4.138
 9376TIP3   OH228091   0.467   4.748   1.641
 9376TIP3    H128092   0.467   4.704   1.726
 9376TIP3    H228093   0.506   4.685   1.581
 9377TIP3   OH228094   5.603   6.264   1.000
 9377TIP3    H128095   5.677   6.235   0.946
 9377TIP3    H228096   5.616   6.221   1.085
 9378TIP3   OH228097   2.421   1.393   3.345
 9378TIP3    H128098   2.352   1.458   3.355
 9378TIP3    H228099   2.406   1.331   3.416
 9379TIP3   OH228100   7.103   5.108   2.889
 9379TIP3    H128101   7.168   5.039   2.900
 9379TIP3    H228102   7.153   5.190   2.891
 9380TIP3   OH228103   5.199   1.999   5.712
 9380TIP3    H128104   5.166   2.065   5.773
 9380TIP3    H228105   5.181   1.915   5.755
 9381TIP3   OH228106   2.048   2.548   4.593
 9381TIP3    H128107   2.050   2.638   4.625
 9381TIP3    H228108   1.962   2.515   4.618
 9382TIP3   OH228109   3.749   0.401   3.622
 9382TIP3    H128110   3.657   0.381   3.639
 9382TIP3    H228111   3.798   0.334   3.671
 9383TIP3   OH228112   0.146   2.194   5.627
 9383TIP3    H128113   0.194   2.271   5.597
 9383TIP3    H228114   0.140   2.137   5.551
 9384TIP3   OH228115   4.506   0.351   3.687
 9384TIP3    H128116   4.467   0.285   3.745
 9384TIP3    H228117   4.496   0.433   3.734
 9385TIP3   OH228118   3.669   6.476   4.213
 9385TIP3    H128119   3.610   6.540   4.252
 9385TIP3    H228120   3.701   6.424   4.286
 9386TIP3   OH228121   2.380   1.939   1.238
 9386TIP3    H128122   2.466   1.905   1.263
 9386TIP3    H228123   2.327   1.931   1.317
 9387TIP3   OH228124   3.822   0.406   2.684
 9387TIP3    H128125   3.838   0.351   2.607
 9387TIP3    H228126   3.727   0.407   2.692
 9388TIP3   OH228127   0.864   2.406   1.387
 9388TIP3    H128128   0.878   2.475   1.451
 9388TIP3    H228129   0.946   2.356   1.387
 9389TIP3   OH228130   3.117   5.243   4.126
 9389TIP3    H128131   3.025   5.244   4.100
 9389TIP3    H228132   3.115   5.254   4.221
 9390TIP3   OH228133   5.617   2.554   1.381
 9390TIP3    H128134   5.523   2.568   1.393
 9390TIP3    H228135   5.622   2.479   1.322
 9391TIP3   OH228136   5.101   5.048   5.434
 9391TIP3    H128137   5.098   4.980   5.367
 9391TIP3    H228138   5.114   5.129   5.386
 9392TIP3   OH228139   6.175   3.177   4.205
 9392TIP3    H128140   6.138   3.158   4.291
 9392TIP3    H228141   6.270   3.169   4.218
 9393TIP3   OH228142   5.208   2.641   5.853
 9393TIP3    H128143   5.302   2.646   5.834
 9393TIP3    H228144   5.203   2.639   5.948
 9394TIP3   OH228145   5.929   2.467   2.081
 9394TIP3    H128146   5.871   2.479   2.005
 9394TIP3    H228147   5.926   2.372   2.098
 9395TIP3   OH228148   3.749   2.761   2.069
 9395TIP3    H128149   3.809   2.810   2.013
 9395TIP3    H228150   3.666   2.808   2.063
 9396TIP3   OH228151   1.465   1.987   4.970
 9396TIP3    H128152   1.461   1.901   5.011
 9396TIP3    H228153   1.554   2.018   4.987
 9397TIP3   OH228154   6.834   1.510   0.375
 9397TIP3    H128155   6.862   1.511   0.466
 9397TIP3    H228156   6.761   1.572   0.372
 9398TIP3   OH228157   2.606   4.495   0.021
 9398TIP3    H128158   2.661   4.435   0.071
 9398TIP3    H228159   2.589   4.568   0.080
 9399TIP3   OH228160   7.022   5.676   3.324
 9399TIP3    H128161   7.054   5.765   3.336
 9399TIP3    H228162   6.933   5.686   3.289
 9400TIP3   OH228163   5.899   5.505   4.354
 9400TIP3    H128164   5.965   5.526   4.288
 9400TIP3    H228165   5.820   5.550   4.324
 9401TIP3   OH228166   4.259   6.047   2.927
 9401TIP3    H128167   4.168   6.073   2.915
 9401TIP3    H228168   4.310   6.127   2.913
 9402TIP3   OH228169   0.504   5.644   1.799
 9402TIP3    H128170   0.584   5.697   1.793
 9402TIP3    H228171   0.433   5.707   1.809
 9403TIP3   OH228172   5.427   6.758   1.015
 9403TIP3    H128173   5.366   6.824   0.981
 9403TIP3    H228174   5.505   6.768   0.961
 9404TIP3   OH228175   0.533   0.711   2.293
 9404TIP3    H128176   0.499   0.658   2.365
 9404TIP3    H228177   0.596   0.770   2.334
 9405TIP3   OH228178   1.865   3.678   2.383
 9405TIP3    H128179   1.814   3.750   2.420
 9405TIP3    H228180   1.872   3.698   2.290
 9406TIP3   OH228181   5.476   5.996   1.228
 9406TIP3    H128182   5.421   6.005   1.150
 9406TIP3    H228183   5.497   6.086   1.252
 9407TIP3   OH228184   1.608   6.309   3.973
 9407TIP3    H128185   1.537   6.332   4.033
 9407TIP3    H228186   1.573   6.325   3.886
 9408TIP3   OH228187   0.152   4.471   4.283
 9408TIP3    H128188   0.218   4.468   4.353
 9408TIP3    H228189   0.090   4.538   4.312
 9409TIP3   OH228190   4.548   0.378   5.765
 9409TIP3    H128191   4.618   0.376   5.830
 9409TIP3    H228192   4.589   0.414   5.686
 9410TIP3   OH228193   3.759   0.402   3.318
 9410TIP3    H128194   3.698   0.331   3.298
 9410TIP3    H228195   3.774   0.395   3.412
 9411TIP3   OH228196   3.876   4.068   2.189
 9411TIP3    H128197   3.810   4.084   2.257
 9411TIP3    H228198   3.833   4.008   2.128
 9412TIP3   OH228199   0.697   4.249   3.494
 9412TIP3    H128200   0.784   4.283   3.473
 9412TIP3    H228201   0.638   4.291   3.431
 9413TIP3   OH228202   1.967   1.298   4.988
 9413TIP3    H128203   2.009   1.384   4.988
 9413TIP3    H228204   1.874   1.318   5.003
 9414TIP3   OH228205   0.786   4.865   0.261
 9414TIP3    H128206   0.831   4.855   0.345
 9414TIP3    H228207   0.719   4.797   0.261
 9415TIP3   OH228208   5.330   2.512   2.177
 9415TIP3    H128209   5.302   2.422   2.160
 9415TIP3    H228210   5.418   2.517   2.138
 9416TIP3   OH228211   1.144   1.462   3.686
 9416TIP3    H128212   1.051   1.464   3.707
 9416TIP3    H228213   1.156   1.531   3.620
 9417TIP3   OH228214   2.350   1.418   1.914
 9417TIP3    H128215   2.400   1.407   1.833
 9417TIP3    H228216   2.275   1.359   1.903
 9418TIP3   OH228217   3.736   4.690   0.891
 9418TIP3    H128218   3.786   4.744   0.953
 9418TIP3    H228219   3.661   4.745   0.866
 9419TIP3   OH228220   6.966   1.552   0.606
 9419TIP3    H128221   6.953   1.497   0.683
 9419TIP3    H228222   6.951   1.642   0.638
 9420TIP3   OH228223   6.658   6.566   0.711
 9420TIP3    H128224   6.686   6.653   0.739
 9420TIP3    H228225   6.702   6.553   0.627
 9421TIP3   OH228226   4.872   6.787   4.449
 9421TIP3    H128227   4.923   6.711   4.476
 9421TIP3    H228228   4.831   6.761   4.366
 9422TIP3   OH228229   1.068   0.591   1.123
 9422TIP3    H128230   1.043   0.635   1.041
 9422TIP3    H228231   1.157   0.621   1.140
 9423TIP3   OH228232   3.692   3.083   3.253
 9423TIP3    H128233   3.779   3.068   3.215
 9423TIP3    H228234   3.707   3.149   3.321
 9424TIP3   OH228235   5.895   2.206   2.519
 9424TIP3    H128236   5.828   2.262   2.480
 9424TIP3    H228237   5.882   2.215   2.613
 9425TIP3   OH228238   6.984   1.783  -0.008
 9425TIP3    H128239   6.919   1.783   0.062
 9425TIP3    H228240   7.068   1.795   0.036
 9426TIP3   OH228241   5.928   4.718   5.207
 9426TIP3    H128242   5.856   4.768   5.168
 9426TIP3    H228243   5.885   4.645   5.251
 9427TIP3   OH228244   6.511   3.657   1.902
 9427TIP3    H128245   6.447   3.600   1.945
 9427TIP3    H228246   6.579   3.670   1.968
 9428TIP3   OH228247   2.473   3.184   3.748
 9428TIP3    H128248   2.496   3.134   3.670
 9428TIP3    H228249   2.489   3.123   3.821
 9429TIP3   OH228250   3.384   5.872   1.415
 9429TIP3    H128251   3.433   5.902   1.491
 9429TIP3    H228252   3.301   5.840   1.452
 9430TIP3   OH228253   3.088   6.302   4.030
 9430TIP3    H128254   3.088   6.235   4.098
 9430TIP3    H228255   3.070   6.384   4.077
 9431TIP3   OH228256   6.305   5.821   5.810
 9431TIP3    H128257   6.364   5.760   5.853
 9431TIP3    H228258   6.224   5.771   5.797
 9432TIP3   OH228259   5.171   5.334   5.647
 9432TIP3    H128260   5.184   5.426   5.625
 9432TIP3    H228261   5.160   5.333   5.742
 9433TIP3   OH228262   4.585   3.524   4.701
 9433TIP3    H128263   4.578   3.507   4.795
 9433TIP3    H228264   4.646   3.598   4.695
 9434TIP3   OH228265   4.397   4.777   3.665
 9434TIP3    H128266   4.348   4.705   3.625
 9434TIP3    H228267   4.331   4.826   3.714
 9435TIP3   OH228268   0.672   0.162   2.650
 9435TIP3    H128269   0.633   0.223   2.712
 9435TIP3    H228270   0.599   0.109   2.619
 9436TIP3   OH228271   2.112   0.167   2.090
 9436TIP3    H128272   2.146   0.247   2.131
 9436TIP3    H228273   2.189   0.121   2.058
 9437TIP3   OH228274   5.359   5.594   2.026
 9437TIP3    H128275   5.305   5.550   2.091
 9437TIP3    H228276   5.313   5.580   1.943
 9438TIP3   OH228277   0.862   0.752   2.631
 9438TIP3    H128278   0.871   0.660   2.656
 9438TIP3    H228279   0.918   0.761   2.554
 9439TIP3   OH228280   2.611   6.769   2.459
 9439TIP3    H128281   2.616   6.858   2.426
 9439TIP3    H228282   2.519   6.744   2.450
 9440TIP3   OH228283   1.321   2.150   5.309
 9440TIP3    H128284   1.383   2.209   5.352
 9440TIP3    H228285   1.336   2.164   5.216
 9441TIP3   OH228286   4.463   0.543   2.437
 9441TIP3    H128287   4.524   0.612   2.466
 9441TIP3    H228288   4.494   0.518   2.350
 9442TIP3   OH228289   2.021   4.739   5.611
 9442TIP3    H128290   2.042   4.657   5.567
 9442TIP3    H228291   2.010   4.803   5.541
 9443TIP3   OH228292   5.903   0.608   0.639
 9443TIP3    H128293   5.905   0.526   0.688
 9443TIP3    H228294   5.867   0.672   0.701
 9444TIP3   OH228295   3.995   3.034   4.566
 9444TIP3    H128296   3.959   3.017   4.479
 9444TIP3    H228297   4.031   3.123   4.559
 9445TIP3   OH228298   4.212   3.921   3.370
 9445TIP3    H128299   4.242   3.940   3.281
 9445TIP3    H228300   4.262   3.982   3.425
 9446TIP3   OH228301   5.773   2.621   2.710
 9446TIP3    H128302   5.759   2.713   2.686
 9446TIP3    H228303   5.747   2.616   2.802
 9447TIP3   OH228304   6.853   6.228   1.389
 9447TIP3    H128305   6.804   6.241   1.309
 9447TIP3    H228306   6.787   6.222   1.458
 9448TIP3   OH228307   1.737   4.510   4.093
 9448TIP3    H128308   1.791   4.563   4.151
 9448TIP3    H228309   1.710   4.436   4.146
 9449TIP3   OH228310   3.712   1.535   4.628
 9449TIP3    H128311   3.762   1.458   4.602
 9449TIP3    H228312   3.700   1.526   4.722
 9450TIP3   OH228313   0.280   1.281   5.211
 9450TIP3    H128314   0.359   1.231   5.192
 9450TIP3    H228315   0.213   1.244   5.153
 9451TIP3   OH228316   5.667   1.974   2.747
 9451TIP3    H128317   5.706   1.902   2.698
 9451TIP3    H228318   5.728   1.988   2.820
 9452TIP3   OH228319   3.447   2.794   3.684
 9452TIP3    H128320   3.477   2.743   3.608
 9452TIP3    H228321   3.526   2.807   3.736
 9453TIP3   OH228322   5.710   1.921   3.524
 9453TIP3    H128323   5.665   1.900   3.606
 9453TIP3    H228324   5.639   1.939   3.462
 9454TIP3   OH228325   6.552   5.381   5.214
 9454TIP3    H128326   6.578   5.372   5.123
 9454TIP3    H228327   6.576   5.470   5.238
 9455TIP3   OH228328   2.044   4.242   1.362
 9455TIP3    H128329   1.974   4.187   1.399
 9455TIP3    H228330   2.120   4.185   1.358
 9456TIP3   OH228331   2.179   0.267   2.427
 9456TIP3    H128332   2.178   0.319   2.346
 9456TIP3    H228333   2.214   0.182   2.401
 9457TIP3   OH228334   5.407   1.781   1.513
 9457TIP3    H128335   5.336   1.724   1.485
 9457TIP3    H228336   5.452   1.732   1.582
 9458TIP3   OH228337   3.326   2.385   1.403
 9458TIP3    H128338   3.261   2.319   1.424
 9458TIP3    H228339   3.374   2.399   1.485
 9459TIP3   OH228340   3.687   6.294   4.007
 9459TIP3    H128341   3.597   6.271   4.029
 9459TIP3    H228342   3.702   6.378   4.050
 9460TIP3   OH228343   2.730   4.225   4.826
 9460TIP3    H128344   2.749   4.318   4.811
 9460TIP3    H228345   2.744   4.184   4.741
 9461TIP3   OH228346   6.443   3.612   1.338
 9461TIP3    H128347   6.458   3.673   1.411
 9461TIP3    H228348   6.452   3.525   1.378
 9462TIP3   OH228349   2.860   4.567   1.563
 9462TIP3    H128350   2.871   4.648   1.612
 9462TIP3    H228351   2.932   4.511   1.593
 9463TIP3   OH228352   3.816   2.365   5.055
 9463TIP3    H128353   3.793   2.451   5.090
 9463TIP3    H228354   3.899   2.344   5.098
 9464TIP3   OH228355   3.573   2.517   3.766
 9464TIP3    H128356   3.604   2.558   3.685
 9464TIP3    H228357   3.478   2.532   3.766
 9465TIP3   OH228358   1.103   1.498   2.325
 9465TIP3    H128359   1.070   1.547   2.250
 9465TIP3    H228360   1.025   1.469   2.372
 9466TIP3   OH228361   1.721   6.039   3.564
 9466TIP3    H128362   1.644   5.994   3.598
 9466TIP3    H228363   1.794   5.982   3.584
 9467TIP3   OH228364   2.705   1.822   3.380
 9467TIP3    H128365   2.624   1.811   3.330
 9467TIP3    H228366   2.774   1.787   3.323
 9468TIP3   OH228367   3.323   5.721   5.066
 9468TIP3    H128368   3.405   5.706   5.113
 9468TIP3    H228369   3.317   5.816   5.057
 9469TIP3   OH228370   6.291   6.120   0.729
 9469TIP3    H128371   6.361   6.056   0.716
 9469TIP3    H228372   6.232   6.107   0.655
 9470TIP3   OH228373   3.578   6.154   5.700
 9470TIP3    H128374   3.628   6.074   5.690
 9470TIP3    H228375   3.546   6.151   5.791
 9471TIP3   OH228376   5.720   6.576   3.282
 9471TIP3    H128377   5.750   6.638   3.216
 9471TIP3    H228378   5.794   6.566   3.342
 9472TIP3   OH228379   4.755   0.666   2.001
 9472TIP3    H128380   4.760   0.748   2.051
 9472TIP3    H228381   4.816   0.607   2.046
 9473TIP3   OH228382   0.192   3.220   3.311
 9473TIP3    H128383   0.112   3.265   3.283
 9473TIP3    H228384   0.242   3.286   3.359
 9474TIP3   OH228385   3.722   3.504   3.191
 9474TIP3    H128386   3.627   3.506   3.200
 9474TIP3    H228387   3.738   3.532   3.101
 9475TIP3   OH228388   0.445   3.573   4.871
 9475TIP3    H128389   0.443   3.550   4.778
 9475TIP3    H228390   0.372   3.525   4.909
 9476TIP3   OH228391   5.456   0.124   1.092
 9476TIP3    H128392   5.412   0.088   1.169
 9476TIP3    H228393   5.424   0.213   1.085
 9477TIP3   OH228394   0.799   4.908   5.181
 9477TIP3    H128395   0.740   4.915   5.106
 9477TIP3    H228396   0.775   4.826   5.223
 9478TIP3   OH228397   2.319   5.834   1.380
 9478TIP3    H128398   2.394   5.874   1.424
 9478TIP3    H228399   2.344   5.830   1.288
 9479TIP3   OH228400   3.800   1.577   1.708
 9479TIP3    H128401   3.815   1.579   1.614
 9479TIP3    H228402   3.704   1.574   1.716
 9480TIP3   OH228403   3.096   6.175   3.798
 9480TIP3    H128404   3.009   6.137   3.791
 9480TIP3    H228405   3.095   6.222   3.882
 9481TIP3   OH228406   5.692   5.537   5.553
 9481TIP3    H128407   5.687   5.610   5.615
 9481TIP3    H228408   5.604   5.529   5.517
 9482TIP3   OH228409   7.059   5.596   4.504
 9482TIP3    H128410   7.077   5.630   4.591
 9482TIP3    H228411   6.985   5.537   4.516
 9483TIP3   OH228412   1.980   6.025   4.510
 9483TIP3    H128413   2.001   6.104   4.459
 9483TIP3    H228414   2.058   6.010   4.562
 9484TIP3   OH228415   0.016   3.554   0.847
 9484TIP3    H128416  -0.026   3.485   0.898
 9484TIP3    H228417   0.073   3.507   0.786
 9485TIP3   OH228418   0.800   0.114   5.642
 9485TIP3    H128419   0.752   0.094   5.562
 9485TIP3    H228420   0.873   0.169   5.614
 9486TIP3   OH228421   6.531   5.055   4.606
 9486TIP3    H128422   6.551   4.973   4.652
 9486TIP3    H228423   6.613   5.081   4.565
 9487TIP3   OH228424   6.974   2.595   4.524
 9487TIP3    H128425   6.928   2.512   4.524
 9487TIP3    H228426   7.062   2.574   4.556
 9488TIP3   OH228427   2.875   5.617   2.255
 9488TIP3    H128428   2.821   5.615   2.176
 9488TIP3    H228429   2.958   5.578   2.228
 9489TIP3   OH228430   2.671   2.338   0.239
 9489TIP3    H128431   2.741   2.280   0.271
 9489TIP3    H228432   2.650   2.304   0.152
 9490TIP3   OH228433   6.882   4.027   0.279
 9490TIP3    H128434   6.807   3.970   0.297
 9490TIP3    H228435   6.959   3.972   0.296
 9491TIP3   OH228436   2.240   6.631   5.414
 9491TIP3    H128437   2.238   6.651   5.508
 9491TIP3    H228438   2.281   6.544   5.409
 9492TIP3   OH228439   3.182   1.431   5.609
 9492TIP3    H128440   3.142   1.517   5.624
 9492TIP3    H228441   3.135   1.395   5.534
 9493TIP3   OH228442   2.057   1.379   1.235
 9493TIP3    H128443   2.127   1.374   1.300
 9493TIP3    H228444   2.101   1.407   1.155
 9494TIP3   OH228445   2.245   2.998   4.507
 9494TIP3    H128446   2.286   2.911   4.501
 9494TIP3    H228447   2.317   3.059   4.493
 9495TIP3   OH228448   4.961   2.249   1.093
 9495TIP3    H128449   4.879   2.254   1.143
 9495TIP3    H228450   4.953   2.317   1.026
 9496TIP3   OH228451   3.767   6.169   0.492
 9496TIP3    H128452   3.728   6.204   0.573
 9496TIP3    H228453   3.692   6.151   0.435
 9497TIP3   OH228454   6.366   3.893   1.022
 9497TIP3    H128455   6.310   3.951   1.073
 9497TIP3    H228456   6.320   3.882   0.939
 9498TIP3   OH228457   2.547   0.660   5.414
 9498TIP3    H128458   2.479   0.622   5.358
 9498TIP3    H228459   2.625   0.608   5.396
 9499TIP3   OH228460   0.712   4.058   3.692
 9499TIP3    H128461   0.672   4.112   3.624
 9499TIP3    H228462   0.721   3.972   3.651
 9500TIP3   OH228463   4.324   0.050   4.818
 9500TIP3    H128464   4.394   0.076   4.759
 9500TIP3    H228465   4.368   0.032   4.902
 9501TIP3   OH228466   7.153   1.742   5.534
 9501TIP3    H128467   7.113   1.657   5.517
 9501TIP3    H228468   7.247   1.724   5.541
 9502TIP3   OH228469   2.866   0.528   3.073
 9502TIP3    H128470   2.881   0.444   3.030
 9502TIP3    H228471   2.928   0.587   3.031
 9503TIP3   OH228472   2.884   1.561   0.935
 9503TIP3    H128473   2.866   1.470   0.958
 9503TIP3    H228474   2.811   1.586   0.878
 9504TIP3   OH228475   2.378   2.869   0.828
 9504TIP3    H128476   2.317   2.935   0.860
 9504TIP3    H228477   2.364   2.794   0.886
 9505TIP3   OH228478   1.559   5.715   1.529
 9505TIP3    H128479   1.553   5.786   1.594
 9505TIP3    H228480   1.476   5.669   1.536
 9506TIP3   OH228481   0.371   2.083   5.371
 9506TIP3    H128482   0.385   1.989   5.373
 9506TIP3    H228483   0.289   2.095   5.324
 9507TIP3   OH228484   5.876   5.007   5.707
 9507TIP3    H128485   5.882   5.055   5.790
 9507TIP3    H228486   5.827   5.066   5.649
 9508TIP3   OH228487   1.407   0.820   3.902
 9508TIP3    H128488   1.426   0.751   3.964
 9508TIP3    H228489   1.336   0.785   3.847
 9509TIP3   OH228490   0.455   1.534   2.458
 9509TIP3    H128491   0.384   1.478   2.490
 9509TIP3    H228492   0.449   1.529   2.363
 9510TIP3   OH228493   0.769   1.581   3.063
 9510TIP3    H128494   0.798   1.627   2.984
 9510TIP3    H228495   0.759   1.490   3.035
 9511TIP3   OH228496   5.968   5.079   4.499
 9511TIP3    H128497   5.978   5.058   4.407
 9511TIP3    H228498   5.881   5.047   4.522
 9512TIP3   OH228499   6.336   1.916   2.331
 9512TIP3    H128500   6.252   1.953   2.359
 9512TIP3    H228501   6.393   1.992   2.319
 9513TIP3   OH228502   6.961   3.748   3.106
 9513TIP3    H128503   7.028   3.680   3.097
 9513TIP3    H228504   6.887   3.716   3.053
 9514TIP3   OH228505   1.172   1.989   0.284
 9514TIP3    H128506   1.219   2.043   0.347
 9514TIP3    H228507   1.236   1.973   0.214
 9515TIP3   OH228508   6.844   0.608   0.930
 9515TIP3    H128509   6.915   0.564   0.883
 9515TIP3    H228510   6.765   0.561   0.903
 9516TIP3   OH228511   5.834   0.714   2.347
 9516TIP3    H128512   5.901   0.646   2.352
 9516TIP3    H228513   5.791   0.712   2.432
 9517TIP3   OH228514   5.382   4.604   1.174
 9517TIP3    H128515   5.424   4.522   1.149
 9517TIP3    H228516   5.289   4.589   1.157
 9518TIP3   OH228517   6.478   6.519   4.255
 9518TIP3    H128518   6.484   6.451   4.323
 9518TIP3    H228519   6.473   6.601   4.304
 9519TIP3   OH228520   5.186   1.985   0.486
 9519TIP3    H128521   5.221   1.923   0.423
 9519TIP3    H228522   5.171   2.065   0.436
 9520TIP3   OH228523   4.742   6.589   4.979
 9520TIP3    H128524   4.815   6.547   5.025
 9520TIP3    H228525   4.783   6.648   4.916
 9521TIP3   OH228526   7.045   5.592   1.831
 9521TIP3    H128527   6.998   5.561   1.909
 9521TIP3    H228528   7.035   5.687   1.833
 9522TIP3   OH228529   3.191   6.524   0.040
 9522TIP3    H128530   3.247   6.482   0.106
 9522TIP3    H228531   3.237   6.511  -0.043
 9523TIP3   OH228532   2.150   1.355   1.482
 9523TIP3    H128533   2.162   1.263   1.504
 9523TIP3    H228534   2.151   1.400   1.567
 9524TIP3   OH228535   4.867   5.457   1.336
 9524TIP3    H128536   4.920   5.447   1.257
 9524TIP3    H228537   4.919   5.418   1.406
 9525TIP3   OH228538   2.448   3.888   1.721
 9525TIP3    H128539   2.403   3.948   1.781
 9525TIP3    H228540   2.541   3.906   1.734
 9526TIP3   OH228541   5.968   6.102   5.680
 9526TIP3    H128542   6.006   6.161   5.615
 9526TIP3    H228543   5.965   6.017   5.636
 9527TIP3   OH228544   1.388   0.629   0.061
 9527TIP3    H128545   1.294   0.647   0.059
 9527TIP3    H228546   1.417   0.664   0.145
 9528TIP3   OH228547   4.780   3.143   1.945
 9528TIP3    H128548   4.794   3.234   1.916
 9528TIP3    H228549   4.868   3.106   1.951
 9529TIP3   OH228550   6.702   1.627   1.006
 9529TIP3    H128551   6.659   1.544   0.986
 9529TIP3    H228552   6.631   1.686   1.031
 9530TIP3   OH228553   1.059   4.671   3.553
 9530TIP3    H128554   1.052   4.760   3.518
 9530TIP3    H228555   1.110   4.623   3.487
 9531TIP3   OH228556   3.559   0.064   3.749
 9531TIP3    H128557   3.527   0.150   3.724
 9531TIP3    H228558   3.644   0.056   3.706
 9532TIP3   OH228559   4.109   3.057   5.460
 9532TIP3    H128560   4.112   3.138   5.409
 9532TIP3    H228561   4.120   3.086   5.551
 9533TIP3   OH228562   4.307   5.903   3.827
 9533TIP3    H128563   4.393   5.944   3.827
 9533TIP3    H228564   4.283   5.898   3.920
 9534TIP3   OH228565   3.264   5.681   2.514
 9534TIP3    H128566   3.250   5.743   2.586
 9534TIP3    H228567   3.210   5.605   2.538
 9535TIP3   OH228568   4.975   3.179   5.255
 9535TIP3    H128569   5.050   3.122   5.277
 9535TIP3    H228570   5.014   3.266   5.243
 9536TIP3   OH228571   4.028   1.358   4.978
 9536TIP3    H128572   4.024   1.339   4.884
 9536TIP3    H228573   4.058   1.448   4.982
 9537TIP3   OH228574   0.357   4.553   4.760
 9537TIP3    H128575   0.434   4.501   4.784
 9537TIP3    H228576   0.289   4.525   4.822
 9538TIP3   OH228577   3.555   3.441   0.403
 9538TIP3    H128578   3.584   3.532   0.405
 9538TIP3    H228579   3.595   3.400   0.480
 9539TIP3   OH228580   4.338   5.070   2.111
 9539TIP3    H128581   4.424   5.061   2.151
 9539TIP3    H228582   4.281   5.011   2.161
 9540TIP3   OH228583   3.882   0.183   2.517
 9540TIP3    H128584   3.976   0.186   2.534
 9540TIP3    H228585   3.869   0.100   2.469
 9541TIP3   OH228586   2.373   1.203   2.107
 9541TIP3    H128587   2.374   1.287   2.062
 9541TIP3    H228588   2.309   1.213   2.177
 9542TIP3   OH228589   0.056   0.434   4.498
 9542TIP3    H128590   0.062   0.348   4.457
 9542TIP3    H228591   0.008   0.487   4.435
 9543TIP3   OH228592   3.185   4.850   4.013
 9543TIP3    H128593   3.118   4.839   3.946
 9543TIP3    H228594   3.153   4.800   4.088
 9544TIP3   OH228595   1.490   4.238   5.733
 9544TIP3    H128596   1.485   4.151   5.695
 9544TIP3    H228597   1.457   4.227   5.822
 9545TIP3   OH228598   3.840   5.796   3.821
 9545TIP3    H128599   3.748   5.822   3.820
 9545TIP3    H228600   3.844   5.726   3.885
 9546TIP3   OH228601   6.046   1.139   5.266
 9546TIP3    H128602   6.107   1.074   5.301
 9546TIP3    H228603   5.959   1.101   5.282
 9547TIP3   OH228604   1.669   6.073   1.499
 9547TIP3    H128605   1.727   6.144   1.472
 9547TIP3    H228606   1.583   6.113   1.509
 9548TIP3   OH228607   1.465   1.063   0.126
 9548TIP3    H128608   1.516   1.040   0.204
 9548TIP3    H228609   1.374   1.058   0.154
 9549TIP3   OH228610   6.573   5.417   2.649
 9549TIP3    H128611   6.514   5.345   2.671
 9549TIP3    H228612   6.518   5.479   2.601
 9550TIP3   OH228613   3.351   0.702   4.916
 9550TIP3    H128614   3.446   0.706   4.904
 9550TIP3    H228615   3.322   0.793   4.908
 9551TIP3   OH228616   3.441   1.111   4.690
 9551TIP3    H128617   3.531   1.091   4.665
 9551TIP3    H228618   3.447   1.196   4.735
 9552TIP3   OH228619   2.487   0.909   3.973
 9552TIP3    H128620   2.583   0.914   3.969
 9552TIP3    H228621   2.460   0.990   4.015
 9553TIP3   OH228622   0.126   1.927   0.733
 9553TIP3    H128623   0.114   1.845   0.781
 9553TIP3    H228624   0.216   1.953   0.753
 9554TIP3   OH228625   6.455   0.250   1.110
 9554TIP3    H128626   6.453   0.204   1.194
 9554TIP3    H228627   6.363   0.270   1.091
 9555TIP3   OH228628   4.643   6.364   1.756
 9555TIP3    H128629   4.657   6.271   1.775
 9555TIP3    H228630   4.559   6.384   1.796
 9556TIP3   OH228631   6.479   2.718   0.725
 9556TIP3    H128632   6.575   2.714   0.722
 9556TIP3    H228633   6.457   2.798   0.678
 9557TIP3   OH228634   0.601   4.017   2.169
 9557TIP3    H128635   0.555   4.048   2.091
 9557TIP3    H228636   0.548   4.049   2.242
 9558TIP3   OH228637   3.685   1.727   2.097
 9558TIP3    H128638   3.668   1.738   2.003
 9558TIP3    H228639   3.724   1.640   2.104
 9559TIP3   OH228640   2.485   6.656   3.397
 9559TIP3    H128641   2.473   6.719   3.326
 9559TIP3    H228642   2.457   6.572   3.359
 9560TIP3   OH228643   4.538   0.676   1.284
 9560TIP3    H128644   4.497   0.595   1.253
 9560TIP3    H228645   4.560   0.658   1.376
 9561TIP3   OH228646   6.699   5.699   1.648
 9561TIP3    H128647   6.675   5.610   1.674
 9561TIP3    H228648   6.724   5.742   1.730
 9562TIP3   OH228649   5.773   5.255   5.590
 9562TIP3    H128650   5.760   5.342   5.630
 9562TIP3    H228651   5.714   5.254   5.515
 9563TIP3   OH228652   4.613   3.928   3.480
 9563TIP3    H128653   4.568   3.880   3.549
 9563TIP3    H228654   4.566   4.010   3.473
 9564TIP3   OH228655   2.156   5.510   1.281
 9564TIP3    H128656   2.244   5.541   1.301
 9564TIP3    H228657   2.161   5.415   1.294
 9565TIP3   OH228658   1.766   6.079   4.092
 9565TIP3    H128659   1.734   6.083   4.182
 9565TIP3    H228660   1.846   6.131   4.092
 9566TIP3   OH228661   2.942   3.886   4.823
 9566TIP3    H128662   3.030   3.923   4.831
 9566TIP3    H228663   2.914   3.908   4.734
 9567TIP3   OH228664   5.579   5.782   5.767
 9567TIP3    H128665   5.543   5.716   5.826
 9567TIP3    H228666   5.522   5.858   5.779
 9568TIP3   OH228667   2.566   5.041   0.177
 9568TIP3    H128668   2.615   5.103   0.122
 9568TIP3    H228669   2.554   5.088   0.260
 9569TIP3   OH228670   7.002   3.765   2.439
 9569TIP3    H128671   7.021   3.707   2.513
 9569TIP3    H228672   7.066   3.740   2.373
 9570TIP3   OH228673   1.391   4.723   4.897
 9570TIP3    H128674   1.304   4.713   4.936
 9570TIP3    H228675   1.415   4.814   4.914
 9571TIP3   OH228676   0.617   2.995   3.701
 9571TIP3    H128677   0.588   2.958   3.784
 9571TIP3    H228678   0.537   3.020   3.655
 9572TIP3   OH228679   3.587   3.799   2.468
 9572TIP3    H128680   3.671   3.777   2.509
 9572TIP3    H228681   3.559   3.879   2.513
 9573TIP3   OH228682   4.570   2.738   0.551
 9573TIP3    H128683   4.506   2.758   0.483
 9573TIP3    H228684   4.517   2.711   0.626
 9574TIP3   OH228685   6.494   0.809   1.567
 9574TIP3    H128686   6.429   0.788   1.634
 9574TIP3    H228687   6.452   0.786   1.484
 9575TIP3   OH228688   6.152   0.052   5.131
 9575TIP3    H128689   6.153  -0.026   5.076
 9575TIP3    H228690   6.193   0.119   5.078
 9576TIP3   OH228691   6.585   0.993   1.323
 9576TIP3    H128692   6.662   0.936   1.325
 9576TIP3    H228693   6.557   0.999   1.414
 9577TIP3   OH228694   1.234   6.352   2.768
 9577TIP3    H128695   1.191   6.425   2.813
 9577TIP3    H228696   1.198   6.273   2.809
 9578TIP3   OH228697   6.363   0.284   2.353
 9578TIP3    H128698   6.401   0.255   2.437
 9578TIP3    H228699   6.371   0.207   2.296
 9579TIP3   OH228700   6.819   6.258   3.901
 9579TIP3    H128701   6.760   6.188   3.875
 9579TIP3    H228702   6.765   6.337   3.901
 9580TIP3   OH228703   4.209   3.885   0.249
 9580TIP3    H128704   4.238   3.859   0.336
 9580TIP3    H228705   4.132   3.831   0.232
 9581TIP3   OH228706   4.777   3.337   3.160
 9581TIP3    H128707   4.730   3.396   3.101
 9581TIP3    H228708   4.854   3.310   3.111
 9582TIP3   OH228709   2.916   6.725   0.045
 9582TIP3    H128710   2.876   6.801   0.003
 9582TIP3    H228711   2.991   6.761   0.092
 9583TIP3   OH228712   1.441   0.770   2.750
 9583TIP3    H128713   1.498   0.796   2.823
 9583TIP3    H228714   1.374   0.838   2.747
 9584TIP3   OH228715   1.927   3.208   3.921
 9584TIP3    H128716   1.935   3.112   3.925
 9584TIP3    H228717   1.978   3.234   3.845
 9585TIP3   OH228718   5.275   4.061   3.331
 9585TIP3    H128719   5.223   4.122   3.280
 9585TIP3    H228720   5.341   4.029   3.270
 9586TIP3   OH228721   0.948   6.603   5.565
 9586TIP3    H128722   1.024   6.584   5.510
 9586TIP3    H228723   0.925   6.520   5.605
 9587TIP3   OH228724   3.774   1.487   5.295
 9587TIP3    H128725   3.819   1.409   5.330
 9587TIP3    H228726   3.731   1.456   5.216
 9588TIP3   OH228727   3.686   5.099   5.417
 9588TIP3    H128728   3.591   5.099   5.423
 9588TIP3    H228729   3.705   5.090   5.323
 9589TIP3   OH228730   1.023   5.053   5.255
 9589TIP3    H128731   0.955   4.992   5.225
 9589TIP3    H228732   1.104   5.002   5.250
 9590TIP3   OH228733   4.231   3.775   3.910
 9590TIP3    H128734   4.176   3.732   3.976
 9590TIP3    H228735   4.176   3.846   3.876
 9591TIP3   OH228736   5.987   2.807   1.277
 9591TIP3    H128737   5.930   2.730   1.283
 9591TIP3    H228738   6.019   2.820   1.366
 9592TIP3   OH228739   0.281   3.437   3.533
 9592TIP3    H128740   0.274   3.387   3.614
 9592TIP3    H228741   0.334   3.513   3.557
 9593TIP3   OH228742   0.778   3.831   4.028
 9593TIP3    H128743   0.726   3.752   4.016
 9593TIP3    H228744   0.741   3.872   4.106
 9594TIP3   OH228745   3.893   4.533   4.282
 9594TIP3    H128746   3.884   4.562   4.192
 9594TIP3    H228747   3.937   4.448   4.275
 9595TIP3   OH228748   3.049   5.609   0.739
 9595TIP3    H128749   3.007   5.678   0.688
 9595TIP3    H228750   3.099   5.559   0.676
 9596TIP3   OH228751   2.340   5.115   1.994
 9596TIP3    H128752   2.344   5.020   2.004
 9596TIP3    H228753   2.285   5.129   1.916
 9597TIP3   OH228754   2.935   3.280   0.132
 9597TIP3    H128755   2.861   3.297   0.073
 9597TIP3    H228756   3.011   3.275   0.074
 9598TIP3   OH228757   1.088   0.355   3.017
 9598TIP3    H128758   1.140   0.275   3.022
 9598TIP3    H228759   1.029   0.351   3.093
 9599TIP3   OH228760   5.151   1.906   5.446
 9599TIP3    H128761   5.096   1.971   5.403
 9599TIP3    H228762   5.162   1.939   5.536
 9600TIP3   OH228763   6.851   3.867   1.990
 9600TIP3    H128764   6.789   3.935   1.963
 9600TIP3    H228765   6.871   3.819   1.909
 9601TIP3   OH228766   4.018   0.467   1.667
 9601TIP3    H128767   4.082   0.525   1.626
 9601TIP3    H228768   3.979   0.418   1.595
 9602TIP3   OH228769   4.148   3.542   0.729
 9602TIP3    H128770   4.227   3.558   0.780
 9602TIP3    H228771   4.076   3.566   0.787
 9603TIP3   OH228772   2.600   1.949   1.433
 9603TIP3    H128773   2.548   1.881   1.476
 9603TIP3    H228774   2.563   2.031   1.464
 9604TIP3   OH228775   4.254   6.537   3.495
 9604TIP3    H128776   4.280   6.458   3.447
 9604TIP3    H228777   4.176   6.568   3.449
 9605TIP3   OH228778   5.018   2.992   1.986
 9605TIP3    H128779   5.028   2.957   2.074
 9605TIP3    H228780   5.107   2.994   1.950
 9606TIP3   OH228781   6.860   0.077   3.509
 9606TIP3    H128782   6.899   0.160   3.534
 9606TIP3    H228783   6.823   0.093   3.422
 9607TIP3   OH228784   6.217   0.294   1.625
 9607TIP3    H128785   6.156   0.226   1.594
 9607TIP3    H228786   6.248   0.262   1.710
 9608TIP3   OH228787   5.157   4.021   0.212
 9608TIP3    H128788   5.087   3.982   0.160
 9608TIP3    H228789   5.169   4.108   0.174
 9609TIP3   OH228790   5.237   4.790   0.227
 9609TIP3    H128791   5.185   4.869   0.235
 9609TIP3    H228792   5.217   4.756   0.139
 9610TIP3   OH228793   1.560   3.117   2.012
 9610TIP3    H128794   1.534   3.069   2.091
 9610TIP3    H228795   1.583   3.049   1.949
 9611TIP3   OH228796   1.489   3.814   5.100
 9611TIP3    H128797   1.443   3.731   5.107
 9611TIP3    H228798   1.517   3.835   5.189
 9612TIP3   OH228799   5.579   0.206   4.848
 9612TIP3    H128800   5.628   0.286   4.865
 9612TIP3    H228801   5.635   0.136   4.883
 9613TIP3   OH228802   7.084   4.496   3.615
 9613TIP3    H128803   7.033   4.469   3.539
 9613TIP3    H228804   7.019   4.518   3.681
 9614TIP3   OH228805   5.704   1.260   4.254
 9614TIP3    H128806   5.705   1.165   4.253
 9614TIP3    H228807   5.649   1.285   4.180
 9615TIP3   OH228808   1.146   4.829   3.004
 9615TIP3    H128809   1.190   4.752   2.969
 9615TIP3    H228810   1.170   4.900   2.943
 9616TIP3   OH228811   5.527   4.964   2.738
 9616TIP3    H128812   5.605   4.910   2.738
 9616TIP3    H228813   5.461   4.911   2.783
 9617TIP3   OH228814   1.704   6.209   4.514
 9617TIP3    H128815   1.791   6.247   4.529
 9617TIP3    H228816   1.664   6.263   4.446
 9618TIP3   OH228817   0.723   5.231   5.294
 9618TIP3    H128818   0.715   5.145   5.252
 9618TIP3    H228819   0.633   5.255   5.316
 9619TIP3   OH228820   4.371   2.421   1.380
 9619TIP3    H128821   4.401   2.503   1.341
 9619TIP3    H228822   4.296   2.395   1.326
 9620TIP3   OH228823   0.179   4.782   5.232
 9620TIP3    H128824   0.233   4.772   5.153
 9620TIP3    H228825   0.096   4.818   5.200
 9621TIP3   OH228826   4.109   6.360   5.637
 9621TIP3    H128827   4.014   6.367   5.630
 9621TIP3    H228828   4.141   6.448   5.619
 9622TIP3   OH228829   1.583   2.172   0.019
 9622TIP3    H128830   1.575   2.249   0.075
 9622TIP3    H228831   1.621   2.105   0.076
 9623TIP3   OH228832   6.212   1.765   5.410
 9623TIP3    H128833   6.277   1.834   5.396
 9623TIP3    H228834   6.259   1.697   5.458
 9624TIP3   OH228835   3.738   2.334   3.319
 9624TIP3    H128836   3.731   2.265   3.385
 9624TIP3    H228837   3.649   2.344   3.285
 9625TIP3   OH228838   4.765   0.465   1.326
 9625TIP3    H128839   4.713   0.420   1.392
 9625TIP3    H228840   4.720   0.447   1.243
 9626TIP3   OH228841   5.308   2.447   4.490
 9626TIP3    H128842   5.399   2.461   4.463
 9626TIP3    H228843   5.258   2.510   4.438
 9627TIP3   OH228844   5.886   0.129   2.940
 9627TIP3    H128845   5.928   0.208   2.973
 9627TIP3    H228846   5.902   0.131   2.846
 9628TIP3   OH228847   0.642   3.257   5.263
 9628TIP3    H128848   0.738   3.259   5.269
 9628TIP3    H228849   0.620   3.324   5.199
 9629TIP3   OH228850   4.033   3.115   0.137
 9629TIP3    H128851   3.940   3.093   0.137
 9629TIP3    H228852   4.044   3.175   0.064
 9630TIP3   OH228853   6.426   1.418   4.803
 9630TIP3    H128854   6.514   1.400   4.837
 9630TIP3    H228855   6.423   1.514   4.796
 9631TIP3   OH228856   2.203   0.705   2.337
 9631TIP3    H128857   2.258   0.650   2.393
 9631TIP3    H228858   2.200   0.790   2.382
 9632TIP3   OH228859   2.871   2.070   5.703
 9632TIP3    H128860   2.947   2.123   5.726
 9632TIP3    H228861   2.886   1.986   5.745
 9633TIP3   OH228862   0.383   3.467   1.944
 9633TIP3    H128863   0.390   3.385   1.894
 9633TIP3    H228864   0.388   3.536   1.877
 9634TIP3   OH228865   7.109   6.387   1.419
 9634TIP3    H128866   7.051   6.311   1.417
 9634TIP3    H228867   7.056   6.458   1.455
 9635TIP3   OH228868   5.447   1.628   4.081
 9635TIP3    H128869   5.419   1.542   4.049
 9635TIP3    H228870   5.536   1.613   4.113
 9636TIP3   OH228871   0.166   4.259   0.115
 9636TIP3    H128872   0.230   4.232   0.181
 9636TIP3    H228873   0.121   4.334   0.155
 9637TIP3   OH228874   4.777   6.293   5.819
 9637TIP3    H128875   4.776   6.389   5.811
 9637TIP3    H228876   4.689   6.266   5.794
 9638TIP3   OH228877   7.085   5.762   3.031
 9638TIP3    H128878   7.066   5.834   2.971
 9638TIP3    H228879   7.001   5.716   3.040
 9639TIP3   OH228880   0.868   4.107   2.647
 9639TIP3    H128881   0.909   4.161   2.579
 9639TIP3    H228882   0.831   4.033   2.599
 9640TIP3   OH228883   0.887   3.207   4.322
 9640TIP3    H128884   0.872   3.178   4.412
 9640TIP3    H228885   0.832   3.284   4.311
 9641TIP3   OH228886   1.263   0.339   0.782
 9641TIP3    H128887   1.310   0.349   0.865
 9641TIP3    H228888   1.190   0.281   0.803
 9642TIP3   OH228889   1.860   4.063   3.036
 9642TIP3    H128890   1.954   4.081   3.040
 9642TIP3    H228891   1.848   4.017   2.952
 9643TIP3   OH228892   0.022   1.531   0.695
 9643TIP3    H128893  -0.050   1.592   0.708
 9643TIP3    H228894   0.051   1.547   0.605
 9644TIP3   OH228895   1.094   0.220   3.823
 9644TIP3    H128896   1.172   0.176   3.858
 9644TIP3    H228897   1.084   0.183   3.735
 9645TIP3   OH228898   3.580   3.230   0.225
 9645TIP3    H128899   3.548   3.302   0.279
 9645TIP3    H228900   3.522   3.157   0.245
 9646TIP3   OH228901   3.433   4.671   4.557
 9646TIP3    H128902   3.522   4.681   4.524
 9646TIP3    H228903   3.388   4.619   4.490
 9647TIP3   OH228904   0.804   1.927   5.389
 9647TIP3    H128905   0.728   1.957   5.438
 9647TIP3    H228906   0.845   1.862   5.446
 9648TIP3   OH228907   4.572   3.010   2.792
 9648TIP3    H128908   4.548   3.025   2.883
 9648TIP3    H228909   4.667   3.013   2.791
 9649TIP3   OH228910   1.732   1.517   3.882
 9649TIP3    H128911   1.755   1.432   3.920
 9649TIP3    H228912   1.814   1.551   3.848
 9650TIP3   OH228913   1.012   1.963   4.656
 9650TIP3    H128914   1.009   1.871   4.628
 9650TIP3    H228915   0.991   1.960   4.750
 9651TIP3   OH228916   2.192   3.263   5.309
 9651TIP3    H128917   2.177   3.169   5.323
 9651TIP3    H228918   2.247   3.267   5.231
 9652TIP3   OH228919   0.518   1.402   1.946
 9652TIP3    H128920   0.539   1.339   1.878
 9652TIP3    H228921   0.502   1.484   1.899
 9653TIP3   OH228922   3.082   6.431   4.653
 9653TIP3    H128923   3.085   6.492   4.579
 9653TIP3    H228924   3.090   6.345   4.613
 9654TIP3   OH228925   0.811   3.925   5.486
 9654TIP3    H128926   0.815   3.833   5.460
 9654TIP3    H228927   0.828   3.924   5.580
 9655TIP3   OH228928   4.506   5.619   3.111
 9655TIP3    H128929   4.544   5.606   3.198
 9655TIP3    H228930   4.563   5.570   3.052
 9656TIP3   OH228931   1.330   0.219   4.616
 9656TIP3    H128932   1.366   0.297   4.658
 9656TIP3    H228933   1.403   0.156   4.617
 9657TIP3   OH228934   5.935   0.506   1.885
 9657TIP3    H128935   5.949   0.549   1.970
 9657TIP3    H228936   5.843   0.480   1.887
 9658TIP3   OH228937   4.950   4.771   2.884
 9658TIP3    H128938   4.969   4.733   2.798
 9658TIP3    H228939   4.983   4.861   2.880
 9659TIP3   OH228940   6.871   0.711   5.305
 9659TIP3    H128941   6.943   0.723   5.243
 9659TIP3    H228942   6.801   0.671   5.254
 9660TIP3   OH228943   4.110   1.344   2.715
 9660TIP3    H128944   4.118   1.407   2.787
 9660TIP3    H228945   4.191   1.294   2.717
 9661TIP3   OH228946   2.153   5.387   1.779
 9661TIP3    H128947   2.082   5.447   1.806
 9661TIP3    H228948   2.216   5.444   1.735
 9662TIP3   OH228949   3.759   1.961   4.242
 9662TIP3    H128950   3.682   2.000   4.201
 9662TIP3    H228951   3.780   2.020   4.314
 9663TIP3   OH228952   2.178   5.826   1.704
 9663TIP3    H128953   2.172   5.858   1.614
 9663TIP3    H228954   2.243   5.883   1.745
 9664TIP3   OH228955   3.983   1.143   2.892
 9664TIP3    H128956   3.994   1.055   2.855
 9664TIP3    H228957   3.941   1.128   2.977
 9665TIP3   OH228958   4.625   4.180   4.721
 9665TIP3    H128959   4.571   4.103   4.702
 9665TIP3    H228960   4.623   4.231   4.640
 9666TIP3   OH228961   6.103   0.577   2.805
 9666TIP3    H128962   6.110   0.579   2.900
 9666TIP3    H228963   6.185   0.614   2.774
 9667TIP3   OH228964   0.206   0.699   3.099
 9667TIP3    H128965   0.295   0.666   3.086
 9667TIP3    H228966   0.217   0.794   3.107
 9668TIP3   OH228967   5.572   3.221   2.595
 9668TIP3    H128968   5.516   3.157   2.550
 9668TIP3    H228969   5.629   3.256   2.526
 9669TIP3   OH228970   1.176   0.886   1.925
 9669TIP3    H128971   1.139   0.858   1.842
 9669TIP3    H228972   1.242   0.951   1.902
 9670TIP3   OH228973   3.775   0.493   3.068
 9670TIP3    H128974   3.850   0.442   3.037
 9670TIP3    H228975   3.768   0.471   3.161
 9671TIP3   OH228976   1.339   4.388   1.751
 9671TIP3    H128977   1.302   4.410   1.665
 9671TIP3    H228978   1.304   4.301   1.771
 9672TIP3   OH228979   5.103   5.344   3.367
 9672TIP3    H128980   5.176   5.398   3.398
 9672TIP3    H228981   5.135   5.307   3.284
 9673TIP3   OH228982   4.590   3.429   1.673
 9673TIP3    H128983   4.558   3.436   1.583
 9673TIP3    H228984   4.581   3.517   1.709
 9674TIP3   OH228985   2.613   2.967   3.581
 9674TIP3    H128986   2.575   2.888   3.543
 9674TIP3    H228987   2.649   2.939   3.664
 9675TIP3   OH228988   5.180   5.180   3.755
 9675TIP3    H128989   5.273   5.160   3.766
 9675TIP3    H228990   5.170   5.268   3.790
 9676TIP3   OH228991   6.345   5.970   1.195
 9676TIP3    H128992   6.292   5.966   1.115
 9676TIP3    H228993   6.424   5.919   1.174
 9677TIP3   OH228994   5.744   3.581   1.408
 9677TIP3    H128995   5.741   3.539   1.322
 9677TIP3    H228996   5.831   3.561   1.442
 9678TIP3   OH228997   2.364   4.307   0.087
 9678TIP3    H128998   2.431   4.344   0.030
 9678TIP3    H228999   2.289   4.292   0.029
 9679TIP3   OH229000   1.346   3.789   1.007
 9679TIP3    H129001   1.278   3.857   1.002
 9679TIP3    H229002   1.428   3.839   1.013
 9680TIP3   OH229003   6.196   2.828   4.136
 9680TIP3    H129004   6.188   2.889   4.064
 9680TIP3    H229005   6.126   2.853   4.196
 9681TIP3   OH229006   2.333   1.564   5.573
 9681TIP3    H129007   2.275   1.523   5.637
 9681TIP3    H229008   2.404   1.501   5.560
 9682TIP3   OH229009   1.407   0.240   3.849
 9682TIP3    H129010   1.501   0.224   3.846
 9682TIP3    H229011   1.375   0.211   3.763
 9683TIP3   OH229012   0.797   1.846   1.274
 9683TIP3    H129013   0.717   1.809   1.237
 9683TIP3    H229014   0.772   1.875   1.362
 9684TIP3   OH229015   0.283   1.830   1.571
 9684TIP3    H129016   0.344   1.830   1.645
 9684TIP3    H229017   0.311   1.904   1.517
 9685TIP3   OH229018   1.707   0.360   1.044
 9685TIP3    H129019   1.748   0.446   1.042
 9685TIP3    H229020   1.716   0.331   1.135
 9686TIP3   OH229021   4.397   2.719   0.777
 9686TIP3    H129022   4.307   2.690   0.761
 9686TIP3    H229023   4.392   2.767   0.860
 9687TIP3   OH229024   4.674   2.150   5.415
 9687TIP3    H129025   4.590   2.122   5.451
 9687TIP3    H229026   4.651   2.210   5.344
 9688TIP3   OH229027   4.313   6.180   5.647
 9688TIP3    H129028   4.387   6.222   5.603
 9688TIP3    H229029   4.260   6.252   5.680
 9689TIP3   OH229030   4.478   0.014   2.685
 9689TIP3    H129031   4.507  -0.025   2.603
 9689TIP3    H229032   4.554   0.011   2.742
 9690TIP3   OH229033   0.341   5.791   0.323
 9690TIP3    H129034   0.397   5.783   0.400
 9690TIP3    H229035   0.371   5.722   0.263
 9691TIP3   OH229036   2.014   6.759   5.082
 9691TIP3    H129037   2.018   6.849   5.115
 9691TIP3    H229038   1.942   6.719   5.130
 9692TIP3   OH229039   3.686   0.929   0.955
 9692TIP3    H129040   3.675   0.862   0.888
 9692TIP3    H229041   3.670   0.883   1.038
 9693TIP3   OH229042   2.686   2.706   0.208
 9693TIP3    H129043   2.764   2.651   0.205
 9693TIP3    H229044   2.713   2.783   0.258
 9694TIP3   OH229045   2.290   2.860   2.650
 9694TIP3    H129046   2.247   2.889   2.570
 9694TIP3    H229047   2.359   2.801   2.620
 9695TIP3   OH229048   3.861   1.693   0.007
 9695TIP3    H129049   3.851   1.610  -0.040
 9695TIP3    H229050   3.955   1.705   0.016
 9696TIP3   OH229051   0.255   2.897   5.231
 9696TIP3    H129052   0.293   2.975   5.192
 9696TIP3    H229053   0.253   2.916   5.325
 9697TIP3   OH229054   5.310   5.183   1.297
 9697TIP3    H129055   5.351   5.172   1.383
 9697TIP3    H229056   5.383   5.197   1.237
 9698TIP3   OH229057   3.460   2.301   3.568
 9698TIP3    H129058   3.530   2.248   3.531
 9698TIP3    H229059   3.491   2.325   3.656
 9699TIP3   OH229060   6.780   6.384   2.183
 9699TIP3    H129061   6.732   6.467   2.185
 9699TIP3    H229062   6.735   6.332   2.117
 9700TIP3   OH229063   4.240   2.085   0.258
 9700TIP3    H129064   4.207   2.035   0.183
 9700TIP3    H229065   4.294   2.023   0.306
 9701TIP3   OH229066   0.587   1.884   4.372
 9701TIP3    H129067   0.667   1.921   4.411
 9701TIP3    H229068   0.586   1.793   4.403
 9702TIP3   OH229069   6.285   4.661   4.382
 9702TIP3    H129070   6.273   4.746   4.339
 9702TIP3    H229071   6.219   4.605   4.343
 9703TIP3   OH229072   5.150   5.570   0.280
 9703TIP3    H129073   5.196   5.610   0.354
 9703TIP3    H229074   5.195   5.604   0.202
 9704TIP3   OH229075   6.827   3.171   1.984
 9704TIP3    H129076   6.896   3.164   1.918
 9704TIP3    H229077   6.854   3.244   2.041
 9705TIP3   OH229078   0.967   2.564   2.260
 9705TIP3    H129079   0.984   2.655   2.283
 9705TIP3    H229080   0.921   2.529   2.337
 9706TIP3   OH229081   3.231   4.690   0.394
 9706TIP3    H129082   3.280   4.695   0.312
 9706TIP3    H229083   3.192   4.777   0.404
 9707TIP3   OH229084   3.208   4.331   3.028
 9707TIP3    H129085   3.208   4.399   2.960
 9707TIP3    H229086   3.153   4.367   3.098
 9708TIP3   OH229087   6.391   5.650   2.477
 9708TIP3    H129088   6.347   5.723   2.434
 9708TIP3    H229089   6.406   5.680   2.567
 9709TIP3   OH229090   7.126   2.875   0.896
 9709TIP3    H129091   7.123   2.787   0.932
 9709TIP3    H229092   7.081   2.870   0.812
 9710TIP3   OH229093   3.928   2.848   1.112
 9710TIP3    H129094   3.833   2.851   1.126
 9710TIP3    H229095   3.938   2.818   1.021
 9711TIP3   OH229096   1.739   4.915   5.529
 9711TIP3    H129097   1.678   4.984   5.502
 9711TIP3    H229098   1.790   4.896   5.450
 9712TIP3   OH229099   4.646   3.933   5.318
 9712TIP3    H129100   4.688   3.956   5.401
 9712TIP3    H229101   4.716   3.939   5.253
 9713TIP3   OH229102   2.576   2.198   1.523
 9713TIP3    H129103   2.502   2.237   1.570
 9713TIP3    H229104   2.603   2.266   1.461
 9714TIP3   OH229105   0.702   3.682   1.581
 9714TIP3    H129106   0.768   3.615   1.596
 9714TIP3    H229107   0.645   3.645   1.514
 9715TIP3   OH229108   1.496   1.172   2.903
 9715TIP3    H129109   1.570   1.138   2.852
 9715TIP3    H229110   1.421   1.120   2.874
 9716TIP3   OH229111   4.375   5.678   0.487
 9716TIP3    H129112   4.439   5.648   0.552
 9716TIP3    H229113   4.346   5.763   0.520
 9717TIP3   OH229114   0.103   3.862   2.713
 9717TIP3    H129115   0.015   3.843   2.746
 9717TIP3    H229116   0.109   3.814   2.631
 9718TIP3   OH229117   1.314   5.979   4.423
 9718TIP3    H129118   1.396   5.929   4.426
 9718TIP3    H229119   1.247   5.912   4.408
 9719TIP3   OH229120   3.757   0.700   0.060
 9719TIP3    H129121   3.697   0.719   0.131
 9719TIP3    H229122   3.705   0.712  -0.020
 9720TIP3   OH229123   4.483   2.682   2.392
 9720TIP3    H129124   4.569   2.723   2.385
 9720TIP3    H229125   4.499   2.596   2.429
 9721TIP3   OH229126   5.512   2.645   4.814
 9721TIP3    H129127   5.424   2.609   4.802
 9721TIP3    H229128   5.566   2.570   4.839
 9722TIP3   OH229129   0.377   5.523   2.115
 9722TIP3    H129130   0.354   5.514   2.208
 9722TIP3    H229131   0.298   5.500   2.068
 9723TIP3   OH229132   0.758   5.617   3.526
 9723TIP3    H129133   0.677   5.573   3.498
 9723TIP3    H229134   0.824   5.585   3.465
 9724TIP3   OH229135   4.388   6.025   1.692
 9724TIP3    H129136   4.350   6.076   1.764
 9724TIP3    H229137   4.380   6.082   1.615
 9725TIP3   OH229138   6.580   1.774   3.078
 9725TIP3    H129139   6.674   1.773   3.060
 9725TIP3    H229140   6.559   1.684   3.103
 9726TIP3   OH229141   4.667   3.141   1.278
 9726TIP3    H129142   4.693   3.176   1.363
 9726TIP3    H229143   4.615   3.211   1.238
 9727TIP3   OH229144   3.734   3.857   2.830
 9727TIP3    H129145   3.683   3.913   2.889
 9727TIP3    H229146   3.769   3.788   2.887
 9728TIP3   OH229147   6.840   6.646   4.613
 9728TIP3    H129148   6.745   6.659   4.612
 9728TIP3    H229149   6.874   6.721   4.660
 9729TIP3   OH229150   1.645   6.759   4.148
 9729TIP3    H129151   1.712   6.699   4.115
 9729TIP3    H229152   1.648   6.749   4.243
 9730TIP3   OH229153   3.823   1.791   3.240
 9730TIP3    H129154   3.867   1.875   3.254
 9730TIP3    H229155   3.730   1.813   3.234
 9731TIP3   OH229156   5.939   0.656   4.820
 9731TIP3    H129157   5.979   0.740   4.796
 9731TIP3    H229158   5.966   0.596   4.752
 9732TIP3   OH229159   0.403   3.717   3.204
 9732TIP3    H129160   0.493   3.727   3.233
 9732TIP3    H229161   0.363   3.803   3.219
 9733TIP3   OH229162   5.826   3.510   2.230
 9733TIP3    H129163   5.861   3.472   2.150
 9733TIP3    H229164   5.802   3.600   2.206
 9734TIP3   OH229165   5.425   2.997   1.603
 9734TIP3    H129166   5.504   3.016   1.553
 9734TIP3    H229167   5.440   2.910   1.639
 9735TIP3   OH229168   2.291   1.141   3.416
 9735TIP3    H129169   2.313   1.054   3.450
 9735TIP3    H229170   2.227   1.176   3.478
 9736TIP3   OH229171   0.291   5.506   5.117
 9736TIP3    H129172   0.336   5.577   5.163
 9736TIP3    H229173   0.347   5.484   5.043
 9737TIP3   OH229174   2.213   5.222   4.427
 9737TIP3    H129175   2.142   5.278   4.459
 9737TIP3    H229176   2.243   5.174   4.504
 9738TIP3   OH229177   2.331   4.084   1.921
 9738TIP3    H129178   2.269   4.119   1.985
 9738TIP3    H229179   2.382   4.160   1.894
 9739TIP3   OH229180  -0.018   5.541   4.024
 9739TIP3    H129181   0.059   5.503   4.067
 9739TIP3    H229182  -0.090   5.481   4.046
 9740TIP3   OH229183   3.338   0.035   3.956
 9740TIP3    H129184   3.419   0.017   3.907
 9740TIP3    H229185   3.365   0.097   4.024
 9741TIP3   OH229186   1.297   1.991   2.858
 9741TIP3    H129187   1.285   1.945   2.941
 9741TIP3    H229188   1.217   1.972   2.808
 9742TIP3   OH229189   3.565   2.896   0.838
 9742TIP3    H129190   3.542   2.964   0.902
 9742TIP3    H229191   3.647   2.926   0.799
 9743TIP3   OH229192   4.473   5.737   0.223
 9743TIP3    H129193   4.552   5.688   0.200
 9743TIP3    H229194   4.449   5.705   0.310
 9744TIP3   OH229195   5.932   0.805   4.071
 9744TIP3    H129196   5.841   0.823   4.094
 9744TIP3    H229197   5.971   0.891   4.055
 9745TIP3   OH229198   6.359   2.200   2.473
 9745TIP3    H129199   6.388   2.162   2.556
 9745TIP3    H229200   6.318   2.283   2.498
 9746TIP3   OH229201   6.190   2.585   1.964
 9746TIP3    H129202   6.130   2.533   2.018
 9746TIP3    H229203   6.161   2.675   1.977
 9747TIP3   OH229204   1.895   6.436   0.707
 9747TIP3    H129205   1.924   6.522   0.677
 9747TIP3    H229206   1.886   6.384   0.627
 9748TIP3   OH229207   5.018   3.309  -0.004
 9748TIP3    H129208   4.933   3.282   0.031
 9748TIP3    H229209   5.043   3.239  -0.063
 9749TIP3   OH229210   4.749   4.580   0.060
 9749TIP3    H129211   4.808   4.519   0.102
 9749TIP3    H229212   4.795   4.664   0.061
   7.22273   6.80966   5.89732   0.00000   0.00000  -2.40758   0.00000  -2.40758  -3.40482
